<event>
 7    1  0.1738451E-005  0.5253210E+03  0.7546771E-02  0.9344869E-01
        -11   -1    0    0    0    0  0.00000000000E+00  0.00000000000E+00  0.50000000000E+03  0.50000000000E+03  0.00000000000E+00 0.  1.
         11   -1    0    0    0    0 -0.00000000000E+00 -0.00000000000E+00 -0.50000000000E+03  0.50000000000E+03  0.00000000000E+00 0.  1.
         25    2    1    2    0    0  0.24563375613E+02 -0.38959032569E+02  0.15704523186E+03  0.20593019279E+03  0.12499149496E+03 0.  0.
        -11    1    1    2    0    0 -0.40717798780E+02  0.11632538181E+02  0.31657108829E+03  0.31939084054E+03  0.00000000000E+00 0.  1.
         11    1    1    2    0    0  0.16154423167E+02  0.27326494388E+02 -0.47361632015E+03  0.47467896667E+03  0.00000000000E+00 0.  1.
        -15    1    3    3    0    0 -0.27845676777E+02 -0.19673191330E+02 -0.50166751348E+01  0.34507114204E+02  0.17770000000E+01 0. -1.
         15    1    3    3    0    0  0.52409052389E+02 -0.19285841238E+02  0.16206190700E+03  0.17142307859E+03  0.17770000000E+01 0. -1.
</event>
<event>
 7    1  0.1738451E-005  0.4085424E+03  0.7546771E-02  0.9631492E-01
        -11   -1    0    0    0    0  0.00000000000E+00  0.00000000000E+00  0.50000000000E+03  0.50000000000E+03  0.00000000000E+00 0. -1.
         11   -1    0    0    0    0 -0.00000000000E+00 -0.00000000000E+00 -0.50000000000E+03  0.50000000000E+03  0.00000000000E+00 0.  1.
         25    2    1    2    0    0 -0.47749377246E+02 -0.10124350837E+03  0.46029772950E+02  0.17399962173E+03  0.12500750918E+03 0.  0.
        -11    1    1    2    0    0 -0.36989843328E+02  0.20263972349E+03  0.35131914470E+03  0.40725452420E+03  0.00000000000E+00 0. -1.
         11    1    1    2    0    0  0.84739220573E+02 -0.10139621512E+03 -0.39734891765E+03  0.41874585407E+03  0.00000000000E+00 0.  1.
        -15    1    3    3    0    0 -0.21289935990E+02  0.24459993862E+02 -0.97997237793E+01  0.33922632406E+02  0.17770000000E+01 0.  1.
         15    1    3    3    0    0 -0.26459441256E+02 -0.12570350223E+03  0.55829496729E+02  0.14007698933E+03  0.17770000000E+01 0.  1.
</event>
<event>
 7    1  0.1738451E-005  0.5469321E+03  0.7546771E-02  0.9300515E-01
        -11   -1    0    0    0    0  0.00000000000E+00  0.00000000000E+00  0.50000000000E+03  0.50000000000E+03  0.00000000000E+00 0.  1.
         11   -1    0    0    0    0 -0.00000000000E+00 -0.00000000000E+00 -0.50000000000E+03  0.50000000000E+03  0.00000000000E+00 0.  1.
         25    2    1    2    0    0  0.10880584670E+03 -0.14829472802E+03 -0.20505530546E+03  0.30249426395E+03  0.12500025116E+03 0.  0.
        -11    1    1    2    0    0 -0.32228493135E+02  0.12060227831E+03  0.43553065301E+03  0.45306791435E+03  0.00000000000E+00 0.  1.
         11    1    1    2    0    0 -0.76577353565E+02  0.27692449716E+02 -0.23047534755E+03  0.24443782170E+03  0.00000000000E+00 0.  1.
        -15    1    3    3    0    0  0.73154286218E+02 -0.56086624459E+02 -0.22533850048E+02  0.94911491202E+02  0.17770000000E+01 0. -1.
         15    1    3    3    0    0  0.35651560482E+02 -0.92208103564E+02 -0.18252145541E+03  0.20758277275E+03  0.17770000000E+01 0. -1.
</event>
<event>
 7    1  0.1738451E-005  0.3691356E+03  0.7546771E-02  0.9752266E-01
        -11   -1    0    0    0    0  0.00000000000E+00  0.00000000000E+00  0.50000000000E+03  0.50000000000E+03  0.00000000000E+00 0.  1.
         11   -1    0    0    0    0 -0.00000000000E+00 -0.00000000000E+00 -0.50000000000E+03  0.50000000000E+03  0.00000000000E+00 0. -1.
         25    2    1    2    0    0  0.14278082613E+03  0.87437430385E+02  0.10819000789E+03  0.23529023373E+03  0.12499899095E+03 0.  0.
        -11    1    1    2    0    0 -0.24539594795E+02 -0.70013957513E+02  0.31569604691E+03  0.32429637678E+03  0.00000000000E+00 0.  1.
         11    1    1    2    0    0 -0.11824123133E+03 -0.17423472872E+02 -0.42388605480E+03  0.44041338949E+03  0.00000000000E+00 0. -1.
        -15    1    3    3    0    0  0.37726171613E+02  0.95887781050E+02  0.61411510062E+02  0.11996775349E+03  0.17770000000E+01 0.  1.
         15    1    3    3    0    0  0.10505465451E+03 -0.84503506648E+01  0.46778497828E+02  0.11532248024E+03  0.17770000000E+01 0.  1.
</event>
<event>
 7    1  0.1738451E-005  0.4039928E+03  0.7546771E-02  0.9644676E-01
        -11   -1    0    0    0    0  0.00000000000E+00  0.00000000000E+00  0.50000000000E+03  0.50000000000E+03  0.00000000000E+00 0. -1.
         11   -1    0    0    0    0 -0.00000000000E+00 -0.00000000000E+00 -0.50000000000E+03  0.50000000000E+03  0.00000000000E+00 0. -1.
         25    2    1    2    0    0  0.12248758459E+03  0.86423332378E+01  0.46905850573E+02  0.18139215716E+03  0.12500023023E+03 0.  0.
        -11    1    1    2    0    0 -0.98753435860E+02 -0.61041060595E+02  0.37512268640E+03  0.39267707092E+03  0.00000000000E+00 0. -1.
         11    1    1    2    0    0 -0.23734148735E+02  0.52398727357E+02 -0.42202853698E+03  0.42593077192E+03  0.00000000000E+00 0. -1.
        -15    1    3    3    0    0  0.67691378110E+01 -0.25198894769E+02  0.54629287171E+02  0.60566676235E+02  0.17770000000E+01 0.  1.
         15    1    3    3    0    0  0.11571844678E+03  0.33841228007E+02 -0.77234365982E+01  0.12082548093E+03  0.17770000000E+01 0.  1.
</event>
<event>
 7    1  0.1738451E-005  0.5441992E+03  0.7546771E-02  0.9306003E-01
        -11   -1    0    0    0    0  0.00000000000E+00  0.00000000000E+00  0.50000000000E+03  0.50000000000E+03  0.00000000000E+00 0. -1.
         11   -1    0    0    0    0 -0.00000000000E+00 -0.00000000000E+00 -0.50000000000E+03  0.50000000000E+03  0.00000000000E+00 0. -1.
         25    2    1    2    0    0  0.13968407262E+02 -0.11416989313E+02  0.44070374273E+02  0.13377035937E+03  0.12500738823E+03 0.  0.
        -11    1    1    2    0    0 -0.13422877475E+00 -0.49237941589E+02  0.40746469714E+03  0.41042888827E+03  0.00000000000E+00 0. -1.
         11    1    1    2    0    0 -0.13834178487E+02  0.60654930902E+02 -0.45153507141E+03  0.45580075236E+03  0.00000000000E+00 0. -1.
        -15    1    3    3    0    0 -0.33871925043E+01 -0.64249397607E+02  0.26693551083E+01  0.64418486101E+02  0.17770000000E+01 0.  1.
         15    1    3    3    0    0  0.17355599766E+02  0.52832408293E+02  0.41401019165E+02  0.69351873271E+02  0.17770000000E+01 0.  1.
</event>
<event>
 6    1  0.1738451E-005  0.5325464E+03  0.7546771E-02  0.9329792E-01
        -11   -1    0    0    0    0  0.00000000000E+00  0.00000000000E+00  0.50000000000E+03  0.50000000000E+03  0.00000000000E+00 0. -1.
         11   -1    0    0    0    0 -0.00000000000E+00 -0.00000000000E+00 -0.50000000000E+03  0.50000000000E+03  0.00000000000E+00 0. -1.
        -11    1    1    2    0    0  0.80444092093E+02 -0.15179612207E+02  0.46022954227E+03  0.46745363851E+03  0.00000000000E+00 0. -1.
         11    1    1    2    0    0 -0.76023579464E+02 -0.28492797403E+02 -0.35008485250E+03  0.35937560865E+03  0.00000000000E+00 0. -1.
        -15    1    1    2    0    0  0.29715985335E+02 -0.23351682010E+02  0.22681961809E+01  0.37903077448E+02  0.17770000000E+01 0.  1.
         15    1    1    2    0    0 -0.34136497964E+02  0.67024091620E+02 -0.11241288595E+03  0.13526767539E+03  0.17770000000E+01 0. -1.
</event>
<event>
 7    1  0.1738451E-005  0.3541793E+03  0.7546771E-02  0.9802404E-01
        -11   -1    0    0    0    0  0.00000000000E+00  0.00000000000E+00  0.50000000000E+03  0.50000000000E+03  0.00000000000E+00 0. -1.
         11   -1    0    0    0    0 -0.00000000000E+00 -0.00000000000E+00 -0.50000000000E+03  0.50000000000E+03  0.00000000000E+00 0. -1.
         25    2    1    2    0    0  0.78349552850E+02 -0.14016375596E+03  0.15684952856E+03  0.25692659126E+03  0.12499987108E+03 0.  0.
        -11    1    1    2    0    0 -0.11081547668E+03  0.14762855445E+02  0.27253617891E+03  0.29457423612E+03  0.00000000000E+00 0. -1.
         11    1    1    2    0    0  0.32465923830E+02  0.12540090051E+03 -0.42938570747E+03  0.44849917262E+03  0.00000000000E+00 0. -1.
        -15    1    3    3    0    0  0.82516023896E+02 -0.14633709167E+03  0.17169661412E+03  0.24022140543E+03  0.17770000000E+01 0. -1.
         15    1    3    3    0    0 -0.41664710459E+01  0.61733357145E+01 -0.14847085561E+02  0.16705185826E+02  0.17770000000E+01 0. -1.
</event>
<event>
 7    1  0.1738451E-005  0.4314444E+03  0.7546771E-02  0.9567799E-01
        -11   -1    0    0    0    0  0.00000000000E+00  0.00000000000E+00  0.50000000000E+03  0.50000000000E+03  0.00000000000E+00 0.  1.
         11   -1    0    0    0    0 -0.00000000000E+00 -0.00000000000E+00 -0.50000000000E+03  0.50000000000E+03  0.00000000000E+00 0. -1.
         25    2    1    2    0    0 -0.52333503751E+02  0.12421318598E+01  0.14345841911E+01  0.13552349509E+03  0.12499688470E+03 0.  0.
        -11    1    1    2    0    0  0.22408444857E+02 -0.17514186683E+02  0.43038089772E+03  0.43131960570E+03  0.00000000000E+00 0.  1.
         11    1    1    2    0    0  0.29925058893E+02  0.16272054823E+02 -0.43181548191E+03  0.43315689921E+03  0.00000000000E+00 0. -1.
        -15    1    3    3    0    0 -0.45030007768E+02  0.60398962508E+02 -0.51184631985E+01  0.75532063828E+02  0.17770000000E+01 0.  1.
         15    1    3    3    0    0 -0.73034959824E+01 -0.59156830648E+02  0.65530473896E+01  0.59991431263E+02  0.17770000000E+01 0.  1.
</event>
<event>
 7    1  0.1738451E-005  0.5459995E+03  0.7546771E-02  0.9302384E-01
        -11   -1    0    0    0    0  0.00000000000E+00  0.00000000000E+00  0.50000000000E+03  0.50000000000E+03  0.00000000000E+00 0. -1.
         11   -1    0    0    0    0 -0.00000000000E+00 -0.00000000000E+00 -0.50000000000E+03  0.50000000000E+03  0.00000000000E+00 0.  1.
         25    2    1    2    0    0  0.51065556920E+02 -0.87931368396E+01  0.57852187302E+02  0.14716315949E+03  0.12500043831E+03 0.  0.
        -11    1    1    2    0    0 -0.50390725722E+02 -0.28619035465E+02  0.39460374437E+03  0.39883629411E+03  0.00000000000E+00 0. -1.
         11    1    1    2    0    0 -0.67483119814E+00  0.37412172305E+02 -0.45245593167E+03  0.45400054640E+03  0.00000000000E+00 0.  1.
        -15    1    3    3    0    0  0.23290698897E+02 -0.54503568071E+02  0.70550139345E+02  0.92160596126E+02  0.17770000000E+01 0. -1.
         15    1    3    3    0    0  0.27774858023E+02  0.45710431231E+02 -0.12697952044E+02  0.55002563365E+02  0.17770000000E+01 0. -1.
</event>
<event>
 7    1  0.1738451E-005  0.5369033E+03  0.7546771E-02  0.9320822E-01
        -11   -1    0    0    0    0  0.00000000000E+00  0.00000000000E+00  0.50000000000E+03  0.50000000000E+03  0.00000000000E+00 0. -1.
         11   -1    0    0    0    0 -0.00000000000E+00 -0.00000000000E+00 -0.50000000000E+03  0.50000000000E+03  0.00000000000E+00 0. -1.
         25    2    1    2    0    0  0.17768254330E+03 -0.54873549171E+01  0.20380786721E+03  0.29793155663E+03  0.12499747376E+03 0.  0.
        -11    1    1    2    0    0 -0.13885260786E+02  0.89573062173E+02  0.22111395625E+03  0.23897178826E+03  0.00000000000E+00 0. -1.
         11    1    1    2    0    0 -0.16379728251E+03 -0.84085707256E+02 -0.42492182346E+03  0.46309665511E+03  0.00000000000E+00 0. -1.
        -15    1    3    3    0    0  0.56519275194E+01 -0.33255322304E+02  0.59972532502E+01  0.34307222589E+02  0.17770000000E+01 0. -1.
         15    1    3    3    0    0  0.17203061578E+03  0.27767967387E+02  0.19781061395E+03  0.26362433405E+03  0.17770000000E+01 0. -1.
</event>
<event>
 7    1  0.1738451E-005  0.5369731E+03  0.7546771E-02  0.9320680E-01
        -11   -1    0    0    0    0  0.00000000000E+00  0.00000000000E+00  0.50000000000E+03  0.50000000000E+03  0.00000000000E+00 0. -1.
         11   -1    0    0    0    0 -0.00000000000E+00 -0.00000000000E+00 -0.50000000000E+03  0.50000000000E+03  0.00000000000E+00 0. -1.
         25    2    1    2    0    0  0.81212931627E+02 -0.36659592678E+02  0.12842915279E+03  0.20014418525E+03  0.12499672636E+03 0.  0.
        -11    1    1    2    0    0 -0.36280122080E+02  0.40630764338E+02  0.33239528549E+03  0.33682893594E+03  0.00000000000E+00 0. -1.
         11    1    1    2    0    0 -0.44932809547E+02 -0.39711716602E+01 -0.46082443829E+03  0.46302687881E+03  0.00000000000E+00 0. -1.
        -15    1    3    3    0    0  0.10995617138E+02 -0.72559817906E+02  0.49399315443E+02  0.88483223642E+02  0.17770000000E+01 0. -1.
         15    1    3    3    0    0  0.70217314489E+02  0.35900225228E+02  0.79029837351E+02  0.11166096160E+03  0.17770000000E+01 0. -1.
</event>
<event>
 6    1  0.1738451E-005  0.5209090E+03  0.7546771E-02  0.9354202E-01
        -11   -1    0    0    0    0  0.00000000000E+00  0.00000000000E+00  0.50000000000E+03  0.50000000000E+03  0.00000000000E+00 0. -1.
         11   -1    0    0    0    0 -0.00000000000E+00 -0.00000000000E+00 -0.50000000000E+03  0.50000000000E+03  0.00000000000E+00 0.  1.
        -11    1    1    2    0    0  0.56936477487E+02  0.67026350312E+02  0.24015446189E+03  0.25575077648E+03  0.00000000000E+00 0. -1.
         11    1    1    2    0    0 -0.25885250318E+02 -0.88494162402E+02 -0.47013500812E+03  0.47909100266E+03  0.00000000000E+00 0.  1.
        -15    1    1    2    0    0 -0.36285951437E+02 -0.24365920934E+02  0.21059026625E+03  0.21508553262E+03  0.17770000000E+01 0. -1.
         15    1    1    2    0    0  0.52347242686E+01  0.45833733024E+02  0.19390279985E+02  0.50072688244E+02  0.17770000000E+01 0.  1.
</event>
<event>
 7    1  0.1738451E-005  0.5245631E+03  0.7546771E-02  0.9346465E-01
        -11   -1    0    0    0    0  0.00000000000E+00  0.00000000000E+00  0.50000000000E+03  0.50000000000E+03  0.00000000000E+00 0. -1.
         11   -1    0    0    0    0 -0.00000000000E+00 -0.00000000000E+00 -0.50000000000E+03  0.50000000000E+03  0.00000000000E+00 0.  1.
         25    2    1    2    0    0  0.46805123060E+02  0.35844982037E+02 -0.23662790794E+03  0.27403224922E+03  0.12500129805E+03 0.  0.
        -11    1    1    2    0    0  0.40463988848E+02 -0.91217737155E+02  0.46484642003E+03  0.47543685615E+03  0.00000000000E+00 0. -1.
         11    1    1    2    0    0 -0.87269111908E+02  0.55372755118E+02 -0.22821851209E+03  0.25053089463E+03  0.00000000000E+00 0.  1.
        -15    1    3    3    0    0 -0.20103162573E+02  0.54397728403E+02 -0.56534261554E+02  0.81009446729E+02  0.17770000000E+01 0. -1.
         15    1    3    3    0    0  0.66908285633E+02 -0.18552746367E+02 -0.18009364639E+03  0.19302280249E+03  0.17770000000E+01 0. -1.
</event>
<event>
 7    1  0.1738451E-005  0.3521355E+03  0.7546771E-02  0.9809461E-01
        -11   -1    0    0    0    0  0.00000000000E+00  0.00000000000E+00  0.50000000000E+03  0.50000000000E+03  0.00000000000E+00 0.  1.
         11   -1    0    0    0    0 -0.00000000000E+00 -0.00000000000E+00 -0.50000000000E+03  0.50000000000E+03  0.00000000000E+00 0.  1.
         25    2    1    2    0    0 -0.39174464559E+02  0.20083908356E+03 -0.10003741112E+03  0.25981340305E+03  0.12499817848E+03 0.  0.
        -11    1    1    2    0    0  0.66041762510E+01 -0.15847799894E+03  0.40271634888E+03  0.43282715828E+03  0.00000000000E+00 0.  1.
         11    1    1    2    0    0  0.32570288308E+02 -0.42361084618E+02 -0.30267893776E+03  0.30735943866E+03  0.00000000000E+00 0.  1.
        -15    1    3    3    0    0  0.16093574135E+01  0.18327859152E+03 -0.11067832270E+03  0.21411791374E+03  0.17770000000E+01 0.  1.
         15    1    3    3    0    0 -0.40783821973E+02  0.17560492045E+02  0.10640911578E+02  0.45695489316E+02  0.17770000000E+01 0.  1.
</event>
<event>
 7    1  0.1738451E-005  0.5296212E+03  0.7546771E-02  0.9335865E-01
        -11   -1    0    0    0    0  0.00000000000E+00  0.00000000000E+00  0.50000000000E+03  0.50000000000E+03  0.00000000000E+00 0.  1.
         11   -1    0    0    0    0 -0.00000000000E+00 -0.00000000000E+00 -0.50000000000E+03  0.50000000000E+03  0.00000000000E+00 0. -1.
         25    2    1    2    0    0  0.45421119481E+02 -0.40338147928E+02 -0.16113439171E+03  0.21277730419E+03  0.12497857702E+03 0.  0.
        -11    1    1    2    0    0 -0.12844925957E+02 -0.24454973292E+02  0.46956702430E+03  0.47037881346E+03  0.00000000000E+00 0.  1.
         11    1    1    2    0    0 -0.32576193524E+02  0.64793121221E+02 -0.30843263258E+03  0.31684388235E+03  0.00000000000E+00 0. -1.
        -15    1    3    3    0    0 -0.41768018823E+02 -0.10985041992E+02 -0.75933039647E+02  0.87374039525E+02  0.17770000000E+01 0. -1.
         15    1    3    3    0    0  0.87189138304E+02 -0.29353105936E+02 -0.85201352067E+02  0.12540326467E+03  0.17770000000E+01 0. -1.
</event>
<event>
 7    1  0.1738451E-005  0.5463827E+03  0.7546771E-02  0.9301616E-01
        -11   -1    0    0    0    0  0.00000000000E+00  0.00000000000E+00  0.50000000000E+03  0.50000000000E+03  0.00000000000E+00 0.  1.
         11   -1    0    0    0    0 -0.00000000000E+00 -0.00000000000E+00 -0.50000000000E+03  0.50000000000E+03  0.00000000000E+00 0. -1.
         25    2    1    2    0    0 -0.84678663786E+02 -0.14709272804E+00  0.82979357319E+02  0.17227980720E+03  0.12499704193E+03 0.  0.
        -11    1    1    2    0    0  0.56051771451E+02 -0.24950534654E+02  0.36903749253E+03  0.37410292856E+03  0.00000000000E+00 0.  1.
         11    1    1    2    0    0  0.28626892336E+02  0.25097627382E+02 -0.45201684985E+03  0.45361726424E+03  0.00000000000E+00 0. -1.
        -15    1    3    3    0    0 -0.17545662995E+01 -0.33485823486E+02 -0.17438777483E+02  0.37837118898E+02  0.17770000000E+01 0.  1.
         15    1    3    3    0    0 -0.82924097487E+02  0.33338730758E+02  0.10041813480E+03  0.13444268831E+03  0.17770000000E+01 0.  1.
</event>
<event>
 7    1  0.1738451E-005  0.4262410E+03  0.7546771E-02  0.9581894E-01
        -11   -1    0    0    0    0  0.00000000000E+00  0.00000000000E+00  0.50000000000E+03  0.50000000000E+03  0.00000000000E+00 0.  1.
         11   -1    0    0    0    0 -0.00000000000E+00 -0.00000000000E+00 -0.50000000000E+03  0.50000000000E+03  0.00000000000E+00 0.  1.
         25    2    1    2    0    0 -0.18040093344E+02  0.65760822681E+02  0.24304904278E+02  0.14444981246E+03  0.12500035673E+03 0.  0.
        -11    1    1    2    0    0  0.56807399877E+01 -0.32310317485E+02  0.41425041695E+03  0.41554739244E+03  0.00000000000E+00 0.  1.
         11    1    1    2    0    0  0.12359353356E+02 -0.33450505196E+02 -0.43855532123E+03  0.44000279509E+03  0.00000000000E+00 0.  1.
        -15    1    3    3    0    0 -0.36811607103E+02 -0.24522700109E+01 -0.35919974139E+02  0.51521940151E+02  0.17770000000E+01 0. -1.
         15    1    3    3    0    0  0.18771513759E+02  0.68213092692E+02  0.60224878417E+02  0.92927872314E+02  0.17770000000E+01 0. -1.
</event>
<event>
 7    1  0.1738451E-005  0.4291471E+03  0.7546771E-02  0.9573996E-01
        -11   -1    0    0    0    0  0.00000000000E+00  0.00000000000E+00  0.50000000000E+03  0.50000000000E+03  0.00000000000E+00 0.  1.
         11   -1    0    0    0    0 -0.00000000000E+00 -0.00000000000E+00 -0.50000000000E+03  0.50000000000E+03  0.00000000000E+00 0.  1.
         25    2    1    2    0    0  0.52313693693E+01  0.59053290412E+02  0.17753523890E+02  0.13947767891E+03  0.12499670783E+03 0.  0.
        -11    1    1    2    0    0 -0.84043334410E+01 -0.95124928653E+01  0.41988523050E+03  0.42007704905E+03  0.00000000000E+00 0.  1.
         11    1    1    2    0    0  0.31729640717E+01 -0.49540797547E+02 -0.43763875439E+03  0.44044527205E+03  0.00000000000E+00 0.  1.
        -15    1    3    3    0    0 -0.16428667668E+02 -0.18855873708E+02 -0.34895247931E+02  0.42968373856E+02  0.17770000000E+01 0.  1.
         15    1    3    3    0    0  0.21660037037E+02  0.77909164120E+02  0.52648771821E+02  0.96509305052E+02  0.17770000000E+01 0.  1.
</event>
<event>
 7    1  0.1738451E-005  0.4320916E+03  0.7546771E-02  0.9566061E-01
        -11   -1    0    0    0    0  0.00000000000E+00  0.00000000000E+00  0.50000000000E+03  0.50000000000E+03  0.00000000000E+00 0.  1.
         11   -1    0    0    0    0 -0.00000000000E+00 -0.00000000000E+00 -0.50000000000E+03  0.50000000000E+03  0.00000000000E+00 0.  1.
         25    2    1    2    0    0  0.31796886982E+02 -0.35382176972E+02 -0.13301183467E+02  0.13440620814E+03  0.12500066734E+03 0.  0.
        -11    1    1    2    0    0 -0.48677409798E+02  0.69942451960E+02  0.43443184283E+03  0.44271036003E+03  0.00000000000E+00 0.  1.
         11    1    1    2    0    0  0.16880522816E+02 -0.34560274988E+02 -0.42113065937E+03  0.42288343183E+03  0.00000000000E+00 0.  1.
        -15    1    3    3    0    0  0.18833202961E+02 -0.54859445381E+02 -0.59174813048E+02  0.82879819676E+02  0.17770000000E+01 0.  1.
         15    1    3    3    0    0  0.12963684021E+02  0.19477268409E+02  0.45873629580E+02  0.51526388462E+02  0.17770000000E+01 0.  1.
</event>
<event>
 7    1  0.1738451E-005  0.5242493E+03  0.7546771E-02  0.9347127E-01
        -11   -1    0    0    0    0  0.00000000000E+00  0.00000000000E+00  0.50000000000E+03  0.50000000000E+03  0.00000000000E+00 0.  1.
         11   -1    0    0    0    0 -0.00000000000E+00 -0.00000000000E+00 -0.50000000000E+03  0.50000000000E+03  0.00000000000E+00 0. -1.
         25    2    1    2    0    0 -0.51685242184E+02 -0.30342155579E+02  0.15911880948E+03  0.21101413047E+03  0.12496462326E+03 0.  0.
        -11    1    1    2    0    0  0.18850427468E+02 -0.50449932075E+02  0.30857046107E+03  0.31323515721E+03  0.00000000000E+00 0.  1.
         11    1    1    2    0    0  0.32834814716E+02  0.80792087654E+02 -0.46768927055E+03  0.47575071232E+03  0.00000000000E+00 0. -1.
        -15    1    3    3    0    0  0.32785069991E+02 -0.27290332735E+02  0.97377052063E+02  0.10632530777E+03  0.17770000000E+01 0.  1.
         15    1    3    3    0    0 -0.84470312175E+02 -0.30518228442E+01  0.61741757413E+02  0.10468882270E+03  0.17770000000E+01 0.  1.
</event>
<event>
 7    1  0.1738451E-005  0.4307190E+03  0.7546771E-02  0.9569752E-01
        -11   -1    0    0    0    0  0.00000000000E+00  0.00000000000E+00  0.50000000000E+03  0.50000000000E+03  0.00000000000E+00 0.  1.
         11   -1    0    0    0    0 -0.00000000000E+00 -0.00000000000E+00 -0.50000000000E+03  0.50000000000E+03  0.00000000000E+00 0.  1.
         25    2    1    2    0    0 -0.53693854346E+02  0.14034484644E+02  0.12342115128E+01  0.13677522695E+03  0.12500377064E+03 0.  0.
        -11    1    1    2    0    0  0.36319737872E+02 -0.36995143936E+02  0.42895323459E+03  0.43207481007E+03  0.00000000000E+00 0.  1.
         11    1    1    2    0    0  0.17374116474E+02  0.22960659291E+02 -0.43018744610E+03  0.43114996298E+03  0.00000000000E+00 0.  1.
        -15    1    3    3    0    0  0.32377325163E+02  0.35943004798E+01 -0.30275244264E+02  0.44507957995E+02  0.17770000000E+01 0. -1.
         15    1    3    3    0    0 -0.86071179509E+02  0.10440184165E+02  0.31509455777E+02  0.92267268951E+02  0.17770000000E+01 0. -1.
</event>
<event>
 7    1  0.1738451E-005  0.5481086E+03  0.7546771E-02  0.9298163E-01
        -11   -1    0    0    0    0  0.00000000000E+00  0.00000000000E+00  0.50000000000E+03  0.50000000000E+03  0.00000000000E+00 0.  1.
         11   -1    0    0    0    0 -0.00000000000E+00 -0.00000000000E+00 -0.50000000000E+03  0.50000000000E+03  0.00000000000E+00 0. -1.
         25    2    1    2    0    0  0.10486953419E+03  0.30356708027E+02  0.99661425147E+02  0.19358433251E+03  0.12499338065E+03 0.  0.
        -11    1    1    2    0    0 -0.43400606141E+02 -0.56750030685E+02  0.34725106260E+03  0.35452429969E+03  0.00000000000E+00 0.  1.
         11    1    1    2    0    0 -0.61468928047E+02  0.26393322658E+02 -0.44691248774E+03  0.45189136780E+03  0.00000000000E+00 0. -1.
        -15    1    3    3    0    0  0.25871709476E+02  0.48557314001E+02  0.98091542297E+02  0.11248229413E+03  0.17770000000E+01 0.  1.
         15    1    3    3    0    0  0.78997824712E+02 -0.18200605975E+02  0.15698828498E+01  0.81102038373E+02  0.17770000000E+01 0.  1.
</event>
<event>
 7    1  0.1738451E-005  0.4576274E+03  0.7546771E-02  0.9499956E-01
        -11   -1    0    0    0    0  0.00000000000E+00  0.00000000000E+00  0.50000000000E+03  0.50000000000E+03  0.00000000000E+00 0. -1.
         11   -1    0    0    0    0 -0.00000000000E+00 -0.00000000000E+00 -0.50000000000E+03  0.50000000000E+03  0.00000000000E+00 0. -1.
         25    2    1    2    0    0  0.69862706962E+02 -0.46754452798E+02  0.40144957649E+03  0.42878197091E+03  0.12500175772E+03 0.  0.
        -11    1    1    2    0    0 -0.57273074709E+02  0.29652118942E+02  0.72361595146E+02  0.96931180207E+02  0.00000000000E+00 0. -1.
         11    1    1    2    0    0 -0.12589632253E+02  0.17102333856E+02 -0.47381117163E+03  0.47428684889E+03  0.00000000000E+00 0. -1.
        -15    1    3    3    0    0 -0.28995479856E+02  0.15862150510E+02  0.10385288277E+03  0.10899965440E+03  0.17770000000E+01 0. -1.
         15    1    3    3    0    0  0.98858186818E+02 -0.62616603308E+02  0.29759669371E+03  0.31978231650E+03  0.17770000000E+01 0. -1.
</event>
<event>
 7    1  0.1738451E-005  0.5230196E+03  0.7546771E-02  0.9349725E-01
        -11   -1    0    0    0    0  0.00000000000E+00  0.00000000000E+00  0.50000000000E+03  0.50000000000E+03  0.00000000000E+00 0.  1.
         11   -1    0    0    0    0 -0.00000000000E+00 -0.00000000000E+00 -0.50000000000E+03  0.50000000000E+03  0.00000000000E+00 0. -1.
         25    2    1    2    0    0  0.81488293543E+02  0.52453593371E+02  0.14837663211E+03  0.21686678060E+03  0.12499541642E+03 0.  0.
        -11    1    1    2    0    0  0.53933050329E+02  0.52737921963E+02  0.29671448806E+03  0.30615282092E+03  0.00000000000E+00 0.  1.
         11    1    1    2    0    0 -0.13542134387E+03 -0.10519151533E+03 -0.44509112018E+03  0.47698039848E+03  0.00000000000E+00 0. -1.
        -15    1    3    3    0    0  0.37429627159E+02 -0.36333337933E+02  0.23010336475E+02  0.57041403808E+02  0.17770000000E+01 0. -1.
         15    1    3    3    0    0  0.44058666384E+02  0.88786931305E+02  0.12536629564E+03  0.15982537679E+03  0.17770000000E+01 0. -1.
</event>
<event>
 7    1  0.1738451E-005  0.5178438E+03  0.7546771E-02  0.9360745E-01
        -11   -1    0    0    0    0  0.00000000000E+00  0.00000000000E+00  0.50000000000E+03  0.50000000000E+03  0.00000000000E+00 0. -1.
         11   -1    0    0    0    0 -0.00000000000E+00 -0.00000000000E+00 -0.50000000000E+03  0.50000000000E+03  0.00000000000E+00 0. -1.
         25    2    1    2    0    0 -0.10363849711E+02  0.62325854679E+02 -0.22443799547E+03  0.26455324773E+03  0.12499634207E+03 0.  0.
        -11    1    1    2    0    0 -0.14183718121E+02 -0.73695903264E+02  0.47627969056E+03  0.48215620670E+03  0.00000000000E+00 0. -1.
         11    1    1    2    0    0  0.24547567832E+02  0.11370048585E+02 -0.25184169509E+03  0.25329054557E+03  0.00000000000E+00 0. -1.
        -15    1    3    3    0    0  0.37995216192E+02  0.77720494433E+02 -0.11509462074E+03  0.14399319831E+03  0.17770000000E+01 0.  1.
         15    1    3    3    0    0 -0.48359065902E+02 -0.15394639754E+02 -0.10934337473E+03  0.12056004942E+03  0.17770000000E+01 0.  1.
</event>
<event>
 7    1  0.1738451E-005  0.5387935E+03  0.7546771E-02  0.9316959E-01
        -11   -1    0    0    0    0  0.00000000000E+00  0.00000000000E+00  0.50000000000E+03  0.50000000000E+03  0.00000000000E+00 0. -1.
         11   -1    0    0    0    0 -0.00000000000E+00 -0.00000000000E+00 -0.50000000000E+03  0.50000000000E+03  0.00000000000E+00 0. -1.
         25    2    1    2    0    0  0.22585845262E+02 -0.80615084800E+02  0.90407621152E+02  0.17551953075E+03  0.12499862163E+03 0.  0.
        -11    1    1    2    0    0 -0.24400713197E+02 -0.70610976461E+01  0.36238481442E+03  0.36327401177E+03  0.00000000000E+00 0. -1.
         11    1    1    2    0    0  0.18148679350E+01  0.87676182446E+02 -0.45279243557E+03  0.46120645748E+03  0.00000000000E+00 0. -1.
        -15    1    3    3    0    0  0.25151973421E+02  0.30305616567E+02  0.21600640973E+02  0.44953282216E+02  0.17770000000E+01 0.  1.
         15    1    3    3    0    0 -0.25661281590E+01 -0.11092070137E+03  0.68806980180E+02  0.13056624853E+03  0.17770000000E+01 0.  1.
</event>
<event>
 7    1  0.1738451E-005  0.5256903E+03  0.7546771E-02  0.9344092E-01
        -11   -1    0    0    0    0  0.00000000000E+00  0.00000000000E+00  0.50000000000E+03  0.50000000000E+03  0.00000000000E+00 0. -1.
         11   -1    0    0    0    0 -0.00000000000E+00 -0.00000000000E+00 -0.50000000000E+03  0.50000000000E+03  0.00000000000E+00 0.  1.
         25    2    1    2    0    0  0.98123728808E+02 -0.13780624168E+02 -0.19713846386E+03  0.25358735063E+03  0.12499919483E+03 0.  0.
        -11    1    1    2    0    0 -0.74702072411E+02  0.52927609113E+02  0.46539012139E+03  0.47430970527E+03  0.00000000000E+00 0. -1.
         11    1    1    2    0    0 -0.23421656396E+02 -0.39146984945E+02 -0.26825165753E+03  0.27210294410E+03  0.00000000000E+00 0.  1.
        -15    1    3    3    0    0  0.25645312507E+02  0.24642700258E+02 -0.15929762919E+03  0.16322940030E+03  0.17770000000E+01 0.  1.
         15    1    3    3    0    0  0.72478416301E+02 -0.38423324426E+02 -0.37840834677E+02  0.90357950328E+02  0.17770000000E+01 0.  1.
</event>
<event>
 7    1  0.1738451E-005  0.5233744E+03  0.7546771E-02  0.9348975E-01
        -11   -1    0    0    0    0  0.00000000000E+00  0.00000000000E+00  0.50000000000E+03  0.50000000000E+03  0.00000000000E+00 0. -1.
         11   -1    0    0    0    0 -0.00000000000E+00 -0.00000000000E+00 -0.50000000000E+03  0.50000000000E+03  0.00000000000E+00 0. -1.
         25    2    1    2    0    0  0.48016765370E+02 -0.15215126402E+02  0.13521527715E+03  0.19090819824E+03  0.12500263658E+03 0.  0.
        -11    1    1    2    0    0  0.96652622871E+02 -0.26871812897E+02  0.31696991902E+03  0.33246616881E+03  0.00000000000E+00 0. -1.
         11    1    1    2    0    0 -0.14466938824E+03  0.42086939298E+02 -0.45218519617E+03  0.47662563296E+03  0.00000000000E+00 0. -1.
        -15    1    3    3    0    0  0.24508453876E+02  0.54796834293E+02  0.71304643129E+02  0.93224820840E+02  0.17770000000E+01 0. -1.
         15    1    3    3    0    0  0.23508311494E+02 -0.70011960695E+02  0.63910634021E+02  0.97683377396E+02  0.17770000000E+01 0. -1.
</event>
<event>
 7    1  0.1738451E-005  0.5308450E+03  0.7546771E-02  0.9333319E-01
        -11   -1    0    0    0    0  0.00000000000E+00  0.00000000000E+00  0.50000000000E+03  0.50000000000E+03  0.00000000000E+00 0. -1.
         11   -1    0    0    0    0 -0.00000000000E+00 -0.00000000000E+00 -0.50000000000E+03  0.50000000000E+03  0.00000000000E+00 0.  1.
         25    2    1    2    0    0  0.10455895625E+03 -0.25586323631E+01  0.12747706733E+03  0.20691588248E+03  0.12499863118E+03 0.  0.
        -11    1    1    2    0    0  0.34238764083E+02  0.51016259854E+02  0.31804895774E+03  0.32392914542E+03  0.00000000000E+00 0. -1.
         11    1    1    2    0    0 -0.13879772033E+03 -0.48457627491E+02 -0.44552602507E+03  0.46915497210E+03  0.00000000000E+00 0.  1.
        -15    1    3    3    0    0  0.62345832893E+02  0.17563015524E+02 -0.63839948601E+01  0.65110486965E+02  0.17770000000E+01 0. -1.
         15    1    3    3    0    0  0.42213123354E+02 -0.20121647887E+02  0.13386106219E+03  0.14180539551E+03  0.17770000000E+01 0. -1.
</event>
<event>
 7    1  0.1738451E-005  0.5426528E+03  0.7546771E-02  0.9309124E-01
        -11   -1    0    0    0    0  0.00000000000E+00  0.00000000000E+00  0.50000000000E+03  0.50000000000E+03  0.00000000000E+00 0. -1.
         11   -1    0    0    0    0 -0.00000000000E+00 -0.00000000000E+00 -0.50000000000E+03  0.50000000000E+03  0.00000000000E+00 0. -1.
         25    2    1    2    0    0 -0.67138659944E+02 -0.36937597418E+02  0.83068233053E+02  0.16851046274E+03  0.12499383564E+03 0.  0.
        -11    1    1    2    0    0  0.46325402830E+02 -0.13430102350E+02  0.37102029277E+03  0.37414231015E+03  0.00000000000E+00 0. -1.
         11    1    1    2    0    0  0.20813257114E+02  0.50367699768E+02 -0.45408852583E+03  0.45734722710E+03  0.00000000000E+00 0. -1.
        -15    1    3    3    0    0 -0.41242855063E+02  0.44754083134E+02  0.33467347003E+02  0.69477493444E+02  0.17770000000E+01 0.  1.
         15    1    3    3    0    0 -0.25895804881E+02 -0.81691680552E+02  0.49600886050E+02  0.99032969297E+02  0.17770000000E+01 0.  1.
</event>
<event>
 7    1  0.1738451E-005  0.4159167E+03  0.7546771E-02  0.9610507E-01
        -11   -1    0    0    0    0  0.00000000000E+00  0.00000000000E+00  0.50000000000E+03  0.50000000000E+03  0.00000000000E+00 0.  1.
         11   -1    0    0    0    0 -0.00000000000E+00 -0.00000000000E+00 -0.50000000000E+03  0.50000000000E+03  0.00000000000E+00 0. -1.
         25    2    1    2    0    0  0.24689932873E+02  0.98495871480E+02  0.15902465190E+02  0.16184078482E+03  0.12501408620E+03 0.  0.
        -11    1    1    2    0    0 -0.23501618735E+02  0.11381504491E+02  0.40363065373E+03  0.40447443598E+03  0.00000000000E+00 0.  1.
         11    1    1    2    0    0 -0.11883141378E+01 -0.10987737597E+03 -0.41953311892E+03  0.43368477920E+03  0.00000000000E+00 0. -1.
        -15    1    3    3    0    0  0.24121077392E+01  0.12388698030E+03 -0.12183226414E+01  0.12392919023E+03  0.17770000000E+01 0.  1.
         15    1    3    3    0    0  0.22277825133E+02 -0.25391108820E+02  0.17120787831E+02  0.37911594595E+02  0.17770000000E+01 0.  1.
</event>
<event>
 7    1  0.1738451E-005  0.5184066E+03  0.7546771E-02  0.9359540E-01
        -11   -1    0    0    0    0  0.00000000000E+00  0.00000000000E+00  0.50000000000E+03  0.50000000000E+03  0.00000000000E+00 0.  1.
         11   -1    0    0    0    0 -0.00000000000E+00 -0.00000000000E+00 -0.50000000000E+03  0.50000000000E+03  0.00000000000E+00 0.  1.
         25    2    1    2    0    0 -0.58344472398E+02 -0.47224694154E+02  0.26733266034E+03  0.30451180512E+03  0.12500575577E+03 0.  0.
        -11    1    1    2    0    0 -0.18966461073E+02  0.46061603195E+02  0.20801340893E+03  0.21389477841E+03  0.00000000000E+00 0.  1.
         11    1    1    2    0    0  0.77310933471E+02  0.11630909589E+01 -0.47534606927E+03  0.48159341647E+03  0.00000000000E+00 0.  1.
        -15    1    3    3    0    0 -0.85568123856E+02  0.29228022422E+01  0.18983818852E+03  0.20825979483E+03  0.17770000000E+01 0. -1.
         15    1    3    3    0    0  0.27223651458E+02 -0.50147496396E+02  0.77494471823E+02  0.96252010294E+02  0.17770000000E+01 0. -1.
</event>
<event>
 7    1  0.1738451E-005  0.5277084E+03  0.7546771E-02  0.9339859E-01
        -11   -1    0    0    0    0  0.00000000000E+00  0.00000000000E+00  0.50000000000E+03  0.50000000000E+03  0.00000000000E+00 0.  1.
         11   -1    0    0    0    0 -0.00000000000E+00 -0.00000000000E+00 -0.50000000000E+03  0.50000000000E+03  0.00000000000E+00 0. -1.
         25    2    1    2    0    0 -0.38010613819E+02 -0.62284991292E+01  0.14443817191E+03  0.19485031806E+03  0.12498263871E+03 0.  0.
        -11    1    1    2    0    0  0.60196836002E+02 -0.33214115577E+02  0.32568032219E+03  0.33285809108E+03  0.00000000000E+00 0.  1.
         11    1    1    2    0    0 -0.22186222184E+02  0.39442614707E+02 -0.47011849409E+03  0.47229159086E+03  0.00000000000E+00 0. -1.
        -15    1    3    3    0    0 -0.69283410504E+02 -0.31678031368E+02  0.13235048546E+03  0.15272032403E+03  0.17770000000E+01 0. -1.
         15    1    3    3    0    0  0.31272796686E+02  0.25449532239E+02  0.12087686449E+02  0.42129994024E+02  0.17770000000E+01 0. -1.
</event>
<event>
 7    1  0.1738451E-005  0.5176447E+03  0.7546771E-02  0.9361171E-01
        -11   -1    0    0    0    0  0.00000000000E+00  0.00000000000E+00  0.50000000000E+03  0.50000000000E+03  0.00000000000E+00 0. -1.
         11   -1    0    0    0    0 -0.00000000000E+00 -0.00000000000E+00 -0.50000000000E+03  0.50000000000E+03  0.00000000000E+00 0. -1.
         25    2    1    2    0    0  0.67649214234E+02 -0.68729557089E+01  0.23085623223E+03  0.27118764708E+03  0.12499794503E+03 0.  0.
        -11    1    1    2    0    0  0.33566891369E+01  0.99228632909E+01  0.24623438039E+03  0.24645709701E+03  0.00000000000E+00 0. -1.
         11    1    1    2    0    0 -0.71005903371E+02 -0.30499075820E+01 -0.47709061263E+03  0.48235525591E+03  0.00000000000E+00 0. -1.
        -15    1    3    3    0    0  0.12229990160E+02  0.32105949443E+02  0.18772264570E+03  0.19084893001E+03  0.17770000000E+01 0.  1.
         15    1    3    3    0    0  0.55419224075E+02 -0.38978905152E+02  0.43133586531E+02  0.80338717067E+02  0.17770000000E+01 0.  1.
</event>
<event>
 7    1  0.1738451E-005  0.5200108E+03  0.7546771E-02  0.9356115E-01
        -11   -1    0    0    0    0  0.00000000000E+00  0.00000000000E+00  0.50000000000E+03  0.50000000000E+03  0.00000000000E+00 0.  1.
         11   -1    0    0    0    0 -0.00000000000E+00 -0.00000000000E+00 -0.50000000000E+03  0.50000000000E+03  0.00000000000E+00 0.  1.
         25    2    1    2    0    0  0.22985318100E+02  0.53925656218E+02  0.28153688566E+03  0.31356894677E+03  0.12500466049E+03 0.  0.
        -11    1    1    2    0    0 -0.47065350087E+01 -0.57943931066E+02  0.19808731851E+03  0.20644184744E+03  0.00000000000E+00 0.  1.
         11    1    1    2    0    0 -0.18278783091E+02  0.40182748485E+01 -0.47962420417E+03  0.47998920579E+03  0.00000000000E+00 0.  1.
        -15    1    3    3    0    0 -0.37604860789E+02  0.72959754234E+01  0.24761818248E+02  0.45647148698E+02  0.17770000000E+01 0. -1.
         15    1    3    3    0    0  0.60590178888E+02  0.46629680794E+02  0.25677506741E+03  0.26792179807E+03  0.17770000000E+01 0. -1.
</event>
<event>
 7    1  0.1738451E-005  0.5537376E+03  0.7546771E-02  0.9286996E-01
        -11   -1    0    0    0    0  0.00000000000E+00  0.00000000000E+00  0.50000000000E+03  0.50000000000E+03  0.00000000000E+00 0. -1.
         11   -1    0    0    0    0 -0.00000000000E+00 -0.00000000000E+00 -0.50000000000E+03  0.50000000000E+03  0.00000000000E+00 0. -1.
         25    2    1    2    0    0 -0.16224339510E+02 -0.77685572129E+01 -0.19469492060E+02  0.12777659050E+03  0.12499686510E+03 0.  0.
        -11    1    1    2    0    0  0.98661558914E+01  0.54538028086E+02  0.44280739178E+03  0.44626239339E+03  0.00000000000E+00 0. -1.
         11    1    1    2    0    0  0.63581836190E+01 -0.46769470873E+02 -0.42333789972E+03  0.42596101611E+03  0.00000000000E+00 0. -1.
        -15    1    3    3    0    0 -0.51309763339E+02 -0.48364824914E+02  0.39053461012E+00  0.70534802397E+02  0.17770000000E+01 0. -1.
         15    1    3    3    0    0  0.35085423829E+02  0.40596267702E+02 -0.19860026670E+02  0.57241788100E+02  0.17770000000E+01 0. -1.
</event>
<event>
 7    1  0.1738451E-005  0.5348306E+03  0.7546771E-02  0.9325078E-01
        -11   -1    0    0    0    0  0.00000000000E+00  0.00000000000E+00  0.50000000000E+03  0.50000000000E+03  0.00000000000E+00 0.  1.
         11   -1    0    0    0    0 -0.00000000000E+00 -0.00000000000E+00 -0.50000000000E+03  0.50000000000E+03  0.00000000000E+00 0.  1.
         25    2    1    2    0    0 -0.64697323702E+02  0.78624084814E+02 -0.16164553544E+03  0.22830216769E+03  0.12500044095E+03 0.  0.
        -11    1    1    2    0    0  0.33601887008E+02 -0.31295709873E+02  0.46289750875E+03  0.46516944426E+03  0.00000000000E+00 0.  1.
         11    1    1    2    0    0  0.31095436694E+02 -0.47328374941E+02 -0.30125197331E+03  0.30652838805E+03  0.00000000000E+00 0.  1.
        -15    1    3    3    0    0 -0.41645871661E+02  0.10934169884E+03 -0.14520703260E+03  0.18648921088E+03  0.17770000000E+01 0. -1.
         15    1    3    3    0    0 -0.23051452040E+02 -0.30717614023E+02 -0.16438502843E+02  0.41812956809E+02  0.17770000000E+01 0. -1.
</event>
<event>
 7    1  0.1738451E-005  0.5201484E+03  0.7546771E-02  0.9355821E-01
        -11   -1    0    0    0    0  0.00000000000E+00  0.00000000000E+00  0.50000000000E+03  0.50000000000E+03  0.00000000000E+00 0. -1.
         11   -1    0    0    0    0 -0.00000000000E+00 -0.00000000000E+00 -0.50000000000E+03  0.50000000000E+03  0.00000000000E+00 0.  1.
         25    2    1    2    0    0  0.72177223917E+02  0.43415404998E+02 -0.23225290784E+03  0.27687681979E+03  0.12499964437E+03 0.  0.
        -11    1    1    2    0    0 -0.46686024777E+02 -0.11207237372E+03  0.46423887918E+03  0.47985157997E+03  0.00000000000E+00 0. -1.
         11    1    1    2    0    0 -0.25491199141E+02  0.68656968726E+02 -0.23198597134E+03  0.24327160024E+03  0.00000000000E+00 0.  1.
        -15    1    3    3    0    0  0.46832077268E+02  0.25365692079E+02 -0.12253220209E+02  0.54680535206E+02  0.17770000000E+01 0.  1.
         15    1    3    3    0    0  0.25345146649E+02  0.18049712919E+02 -0.21999968763E+03  0.22219628458E+03  0.17770000000E+01 0.  1.
</event>
<event>
 7    1  0.1738451E-005  0.3494568E+03  0.7546771E-02  0.9818789E-01
        -11   -1    0    0    0    0  0.00000000000E+00  0.00000000000E+00  0.50000000000E+03  0.50000000000E+03  0.00000000000E+00 0.  1.
         11   -1    0    0    0    0 -0.00000000000E+00 -0.00000000000E+00 -0.50000000000E+03  0.50000000000E+03  0.00000000000E+00 0. -1.
         25    2    1    2    0    0 -0.23884964732E+03  0.19921694814E+03 -0.22030912361E+03  0.40111899544E+03  0.12499516833E+03 0.  0.
        -11    1    1    2    0    0  0.34659134230E+02 -0.51245719749E+02  0.32132874113E+03  0.32723010139E+03  0.00000000000E+00 0.  1.
         11    1    1    2    0    0  0.20419051309E+03 -0.14797122839E+03 -0.10101961752E+03  0.27165090317E+03  0.00000000000E+00 0. -1.
        -15    1    3    3    0    0 -0.11129159398E+03  0.31678718683E+02 -0.35784956173E+02  0.12113249327E+03  0.17770000000E+01 0. -1.
         15    1    3    3    0    0 -0.12755805334E+03  0.16753822946E+03 -0.18452416743E+03  0.27998650217E+03  0.17770000000E+01 0. -1.
</event>
<event>
 6    1  0.1738451E-005  0.5270098E+03  0.7546771E-02  0.9341322E-01
        -11   -1    0    0    0    0  0.00000000000E+00  0.00000000000E+00  0.50000000000E+03  0.50000000000E+03  0.00000000000E+00 0.  1.
         11   -1    0    0    0    0 -0.00000000000E+00 -0.00000000000E+00 -0.50000000000E+03  0.50000000000E+03  0.00000000000E+00 0.  1.
        -11    1    1    2    0    0  0.38639004575E+02 -0.74065936954E+01  0.47135111386E+03  0.47299017203E+03  0.00000000000E+00 0.  1.
         11    1    1    2    0    0 -0.13094997360E+01 -0.34135055808E+02 -0.32536833650E+03  0.32715664630E+03  0.00000000000E+00 0.  1.
        -15    1    1    2    0    0  0.34986391894E+02  0.94548386371E+00 -0.97879863782E+02  0.10396425838E+03  0.17770000000E+01 0. -1.
         15    1    1    2    0    0 -0.72315896733E+02  0.40596165640E+02 -0.48102913575E+02  0.95888923283E+02  0.17770000000E+01 0.  1.
</event>
<event>
 7    1  0.1738451E-005  0.3861600E+03  0.7546771E-02  0.9698201E-01
        -11   -1    0    0    0    0  0.00000000000E+00  0.00000000000E+00  0.50000000000E+03  0.50000000000E+03  0.00000000000E+00 0.  1.
         11   -1    0    0    0    0 -0.00000000000E+00 -0.00000000000E+00 -0.50000000000E+03  0.50000000000E+03  0.00000000000E+00 0. -1.
         25    2    1    2    0    0  0.13324488862E+03 -0.80670498539E+02  0.63524935093E+02  0.20957265589E+03  0.12499340399E+03 0.  0.
        -11    1    1    2    0    0 -0.19407111542E+02  0.10470329832E+03  0.34739735633E+03  0.36335153755E+03  0.00000000000E+00 0.  1.
         11    1    1    2    0    0 -0.11383777708E+03 -0.24032799780E+02 -0.41092229142E+03  0.42707580656E+03  0.00000000000E+00 0. -1.
        -15    1    3    3    0    0  0.15493547471E+03 -0.85766828677E+02  0.52950339664E+02  0.18484546634E+03  0.17770000000E+01 0.  1.
         15    1    3    3    0    0 -0.21690586089E+02  0.50963301381E+01  0.10574595430E+02  0.24727189555E+02  0.17770000000E+01 0.  1.
</event>
<event>
 7    1  0.1738451E-005  0.5233002E+03  0.7546771E-02  0.9349132E-01
        -11   -1    0    0    0    0  0.00000000000E+00  0.00000000000E+00  0.50000000000E+03  0.50000000000E+03  0.00000000000E+00 0.  1.
         11   -1    0    0    0    0 -0.00000000000E+00 -0.00000000000E+00 -0.50000000000E+03  0.50000000000E+03  0.00000000000E+00 0. -1.
         25    2    1    2    0    0  0.69898895341E+02 -0.42695297266E+02 -0.26000700150E+03  0.29989522370E+03  0.12499904157E+03 0.  0.
        -11    1    1    2    0    0 -0.36679928212E+02 -0.71460165863E+01  0.47523278161E+03  0.47669977911E+03  0.00000000000E+00 0.  1.
         11    1    1    2    0    0 -0.33218967129E+02  0.49841313853E+02 -0.21522578011E+03  0.22340499719E+03  0.00000000000E+00 0. -1.
        -15    1    3    3    0    0  0.87469521563E+02 -0.50682943020E+02 -0.26158813413E+03  0.28044819051E+03  0.17770000000E+01 0.  1.
         15    1    3    3    0    0 -0.17570626223E+02  0.79876457535E+01  0.15811326323E+01  0.19447033191E+02  0.17770000000E+01 0.  1.
</event>
<event>
 7    1  0.1738451E-005  0.5447086E+03  0.7546771E-02  0.9304978E-01
        -11   -1    0    0    0    0  0.00000000000E+00  0.00000000000E+00  0.50000000000E+03  0.50000000000E+03  0.00000000000E+00 0.  1.
         11   -1    0    0    0    0 -0.00000000000E+00 -0.00000000000E+00 -0.50000000000E+03  0.50000000000E+03  0.00000000000E+00 0. -1.
         25    2    1    2    0    0 -0.57771538166E+02 -0.81563906833E+01  0.52128208196E+02  0.14746526791E+03  0.12499831126E+03 0.  0.
        -11    1    1    2    0    0 -0.15972021671E+02 -0.92315684766E+01  0.39681475885E+03  0.39724335133E+03  0.00000000000E+00 0.  1.
         11    1    1    2    0    0  0.73743559837E+02  0.17387959160E+02 -0.44894296705E+03  0.45529138077E+03  0.00000000000E+00 0. -1.
        -15    1    3    3    0    0  0.47210897832E+01 -0.57364162417E+02  0.29755539470E+02  0.64818868215E+02  0.17770000000E+01 0.  1.
         15    1    3    3    0    0 -0.62492627949E+02  0.49207771734E+02  0.22372668725E+02  0.82646399691E+02  0.17770000000E+01 0.  1.
</event>
<event>
 7    1  0.1738451E-005  0.5308836E+03  0.7546771E-02  0.9333239E-01
        -11   -1    0    0    0    0  0.00000000000E+00  0.00000000000E+00  0.50000000000E+03  0.50000000000E+03  0.00000000000E+00 0. -1.
         11   -1    0    0    0    0 -0.00000000000E+00 -0.00000000000E+00 -0.50000000000E+03  0.50000000000E+03  0.00000000000E+00 0.  1.
         25    2    1    2    0    0  0.63293459525E+02  0.76660180559E+02  0.15594919192E+03  0.22323041571E+03  0.12501529002E+03 0.  0.
        -11    1    1    2    0    0 -0.29802342611E+02 -0.33277711454E+01  0.30618817436E+03  0.30765313553E+03  0.00000000000E+00 0. -1.
         11    1    1    2    0    0 -0.33491116914E+02 -0.73332409413E+02 -0.46213736628E+03  0.46911644875E+03  0.00000000000E+00 0.  1.
        -15    1    3    3    0    0 -0.13052988952E+02 -0.23798326225E+02  0.71447773425E+01  0.28123769733E+02  0.17770000000E+01 0.  1.
         15    1    3    3    0    0  0.76346448477E+02  0.10045850678E+03  0.14880441457E+03  0.19510664598E+03  0.17770000000E+01 0.  1.
</event>
<event>
 7    1  0.1738451E-005  0.3864580E+03  0.7546771E-02  0.9697282E-01
        -11   -1    0    0    0    0  0.00000000000E+00  0.00000000000E+00  0.50000000000E+03  0.50000000000E+03  0.00000000000E+00 0.  1.
         11   -1    0    0    0    0 -0.00000000000E+00 -0.00000000000E+00 -0.50000000000E+03  0.50000000000E+03  0.00000000000E+00 0. -1.
         25    2    1    2    0    0  0.14452505112E+03 -0.28940535116E+01 -0.84905371500E+02  0.20911203041E+03  0.12499221257E+03 0.  0.
        -11    1    1    2    0    0 -0.10933167446E+03  0.29249142830E+02  0.42916230076E+03  0.44383466268E+03  0.00000000000E+00 0.  1.
         11    1    1    2    0    0 -0.35193376658E+02 -0.26355089319E+02 -0.34425692926E+03  0.34705330691E+03  0.00000000000E+00 0. -1.
        -15    1    3    3    0    0 -0.13478979635E+02 -0.71220211129E+01 -0.42889168797E+02  0.45552657505E+02  0.17770000000E+01 0. -1.
         15    1    3    3    0    0  0.15800403076E+03  0.42279676013E+01 -0.42016202703E+02  0.16355937290E+03  0.17770000000E+01 0. -1.
</event>
<event>
 7    1  0.1738451E-005  0.5271260E+03  0.7546771E-02  0.9341079E-01
        -11   -1    0    0    0    0  0.00000000000E+00  0.00000000000E+00  0.50000000000E+03  0.50000000000E+03  0.00000000000E+00 0.  1.
         11   -1    0    0    0    0 -0.00000000000E+00 -0.00000000000E+00 -0.50000000000E+03  0.50000000000E+03  0.00000000000E+00 0. -1.
         25    2    1    2    0    0 -0.18424296184E+03 -0.24522463500E+02 -0.21883326820E+03  0.31314445966E+03  0.12499853255E+03 0.  0.
        -11    1    1    2    0    0  0.18907081588E+03  0.72282638750E+02  0.42736083926E+03  0.47287402150E+03  0.00000000000E+00 0.  1.
         11    1    1    2    0    0 -0.48278540340E+01 -0.47760175250E+02 -0.20852757106E+03  0.21398151884E+03  0.00000000000E+00 0. -1.
        -15    1    3    3    0    0 -0.58374244794E+02 -0.53168100155E+02 -0.14316245525E+03  0.16350243316E+03  0.17770000000E+01 0. -1.
         15    1    3    3    0    0 -0.12586871705E+03  0.28645636655E+02 -0.75670812952E+02  0.14964202649E+03  0.17770000000E+01 0. -1.
</event>
<event>
 7    1  0.1738451E-005  0.3464353E+03  0.7546771E-02  0.9829419E-01
        -11   -1    0    0    0    0  0.00000000000E+00  0.00000000000E+00  0.50000000000E+03  0.50000000000E+03  0.00000000000E+00 0. -1.
         11   -1    0    0    0    0 -0.00000000000E+00 -0.00000000000E+00 -0.50000000000E+03  0.50000000000E+03  0.00000000000E+00 0. -1.
         25    2    1    2    0    0 -0.20893653262E+03 -0.67688248748E+02 -0.12205998266E+03  0.28063803895E+03  0.12499158313E+03 0.  0.
        -11    1    1    2    0    0  0.18659931821E+03  0.65285407014E+02  0.39700400322E+03  0.44350159921E+03  0.00000000000E+00 0. -1.
         11    1    1    2    0    0  0.22337214414E+02  0.24028417335E+01 -0.27494402056E+03  0.27586036185E+03  0.00000000000E+00 0. -1.
        -15    1    3    3    0    0 -0.13897898689E+03 -0.99503820819E+02 -0.10881411114E+03  0.20263227203E+03  0.17770000000E+01 0.  1.
         15    1    3    3    0    0 -0.69957545737E+02  0.31815572072E+02 -0.13245871518E+02  0.78005766921E+02  0.17770000000E+01 0.  1.
</event>
<event>
 7    1  0.1738451E-005  0.3596001E+03  0.7546771E-02  0.9783930E-01
        -11   -1    0    0    0    0  0.00000000000E+00  0.00000000000E+00  0.50000000000E+03  0.50000000000E+03  0.00000000000E+00 0. -1.
         11   -1    0    0    0    0 -0.00000000000E+00 -0.00000000000E+00 -0.50000000000E+03  0.50000000000E+03  0.00000000000E+00 0.  1.
         25    2    1    2    0    0  0.11672913832E+03 -0.83008154078E+02 -0.16111022121E+03  0.24918612094E+03  0.12498469553E+03 0.  0.
        -11    1    1    2    0    0 -0.42113211753E+01 -0.34870992324E+02  0.43267972149E+03  0.43410305542E+03  0.00000000000E+00 0. -1.
         11    1    1    2    0    0 -0.11251781714E+03  0.11787914640E+03 -0.27156950028E+03  0.31671082364E+03  0.00000000000E+00 0.  1.
        -15    1    3    3    0    0  0.27850820809E+02 -0.46407290323E+02  0.79212289153E+01  0.54728497252E+02  0.17770000000E+01 0.  1.
         15    1    3    3    0    0  0.88878317507E+02 -0.36600863755E+02 -0.16903145013E+03  0.19445762369E+03  0.17770000000E+01 0.  1.
</event>
<event>
 7    1  0.1738451E-005  0.5366582E+03  0.7546771E-02  0.9321325E-01
        -11   -1    0    0    0    0  0.00000000000E+00  0.00000000000E+00  0.50000000000E+03  0.50000000000E+03  0.00000000000E+00 0.  1.
         11   -1    0    0    0    0 -0.00000000000E+00 -0.00000000000E+00 -0.50000000000E+03  0.50000000000E+03  0.00000000000E+00 0.  1.
         25    2    1    2    0    0  0.63344448180E+02  0.10630197849E+03 -0.14941552166E+03  0.23078959731E+03  0.12500484137E+03 0.  0.
        -11    1    1    2    0    0 -0.10688462625E+03 -0.53939853381E+02  0.44760679002E+03  0.46334184959E+03  0.00000000000E+00 0.  1.
         11    1    1    2    0    0  0.43540178075E+02 -0.52362125111E+02 -0.29819126835E+03  0.30586855310E+03  0.00000000000E+00 0.  1.
        -15    1    3    3    0    0  0.88895363090E+02  0.42036400705E+02 -0.12118022440E+03  0.15606809116E+03  0.17770000000E+01 0. -1.
         15    1    3    3    0    0 -0.25550914910E+02  0.64265577788E+02 -0.28235297261E+02  0.74721506151E+02  0.17770000000E+01 0. -1.
</event>
<event>
 7    1  0.1738451E-005  0.5317181E+03  0.7546771E-02  0.9331507E-01
        -11   -1    0    0    0    0  0.00000000000E+00  0.00000000000E+00  0.50000000000E+03  0.50000000000E+03  0.00000000000E+00 0. -1.
         11   -1    0    0    0    0 -0.00000000000E+00 -0.00000000000E+00 -0.50000000000E+03  0.50000000000E+03  0.00000000000E+00 0. -1.
         25    2    1    2    0    0 -0.23277543859E+02  0.44743794839E+02  0.15169016837E+03  0.20292745365E+03  0.12500317213E+03 0.  0.
        -11    1    1    2    0    0  0.36970608139E+02 -0.89289724775E+02  0.31426705590E+03  0.32879060699E+03  0.00000000000E+00 0. -1.
         11    1    1    2    0    0 -0.13693064280E+02  0.44545929936E+02 -0.46595722427E+03  0.46828193936E+03  0.00000000000E+00 0. -1.
        -15    1    3    3    0    0  0.41960550575E+01  0.44475794800E+02 -0.39388820263E+01  0.44881797221E+02  0.17770000000E+01 0. -1.
         15    1    3    3    0    0 -0.27473598917E+02  0.26800003896E+00  0.15562905039E+03  0.15804565643E+03  0.17770000000E+01 0. -1.
</event>
<event>
 7    1  0.1738451E-005  0.3685651E+03  0.7546771E-02  0.9754131E-01
        -11   -1    0    0    0    0  0.00000000000E+00  0.00000000000E+00  0.50000000000E+03  0.50000000000E+03  0.00000000000E+00 0.  1.
         11   -1    0    0    0    0 -0.00000000000E+00 -0.00000000000E+00 -0.50000000000E+03  0.50000000000E+03  0.00000000000E+00 0. -1.
         25    2    1    2    0    0  0.11669568491E+03  0.12691225239E+03 -0.10202273663E+03  0.23613203918E+03  0.12500039383E+03 0.  0.
        -11    1    1    2    0    0 -0.11832571910E+03 -0.80474629186E+02  0.41938282202E+03  0.44312424122E+03  0.00000000000E+00 0.  1.
         11    1    1    2    0    0  0.16300341891E+01 -0.46437623199E+02 -0.31736008540E+03  0.32074371960E+03  0.00000000000E+00 0. -1.
        -15    1    3    3    0    0  0.80342206548E+02  0.16948748952E+02 -0.86477713715E+02  0.11926308290E+03  0.17770000000E+01 0.  1.
         15    1    3    3    0    0  0.36353478367E+02  0.10996350343E+03 -0.15545022911E+02  0.11686895628E+03  0.17770000000E+01 0.  1.
</event>
<event>
 7    1  0.1738451E-005  0.3626919E+03  0.7546771E-02  0.9773549E-01
        -11   -1    0    0    0    0  0.00000000000E+00  0.00000000000E+00  0.50000000000E+03  0.50000000000E+03  0.00000000000E+00 0.  1.
         11   -1    0    0    0    0 -0.00000000000E+00 -0.00000000000E+00 -0.50000000000E+03  0.50000000000E+03  0.00000000000E+00 0. -1.
         25    2    1    2    0    0 -0.22929757765E+03 -0.76097663077E+02  0.15166924893E+03  0.31143859023E+03  0.12498880338E+03 0.  0.
        -11    1    1    2    0    0  0.62485508783E+02  0.64274792700E+01  0.24484908702E+03  0.25277821646E+03  0.00000000000E+00 0.  1.
         11    1    1    2    0    0  0.16681206887E+03  0.69670183807E+02 -0.39651833595E+03  0.43578319332E+03  0.00000000000E+00 0. -1.
        -15    1    3    3    0    0 -0.21546152648E+03 -0.34433739674E+02  0.15457418505E+03  0.26740547532E+03  0.17770000000E+01 0.  1.
         15    1    3    3    0    0 -0.13836051178E+02 -0.41663923403E+02 -0.29049361225E+01  0.44033114907E+02  0.17770000000E+01 0.  1.
</event>
<event>
 7    1  0.1738451E-005  0.5387840E+03  0.7546771E-02  0.9316979E-01
        -11   -1    0    0    0    0  0.00000000000E+00  0.00000000000E+00  0.50000000000E+03  0.50000000000E+03  0.00000000000E+00 0.  1.
         11   -1    0    0    0    0 -0.00000000000E+00 -0.00000000000E+00 -0.50000000000E+03  0.50000000000E+03  0.00000000000E+00 0. -1.
         25    2    1    2    0    0  0.63932322294E+02 -0.25709628656E+02  0.83012833040E+02  0.16511691592E+03  0.12499655449E+03 0.  0.
        -11    1    1    2    0    0 -0.13674498768E+02 -0.26476383900E+02  0.37247697891E+03  0.37366708530E+03  0.00000000000E+00 0.  1.
         11    1    1    2    0    0 -0.50257823526E+02  0.52186012556E+02 -0.45548981195E+03  0.46121599877E+03  0.00000000000E+00 0. -1.
        -15    1    3    3    0    0  0.57544276073E+01 -0.64763599967E+02  0.13558882649E+02  0.66441239795E+02  0.17770000000E+01 0. -1.
         15    1    3    3    0    0  0.58177894687E+02  0.39053971311E+02  0.69453950391E+02  0.98675676128E+02  0.17770000000E+01 0. -1.
</event>
<event>
 7    1  0.1738451E-005  0.5177955E+03  0.7546771E-02  0.9360848E-01
        -11   -1    0    0    0    0  0.00000000000E+00  0.00000000000E+00  0.50000000000E+03  0.50000000000E+03  0.00000000000E+00 0.  1.
         11   -1    0    0    0    0 -0.00000000000E+00 -0.00000000000E+00 -0.50000000000E+03  0.50000000000E+03  0.00000000000E+00 0. -1.
         25    2    1    2    0    0  0.19927849633E+02  0.92081389601E+02  0.27799209898E+03  0.31903009292E+03  0.12499796637E+03 0.  0.
        -11    1    1    2    0    0 -0.49589404274E+02  0.10786440223E+02  0.19217762012E+03  0.19876542452E+03  0.00000000000E+00 0.  1.
         11    1    1    2    0    0  0.29661554641E+02 -0.10286782982E+03 -0.47016971910E+03  0.48220448255E+03  0.00000000000E+00 0. -1.
        -15    1    3    3    0    0  0.65977732790E+02  0.83177716053E+02  0.22110193403E+03  0.24527702019E+03  0.17770000000E+01 0. -1.
         15    1    3    3    0    0 -0.46049883157E+02  0.89036735486E+01  0.56890164947E+02  0.73753072737E+02  0.17770000000E+01 0. -1.
</event>
<event>
 7    1  0.1738451E-005  0.4158835E+03  0.7546771E-02  0.9610600E-01
        -11   -1    0    0    0    0  0.00000000000E+00  0.00000000000E+00  0.50000000000E+03  0.50000000000E+03  0.00000000000E+00 0.  1.
         11   -1    0    0    0    0 -0.00000000000E+00 -0.00000000000E+00 -0.50000000000E+03  0.50000000000E+03  0.00000000000E+00 0. -1.
         25    2    1    2    0    0  0.67799104025E+01  0.98478185241E+02  0.29002969319E+02  0.16189404579E+03  0.12499835871E+03 0.  0.
        -11    1    1    2    0    0 -0.41392671247E+02 -0.57907925034E+02  0.39975570192E+03  0.40604347333E+03  0.00000000000E+00 0.  1.
         11    1    1    2    0    0  0.34612760845E+02 -0.40570260207E+02 -0.42875867124E+03  0.43206248088E+03  0.00000000000E+00 0. -1.
        -15    1    3    3    0    0  0.16781524962E+02 -0.77921900658E+01  0.49779269684E+02  0.53136345616E+02  0.17770000000E+01 0. -1.
         15    1    3    3    0    0 -0.10001614560E+02  0.10627037531E+03 -0.20776300365E+02  0.10875770018E+03  0.17770000000E+01 0. -1.
</event>
<event>
 7    1  0.1738451E-005  0.4238541E+03  0.7546771E-02  0.9588432E-01
        -11   -1    0    0    0    0  0.00000000000E+00  0.00000000000E+00  0.50000000000E+03  0.50000000000E+03  0.00000000000E+00 0.  1.
         11   -1    0    0    0    0 -0.00000000000E+00 -0.00000000000E+00 -0.50000000000E+03  0.50000000000E+03  0.00000000000E+00 0.  1.
         25    2    1    2    0    0  0.61753421566E+02  0.32593159329E+02 -0.39309138891E+02  0.14851291906E+03  0.12504031197E+03 0.  0.
        -11    1    1    2    0    0 -0.28363519719E+02  0.45541942559E+02  0.43930327303E+03  0.44256742252E+03  0.00000000000E+00 0.  1.
         11    1    1    2    0    0 -0.33389901848E+02 -0.78135101888E+02 -0.39999413414E+03  0.40891965841E+03  0.00000000000E+00 0.  1.
        -15    1    3    3    0    0 -0.29704766402E+02 -0.20874865768E+02 -0.17471084613E+02  0.40330257802E+02  0.17770000000E+01 0.  1.
         15    1    3    3    0    0  0.91458187968E+02  0.53468025097E+02 -0.21838054278E+02  0.10818266126E+03  0.17770000000E+01 0.  1.
</event>
<event>
 7    1  0.1738451E-005  0.5180920E+03  0.7546771E-02  0.9360213E-01
        -11   -1    0    0    0    0  0.00000000000E+00  0.00000000000E+00  0.50000000000E+03  0.50000000000E+03  0.00000000000E+00 0.  1.
         11   -1    0    0    0    0 -0.00000000000E+00 -0.00000000000E+00 -0.50000000000E+03  0.50000000000E+03  0.00000000000E+00 0. -1.
         25    2    1    2    0    0 -0.24615486647E+02  0.47608325311E+02  0.25818375206E+03  0.29181707911E+03  0.12500353199E+03 0.  0.
        -11    1    1    2    0    0 -0.65394195553E+02 -0.27793364474E+02  0.21482890035E+03  0.22627489553E+03  0.00000000000E+00 0.  1.
         11    1    1    2    0    0  0.90009682200E+02 -0.19814960838E+02 -0.47301265241E+03  0.48190802536E+03  0.00000000000E+00 0. -1.
        -15    1    3    3    0    0 -0.52962039058E+02  0.28797495188E+02  0.43288366966E+02  0.74238222998E+02  0.17770000000E+01 0. -1.
         15    1    3    3    0    0  0.28346552411E+02  0.18810830123E+02  0.21489538509E+03  0.21757885611E+03  0.17770000000E+01 0. -1.
</event>
<event>
 7    1  0.1738451E-005  0.5492344E+03  0.7546771E-02  0.9295919E-01
        -11   -1    0    0    0    0  0.00000000000E+00  0.00000000000E+00  0.50000000000E+03  0.50000000000E+03  0.00000000000E+00 0. -1.
         11   -1    0    0    0    0 -0.00000000000E+00 -0.00000000000E+00 -0.50000000000E+03  0.50000000000E+03  0.00000000000E+00 0.  1.
         25    2    1    2    0    0 -0.28803827976E+02  0.75452511807E+02  0.72033891456E+02  0.16533270312E+03  0.12499311644E+03 0.  0.
        -11    1    1    2    0    0  0.35664259821E+02 -0.55255492052E+02  0.37822670144E+03  0.38390174070E+03  0.00000000000E+00 0. -1.
         11    1    1    2    0    0 -0.68604318450E+01 -0.20197019755E+02 -0.45026059289E+03  0.45076555619E+03  0.00000000000E+00 0.  1.
        -15    1    3    3    0    0 -0.65525125048E+02  0.84912030779E+02  0.36428788429E+02  0.11328640403E+03  0.17770000000E+01 0. -1.
         15    1    3    3    0    0  0.36721297072E+02 -0.94595189717E+01  0.35605103026E+02  0.52046299084E+02  0.17770000000E+01 0. -1.
</event>
<event>
 7    1  0.1738451E-005  0.4483146E+03  0.7546771E-02  0.9523520E-01
        -11   -1    0    0    0    0  0.00000000000E+00  0.00000000000E+00  0.50000000000E+03  0.50000000000E+03  0.00000000000E+00 0.  1.
         11   -1    0    0    0    0 -0.00000000000E+00 -0.00000000000E+00 -0.50000000000E+03  0.50000000000E+03  0.00000000000E+00 0. -1.
         25    2    1    2    0    0 -0.70580181162E+02  0.13349342758E+03 -0.36376661499E+03  0.41322215662E+03  0.12499737344E+03 0.  0.
        -11    1    1    2    0    0  0.11006828893E+03 -0.75950405904E+02  0.45366812953E+03  0.47296750854E+03  0.00000000000E+00 0.  1.
         11    1    1    2    0    0 -0.39488107763E+02 -0.57543021676E+02 -0.89901514543E+02  0.11381033484E+03  0.00000000000E+00 0. -1.
        -15    1    3    3    0    0 -0.58076116011E+02  0.14793780614E+03 -0.36019825201E+03  0.39370594130E+03  0.17770000000E+01 0.  1.
         15    1    3    3    0    0 -0.12504065151E+02 -0.14444378556E+02 -0.35683629727E+01  0.19516215322E+02  0.17770000000E+01 0.  1.
</event>
<event>
 7    1  0.1738451E-005  0.3978434E+03  0.7546771E-02  0.9662794E-01
        -11   -1    0    0    0    0  0.00000000000E+00  0.00000000000E+00  0.50000000000E+03  0.50000000000E+03  0.00000000000E+00 0. -1.
         11   -1    0    0    0    0 -0.00000000000E+00 -0.00000000000E+00 -0.50000000000E+03  0.50000000000E+03  0.00000000000E+00 0. -1.
         25    2    1    2    0    0 -0.37616088335E+02 -0.11991765585E+03  0.71932039378E+02  0.19124357730E+03  0.12491866668E+03 0.  0.
        -11    1    1    2    0    0  0.79535019659E+01  0.37692358551E+02  0.36304508862E+03  0.36508315280E+03  0.00000000000E+00 0. -1.
         11    1    1    2    0    0  0.29662586369E+02  0.82225297299E+02 -0.43497712800E+03  0.44367326990E+03  0.00000000000E+00 0. -1.
        -15    1    3    3    0    0 -0.21463255449E+02 -0.19705675440E+02  0.84075340152E+02  0.88998907464E+02  0.17770000000E+01 0.  1.
         15    1    3    3    0    0 -0.16152832886E+02 -0.10021198041E+03 -0.12143300774E+02  0.10224466984E+03  0.17770000000E+01 0. -1.
</event>
<event>
 7    1  0.1738451E-005  0.5407697E+03  0.7546771E-02  0.9312938E-01
        -11   -1    0    0    0    0  0.00000000000E+00  0.00000000000E+00  0.50000000000E+03  0.50000000000E+03  0.00000000000E+00 0.  1.
         11   -1    0    0    0    0 -0.00000000000E+00 -0.00000000000E+00 -0.50000000000E+03  0.50000000000E+03  0.00000000000E+00 0.  1.
         25    2    1    2    0    0 -0.44424925325E+02  0.10217643797E+03  0.12829458140E+03  0.21094616524E+03  0.12500074618E+03 0.  0.
        -11    1    1    2    0    0 -0.64114252198E+01 -0.53066047693E+02  0.32546341993E+03  0.32982351266E+03  0.00000000000E+00 0.  1.
         11    1    1    2    0    0  0.50836350544E+02 -0.49110390281E+02 -0.45375800133E+03  0.45923032210E+03  0.00000000000E+00 0.  1.
        -15    1    3    3    0    0 -0.61487736550E+02 -0.21054874468E+01  0.42109251096E+02  0.74575609822E+02  0.17770000000E+01 0.  1.
         15    1    3    3    0    0  0.17062811226E+02  0.10428192542E+03  0.86185330304E+02  0.13637055542E+03  0.17770000000E+01 0.  1.
</event>
<event>
 7    1  0.1738451E-005  0.4053775E+03  0.7546771E-02  0.9640644E-01
        -11   -1    0    0    0    0  0.00000000000E+00  0.00000000000E+00  0.50000000000E+03  0.50000000000E+03  0.00000000000E+00 0.  1.
         11   -1    0    0    0    0 -0.00000000000E+00 -0.00000000000E+00 -0.50000000000E+03  0.50000000000E+03  0.00000000000E+00 0.  1.
         25    2    1    2    0    0 -0.11946182437E+03  0.25390890907E+02 -0.39403232456E+02  0.17915156430E+03  0.12500737354E+03 0.  0.
        -11    1    1    2    0    0  0.70039737810E+02 -0.35997142244E+01  0.42537402354E+03  0.43111666950E+03  0.00000000000E+00 0.  1.
         11    1    1    2    0    0  0.49422086559E+02 -0.21791176682E+02 -0.38597079108E+03  0.38973176621E+03  0.00000000000E+00 0.  1.
        -15    1    3    3    0    0 -0.34848227264E+02  0.18199805639E+02  0.44744539291E+02  0.59589121441E+02  0.17770000000E+01 0.  1.
         15    1    3    3    0    0 -0.84613597105E+02  0.71910852676E+01 -0.84147771748E+02  0.11956244285E+03  0.17770000000E+01 0.  1.
</event>
<event>
 7    1  0.1738451E-005  0.5211854E+03  0.7546771E-02  0.9353615E-01
        -11   -1    0    0    0    0  0.00000000000E+00  0.00000000000E+00  0.50000000000E+03  0.50000000000E+03  0.00000000000E+00 0.  1.
         11   -1    0    0    0    0 -0.00000000000E+00 -0.00000000000E+00 -0.50000000000E+03  0.50000000000E+03  0.00000000000E+00 0. -1.
         25    2    1    2    0    0 -0.95254805494E+01 -0.37067410003E+02 -0.19343485809E+03  0.23346897807E+03  0.12500396686E+03 0.  0.
        -11    1    1    2    0    0 -0.58845088045E+02  0.48948682995E+02  0.47265706553E+03  0.47881459831E+03  0.00000000000E+00 0.  1.
         11    1    1    2    0    0  0.68370568595E+02 -0.11881272992E+02 -0.27922220744E+03  0.28771642363E+03  0.00000000000E+00 0. -1.
        -15    1    3    3    0    0  0.29508375733E+02  0.26177474243E+02 -0.18931613997E+02  0.43790046057E+02  0.17770000000E+01 0.  1.
         15    1    3    3    0    0 -0.39033856283E+02 -0.63244884246E+02 -0.17450324409E+03  0.18967893201E+03  0.17770000000E+01 0.  1.
</event>
<event>
 7    1  0.1738451E-005  0.5449974E+03  0.7546771E-02  0.9304397E-01
        -11   -1    0    0    0    0  0.00000000000E+00  0.00000000000E+00  0.50000000000E+03  0.50000000000E+03  0.00000000000E+00 0. -1.
         11   -1    0    0    0    0 -0.00000000000E+00 -0.00000000000E+00 -0.50000000000E+03  0.50000000000E+03  0.00000000000E+00 0. -1.
         25    2    1    2    0    0  0.90429933557E+02  0.21695135971E+02  0.80973438174E+02  0.17558614535E+03  0.12500217974E+03 0.  0.
        -11    1    1    2    0    0 -0.11892284676E+02 -0.43203035803E+02  0.36668340375E+03  0.36941121711E+03  0.00000000000E+00 0. -1.
         11    1    1    2    0    0 -0.78537648881E+02  0.21507899833E+02 -0.44765684193E+03  0.45500263754E+03  0.00000000000E+00 0. -1.
        -15    1    3    3    0    0 -0.91434905799E+01 -0.30092899605E+02 -0.78259983301E+01  0.32459051211E+02  0.17770000000E+01 0.  1.
         15    1    3    3    0    0  0.99573424137E+02  0.51788035576E+02  0.88799436504E+02  0.14312709414E+03  0.17770000000E+01 0.  1.
</event>
<event>
 7    1  0.1738451E-005  0.3229265E+03  0.7546771E-02  0.9916307E-01
        -11   -1    0    0    0    0  0.00000000000E+00  0.00000000000E+00  0.50000000000E+03  0.50000000000E+03  0.00000000000E+00 0. -1.
         11   -1    0    0    0    0 -0.00000000000E+00 -0.00000000000E+00 -0.50000000000E+03  0.50000000000E+03  0.00000000000E+00 0. -1.
         25    2    1    2    0    0 -0.22483043126E+03  0.11025004432E+03 -0.10593087401E+03  0.29924952201E+03  0.12500052503E+03 0.  0.
        -11    1    1    2    0    0  0.12684709462E+02 -0.18018168706E+03  0.33512883459E+03  0.38070681368E+03  0.00000000000E+00 0. -1.
         11    1    1    2    0    0  0.21214572180E+03  0.69931642739E+02 -0.22919796058E+03  0.32004366432E+03  0.00000000000E+00 0. -1.
        -15    1    3    3    0    0 -0.84871488805E+02  0.70255958260E+02  0.13419355605E+02  0.11100588325E+03  0.17770000000E+01 0.  1.
         15    1    3    3    0    0 -0.13995894246E+03  0.39994086065E+02 -0.11935022961E+03  0.18824363876E+03  0.17770000000E+01 0.  1.
</event>
<event>
 7    1  0.1738451E-005  0.5427462E+03  0.7546771E-02  0.9308935E-01
        -11   -1    0    0    0    0  0.00000000000E+00  0.00000000000E+00  0.50000000000E+03  0.50000000000E+03  0.00000000000E+00 0. -1.
         11   -1    0    0    0    0 -0.00000000000E+00 -0.00000000000E+00 -0.50000000000E+03  0.50000000000E+03  0.00000000000E+00 0. -1.
         25    2    1    2    0    0  0.69450285596E+01 -0.85363042926E+01  0.48485298651E+02  0.13452587947E+03  0.12500114460E+03 0.  0.
        -11    1    1    2    0    0  0.38336344258E+02 -0.13271429193E+01  0.40641401977E+03  0.40822027395E+03  0.00000000000E+00 0. -1.
         11    1    1    2    0    0 -0.45281372818E+02  0.98634472119E+01 -0.45489931842E+03  0.45725384658E+03  0.00000000000E+00 0. -1.
        -15    1    3    3    0    0 -0.26851032812E+02  0.12225620091E+02  0.79066268000E+02  0.84410166533E+02  0.17770000000E+01 0.  1.
         15    1    3    3    0    0  0.33796061371E+02 -0.20761924383E+02 -0.30580969348E+02  0.50115712941E+02  0.17770000000E+01 0.  1.
</event>
<event>
 7    1  0.1738451E-005  0.5460350E+03  0.7546771E-02  0.9302313E-01
        -11   -1    0    0    0    0  0.00000000000E+00  0.00000000000E+00  0.50000000000E+03  0.50000000000E+03  0.00000000000E+00 0.  1.
         11   -1    0    0    0    0 -0.00000000000E+00 -0.00000000000E+00 -0.50000000000E+03  0.50000000000E+03  0.00000000000E+00 0. -1.
         25    2    1    2    0    0 -0.93358733434E+01 -0.56227128743E+02 -0.53985913588E+02  0.14760748891E+03  0.12499937351E+03 0.  0.
        -11    1    1    2    0    0 -0.15914265105E+02  0.44959570966E+02  0.45145279788E+03  0.45396503782E+03  0.00000000000E+00 0.  1.
         11    1    1    2    0    0  0.25250138448E+02  0.11267557777E+02 -0.39746688429E+03  0.39842747327E+03  0.00000000000E+00 0. -1.
        -15    1    3    3    0    0  0.44300525827E+02 -0.63677754080E+02 -0.51971608455E+02  0.93389500307E+02  0.17770000000E+01 0.  1.
         15    1    3    3    0    0 -0.53636399170E+02  0.74506253373E+01 -0.20143051331E+01  0.54217988602E+02  0.17770000000E+01 0.  1.
</event>
<event>
 7    1  0.1738451E-005  0.3963975E+03  0.7546771E-02  0.9667105E-01
        -11   -1    0    0    0    0  0.00000000000E+00  0.00000000000E+00  0.50000000000E+03  0.50000000000E+03  0.00000000000E+00 0. -1.
         11   -1    0    0    0    0 -0.00000000000E+00 -0.00000000000E+00 -0.50000000000E+03  0.50000000000E+03  0.00000000000E+00 0.  1.
         25    2    1    2    0    0 -0.10562317510E+03  0.91418413557E+02  0.48202115754E+02  0.19355049162E+03  0.12499906955E+03 0.  0.
        -11    1    1    2    0    0 -0.39320549570E+02 -0.11215364877E+03  0.35665166935E+03  0.37593212126E+03  0.00000000000E+00 0. -1.
         11    1    1    2    0    0  0.14494372467E+03  0.20735235211E+02 -0.40485378510E+03  0.43051738712E+03  0.00000000000E+00 0.  1.
        -15    1    3    3    0    0 -0.10109658060E+03  0.47269805981E+02 -0.18775598325E+02  0.11318407126E+03  0.17770000000E+01 0.  1.
         15    1    3    3    0    0 -0.45265944987E+01  0.44148607576E+02  0.66977714080E+02  0.80366420357E+02  0.17770000000E+01 0.  1.
</event>
<event>
 7    1  0.1738451E-005  0.5410518E+03  0.7546771E-02  0.9312366E-01
        -11   -1    0    0    0    0  0.00000000000E+00  0.00000000000E+00  0.50000000000E+03  0.50000000000E+03  0.00000000000E+00 0. -1.
         11   -1    0    0    0    0 -0.00000000000E+00 -0.00000000000E+00 -0.50000000000E+03  0.50000000000E+03  0.00000000000E+00 0. -1.
         25    2    1    2    0    0  0.48303573317E+02  0.41533776756E+02 -0.77353687781E+02  0.16020946651E+03  0.12500076136E+03 0.  0.
        -11    1    1    2    0    0 -0.24757031242E+02 -0.30048512451E+02  0.45729383228E+03  0.45894822447E+03  0.00000000000E+00 0. -1.
         11    1    1    2    0    0 -0.23546542075E+02 -0.11485264305E+02 -0.37994014450E+03  0.38084230902E+03  0.00000000000E+00 0. -1.
        -15    1    3    3    0    0  0.70797268792E+02  0.63873015510E+01  0.13393817637E+01  0.71119635559E+02  0.17770000000E+01 0. -1.
         15    1    3    3    0    0 -0.22493695475E+02  0.35146475205E+02 -0.78693069545E+02  0.89089830951E+02  0.17770000000E+01 0. -1.
</event>
<event>
 7    1  0.1738451E-005  0.4232518E+03  0.7546771E-02  0.9590089E-01
        -11   -1    0    0    0    0  0.00000000000E+00  0.00000000000E+00  0.50000000000E+03  0.50000000000E+03  0.00000000000E+00 0.  1.
         11   -1    0    0    0    0 -0.00000000000E+00 -0.00000000000E+00 -0.50000000000E+03  0.50000000000E+03  0.00000000000E+00 0.  1.
         25    2    1    2    0    0 -0.61158989408E+02 -0.54697772208E+02 -0.83013059908E+00  0.14952873333E+03  0.12500353877E+03 0.  0.
        -11    1    1    2    0    0  0.38353467088E+02  0.31611849353E+02  0.42357585053E+03  0.42648188544E+03  0.00000000000E+00 0.  1.
         11    1    1    2    0    0  0.22805522321E+02  0.23085922856E+02 -0.42274571993E+03  0.42398938123E+03  0.00000000000E+00 0.  1.
        -15    1    3    3    0    0 -0.44228399564E+02 -0.51662560689E+02  0.57258742987E+02  0.88920711211E+02  0.17770000000E+01 0.  1.
         15    1    3    3    0    0 -0.16930589844E+02 -0.30352115198E+01 -0.58088873586E+02  0.60608022117E+02  0.17770000000E+01 0.  1.
</event>
<event>
 7    1  0.1738451E-005  0.5374419E+03  0.7546771E-02  0.9319720E-01
        -11   -1    0    0    0    0  0.00000000000E+00  0.00000000000E+00  0.50000000000E+03  0.50000000000E+03  0.00000000000E+00 0.  1.
         11   -1    0    0    0    0 -0.00000000000E+00 -0.00000000000E+00 -0.50000000000E+03  0.50000000000E+03  0.00000000000E+00 0. -1.
         25    2    1    2    0    0 -0.71593641111E+02  0.20073182971E+02  0.12582656770E+03  0.19231758448E+03  0.12500058415E+03 0.  0.
        -11    1    1    2    0    0  0.82543205782E+02  0.37560882442E+02  0.33299633834E+03  0.34512427045E+03  0.00000000000E+00 0.  1.
         11    1    1    2    0    0 -0.10949564671E+02 -0.57634065412E+02 -0.45882290604E+03  0.46255814507E+03  0.00000000000E+00 0. -1.
        -15    1    3    3    0    0 -0.65582675479E+02  0.69021257198E+02  0.92597216844E+02  0.13282478520E+03  0.17770000000E+01 0.  1.
         15    1    3    3    0    0 -0.60109656329E+01 -0.48948074227E+02  0.33229350858E+02  0.59492799277E+02  0.17770000000E+01 0.  1.
</event>
<event>
 7    1  0.1738451E-005  0.5171895E+03  0.7546771E-02  0.9362148E-01
        -11   -1    0    0    0    0  0.00000000000E+00  0.00000000000E+00  0.50000000000E+03  0.50000000000E+03  0.00000000000E+00 0.  1.
         11   -1    0    0    0    0 -0.00000000000E+00 -0.00000000000E+00 -0.50000000000E+03  0.50000000000E+03  0.00000000000E+00 0.  1.
         25    2    1    2    0    0 -0.16653790667E+02  0.36789407914E+02  0.22890684166E+03  0.26391372778E+03  0.12498521622E+03 0.  0.
        -11    1    1    2    0    0 -0.38327417696E+02 -0.11488658170E+02  0.25009520745E+03  0.25327572525E+03  0.00000000000E+00 0.  1.
         11    1    1    2    0    0  0.54981208362E+02 -0.25300749744E+02 -0.47900204911E+03  0.48281054697E+03  0.00000000000E+00 0.  1.
        -15    1    3    3    0    0  0.77149168216E+01 -0.32677352755E+02  0.13437409342E+02  0.36208438567E+02  0.17770000000E+01 0. -1.
         15    1    3    3    0    0 -0.24368707488E+02  0.69466760669E+02  0.21546943232E+03  0.22770528922E+03  0.17770000000E+01 0. -1.
</event>
<event>
 7    1  0.1738451E-005  0.4184586E+03  0.7546771E-02  0.9603381E-01
        -11   -1    0    0    0    0  0.00000000000E+00  0.00000000000E+00  0.50000000000E+03  0.50000000000E+03  0.00000000000E+00 0.  1.
         11   -1    0    0    0    0 -0.00000000000E+00 -0.00000000000E+00 -0.50000000000E+03  0.50000000000E+03  0.00000000000E+00 0. -1.
         25    2    1    2    0    0 -0.83722347736E+02 -0.32890909375E+02 -0.33501378776E+02  0.15759626149E+03  0.12499198305E+03 0.  0.
        -11    1    1    2    0    0 -0.41282091869E+02 -0.21365032972E+02  0.42517139233E+03  0.42770479142E+03  0.00000000000E+00 0.  1.
         11    1    1    2    0    0  0.12500443961E+03  0.54255942348E+02 -0.39167001356E+03  0.41469894709E+03  0.00000000000E+00 0. -1.
        -15    1    3    3    0    0 -0.10250574967E+03 -0.88611045266E+01  0.11136513503E+02  0.10350423929E+03  0.17770000000E+01 0. -1.
         15    1    3    3    0    0  0.18783401936E+02 -0.24029804849E+02 -0.44637892279E+02  0.54092022198E+02  0.17770000000E+01 0. -1.
</event>
<event>
 7    1  0.1738451E-005  0.4186542E+03  0.7546771E-02  0.9602834E-01
        -11   -1    0    0    0    0  0.00000000000E+00  0.00000000000E+00  0.50000000000E+03  0.50000000000E+03  0.00000000000E+00 0. -1.
         11   -1    0    0    0    0 -0.00000000000E+00 -0.00000000000E+00 -0.50000000000E+03  0.50000000000E+03  0.00000000000E+00 0. -1.
         25    2    1    2    0    0 -0.57707516652E+02  0.59891508162E+02 -0.46817421555E+02  0.15726962782E+03  0.12499885858E+03 0.  0.
        -11    1    1    2    0    0 -0.53247699304E+01 -0.13570727987E+02  0.44080842357E+03  0.44104941234E+03  0.00000000000E+00 0. -1.
         11    1    1    2    0    0  0.63032286583E+02 -0.46320780175E+02 -0.39399100202E+03  0.40168095984E+03  0.00000000000E+00 0. -1.
        -15    1    3    3    0    0 -0.88758499159E+01  0.38762591637E+02  0.39356994240E+02  0.55977227037E+02  0.17770000000E+01 0. -1.
         15    1    3    3    0    0 -0.48831666736E+02  0.21128916526E+02 -0.86174415795E+02  0.10129240078E+03  0.17770000000E+01 0. -1.
</event>
<event>
 7    1  0.1738451E-005  0.5401826E+03  0.7546771E-02  0.9314131E-01
        -11   -1    0    0    0    0  0.00000000000E+00  0.00000000000E+00  0.50000000000E+03  0.50000000000E+03  0.00000000000E+00 0. -1.
         11   -1    0    0    0    0 -0.00000000000E+00 -0.00000000000E+00 -0.50000000000E+03  0.50000000000E+03  0.00000000000E+00 0. -1.
         25    2    1    2    0    0  0.19328176814E+02  0.52013354077E+02  0.94877023463E+02  0.16644809482E+03  0.12499740504E+03 0.  0.
        -11    1    1    2    0    0 -0.13437145764E+03 -0.12177212926E+02  0.34853046110E+03  0.37373447187E+03  0.00000000000E+00 0. -1.
         11    1    1    2    0    0  0.11504328083E+03 -0.39836141151E+02 -0.44340748457E+03  0.45981743331E+03  0.00000000000E+00 0. -1.
        -15    1    3    3    0    0 -0.31804074911E+02 -0.19953559502E+02  0.10448670469E+01  0.37601771154E+02  0.17770000000E+01 0.  1.
         15    1    3    3    0    0  0.51132251725E+02  0.71966913579E+02  0.93832156416E+02  0.12884632367E+03  0.17770000000E+01 0.  1.
</event>
<event>
 7    1  0.1738451E-005  0.5253967E+03  0.7546771E-02  0.9344710E-01
        -11   -1    0    0    0    0  0.00000000000E+00  0.00000000000E+00  0.50000000000E+03  0.50000000000E+03  0.00000000000E+00 0. -1.
         11   -1    0    0    0    0 -0.00000000000E+00 -0.00000000000E+00 -0.50000000000E+03  0.50000000000E+03  0.00000000000E+00 0.  1.
         25    2    1    2    0    0 -0.42799327327E+02  0.86026546485E+02  0.24452762616E+03  0.29094898261E+03  0.12500080561E+03 0.  0.
        -11    1    1    2    0    0  0.24293313930E+02 -0.48014499032E+02  0.22818889560E+03  0.23444771122E+03  0.00000000000E+00 0. -1.
         11    1    1    2    0    0  0.18506013397E+02 -0.38012047453E+02 -0.47271652177E+03  0.47460330618E+03  0.00000000000E+00 0.  1.
        -15    1    3    3    0    0  0.25929340090E+02  0.13778239699E+01  0.13088298970E+03  0.13344565860E+03  0.17770000000E+01 0.  1.
         15    1    3    3    0    0 -0.68728667417E+02  0.84648722515E+02  0.11364463646E+03  0.15750332401E+03  0.17770000000E+01 0.  1.
</event>
<event>
 7    1  0.1738451E-005  0.5413030E+03  0.7546771E-02  0.9311856E-01
        -11   -1    0    0    0    0  0.00000000000E+00  0.00000000000E+00  0.50000000000E+03  0.50000000000E+03  0.00000000000E+00 0.  1.
         11   -1    0    0    0    0 -0.00000000000E+00 -0.00000000000E+00 -0.50000000000E+03  0.50000000000E+03  0.00000000000E+00 0.  1.
         25    2    1    2    0    0  0.34614730869E+02  0.11756270901E+03 -0.18949162802E+03  0.25797365094E+03  0.12499662935E+03 0.  0.
        -11    1    1    2    0    0  0.29884030739E+02 -0.44560750378E+02  0.45554827406E+03  0.45869700868E+03  0.00000000000E+00 0.  1.
         11    1    1    2    0    0 -0.64498761608E+02 -0.73001958636E+02 -0.26605664605E+03  0.28332934038E+03  0.00000000000E+00 0.  1.
        -15    1    3    3    0    0  0.61454990257E+02  0.10107347114E+02 -0.50242726283E+02  0.80039762409E+02  0.17770000000E+01 0. -1.
         15    1    3    3    0    0 -0.26840259388E+02  0.10745536190E+03 -0.13924890174E+03  0.17793388853E+03  0.17770000000E+01 0. -1.
</event>
<event>
 7    1  0.1738451E-005  0.3784450E+03  0.7546771E-02  0.9722325E-01
        -11   -1    0    0    0    0  0.00000000000E+00  0.00000000000E+00  0.50000000000E+03  0.50000000000E+03  0.00000000000E+00 0.  1.
         11   -1    0    0    0    0 -0.00000000000E+00 -0.00000000000E+00 -0.50000000000E+03  0.50000000000E+03  0.00000000000E+00 0.  1.
         25    2    1    2    0    0 -0.73216339904E+02 -0.14290238456E+03  0.87171930678E+02  0.22137100906E+03  0.12499781683E+03 0.  0.
        -11    1    1    2    0    0 -0.60954186769E+01  0.42126451963E+02  0.33485397967E+03  0.33754848509E+03  0.00000000000E+00 0.  1.
         11    1    1    2    0    0  0.79311758581E+02  0.10077593260E+03 -0.42202591035E+03  0.44108050585E+03  0.00000000000E+00 0.  1.
        -15    1    3    3    0    0 -0.14674862758E+02 -0.14164846547E+03  0.77039414983E+02  0.16191932731E+03  0.17770000000E+01 0.  1.
         15    1    3    3    0    0 -0.58541477147E+02 -0.12539190936E+01  0.10132515694E+02  0.59451681750E+02  0.17770000000E+01 0.  1.
</event>
<event>
 7    1  0.1738451E-005  0.5164728E+03  0.7546771E-02  0.9363687E-01
        -11   -1    0    0    0    0  0.00000000000E+00  0.00000000000E+00  0.50000000000E+03  0.50000000000E+03  0.00000000000E+00 0. -1.
         11   -1    0    0    0    0 -0.00000000000E+00 -0.00000000000E+00 -0.50000000000E+03  0.50000000000E+03  0.00000000000E+00 0. -1.
         25    2    1    2    0    0 -0.24491321459E+02 -0.22229776308E+02 -0.27195651672E+03  0.30112983689E+03  0.12499937559E+03 0.  0.
        -11    1    1    2    0    0  0.77884771776E+00 -0.10949469588E+02  0.48340259276E+03  0.48352721142E+03  0.00000000000E+00 0. -1.
         11    1    1    2    0    0  0.23712473742E+02  0.33179245895E+02 -0.21144607604E+03  0.21534295169E+03  0.00000000000E+00 0. -1.
        -15    1    3    3    0    0 -0.31658735533E+02  0.67050323739E+01 -0.53406350750E+01  0.32846812732E+02  0.17770000000E+01 0.  1.
         15    1    3    3    0    0  0.71674140731E+01 -0.28934808682E+02 -0.26661588165E+03  0.26828302416E+03  0.17770000000E+01 0.  1.
</event>
<event>
 7    1  0.1738451E-005  0.4175142E+03  0.7546771E-02  0.9606022E-01
        -11   -1    0    0    0    0  0.00000000000E+00  0.00000000000E+00  0.50000000000E+03  0.50000000000E+03  0.00000000000E+00 0. -1.
         11   -1    0    0    0    0 -0.00000000000E+00 -0.00000000000E+00 -0.50000000000E+03  0.50000000000E+03  0.00000000000E+00 0. -1.
         25    2    1    2    0    0  0.68688232097E+02 -0.42095008092E+02 -0.56763157946E+02  0.15917623177E+03  0.12499981490E+03 0.  0.
        -11    1    1    2    0    0 -0.21925731735E+02  0.50883633792E+02  0.44562775114E+03  0.44905898776E+03  0.00000000000E+00 0. -1.
         11    1    1    2    0    0 -0.46762500362E+02 -0.87886256998E+01 -0.38886459319E+03  0.39176478047E+03  0.00000000000E+00 0. -1.
        -15    1    3    3    0    0  0.27636831607E+02  0.92005607714E+01 -0.83325481094E+02  0.88287815175E+02  0.17770000000E+01 0.  1.
         15    1    3    3    0    0  0.41051400490E+02 -0.51295568864E+02  0.26562323148E+02  0.70888416594E+02  0.17770000000E+01 0.  1.
</event>
<event>
 7    1  0.1738451E-005  0.4192517E+03  0.7546771E-02  0.9601168E-01
        -11   -1    0    0    0    0  0.00000000000E+00  0.00000000000E+00  0.50000000000E+03  0.50000000000E+03  0.00000000000E+00 0.  1.
         11   -1    0    0    0    0 -0.00000000000E+00 -0.00000000000E+00 -0.50000000000E+03  0.50000000000E+03  0.00000000000E+00 0. -1.
         25    2    1    2    0    0  0.90008205582E+02 -0.22048112225E+02 -0.14462048167E+02  0.15626744868E+03  0.12499107311E+03 0.  0.
        -11    1    1    2    0    0 -0.81352032510E+02 -0.18767932876E+02  0.42396611244E+03  0.43210838108E+03  0.00000000000E+00 0.  1.
         11    1    1    2    0    0 -0.86561730720E+01  0.40816045101E+02 -0.40950406427E+03  0.41162417024E+03  0.00000000000E+00 0. -1.
        -15    1    3    3    0    0  0.15135669582E+02 -0.16808208295E+01  0.51920848296E+02  0.54137287234E+02  0.17770000000E+01 0. -1.
         15    1    3    3    0    0  0.74872536000E+02 -0.20367291395E+02 -0.66382896463E+02  0.10213016145E+03  0.17770000000E+01 0. -1.
</event>
<event>
 7    1  0.1738451E-005  0.5277718E+03  0.7546771E-02  0.9339726E-01
        -11   -1    0    0    0    0  0.00000000000E+00  0.00000000000E+00  0.50000000000E+03  0.50000000000E+03  0.00000000000E+00 0.  1.
         11   -1    0    0    0    0 -0.00000000000E+00 -0.00000000000E+00 -0.50000000000E+03  0.50000000000E+03  0.00000000000E+00 0. -1.
         25    2    1    2    0    0 -0.12028192715E+03  0.59748673337E+02  0.20803796223E+03  0.27738343052E+03  0.12499651127E+03 0.  0.
        -11    1    1    2    0    0 -0.46179440650E+01 -0.40895157928E+02  0.24698297420E+03  0.25038835615E+03  0.00000000000E+00 0.  1.
         11    1    1    2    0    0  0.12489987122E+03 -0.18853515409E+02 -0.45502093644E+03  0.47222821333E+03  0.00000000000E+00 0. -1.
        -15    1    3    3    0    0 -0.10056485269E+03  0.21853207923E+02  0.21075139381E+03  0.23454244822E+03  0.17770000000E+01 0. -1.
         15    1    3    3    0    0 -0.19717074460E+02  0.37895465414E+02 -0.27134315785E+01  0.42840982297E+02  0.17770000000E+01 0. -1.
</event>
<event>
 7    1  0.1738451E-005  0.5476526E+03  0.7546771E-02  0.9299074E-01
        -11   -1    0    0    0    0  0.00000000000E+00  0.00000000000E+00  0.50000000000E+03  0.50000000000E+03  0.00000000000E+00 0.  1.
         11   -1    0    0    0    0 -0.00000000000E+00 -0.00000000000E+00 -0.50000000000E+03  0.50000000000E+03  0.00000000000E+00 0. -1.
         25    2    1    2    0    0 -0.11634185697E+02 -0.39945323292E+02 -0.42348172138E+02  0.13838734152E+03  0.12500682173E+03 0.  0.
        -11    1    1    2    0    0  0.38020602996E+02  0.20301401503E+02  0.45028927819E+03  0.45234737449E+03  0.00000000000E+00 0.  1.
         11    1    1    2    0    0 -0.26386417299E+02  0.19643921788E+02 -0.40794110605E+03  0.40926528400E+03  0.00000000000E+00 0. -1.
        -15    1    3    3    0    0  0.46593234337E+01 -0.24649445063E+02 -0.85845015518E+02  0.89452942126E+02  0.17770000000E+01 0. -1.
         15    1    3    3    0    0 -0.16293509131E+02 -0.15295878229E+02  0.43496843380E+02  0.48934399390E+02  0.17770000000E+01 0. -1.
</event>
<event>
 7    1  0.1738451E-005  0.5329673E+03  0.7546771E-02  0.9328921E-01
        -11   -1    0    0    0    0  0.00000000000E+00  0.00000000000E+00  0.50000000000E+03  0.50000000000E+03  0.00000000000E+00 0.  1.
         11   -1    0    0    0    0 -0.00000000000E+00 -0.00000000000E+00 -0.50000000000E+03  0.50000000000E+03  0.00000000000E+00 0.  1.
         25    2    1    2    0    0  0.28251534569E+02  0.15789354356E+02  0.10264055464E+03  0.16494467450E+03  0.12499683705E+03 0.  0.
        -11    1    1    2    0    0 -0.60174253508E+02 -0.10984613586E+01  0.36306820038E+03  0.36802264268E+03  0.00000000000E+00 0.  1.
         11    1    1    2    0    0  0.31922718938E+02 -0.14690892997E+02 -0.46570875501E+03  0.46703268282E+03  0.00000000000E+00 0.  1.
        -15    1    3    3    0    0  0.65118312471E+02  0.44859638663E+02  0.46547368940E+02  0.91774708304E+02  0.17770000000E+01 0.  1.
         15    1    3    3    0    0 -0.36866777902E+02 -0.29070284307E+02  0.56093185695E+02  0.73169966195E+02  0.17770000000E+01 0.  1.
</event>
<event>
 7    1  0.1738451E-005  0.5306408E+03  0.7546771E-02  0.9333744E-01
        -11   -1    0    0    0    0  0.00000000000E+00  0.00000000000E+00  0.50000000000E+03  0.50000000000E+03  0.00000000000E+00 0. -1.
         11   -1    0    0    0    0 -0.00000000000E+00 -0.00000000000E+00 -0.50000000000E+03  0.50000000000E+03  0.00000000000E+00 0. -1.
         25    2    1    2    0    0  0.36916156973E+02 -0.70294548616E+02 -0.20661186918E+03  0.25419150298E+03  0.12498291679E+03 0.  0.
        -11    1    1    2    0    0 -0.21223529909E+02 -0.16582471610E+02  0.46858579290E+03  0.46935920348E+03  0.00000000000E+00 0. -1.
         11    1    1    2    0    0 -0.15692627063E+02  0.86877020226E+02 -0.26197392372E+03  0.27644929354E+03  0.00000000000E+00 0. -1.
        -15    1    3    3    0    0  0.27913440740E+01  0.11325573668E+02 -0.14706209797E+03  0.14753466917E+03  0.17770000000E+01 0. -1.
         15    1    3    3    0    0  0.34124812899E+02 -0.81620122284E+02 -0.59549771211E+02  0.10665683381E+03  0.17770000000E+01 0. -1.
</event>
<event>
 7    1  0.1738451E-005  0.5479293E+03  0.7546771E-02  0.9298521E-01
        -11   -1    0    0    0    0  0.00000000000E+00  0.00000000000E+00  0.50000000000E+03  0.50000000000E+03  0.00000000000E+00 0.  1.
         11   -1    0    0    0    0 -0.00000000000E+00 -0.00000000000E+00 -0.50000000000E+03  0.50000000000E+03  0.00000000000E+00 0. -1.
         25    2    1    2    0    0  0.59545343983E+02 -0.61784150430E+02  0.96731327784E+02  0.17984486857E+03  0.12499719093E+03 0.  0.
        -11    1    1    2    0    0 -0.56020772654E+02  0.79637129131E+02  0.35497292490E+03  0.36808446954E+03  0.00000000000E+00 0.  1.
         11    1    1    2    0    0 -0.35245713297E+01 -0.17852978701E+02 -0.45170425268E+03  0.45207066189E+03  0.00000000000E+00 0. -1.
        -15    1    3    3    0    0  0.60196942465E+02 -0.41200821712E+02 -0.77132200734E+01  0.73374594273E+02  0.17770000000E+01 0.  1.
         15    1    3    3    0    0 -0.65159848139E+00 -0.20583328718E+02  0.10444454786E+03  0.10647027429E+03  0.17770000000E+01 0.  1.
</event>
<event>
 7    1  0.1738451E-005  0.3929115E+03  0.7546771E-02  0.9677580E-01
        -11   -1    0    0    0    0  0.00000000000E+00  0.00000000000E+00  0.50000000000E+03  0.50000000000E+03  0.00000000000E+00 0.  1.
         11   -1    0    0    0    0 -0.00000000000E+00 -0.00000000000E+00 -0.50000000000E+03  0.50000000000E+03  0.00000000000E+00 0. -1.
         25    2    1    2    0    0  0.74838413566E+02  0.12441293016E+03 -0.54023510297E+02  0.19905318995E+03  0.12499706969E+03 0.  0.
        -11    1    1    2    0    0  0.64588658428E+02 -0.59438398254E+02  0.40676327087E+03  0.41612615456E+03  0.00000000000E+00 0.  1.
         11    1    1    2    0    0 -0.13942707199E+03 -0.64974531903E+02 -0.35273976057E+03  0.38482065548E+03  0.00000000000E+00 0. -1.
        -15    1    3    3    0    0 -0.24476119463E+02  0.42401506649E+01 -0.33581725101E+02  0.41808483486E+02  0.17770000000E+01 0. -1.
         15    1    3    3    0    0  0.99314533028E+02  0.12017277949E+03 -0.20441785195E+02  0.15724470647E+03  0.17770000000E+01 0. -1.
</event>
<event>
 7    1  0.1738451E-005  0.5435395E+03  0.7546771E-02  0.9307333E-01
        -11   -1    0    0    0    0  0.00000000000E+00  0.00000000000E+00  0.50000000000E+03  0.50000000000E+03  0.00000000000E+00 0.  1.
         11   -1    0    0    0    0 -0.00000000000E+00 -0.00000000000E+00 -0.50000000000E+03  0.50000000000E+03  0.00000000000E+00 0. -1.
         25    2    1    2    0    0 -0.48367383791E+02 -0.10783526913E+03 -0.17378459852E+03  0.24452873213E+03  0.12500146028E+03 0.  0.
        -11    1    1    2    0    0 -0.21602280229E+02  0.33167942031E+02  0.45474100208E+03  0.45646045816E+03  0.00000000000E+00 0.  1.
         11    1    1    2    0    0  0.69969664020E+02  0.74667327103E+02 -0.28095640356E+03  0.29901080971E+03  0.00000000000E+00 0. -1.
        -15    1    3    3    0    0 -0.76504279000E+02 -0.11916885366E+03 -0.14175015575E+03  0.20037560922E+03  0.17770000000E+01 0.  1.
         15    1    3    3    0    0  0.28136895209E+02  0.11333584521E+02 -0.32034442771E+02  0.44153122910E+02  0.17770000000E+01 0.  1.
</event>
<event>
 7    1  0.1738451E-005  0.4036698E+03  0.7546771E-02  0.9645619E-01
        -11   -1    0    0    0    0  0.00000000000E+00  0.00000000000E+00  0.50000000000E+03  0.50000000000E+03  0.00000000000E+00 0.  1.
         11   -1    0    0    0    0 -0.00000000000E+00 -0.00000000000E+00 -0.50000000000E+03  0.50000000000E+03  0.00000000000E+00 0. -1.
         25    2    1    2    0    0 -0.68517363503E+02  0.10751221650E+03 -0.34830822120E+02  0.18191440162E+03  0.12500463011E+03 0.  0.
        -11    1    1    2    0    0  0.13657859890E+02 -0.11691948081E+03  0.41627664640E+03  0.43260021783E+03  0.00000000000E+00 0.  1.
         11    1    1    2    0    0  0.54859503613E+02  0.94072643074E+01 -0.38144582428E+03  0.38548538055E+03  0.00000000000E+00 0. -1.
        -15    1    3    3    0    0  0.27185043708E+02  0.49605068464E+02  0.16324885158E+02  0.58901180151E+02  0.17770000000E+01 0.  1.
         15    1    3    3    0    0 -0.95702407211E+02  0.57907148036E+02 -0.51155707278E+02  0.12301322147E+03  0.17770000000E+01 0.  1.
</event>
<event>
 7    1  0.1738451E-005  0.3422617E+03  0.7546771E-02  0.9844294E-01
        -11   -1    0    0    0    0  0.00000000000E+00  0.00000000000E+00  0.50000000000E+03  0.50000000000E+03  0.00000000000E+00 0.  1.
         11   -1    0    0    0    0 -0.00000000000E+00 -0.00000000000E+00 -0.50000000000E+03  0.50000000000E+03  0.00000000000E+00 0. -1.
         25    2    1    2    0    0  0.11743054964E+03  0.17602002011E+03 -0.12007099338E+03  0.27352755302E+03  0.12500918903E+03 0.  0.
        -11    1    1    2    0    0 -0.13410766106E+03 -0.10113178715E+03  0.40126409574E+03  0.43500043409E+03  0.00000000000E+00 0.  1.
         11    1    1    2    0    0  0.16677111420E+02 -0.74888232960E+02 -0.28119310236E+03  0.29147201289E+03  0.00000000000E+00 0. -1.
        -15    1    3    3    0    0 -0.24760079353E+02  0.92892484819E+01 -0.10305406995E+02  0.28437841150E+02  0.17770000000E+01 0.  1.
         15    1    3    3    0    0  0.14219062900E+03  0.16673077163E+03 -0.10976558639E+03  0.24508971187E+03  0.17770000000E+01 0.  1.
</event>
<event>
 7    1  0.1738451E-005  0.3675727E+03  0.7546771E-02  0.9757385E-01
        -11   -1    0    0    0    0  0.00000000000E+00  0.00000000000E+00  0.50000000000E+03  0.50000000000E+03  0.00000000000E+00 0. -1.
         11   -1    0    0    0    0 -0.00000000000E+00 -0.00000000000E+00 -0.50000000000E+03  0.50000000000E+03  0.00000000000E+00 0. -1.
         25    2    1    2    0    0 -0.20542454540E+03 -0.53881875000E+02  0.25609601366E+03  0.35540695997E+03  0.12500575459E+03 0.  0.
        -11    1    1    2    0    0  0.18476313125E+03  0.78539057960E+02  0.14155089432E+03  0.24564701093E+03  0.00000000000E+00 0. -1.
         11    1    1    2    0    0  0.20661414149E+02 -0.24657182960E+02 -0.39764690798E+03  0.39894602910E+03  0.00000000000E+00 0. -1.
        -15    1    3    3    0    0 -0.38652392069E+02  0.32249096599E+02  0.97195017746E+02  0.10947164404E+03  0.17770000000E+01 0.  1.
         15    1    3    3    0    0 -0.16677215333E+03 -0.86130971600E+02  0.15890099591E+03  0.24593531594E+03  0.17770000000E+01 0.  1.
</event>
<event>
 7    1  0.1738451E-005  0.3545025E+03  0.7546771E-02  0.9801293E-01
        -11   -1    0    0    0    0  0.00000000000E+00  0.00000000000E+00  0.50000000000E+03  0.50000000000E+03  0.00000000000E+00 0. -1.
         11   -1    0    0    0    0 -0.00000000000E+00 -0.00000000000E+00 -0.50000000000E+03  0.50000000000E+03  0.00000000000E+00 0. -1.
         25    2    1    2    0    0  0.46720115866E+02  0.13504791252E+03 -0.17242058277E+03  0.25646948952E+03  0.12500813490E+03 0.  0.
        -11    1    1    2    0    0 -0.68284310115E+02 -0.61730465100E+01  0.44023395185E+03  0.44554100358E+03  0.00000000000E+00 0. -1.
         11    1    1    2    0    0  0.21564194249E+02 -0.12887486601E+03 -0.26781336908E+03  0.29798950690E+03  0.00000000000E+00 0. -1.
        -15    1    3    3    0    0 -0.61521010785E+01  0.10465172655E+03 -0.16432097500E+03  0.19492145283E+03  0.17770000000E+01 0.  1.
         15    1    3    3    0    0  0.52872216945E+02  0.30396185972E+02 -0.80996077658E+01  0.61548036697E+02  0.17770000000E+01 0.  1.
</event>
<event>
 7    1  0.1738451E-005  0.4283146E+03  0.7546771E-02  0.9576252E-01
        -11   -1    0    0    0    0  0.00000000000E+00  0.00000000000E+00  0.50000000000E+03  0.50000000000E+03  0.00000000000E+00 0.  1.
         11   -1    0    0    0    0 -0.00000000000E+00 -0.00000000000E+00 -0.50000000000E+03  0.50000000000E+03  0.00000000000E+00 0.  1.
         25    2    1    2    0    0  0.56627734968E+02  0.31470862140E+02  0.57082397423E+01  0.14090549902E+03  0.12499864048E+03 0.  0.
        -11    1    1    2    0    0 -0.86299440282E+02 -0.28805502048E+02  0.42131855726E+03  0.43102978671E+03  0.00000000000E+00 0.  1.
         11    1    1    2    0    0  0.29671705314E+02 -0.26653600924E+01 -0.42702679700E+03  0.42806471427E+03  0.00000000000E+00 0.  1.
        -15    1    3    3    0    0  0.70177212375E+02  0.63000642225E+02 -0.21890283305E+02  0.96831112198E+02  0.17770000000E+01 0. -1.
         15    1    3    3    0    0 -0.13549477406E+02 -0.31529780085E+02  0.27598523047E+02  0.44074386820E+02  0.17770000000E+01 0. -1.
</event>
<event>
 7    1  0.1738451E-005  0.5422997E+03  0.7546771E-02  0.9309838E-01
        -11   -1    0    0    0    0  0.00000000000E+00  0.00000000000E+00  0.50000000000E+03  0.50000000000E+03  0.00000000000E+00 0. -1.
         11   -1    0    0    0    0 -0.00000000000E+00 -0.00000000000E+00 -0.50000000000E+03  0.50000000000E+03  0.00000000000E+00 0. -1.
         25    2    1    2    0    0  0.12101419874E+03 -0.15230299790E+03  0.14367180927E+03  0.27222612829E+03  0.12499934670E+03 0.  0.
        -11    1    1    2    0    0  0.48433135786E+02  0.31107199378E+02  0.26386801425E+03  0.27007361115E+03  0.00000000000E+00 0. -1.
         11    1    1    2    0    0 -0.16944733453E+03  0.12119579852E+03 -0.40753982352E+03  0.45770026056E+03  0.00000000000E+00 0. -1.
        -15    1    3    3    0    0  0.13447298590E+03 -0.14084159035E+03  0.87832209116E+02  0.21362816340E+03  0.17770000000E+01 0. -1.
         15    1    3    3    0    0 -0.13458787156E+02 -0.11461407554E+02  0.55839600158E+02  0.58597964893E+02  0.17770000000E+01 0. -1.
</event>
<event>
 7    1  0.1738451E-005  0.4069587E+03  0.7546771E-02  0.9636061E-01
        -11   -1    0    0    0    0  0.00000000000E+00  0.00000000000E+00  0.50000000000E+03  0.50000000000E+03  0.00000000000E+00 0.  1.
         11   -1    0    0    0    0 -0.00000000000E+00 -0.00000000000E+00 -0.50000000000E+03  0.50000000000E+03  0.00000000000E+00 0. -1.
         25    2    1    2    0    0 -0.44330971506E+02  0.11569953958E+03  0.14309999539E+02  0.17658165309E+03  0.12499874250E+03 0.  0.
        -11    1    1    2    0    0 -0.21176385352E+01 -0.10584641386E+03  0.39623621667E+03  0.41013544972E+03  0.00000000000E+00 0.  1.
         11    1    1    2    0    0  0.46448610041E+02 -0.98531257264E+01 -0.41054621621E+03  0.41328289718E+03  0.00000000000E+00 0. -1.
        -15    1    3    3    0    0  0.18488079839E+02  0.87006207377E+02 -0.30715536758E+02  0.94119557721E+02  0.17770000000E+01 0. -1.
         15    1    3    3    0    0 -0.62819051346E+02  0.28693332208E+02  0.45025536297E+02  0.82462095371E+02  0.17770000000E+01 0. -1.
</event>
<event>
 7    1  0.1738451E-005  0.5291056E+03  0.7546771E-02  0.9336940E-01
        -11   -1    0    0    0    0  0.00000000000E+00  0.00000000000E+00  0.50000000000E+03  0.50000000000E+03  0.00000000000E+00 0.  1.
         11   -1    0    0    0    0 -0.00000000000E+00 -0.00000000000E+00 -0.50000000000E+03  0.50000000000E+03  0.00000000000E+00 0. -1.
         25    2    1    2    0    0  0.72186460793E+01 -0.22247388171E+02  0.10497028803E+03  0.16488570125E+03  0.12498591111E+03 0.  0.
        -11    1    1    2    0    0 -0.27622878894E+02 -0.83215634522E+02  0.35350848235E+03  0.36421986816E+03  0.00000000000E+00 0.  1.
         11    1    1    2    0    0  0.20404232815E+02  0.10546302269E+03 -0.45847877038E+03  0.47089443059E+03  0.00000000000E+00 0. -1.
        -15    1    3    3    0    0  0.31540412044E+02  0.33727725054E+01  0.12168528834E+03  0.12576422509E+03  0.17770000000E+01 0.  1.
         15    1    3    3    0    0 -0.24321765965E+02 -0.25620160676E+02 -0.16715000307E+02  0.39121476161E+02  0.17770000000E+01 0.  1.
</event>
<event>
 7    1  0.1738451E-005  0.5466705E+03  0.7546771E-02  0.9301039E-01
        -11   -1    0    0    0    0  0.00000000000E+00  0.00000000000E+00  0.50000000000E+03  0.50000000000E+03  0.00000000000E+00 0. -1.
         11   -1    0    0    0    0 -0.00000000000E+00 -0.00000000000E+00 -0.50000000000E+03  0.50000000000E+03  0.00000000000E+00 0. -1.
         25    2    1    2    0    0 -0.17528022711E+02  0.22803561337E+02  0.39638929389E+02  0.13424914270E+03  0.12499741439E+03 0.  0.
        -11    1    1    2    0    0  0.13577795057E+02  0.18614447158E+02  0.41177726815E+03  0.41242135338E+03  0.00000000000E+00 0. -1.
         11    1    1    2    0    0  0.39502276538E+01 -0.41418008495E+02 -0.45141619754E+03  0.45332950392E+03  0.00000000000E+00 0. -1.
        -15    1    3    3    0    0 -0.64338243921E+02 -0.15314573112E+02  0.97829283872E+01  0.66879063968E+02  0.17770000000E+01 0. -1.
         15    1    3    3    0    0  0.46810221210E+02  0.38118134449E+02  0.29856001002E+02  0.67370078733E+02  0.17770000000E+01 0. -1.
</event>
<event>
 7    1  0.1738451E-005  0.5489235E+03  0.7546771E-02  0.9296538E-01
        -11   -1    0    0    0    0  0.00000000000E+00  0.00000000000E+00  0.50000000000E+03  0.50000000000E+03  0.00000000000E+00 0.  1.
         11   -1    0    0    0    0 -0.00000000000E+00 -0.00000000000E+00 -0.50000000000E+03  0.50000000000E+03  0.00000000000E+00 0. -1.
         25    2    1    2    0    0  0.11173108300E+03 -0.18286836139E+00 -0.61220322237E+02  0.17848264690E+03  0.12499703613E+03 0.  0.
        -11    1    1    2    0    0 -0.13289181093E+03  0.17383820597E+01  0.43105305055E+03  0.45107647663E+03  0.00000000000E+00 0.  1.
         11    1    1    2    0    0  0.21160727928E+02 -0.15555136983E+01 -0.36983272831E+03  0.37044087647E+03  0.00000000000E+00 0. -1.
        -15    1    3    3    0    0  0.91830477139E+02  0.55574389660E+02 -0.29681214066E+02  0.11137989727E+03  0.17770000000E+01 0.  1.
         15    1    3    3    0    0  0.19900605861E+02 -0.55757258021E+02 -0.31539108171E+02  0.67102749638E+02  0.17770000000E+01 0.  1.
</event>
<event>
 7    1  0.1738451E-005  0.5495085E+03  0.7546771E-02  0.9295373E-01
        -11   -1    0    0    0    0  0.00000000000E+00  0.00000000000E+00  0.50000000000E+03  0.50000000000E+03  0.00000000000E+00 0.  1.
         11   -1    0    0    0    0 -0.00000000000E+00 -0.00000000000E+00 -0.50000000000E+03  0.50000000000E+03  0.00000000000E+00 0. -1.
         25    2    1    2    0    0 -0.20143180221E+01 -0.10103848725E+03  0.88381188833E+02  0.18345252141E+03  0.12502303664E+03 0.  0.
        -11    1    1    2    0    0 -0.38740183511E+02  0.62460077134E+02  0.35860132967E+03  0.36605597481E+03  0.00000000000E+00 0.  1.
         11    1    1    2    0    0  0.40754501533E+02  0.38578410114E+02 -0.44698251851E+03  0.45049150377E+03  0.00000000000E+00 0. -1.
        -15    1    3    3    0    0  0.34234421879E+02 -0.11383023030E+03  0.49577343047E+02  0.12880367869E+03  0.17770000000E+01 0. -1.
         15    1    3    3    0    0 -0.36248739901E+02  0.12791743047E+02  0.38803845786E+02  0.54648842727E+02  0.17770000000E+01 0. -1.
</event>
<event>
 7    1  0.1738451E-005  0.3465036E+03  0.7546771E-02  0.9829177E-01
        -11   -1    0    0    0    0  0.00000000000E+00  0.00000000000E+00  0.50000000000E+03  0.50000000000E+03  0.00000000000E+00 0.  1.
         11   -1    0    0    0    0 -0.00000000000E+00 -0.00000000000E+00 -0.50000000000E+03  0.50000000000E+03  0.00000000000E+00 0. -1.
         25    2    1    2    0    0  0.11729177300E+03  0.84803531516E+02 -0.21392098086E+03  0.28692397443E+03  0.12495672083E+03 0.  0.
        -11    1    1    2    0    0  0.39097803441E+02 -0.30640289946E+02  0.43448917464E+03  0.43731945816E+03  0.00000000000E+00 0.  1.
         11    1    1    2    0    0 -0.15638957644E+03 -0.54163241570E+02 -0.22056819379E+03  0.27575656741E+03  0.00000000000E+00 0. -1.
        -15    1    3    3    0    0  0.13788553000E+03  0.80583477667E+02 -0.14813361161E+03  0.21783672986E+03  0.17770000000E+01 0. -1.
         15    1    3    3    0    0 -0.20593756999E+02  0.42200538487E+01 -0.65787369243E+02  0.69087244573E+02  0.17770000000E+01 0. -1.
</event>
<event>
 7    1  0.1738451E-005  0.4002174E+03  0.7546771E-02  0.9655759E-01
        -11   -1    0    0    0    0  0.00000000000E+00  0.00000000000E+00  0.50000000000E+03  0.50000000000E+03  0.00000000000E+00 0.  1.
         11   -1    0    0    0    0 -0.00000000000E+00 -0.00000000000E+00 -0.50000000000E+03  0.50000000000E+03  0.00000000000E+00 0.  1.
         25    2    1    2    0    0 -0.10781250262E+03  0.85180005845E+02 -0.25225717988E+02  0.18746604016E+03  0.12501204042E+03 0.  0.
        -11    1    1    2    0    0  0.85542514843E+01 -0.59321858844E+02  0.40998220590E+03  0.41434003827E+03  0.00000000000E+00 0.  1.
         11    1    1    2    0    0  0.99258251137E+02 -0.25858147001E+02 -0.38475648791E+03  0.39819392157E+03  0.00000000000E+00 0.  1.
        -15    1    3    3    0    0  0.53903367748E+01 -0.40703754756E+01 -0.41774098191E+02  0.42353945457E+02  0.17770000000E+01 0.  1.
         15    1    3    3    0    0 -0.11320283940E+03  0.89250381321E+02  0.16548380204E+02  0.14511209471E+03  0.17770000000E+01 0.  1.
</event>
<event>
 7    1  0.1738451E-005  0.5407172E+03  0.7546771E-02  0.9313045E-01
        -11   -1    0    0    0    0  0.00000000000E+00  0.00000000000E+00  0.50000000000E+03  0.50000000000E+03  0.00000000000E+00 0. -1.
         11   -1    0    0    0    0 -0.00000000000E+00 -0.00000000000E+00 -0.50000000000E+03  0.50000000000E+03  0.00000000000E+00 0. -1.
         25    2    1    2    0    0  0.17933018791E+02 -0.30347210999E+02  0.70683078391E+02  0.14786272358E+03  0.12499896430E+03 0.  0.
        -11    1    1    2    0    0  0.85654217465E+02  0.89238492796E+02  0.37287325293E+03  0.39285444673E+03  0.00000000000E+00 0. -1.
         11    1    1    2    0    0 -0.10358723626E+03 -0.58891281797E+02 -0.44355633132E+03  0.45928282969E+03  0.00000000000E+00 0. -1.
        -15    1    3    3    0    0 -0.50950300323E+02 -0.32272626170E+02  0.25910034933E+02  0.65665387702E+02  0.17770000000E+01 0.  1.
         15    1    3    3    0    0  0.68883319114E+02  0.19254151706E+01  0.44773043458E+02  0.82197335877E+02  0.17770000000E+01 0.  1.
</event>
<event>
 7    1  0.1738451E-005  0.5354293E+03  0.7546771E-02  0.9323847E-01
        -11   -1    0    0    0    0  0.00000000000E+00  0.00000000000E+00  0.50000000000E+03  0.50000000000E+03  0.00000000000E+00 0. -1.
         11   -1    0    0    0    0 -0.00000000000E+00 -0.00000000000E+00 -0.50000000000E+03  0.50000000000E+03  0.00000000000E+00 0.  1.
         25    2    1    2    0    0 -0.67164728335E+02 -0.86645756440E+01 -0.93660967703E+02  0.17023794812E+03  0.12498962559E+03 0.  0.
        -11    1    1    2    0    0  0.74684507062E+02 -0.56771393224E+01  0.45849310856E+03  0.46457070086E+03  0.00000000000E+00 0. -1.
         11    1    1    2    0    0 -0.75197787269E+01  0.14341714966E+02 -0.36483214085E+03  0.36519135102E+03  0.00000000000E+00 0.  1.
        -15    1    3    3    0    0 -0.61870205685E+02 -0.46370788492E+02 -0.10505616349E+03  0.13045354573E+03  0.17770000000E+01 0.  1.
         15    1    3    3    0    0 -0.52945226493E+01  0.37706212848E+02  0.11395195787E+02  0.39784402389E+02  0.17770000000E+01 0.  1.
</event>
<event>
 7    1  0.1738451E-005  0.5304904E+03  0.7546771E-02  0.9334056E-01
        -11   -1    0    0    0    0  0.00000000000E+00  0.00000000000E+00  0.50000000000E+03  0.50000000000E+03  0.00000000000E+00 0.  1.
         11   -1    0    0    0    0 -0.00000000000E+00 -0.00000000000E+00 -0.50000000000E+03  0.50000000000E+03  0.00000000000E+00 0. -1.
         25    2    1    2    0    0 -0.46438507201E+01  0.35950747365E+02 -0.10277315414E+03  0.16583596340E+03  0.12500089583E+03 0.  0.
        -11    1    1    2    0    0 -0.17297731624E+02 -0.50341326494E+02  0.46648233172E+03  0.46950955952E+03  0.00000000000E+00 0.  1.
         11    1    1    2    0    0  0.21941582344E+02  0.14390579129E+02 -0.36370917758E+03  0.36465447709E+03  0.00000000000E+00 0. -1.
        -15    1    3    3    0    0 -0.22900957431E+02 -0.18626060407E+02 -0.10412507800E+03  0.10824312253E+03  0.17770000000E+01 0.  1.
         15    1    3    3    0    0  0.18257106711E+02  0.54576807772E+02  0.13519238611E+01  0.57592840867E+02  0.17770000000E+01 0.  1.
</event>
<event>
 7    1  0.1738451E-005  0.3997520E+03  0.7546771E-02  0.9657134E-01
        -11   -1    0    0    0    0  0.00000000000E+00  0.00000000000E+00  0.50000000000E+03  0.50000000000E+03  0.00000000000E+00 0. -1.
         11   -1    0    0    0    0 -0.00000000000E+00 -0.00000000000E+00 -0.50000000000E+03  0.50000000000E+03  0.00000000000E+00 0.  1.
         25    2    1    2    0    0 -0.81574146468E+02  0.10308891283E+03  0.50148542544E+02  0.18820991724E+03  0.12500572510E+03 0.  0.
        -11    1    1    2    0    0  0.47636216204E+02 -0.12478388135E+03  0.36811171888E+03  0.39159476977E+03  0.00000000000E+00 0. -1.
         11    1    1    2    0    0  0.33937930265E+02  0.21694968523E+02 -0.41826026142E+03  0.42019531298E+03  0.00000000000E+00 0.  1.
        -15    1    3    3    0    0 -0.11349891975E+03  0.69163757995E+02  0.48715111283E+02  0.14156959420E+03  0.17770000000E+01 0.  1.
         15    1    3    3    0    0  0.31924773282E+02  0.33925154836E+02  0.14334312613E+01  0.46640323047E+02  0.17770000000E+01 0.  1.
</event>
<event>
 7    1  0.1738451E-005  0.4009009E+03  0.7546771E-02  0.9653743E-01
        -11   -1    0    0    0    0  0.00000000000E+00  0.00000000000E+00  0.50000000000E+03  0.50000000000E+03  0.00000000000E+00 0. -1.
         11   -1    0    0    0    0 -0.00000000000E+00 -0.00000000000E+00 -0.50000000000E+03  0.50000000000E+03  0.00000000000E+00 0. -1.
         25    2    1    2    0    0 -0.12571434094E+03 -0.23937096365E+02  0.52273249983E+02  0.18636873779E+03  0.12499493454E+03 0.  0.
        -11    1    1    2    0    0  0.12977932648E+03  0.16397894922E+02  0.36939670231E+03  0.39187432707E+03  0.00000000000E+00 0. -1.
         11    1    1    2    0    0 -0.40649855393E+01  0.75392014437E+01 -0.42166995230E+03  0.42175693514E+03  0.00000000000E+00 0. -1.
        -15    1    3    3    0    0 -0.28306786173E+02 -0.65609465634E+01 -0.41063259190E+02  0.50335565434E+02  0.17770000000E+01 0. -1.
         15    1    3    3    0    0 -0.97407554768E+02 -0.17376149802E+02  0.93336509173E+02  0.13603317236E+03  0.17770000000E+01 0. -1.
</event>
<event>
 7    1  0.1738451E-005  0.5193417E+03  0.7546771E-02  0.9357542E-01
        -11   -1    0    0    0    0  0.00000000000E+00  0.00000000000E+00  0.50000000000E+03  0.50000000000E+03  0.00000000000E+00 0.  1.
         11   -1    0    0    0    0 -0.00000000000E+00 -0.00000000000E+00 -0.50000000000E+03  0.50000000000E+03  0.00000000000E+00 0. -1.
         25    2    1    2    0    0  0.21398258401E+02 -0.32080363394E+02 -0.21132819828E+03  0.24854110405E+03  0.12500415128E+03 0.  0.
        -11    1    1    2    0    0 -0.10787636289E+03  0.23505367213E+02  0.46780617630E+03  0.48065833036E+03  0.00000000000E+00 0.  1.
         11    1    1    2    0    0  0.86478104491E+02  0.85749961817E+01 -0.25647797802E+03  0.27080056559E+03  0.00000000000E+00 0. -1.
        -15    1    3    3    0    0 -0.40125649920E+02 -0.49170928375E+02 -0.13370412809E+03  0.14801283585E+03  0.17770000000E+01 0. -1.
         15    1    3    3    0    0  0.61523908321E+02  0.17090564980E+02 -0.77624070187E+02  0.10052826820E+03  0.17770000000E+01 0. -1.
</event>
<event>
 7    1  0.1738451E-005  0.5334956E+03  0.7546771E-02  0.9327830E-01
        -11   -1    0    0    0    0  0.00000000000E+00  0.00000000000E+00  0.50000000000E+03  0.50000000000E+03  0.00000000000E+00 0.  1.
         11   -1    0    0    0    0 -0.00000000000E+00 -0.00000000000E+00 -0.50000000000E+03  0.50000000000E+03  0.00000000000E+00 0.  1.
         25    2    1    2    0    0 -0.85726656368E+02  0.47594439896E+02 -0.15990288832E+03  0.22540457167E+03  0.12499598760E+03 0.  0.
        -11    1    1    2    0    0  0.34297869846E+02 -0.39488972921E+02  0.46356298746E+03  0.46650441177E+03  0.00000000000E+00 0.  1.
         11    1    1    2    0    0  0.51428786522E+02 -0.81054669748E+01 -0.30366009914E+03  0.30809101656E+03  0.00000000000E+00 0.  1.
        -15    1    3    3    0    0 -0.57934522912E+02  0.89420850418E+02 -0.12481408643E+03  0.16411645662E+03  0.17770000000E+01 0.  1.
         15    1    3    3    0    0 -0.27792133456E+02 -0.41826410522E+02 -0.35088801890E+02  0.61288115049E+02  0.17770000000E+01 0.  1.
</event>
<event>
 7    1  0.1738451E-005  0.3883143E+03  0.7546771E-02  0.9691573E-01
        -11   -1    0    0    0    0  0.00000000000E+00  0.00000000000E+00  0.50000000000E+03  0.50000000000E+03  0.00000000000E+00 0. -1.
         11   -1    0    0    0    0 -0.00000000000E+00 -0.00000000000E+00 -0.50000000000E+03  0.50000000000E+03  0.00000000000E+00 0. -1.
         25    2    1    2    0    0 -0.22324593314E+02  0.14144765039E+03 -0.80016345671E+02  0.20623646319E+03  0.12500015163E+03 0.  0.
        -11    1    1    2    0    0  0.22584827424E+02 -0.90355709463E+02  0.43005055577E+03  0.44002012360E+03  0.00000000000E+00 0. -1.
         11    1    1    2    0    0 -0.26023411031E+00 -0.51091940927E+02 -0.35003421009E+03  0.35374341320E+03  0.00000000000E+00 0. -1.
        -15    1    3    3    0    0  0.22873309645E+02  0.10201984577E+03 -0.98290292682E+02  0.14351089363E+03  0.17770000000E+01 0.  1.
         15    1    3    3    0    0 -0.45197902958E+02  0.39427804621E+02  0.18273947011E+02  0.62725569567E+02  0.17770000000E+01 0.  1.
</event>
<event>
 7    1  0.1738451E-005  0.5259433E+03  0.7546771E-02  0.9343560E-01
        -11   -1    0    0    0    0  0.00000000000E+00  0.00000000000E+00  0.50000000000E+03  0.50000000000E+03  0.00000000000E+00 0.  1.
         11   -1    0    0    0    0 -0.00000000000E+00 -0.00000000000E+00 -0.50000000000E+03  0.50000000000E+03  0.00000000000E+00 0.  1.
         25    2    1    2    0    0  0.87618121161E+02 -0.11991979674E+02 -0.13902860684E+03  0.20681693207E+03  0.12499418843E+03 0.  0.
        -11    1    1    2    0    0 -0.13158083766E+03  0.18933600092E+02  0.45503604546E+03  0.47405674842E+03  0.00000000000E+00 0.  1.
         11    1    1    2    0    0  0.43962716496E+02 -0.69416204181E+01 -0.31600743862E+03  0.31912631950E+03  0.00000000000E+00 0.  1.
        -15    1    3    3    0    0  0.55794531101E+02 -0.17961077472E+02  0.53095196081E+01  0.58881055801E+02  0.17770000000E+01 0.  1.
         15    1    3    3    0    0  0.31823590060E+02  0.59690977979E+01 -0.14433812645E+03  0.14793587627E+03  0.17770000000E+01 0.  1.
</event>
<event>
 7    1  0.1738451E-005  0.4168935E+03  0.7546771E-02  0.9607762E-01
        -11   -1    0    0    0    0  0.00000000000E+00  0.00000000000E+00  0.50000000000E+03  0.50000000000E+03  0.00000000000E+00 0. -1.
         11   -1    0    0    0    0 -0.00000000000E+00 -0.00000000000E+00 -0.50000000000E+03  0.50000000000E+03  0.00000000000E+00 0. -1.
         25    2    1    2    0    0  0.90122669429E+02 -0.29046108149E+02 -0.32576544454E+02  0.16022153617E+03  0.12507572690E+03 0.  0.
        -11    1    1    2    0    0  0.66017703080E+02  0.17159851868E+02  0.41812012237E+03  0.42364753553E+03  0.00000000000E+00 0. -1.
         11    1    1    2    0    0 -0.15614037251E+03  0.11886256280E+02 -0.38554357791E+03  0.41613092830E+03  0.00000000000E+00 0. -1.
        -15    1    3    3    0    0  0.11779998597E+03 -0.37870337017E+02 -0.11492741003E+02  0.12428290287E+03  0.17770000000E+01 0.  1.
         15    1    3    3    0    0 -0.27677316545E+02  0.88242288685E+01 -0.21083803452E+02  0.35938633297E+02  0.17770000000E+01 0.  1.
</event>
<event>
 7    1  0.1738451E-005  0.5153987E+03  0.7546771E-02  0.9365998E-01
        -11   -1    0    0    0    0  0.00000000000E+00  0.00000000000E+00  0.50000000000E+03  0.50000000000E+03  0.00000000000E+00 0. -1.
         11   -1    0    0    0    0 -0.00000000000E+00 -0.00000000000E+00 -0.50000000000E+03  0.50000000000E+03  0.00000000000E+00 0. -1.
         25    2    1    2    0    0  0.83284455532E+02 -0.25949303232E+02  0.34950666983E+03  0.38129969004E+03  0.12499949799E+03 0.  0.
        -11    1    1    2    0    0 -0.27884447526E+02 -0.97158653259E+00  0.13116424105E+03  0.13409901016E+03  0.00000000000E+00 0. -1.
         11    1    1    2    0    0 -0.55400008006E+02  0.26920889765E+02 -0.48067091089E+03  0.48460129980E+03  0.00000000000E+00 0. -1.
        -15    1    3    3    0    0 -0.26232358797E+02 -0.32290684459E+02  0.11746414612E+03  0.12462667573E+03  0.17770000000E+01 0.  1.
         15    1    3    3    0    0  0.10951681433E+03  0.63413812266E+01  0.23204252372E+03  0.25667301432E+03  0.17770000000E+01 0.  1.
</event>
<event>
 7    1  0.1738451E-005  0.5210045E+03  0.7546771E-02  0.9353999E-01
        -11   -1    0    0    0    0  0.00000000000E+00  0.00000000000E+00  0.50000000000E+03  0.50000000000E+03  0.00000000000E+00 0.  1.
         11   -1    0    0    0    0 -0.00000000000E+00 -0.00000000000E+00 -0.50000000000E+03  0.50000000000E+03  0.00000000000E+00 0. -1.
         25    2    1    2    0    0 -0.45209937549E+02  0.79198703362E+02 -0.22785458026E+03  0.27542406574E+03  0.12499733269E+03 0.  0.
        -11    1    1    2    0    0  0.80669266781E+02 -0.51762663141E+02  0.46930777790E+03  0.47899550551E+03  0.00000000000E+00 0.  1.
         11    1    1    2    0    0 -0.35459329231E+02 -0.27436040222E+02 -0.24145319764E+03  0.24558042875E+03  0.00000000000E+00 0. -1.
        -15    1    3    3    0    0 -0.19673895063E+02 -0.27470303752E+02 -0.10693485317E+03  0.11216015463E+03  0.17770000000E+01 0. -1.
         15    1    3    3    0    0 -0.25536042486E+02  0.10666900711E+03 -0.12091972708E+03  0.16326391111E+03  0.17770000000E+01 0. -1.
</event>
<event>
 7    1  0.1738451E-005  0.4169184E+03  0.7546771E-02  0.9607692E-01
        -11   -1    0    0    0    0  0.00000000000E+00  0.00000000000E+00  0.50000000000E+03  0.50000000000E+03  0.00000000000E+00 0. -1.
         11   -1    0    0    0    0 -0.00000000000E+00 -0.00000000000E+00 -0.50000000000E+03  0.50000000000E+03  0.00000000000E+00 0. -1.
         25    2    1    2    0    0 -0.19179569390E+01 -0.88373185986E+02 -0.47093103695E+02  0.16016967746E+03  0.12499226617E+03 0.  0.
        -11    1    1    2    0    0  0.16856642098E+02 -0.22245675548E+01  0.43797681879E+03  0.43830672922E+03  0.00000000000E+00 0. -1.
         11    1    1    2    0    0 -0.14938685159E+02  0.90597753541E+02 -0.39088371510E+03  0.40152359332E+03  0.00000000000E+00 0. -1.
        -15    1    3    3    0    0  0.48562321860E+02 -0.27714235813E+02  0.17023112141E+02  0.58474969407E+02  0.17770000000E+01 0. -1.
         15    1    3    3    0    0 -0.50480278799E+02 -0.60658950173E+02 -0.64116215836E+02  0.10169470805E+03  0.17770000000E+01 0. -1.
</event>
<event>
 7    1  0.1738451E-005  0.5327723E+03  0.7546771E-02  0.9329325E-01
        -11   -1    0    0    0    0  0.00000000000E+00  0.00000000000E+00  0.50000000000E+03  0.50000000000E+03  0.00000000000E+00 0.  1.
         11   -1    0    0    0    0 -0.00000000000E+00 -0.00000000000E+00 -0.50000000000E+03  0.50000000000E+03  0.00000000000E+00 0. -1.
         25    2    1    2    0    0 -0.95869119838E+02  0.11616415451E+03 -0.16074397820E+03  0.25327461786E+03  0.12499762635E+03 0.  0.
        -11    1    1    2    0    0  0.79018939074E+02 -0.13994380099E+03  0.43871798645E+03  0.46722770873E+03  0.00000000000E+00 0.  1.
         11    1    1    2    0    0  0.16850180764E+02  0.23779646479E+02 -0.27797400825E+03  0.27949767341E+03  0.00000000000E+00 0. -1.
        -15    1    3    3    0    0 -0.10082831129E+02  0.87947538335E+02 -0.13112094591E+03  0.15821597001E+03  0.17770000000E+01 0.  1.
         15    1    3    3    0    0 -0.85786288709E+02  0.28216616174E+02 -0.29623032293E+02  0.95058647845E+02  0.17770000000E+01 0.  1.
</event>
<event>
 7    1  0.1738451E-005  0.3942172E+03  0.7546771E-02  0.9673643E-01
        -11   -1    0    0    0    0  0.00000000000E+00  0.00000000000E+00  0.50000000000E+03  0.50000000000E+03  0.00000000000E+00 0. -1.
         11   -1    0    0    0    0 -0.00000000000E+00 -0.00000000000E+00 -0.50000000000E+03  0.50000000000E+03  0.00000000000E+00 0. -1.
         25    2    1    2    0    0 -0.20086861785E+02  0.12670379898E+03  0.82016694740E+02  0.19699764665E+03  0.12499599946E+03 0.  0.
        -11    1    1    2    0    0  0.30679791106E+01 -0.93073707266E+02  0.35365146680E+03  0.36570683265E+03  0.00000000000E+00 0. -1.
         11    1    1    2    0    0  0.17018882674E+02 -0.33630091710E+02 -0.43566816154E+03  0.43729552069E+03  0.00000000000E+00 0. -1.
        -15    1    3    3    0    0 -0.54138863340E+02  0.95655568040E+02  0.98918546098E+02  0.14788184714E+03  0.17770000000E+01 0. -1.
         15    1    3    3    0    0  0.34052001555E+02  0.31048230935E+02 -0.16901851358E+02  0.49115799520E+02  0.17770000000E+01 0. -1.
</event>
<event>
 7    1  0.1738451E-005  0.5216573E+03  0.7546771E-02  0.9352613E-01
        -11   -1    0    0    0    0  0.00000000000E+00  0.00000000000E+00  0.50000000000E+03  0.50000000000E+03  0.00000000000E+00 0.  1.
         11   -1    0    0    0    0 -0.00000000000E+00 -0.00000000000E+00 -0.50000000000E+03  0.50000000000E+03  0.00000000000E+00 0. -1.
         25    2    1    2    0    0  0.98749433222E+02  0.46382834349E+02  0.25102057144E+03  0.30089214051E+03  0.12498773961E+03 0.  0.
        -11    1    1    2    0    0 -0.28600100984E+02  0.11418659275E+02  0.21860672924E+03  0.22076515491E+03  0.00000000000E+00 0.  1.
         11    1    1    2    0    0 -0.70149332238E+02 -0.57801493624E+02 -0.46962730068E+03  0.47834270457E+03  0.00000000000E+00 0. -1.
        -15    1    3    3    0    0 -0.17883093286E+02 -0.10237938632E+02  0.28334822013E+01  0.20875985325E+02  0.17770000000E+01 0.  1.
         15    1    3    3    0    0  0.11663252651E+03  0.56620772981E+02  0.24818708924E+03  0.28001615519E+03  0.17770000000E+01 0.  1.
</event>
<event>
 7    1  0.1738451E-005  0.4353403E+03  0.7546771E-02  0.9557384E-01
        -11   -1    0    0    0    0  0.00000000000E+00  0.00000000000E+00  0.50000000000E+03  0.50000000000E+03  0.00000000000E+00 0. -1.
         11   -1    0    0    0    0 -0.00000000000E+00 -0.00000000000E+00 -0.50000000000E+03  0.50000000000E+03  0.00000000000E+00 0. -1.
         25    2    1    2    0    0  0.89558424513E+01 -0.28734669856E+02 -0.70884715438E+01  0.12877058461E+03  0.12500291463E+03 0.  0.
        -11    1    1    2    0    0 -0.66074145930E+02  0.37332783240E+02  0.43392031214E+03  0.44050694291E+03  0.00000000000E+00 0. -1.
         11    1    1    2    0    0  0.57118303479E+02 -0.85981133846E+01 -0.42683184060E+03  0.43072247248E+03  0.00000000000E+00 0. -1.
        -15    1    3    3    0    0 -0.43921222126E+02  0.21228259735E+02  0.17654905818E+02  0.51909211060E+02  0.17770000000E+01 0.  1.
         15    1    3    3    0    0  0.52877064578E+02 -0.49962929590E+02 -0.24743377362E+02  0.76861373549E+02  0.17770000000E+01 0.  1.
</event>
<event>
 7    1  0.1738451E-005  0.5143201E+03  0.7546771E-02  0.9368325E-01
        -11   -1    0    0    0    0  0.00000000000E+00  0.00000000000E+00  0.50000000000E+03  0.50000000000E+03  0.00000000000E+00 0.  1.
         11   -1    0    0    0    0 -0.00000000000E+00 -0.00000000000E+00 -0.50000000000E+03  0.50000000000E+03  0.00000000000E+00 0. -1.
         25    2    1    2    0    0  0.32562171347E+02 -0.22681552413E+01 -0.30229362009E+03  0.32874201807E+03  0.12499776866E+03 0.  0.
        -11    1    1    2    0    0 -0.81317342547E+02 -0.34190116940E+02  0.47760179812E+03  0.48567988620E+03  0.00000000000E+00 0.  1.
         11    1    1    2    0    0  0.48755171200E+02  0.36458272181E+02 -0.17530817803E+03  0.18557809573E+03  0.00000000000E+00 0. -1.
        -15    1    3    3    0    0  0.93322067364E+01  0.59498901347E+02 -0.10983100754E+03  0.12527257198E+03  0.17770000000E+01 0. -1.
         15    1    3    3    0    0  0.23229964611E+02 -0.61767056589E+02 -0.19246261254E+03  0.20346944609E+03  0.17770000000E+01 0. -1.
</event>
<event>
 7    1  0.1738451E-005  0.5410009E+03  0.7546771E-02  0.9312469E-01
        -11   -1    0    0    0    0  0.00000000000E+00  0.00000000000E+00  0.50000000000E+03  0.50000000000E+03  0.00000000000E+00 0. -1.
         11   -1    0    0    0    0 -0.00000000000E+00 -0.00000000000E+00 -0.50000000000E+03  0.50000000000E+03  0.00000000000E+00 0.  1.
         25    2    1    2    0    0 -0.98043388161E+02 -0.39541158496E+02 -0.14999560225E+03  0.22203479600E+03  0.12499904305E+03 0.  0.
        -11    1    1    2    0    0  0.23740866960E+02  0.58154437124E+01  0.45834781832E+03  0.45899909663E+03  0.00000000000E+00 0. -1.
         11    1    1    2    0    0  0.74302521201E+02  0.33725714784E+02 -0.30835221607E+03  0.31896610737E+03  0.00000000000E+00 0.  1.
        -15    1    3    3    0    0 -0.27958476277E+02  0.29306532889E+02  0.25045355165E+01  0.40619942059E+02  0.17770000000E+01 0. -1.
         15    1    3    3    0    0 -0.70084911884E+02 -0.68847691385E+02 -0.15250013776E+03  0.18141485394E+03  0.17770000000E+01 0. -1.
</event>
<event>
 7    1  0.1738451E-005  0.5310821E+03  0.7546771E-02  0.9332827E-01
        -11   -1    0    0    0    0  0.00000000000E+00  0.00000000000E+00  0.50000000000E+03  0.50000000000E+03  0.00000000000E+00 0. -1.
         11   -1    0    0    0    0 -0.00000000000E+00 -0.00000000000E+00 -0.50000000000E+03  0.50000000000E+03  0.00000000000E+00 0. -1.
         25    2    1    2    0    0 -0.16723351167E+02 -0.12607193618E+01 -0.95384402534E+02  0.15812912924E+03  0.12500150951E+03 0.  0.
        -11    1    1    2    0    0  0.27250416653E+02  0.22364001064E+02  0.46759095693E+03  0.46891794245E+03  0.00000000000E+00 0. -1.
         11    1    1    2    0    0 -0.10527065486E+02 -0.21103281702E+02 -0.37220655439E+03  0.37295292831E+03  0.00000000000E+00 0. -1.
        -15    1    3    3    0    0  0.97770502902E+01  0.44760467209E+02 -0.94444018058E+02  0.10498533428E+03  0.17770000000E+01 0. -1.
         15    1    3    3    0    0 -0.26500401457E+02 -0.46021186571E+02 -0.94038447628E+00  0.53143794960E+02  0.17770000000E+01 0. -1.
</event>
<event>
 7    1  0.1738451E-005  0.5470514E+03  0.7546771E-02  0.9300277E-01
        -11   -1    0    0    0    0  0.00000000000E+00  0.00000000000E+00  0.50000000000E+03  0.50000000000E+03  0.00000000000E+00 0. -1.
         11   -1    0    0    0    0 -0.00000000000E+00 -0.00000000000E+00 -0.50000000000E+03  0.50000000000E+03  0.00000000000E+00 0. -1.
         25    2    1    2    0    0  0.35083766014E+02 -0.13251434778E+02 -0.45758642069E+02  0.13828895540E+03  0.12499404266E+03 0.  0.
        -11    1    1    2    0    0 -0.29224599393E+02 -0.56999421739E+02  0.44839648784E+03  0.45294858604E+03  0.00000000000E+00 0. -1.
         11    1    1    2    0    0 -0.58591666215E+01  0.70250856517E+02 -0.40263784577E+03  0.40876245856E+03  0.00000000000E+00 0. -1.
        -15    1    3    3    0    0 -0.46620664938E+02 -0.98948242105E+01 -0.86430492431E+01  0.48469103299E+02  0.17770000000E+01 0. -1.
         15    1    3    3    0    0  0.81704430953E+02 -0.33566105672E+01 -0.37115592826E+02  0.89819852102E+02  0.17770000000E+01 0. -1.
</event>
<event>
 7    1  0.1738451E-005  0.5209822E+03  0.7546771E-02  0.9354047E-01
        -11   -1    0    0    0    0  0.00000000000E+00  0.00000000000E+00  0.50000000000E+03  0.50000000000E+03  0.00000000000E+00 0.  1.
         11   -1    0    0    0    0 -0.00000000000E+00 -0.00000000000E+00 -0.50000000000E+03  0.50000000000E+03  0.00000000000E+00 0. -1.
         25    2    1    2    0    0 -0.18030288903E+02 -0.56094475795E+02  0.19327217095E+03  0.23759630447E+03  0.12500476112E+03 0.  0.
        -11    1    1    2    0    0 -0.22059631738E+02  0.13807537507E+02  0.28218835100E+03  0.28338585159E+03  0.00000000000E+00 0.  1.
         11    1    1    2    0    0  0.40089920641E+02  0.42286938288E+02 -0.47546052194E+03  0.47901784394E+03  0.00000000000E+00 0. -1.
        -15    1    3    3    0    0  0.68638965668E+01  0.22055992581E+02  0.13498692561E+03  0.13696060637E+03  0.17770000000E+01 0.  1.
         15    1    3    3    0    0 -0.24894185470E+02 -0.78150468376E+02  0.58285245340E+02  0.10063569809E+03  0.17770000000E+01 0.  1.
</event>
<event>
 7    1  0.1738451E-005  0.4200265E+03  0.7546771E-02  0.9599012E-01
        -11   -1    0    0    0    0  0.00000000000E+00  0.00000000000E+00  0.50000000000E+03  0.50000000000E+03  0.00000000000E+00 0.  1.
         11   -1    0    0    0    0 -0.00000000000E+00 -0.00000000000E+00 -0.50000000000E+03  0.50000000000E+03  0.00000000000E+00 0. -1.
         25    2    1    2    0    0 -0.81746341549E+02 -0.18320832836E+02 -0.37027619134E+02  0.15496855335E+03  0.12500436263E+03 0.  0.
        -11    1    1    2    0    0  0.11795446996E+03 -0.11537550065E+01  0.43205600188E+03  0.44786937481E+03  0.00000000000E+00 0.  1.
         11    1    1    2    0    0 -0.36208128414E+02  0.19474587843E+02 -0.39502838274E+03  0.39716207184E+03  0.00000000000E+00 0. -1.
        -15    1    3    3    0    0 -0.80798526426E+02  0.38983857779E+01 -0.75389484316E+02  0.11059082855E+03  0.17770000000E+01 0. -1.
         15    1    3    3    0    0 -0.94781512306E+00 -0.22219218614E+02  0.38361865182E+02  0.44377724801E+02  0.17770000000E+01 0. -1.
</event>
<event>
 7    1  0.1738451E-005  0.5189971E+03  0.7546771E-02  0.9358278E-01
        -11   -1    0    0    0    0  0.00000000000E+00  0.00000000000E+00  0.50000000000E+03  0.50000000000E+03  0.00000000000E+00 0.  1.
         11   -1    0    0    0    0 -0.00000000000E+00 -0.00000000000E+00 -0.50000000000E+03  0.50000000000E+03  0.00000000000E+00 0. -1.
         25    2    1    2    0    0 -0.25374067591E+02 -0.55134108723E+02  0.24765262246E+03  0.28397184385E+03  0.12499829374E+03 0.  0.
        -11    1    1    2    0    0  0.19022397821E+02  0.28183011962E+02  0.23255264233E+03  0.23502524383E+03  0.00000000000E+00 0.  1.
         11    1    1    2    0    0  0.63516697698E+01  0.26951096761E+02 -0.48020526479E+03  0.48100291232E+03  0.00000000000E+00 0. -1.
        -15    1    3    3    0    0  0.41454144573E+02 -0.54500995346E+02  0.93139316714E+02  0.11561528724E+03  0.17770000000E+01 0.  1.
         15    1    3    3    0    0 -0.66828212164E+02 -0.63311337790E+00  0.15451330574E+03  0.16835655661E+03  0.17770000000E+01 0.  1.
</event>
<event>
 7    1  0.1738451E-005  0.5345255E+03  0.7546771E-02  0.9325706E-01
        -11   -1    0    0    0    0  0.00000000000E+00  0.00000000000E+00  0.50000000000E+03  0.50000000000E+03  0.00000000000E+00 0.  1.
         11   -1    0    0    0    0 -0.00000000000E+00 -0.00000000000E+00 -0.50000000000E+03  0.50000000000E+03  0.00000000000E+00 0. -1.
         25    2    1    2    0    0 -0.73070116991E+02 -0.92119605569E+02  0.24399663875E+03  0.29831562536E+03  0.12503035187E+03 0.  0.
        -11    1    1    2    0    0  0.19597111282E+02  0.87878460480E+02  0.21837678792E+03  0.23620984757E+03  0.00000000000E+00 0.  1.
         11    1    1    2    0    0  0.53473005709E+02  0.42411450892E+01 -0.46237342667E+03  0.46547452706E+03  0.00000000000E+00 0. -1.
        -15    1    3    3    0    0 -0.73273713153E+02 -0.11080639849E+03  0.24585189160E+03  0.27945197319E+03  0.17770000000E+01 0.  1.
         15    1    3    3    0    0  0.20359616244E+00  0.18686792926E+02 -0.18552528527E+01  0.18863652175E+02  0.17770000000E+01 0.  1.
</event>
<event>
 7    1  0.1738451E-005  0.4125520E+03  0.7546771E-02  0.9620024E-01
        -11   -1    0    0    0    0  0.00000000000E+00  0.00000000000E+00  0.50000000000E+03  0.50000000000E+03  0.00000000000E+00 0.  1.
         11   -1    0    0    0    0 -0.00000000000E+00 -0.00000000000E+00 -0.50000000000E+03  0.50000000000E+03  0.00000000000E+00 0. -1.
         25    2    1    2    0    0  0.71805653942E+02 -0.69432791978E+02 -0.49220384725E+02  0.16741592597E+03  0.12501392505E+03 0.  0.
        -11    1    1    2    0    0 -0.61423400442E+02  0.99925564678E+02  0.43241348050E+03  0.44803947451E+03  0.00000000000E+00 0.  1.
         11    1    1    2    0    0 -0.10382253500E+02 -0.30492772700E+02 -0.38319309577E+03  0.38454459952E+03  0.00000000000E+00 0. -1.
        -15    1    3    3    0    0  0.10568274267E+03 -0.55300404163E+02 -0.52878247866E+02  0.13048464901E+03  0.17770000000E+01 0.  1.
         15    1    3    3    0    0 -0.33877088733E+02 -0.14132387815E+02  0.36578631409E+01  0.36931276963E+02  0.17770000000E+01 0.  1.
</event>
<event>
 7    1  0.1738451E-005  0.4018267E+03  0.7546771E-02  0.9651019E-01
        -11   -1    0    0    0    0  0.00000000000E+00  0.00000000000E+00  0.50000000000E+03  0.50000000000E+03  0.00000000000E+00 0.  1.
         11   -1    0    0    0    0 -0.00000000000E+00 -0.00000000000E+00 -0.50000000000E+03  0.50000000000E+03  0.00000000000E+00 0. -1.
         25    2    1    2    0    0  0.50836323221E+02  0.10955443925E+03 -0.63015819590E+02  0.18488260435E+03  0.12499630776E+03 0.  0.
        -11    1    1    2    0    0 -0.66023072181E+02 -0.97092568194E+02  0.43095026182E+03  0.44665886426E+03  0.00000000000E+00 0.  1.
         11    1    1    2    0    0  0.15186748960E+02 -0.12461871056E+02 -0.36793444223E+03  0.36845853139E+03  0.00000000000E+00 0. -1.
        -15    1    3    3    0    0 -0.41383162713E+02  0.43028119671E+02 -0.27403593754E+02  0.65712250899E+02  0.17770000000E+01 0. -1.
         15    1    3    3    0    0  0.92219485934E+02  0.66526319578E+02 -0.35612225836E+02  0.11917035345E+03  0.17770000000E+01 0. -1.
</event>
<event>
 7    1  0.1738451E-005  0.5309174E+03  0.7546771E-02  0.9333169E-01
        -11   -1    0    0    0    0  0.00000000000E+00  0.00000000000E+00  0.50000000000E+03  0.50000000000E+03  0.00000000000E+00 0. -1.
         11   -1    0    0    0    0 -0.00000000000E+00 -0.00000000000E+00 -0.50000000000E+03  0.50000000000E+03  0.00000000000E+00 0. -1.
         25    2    1    2    0    0 -0.74074952606E+01 -0.79335835259E+02  0.11607655109E+03  0.18824820437E+03  0.12495829301E+03 0.  0.
        -11    1    1    2    0    0  0.25235341819E+02 -0.25547367817E+02  0.34078246763E+03  0.34266920014E+03  0.00000000000E+00 0. -1.
         11    1    1    2    0    0 -0.17827846558E+02  0.10488320308E+03 -0.45685901873E+03  0.46908259549E+03  0.00000000000E+00 0. -1.
        -15    1    3    3    0    0 -0.17930681723E+02 -0.78622887862E+02  0.14026306547E+03  0.16180220365E+03  0.17770000000E+01 0. -1.
         15    1    3    3    0    0  0.10523186462E+02 -0.71294739661E+00 -0.24186514376E+02  0.26446000718E+02  0.17770000000E+01 0. -1.
</event>
<event>
 7    1  0.1738451E-005  0.4263899E+03  0.7546771E-02  0.9581488E-01
        -11   -1    0    0    0    0  0.00000000000E+00  0.00000000000E+00  0.50000000000E+03  0.50000000000E+03  0.00000000000E+00 0.  1.
         11   -1    0    0    0    0 -0.00000000000E+00 -0.00000000000E+00 -0.50000000000E+03  0.50000000000E+03  0.00000000000E+00 0.  1.
         25    2    1    2    0    0  0.18658850129E+02  0.69430613104E+02  0.10415840935E+01  0.14419441345E+03  0.12498872449E+03 0.  0.
        -11    1    1    2    0    0 -0.28105789799E+02 -0.10813589167E+03  0.41912130240E+03  0.43375796548E+03  0.00000000000E+00 0.  1.
         11    1    1    2    0    0  0.94469396706E+01  0.38705278566E+02 -0.42016288650E+03  0.42204762107E+03  0.00000000000E+00 0.  1.
        -15    1    3    3    0    0 -0.37380609522E+02  0.63366257519E+02 -0.30404167327E+02  0.79625144773E+02  0.17770000000E+01 0. -1.
         15    1    3    3    0    0  0.56039459651E+02  0.60643555849E+01  0.31445751421E+02  0.64569268681E+02  0.17770000000E+01 0. -1.
</event>
<event>
 7    1  0.1738451E-005  0.5216895E+03  0.7546771E-02  0.9352544E-01
        -11   -1    0    0    0    0  0.00000000000E+00  0.00000000000E+00  0.50000000000E+03  0.50000000000E+03  0.00000000000E+00 0. -1.
         11   -1    0    0    0    0 -0.00000000000E+00 -0.00000000000E+00 -0.50000000000E+03  0.50000000000E+03  0.00000000000E+00 0.  1.
         25    2    1    2    0    0  0.36067761849E+02  0.39365630794E+01  0.15512192381E+03  0.20249355335E+03  0.12499779169E+03 0.  0.
        -11    1    1    2    0    0  0.71971463115E+02  0.27144351905E+02  0.30978924243E+03  0.31919599319E+03  0.00000000000E+00 0. -1.
         11    1    1    2    0    0 -0.10803922496E+03 -0.31080914985E+02 -0.46491116623E+03  0.47831045347E+03  0.00000000000E+00 0.  1.
        -15    1    3    3    0    0 -0.24674139729E+02 -0.25570708440E+02  0.12233626169E+03  0.12740483882E+03  0.17770000000E+01 0. -1.
         15    1    3    3    0    0  0.60741901578E+02  0.29507271520E+02  0.32785662119E+02  0.75088714528E+02  0.17770000000E+01 0. -1.
</event>
<event>
 7    1  0.1738451E-005  0.4134458E+03  0.7546771E-02  0.9617486E-01
        -11   -1    0    0    0    0  0.00000000000E+00  0.00000000000E+00  0.50000000000E+03  0.50000000000E+03  0.00000000000E+00 0. -1.
         11   -1    0    0    0    0 -0.00000000000E+00 -0.00000000000E+00 -0.50000000000E+03  0.50000000000E+03  0.00000000000E+00 0. -1.
         25    2    1    2    0    0 -0.13156272918E+02 -0.10815557622E+03  0.63530482948E+01  0.16593720811E+03  0.12499631846E+03 0.  0.
        -11    1    1    2    0    0  0.10689417059E+02  0.99181072288E+02  0.40779057089E+03  0.41981460009E+03  0.00000000000E+00 0. -1.
         11    1    1    2    0    0  0.24668558588E+01  0.89745039335E+01 -0.41414361919E+03  0.41424819180E+03  0.00000000000E+00 0. -1.
        -15    1    3    3    0    0 -0.31992710898E+02 -0.63199520202E+02  0.60420031375E+02  0.93120625131E+02  0.17770000000E+01 0. -1.
         15    1    3    3    0    0  0.18836437980E+02 -0.44956056019E+02 -0.54066983081E+02  0.72816582981E+02  0.17770000000E+01 0. -1.
</event>
<event>
 7    1  0.1738451E-005  0.4109053E+03  0.7546771E-02  0.9624717E-01
        -11   -1    0    0    0    0  0.00000000000E+00  0.00000000000E+00  0.50000000000E+03  0.50000000000E+03  0.00000000000E+00 0. -1.
         11   -1    0    0    0    0 -0.00000000000E+00 -0.00000000000E+00 -0.50000000000E+03  0.50000000000E+03  0.00000000000E+00 0.  1.
         25    2    1    2    0    0  0.94592851418E+02  0.53294740421E+02 -0.39120227359E+02  0.17012585467E+03  0.12499710933E+03 0.  0.
        -11    1    1    2    0    0 -0.23615139029E+02  0.65057931232E+02  0.41953244753E+03  0.42520310881E+03  0.00000000000E+00 0. -1.
         11    1    1    2    0    0 -0.70977712389E+02 -0.11835267165E+03 -0.38041222017E+03  0.40467103652E+03  0.00000000000E+00 0.  1.
        -15    1    3    3    0    0  0.84541006618E+02 -0.80579846579E+01 -0.60579409506E+02  0.10433185277E+03  0.17770000000E+01 0. -1.
         15    1    3    3    0    0  0.10051844800E+02  0.61352725079E+02  0.21459182146E+02  0.65794001899E+02  0.17770000000E+01 0. -1.
</event>
<event>
 7    1  0.1738451E-005  0.5392361E+03  0.7546771E-02  0.9316057E-01
        -11   -1    0    0    0    0  0.00000000000E+00  0.00000000000E+00  0.50000000000E+03  0.50000000000E+03  0.00000000000E+00 0.  1.
         11   -1    0    0    0    0 -0.00000000000E+00 -0.00000000000E+00 -0.50000000000E+03  0.50000000000E+03  0.00000000000E+00 0. -1.
         25    2    1    2    0    0 -0.31016246288E+02 -0.90726365235E+00 -0.62378547488E+02  0.14311457727E+03  0.12501147299E+03 0.  0.
        -11    1    1    2    0    0  0.68951218313E+02 -0.73073040476E+02  0.44967702944E+03  0.46076389893E+03  0.00000000000E+00 0.  1.
         11    1    1    2    0    0 -0.37934972024E+02  0.73980304128E+02 -0.38729848195E+03  0.39612152381E+03  0.00000000000E+00 0. -1.
        -15    1    3    3    0    0 -0.24208577100E+02 -0.55121341628E+02 -0.64702139680E+02  0.88396505113E+02  0.17770000000E+01 0.  1.
         15    1    3    3    0    0 -0.68076691884E+01  0.54214077975E+02  0.23235921925E+01  0.54718072153E+02  0.17770000000E+01 0.  1.
</event>
<event>
 7    1  0.1738451E-005  0.5366021E+03  0.7546771E-02  0.9321440E-01
        -11   -1    0    0    0    0  0.00000000000E+00  0.00000000000E+00  0.50000000000E+03  0.50000000000E+03  0.00000000000E+00 0.  1.
         11   -1    0    0    0    0 -0.00000000000E+00 -0.00000000000E+00 -0.50000000000E+03  0.50000000000E+03  0.00000000000E+00 0.  1.
         25    2    1    2    0    0  0.82646957936E+02 -0.16252075821E+02  0.17305656283E+03  0.22949601075E+03  0.12500078155E+03 0.  0.
        -11    1    1    2    0    0 -0.10331319567E+03 -0.15437975546E+02  0.28879436922E+03  0.30710606503E+03  0.00000000000E+00 0.  1.
         11    1    1    2    0    0  0.20666237736E+02  0.31690051368E+02 -0.46185093204E+03  0.46339792422E+03  0.00000000000E+00 0.  1.
        -15    1    3    3    0    0  0.14800089440E+02 -0.31776346298E+02 -0.75785236892E+01  0.35907806697E+02  0.17770000000E+01 0. -1.
         15    1    3    3    0    0  0.67846868496E+02  0.15524270477E+02  0.18063508652E+03  0.19358820405E+03  0.17770000000E+01 0. -1.
</event>
<event>
 7    1  0.1738451E-005  0.4054095E+03  0.7546771E-02  0.9640551E-01
        -11   -1    0    0    0    0  0.00000000000E+00  0.00000000000E+00  0.50000000000E+03  0.50000000000E+03  0.00000000000E+00 0. -1.
         11   -1    0    0    0    0 -0.00000000000E+00 -0.00000000000E+00 -0.50000000000E+03  0.50000000000E+03  0.00000000000E+00 0.  1.
         25    2    1    2    0    0  0.11515226922E+03  0.29346651878E+02 -0.48280964891E+02  0.17909828685E+03  0.12499549471E+03 0.  0.
        -11    1    1    2    0    0 -0.11242541697E+03  0.30149908984E+02  0.42441213677E+03  0.44008425697E+03  0.00000000000E+00 0. -1.
         11    1    1    2    0    0 -0.27268522545E+01 -0.59496560862E+02 -0.37613117188E+03  0.38081745619E+03  0.00000000000E+00 0.  1.
        -15    1    3    3    0    0  0.53966999257E+02  0.66989197422E+02 -0.61855426577E+02  0.10596811363E+03  0.17770000000E+01 0.  1.
         15    1    3    3    0    0  0.61185269964E+02 -0.37642545544E+02  0.13574461686E+02  0.73130173217E+02  0.17770000000E+01 0.  1.
</event>
<event>
 7    1  0.1738451E-005  0.5458374E+03  0.7546771E-02  0.9302710E-01
        -11   -1    0    0    0    0  0.00000000000E+00  0.00000000000E+00  0.50000000000E+03  0.50000000000E+03  0.00000000000E+00 0.  1.
         11   -1    0    0    0    0 -0.00000000000E+00 -0.00000000000E+00 -0.50000000000E+03  0.50000000000E+03  0.00000000000E+00 0. -1.
         25    2    1    2    0    0  0.10653588042E+03 -0.77150096266E+02  0.14022323862E+03  0.22932600010E+03  0.12500330596E+03 0.  0.
        -11    1    1    2    0    0 -0.74814278897E+02  0.75360531222E+01  0.30744997580E+03  0.31651138375E+03  0.00000000000E+00 0.  1.
         11    1    1    2    0    0 -0.31721601526E+02  0.69614043143E+02 -0.44767321442E+03  0.45416261616E+03  0.00000000000E+00 0. -1.
        -15    1    3    3    0    0  0.51015867729E+02 -0.57918607382E+02 -0.82991802964E-01  0.77203293051E+02  0.17770000000E+01 0. -1.
         15    1    3    3    0    0  0.55520012693E+02 -0.19231488884E+02  0.14030623042E+03  0.15212270705E+03  0.17770000000E+01 0. -1.
</event>
<event>
 7    1  0.1738451E-005  0.3883464E+03  0.7546771E-02  0.9691474E-01
        -11   -1    0    0    0    0  0.00000000000E+00  0.00000000000E+00  0.50000000000E+03  0.50000000000E+03  0.00000000000E+00 0.  1.
         11   -1    0    0    0    0 -0.00000000000E+00 -0.00000000000E+00 -0.50000000000E+03  0.50000000000E+03  0.00000000000E+00 0. -1.
         25    2    1    2    0    0 -0.15980175690E+03 -0.93619382722E+01 -0.35555775863E+02  0.20618633736E+03  0.12499738045E+03 0.  0.
        -11    1    1    2    0    0 -0.14527207639E+02 -0.68653630263E+02  0.38727665468E+03  0.39358298740E+03  0.00000000000E+00 0.  1.
         11    1    1    2    0    0  0.17432896453E+03  0.78015568535E+02 -0.35172087882E+03  0.40023067524E+03  0.00000000000E+00 0. -1.
        -15    1    3    3    0    0 -0.15029295382E+03 -0.31554575169E+02 -0.66109270386E+02  0.16720423601E+03  0.17770000000E+01 0. -1.
         15    1    3    3    0    0 -0.95088030789E+01  0.22192636897E+02  0.30553494523E+02  0.38982101342E+02  0.17770000000E+01 0. -1.
</event>
<event>
 7    1  0.1738451E-005  0.5359336E+03  0.7546771E-02  0.9322811E-01
        -11   -1    0    0    0    0  0.00000000000E+00  0.00000000000E+00  0.50000000000E+03  0.50000000000E+03  0.00000000000E+00 0.  1.
         11   -1    0    0    0    0 -0.00000000000E+00 -0.00000000000E+00 -0.50000000000E+03  0.50000000000E+03  0.00000000000E+00 0. -1.
         25    2    1    2    0    0  0.82641604290E+02 -0.56080952503E+02 -0.11847952633E+03  0.19909166016E+03  0.12500153195E+03 0.  0.
        -11    1    1    2    0    0 -0.85561122699E+02  0.35842210634E+02  0.45470020576E+03  0.46406642509E+03  0.00000000000E+00 0.  1.
         11    1    1    2    0    0  0.29195184089E+01  0.20238741869E+02 -0.33622067943E+03  0.33684191475E+03  0.00000000000E+00 0. -1.
        -15    1    3    3    0    0 -0.17921359296E+02 -0.52990507118E+02 -0.23435826798E+02  0.60675898595E+02  0.17770000000E+01 0. -1.
         15    1    3    3    0    0  0.10056296359E+03 -0.30904453855E+01 -0.95043699537E+02  0.13841576156E+03  0.17770000000E+01 0. -1.
</event>
<event>
 7    1  0.1738451E-005  0.5269602E+03  0.7546771E-02  0.9341426E-01
        -11   -1    0    0    0    0  0.00000000000E+00  0.00000000000E+00  0.50000000000E+03  0.50000000000E+03  0.00000000000E+00 0. -1.
         11   -1    0    0    0    0 -0.00000000000E+00 -0.00000000000E+00 -0.50000000000E+03  0.50000000000E+03  0.00000000000E+00 0.  1.
         25    2    1    2    0    0 -0.56476324202E+02  0.25360109010E+03  0.25315428007E+03  0.38368299118E+03  0.12498984002E+03 0.  0.
        -11    1    1    2    0    0 -0.21188700347E+02 -0.48273986653E+01  0.14161958444E+03  0.14327725395E+03  0.00000000000E+00 0. -1.
         11    1    1    2    0    0  0.77665024550E+02 -0.24877369144E+03 -0.39477386451E+03  0.47303975487E+03  0.00000000000E+00 0.  1.
        -15    1    3    3    0    0  0.26432772468E+02  0.54732497207E+02  0.15212018129E+02  0.62680945553E+02  0.17770000000E+01 0. -1.
         15    1    3    3    0    0 -0.82909096670E+02  0.19886859290E+03  0.23794226194E+03  0.32100204563E+03  0.17770000000E+01 0. -1.
</event>
<event>
 7    1  0.1738451E-005  0.5198250E+03  0.7546771E-02  0.9356511E-01
        -11   -1    0    0    0    0  0.00000000000E+00  0.00000000000E+00  0.50000000000E+03  0.50000000000E+03  0.00000000000E+00 0.  1.
         11   -1    0    0    0    0 -0.00000000000E+00 -0.00000000000E+00 -0.50000000000E+03  0.50000000000E+03  0.00000000000E+00 0. -1.
         25    2    1    2    0    0  0.81402736645E+01 -0.10282671735E+03 -0.25416955302E+03  0.30142185791E+03  0.12495349891E+03 0.  0.
        -11    1    1    2    0    0 -0.39528899462E+02  0.90325040446E+02  0.46994349331E+03  0.48017500323E+03  0.00000000000E+00 0.  1.
         11    1    1    2    0    0  0.31388625797E+02  0.12501676900E+02 -0.21577394029E+03  0.21840313886E+03  0.00000000000E+00 0. -1.
        -15    1    3    3    0    0 -0.21348493041E+02 -0.55582906082E+02 -0.23509975266E+03  0.24252890350E+03  0.17770000000E+01 0.  1.
         15    1    3    3    0    0  0.29488766705E+02 -0.47243811264E+02 -0.19069800362E+02  0.58892954412E+02  0.17770000000E+01 0.  1.
</event>
<event>
 7    1  0.1738451E-005  0.5231557E+03  0.7546771E-02  0.9349437E-01
        -11   -1    0    0    0    0  0.00000000000E+00  0.00000000000E+00  0.50000000000E+03  0.50000000000E+03  0.00000000000E+00 0.  1.
         11   -1    0    0    0    0 -0.00000000000E+00 -0.00000000000E+00 -0.50000000000E+03  0.50000000000E+03  0.00000000000E+00 0. -1.
         25    2    1    2    0    0  0.91892533776E+02 -0.80023527016E+02  0.31146230852E+03  0.35704655373E+03  0.12500187704E+03 0.  0.
        -11    1    1    2    0    0 -0.15594701904E+02  0.48291573956E+02  0.15816755933E+03  0.16610914383E+03  0.00000000000E+00 0.  1.
         11    1    1    2    0    0 -0.76297831872E+02  0.31731953060E+02 -0.46962986784E+03  0.47684430244E+03  0.00000000000E+00 0. -1.
        -15    1    3    3    0    0  0.35921302795E+02 -0.95170713235E+02  0.26110778105E+03  0.28022889877E+03  0.17770000000E+01 0.  1.
         15    1    3    3    0    0  0.55971230981E+02  0.15147186219E+02  0.50354527470E+02  0.76817654960E+02  0.17770000000E+01 0.  1.
</event>
<event>
 7    1  0.1738451E-005  0.5180071E+03  0.7546771E-02  0.9360395E-01
        -11   -1    0    0    0    0  0.00000000000E+00  0.00000000000E+00  0.50000000000E+03  0.50000000000E+03  0.00000000000E+00 0.  1.
         11   -1    0    0    0    0 -0.00000000000E+00 -0.00000000000E+00 -0.50000000000E+03  0.50000000000E+03  0.00000000000E+00 0.  1.
         25    2    1    2    0    0 -0.72956282929E+01 -0.80543402211E+02 -0.24082671718E+03  0.28313359654E+03  0.12500663961E+03 0.  0.
        -11    1    1    2    0    0 -0.15590391795E+02  0.82799979319E+02  0.47457166155E+03  0.48199290331E+03  0.00000000000E+00 0.  1.
         11    1    1    2    0    0  0.22886020088E+02 -0.22565771079E+01 -0.23374494437E+03  0.23487350015E+03  0.00000000000E+00 0.  1.
        -15    1    3    3    0    0  0.38596754751E+02 -0.13391660942E+02 -0.15777195225E+02  0.43830624891E+02  0.17770000000E+01 0.  1.
         15    1    3    3    0    0 -0.45892383044E+02 -0.67151741269E+02 -0.22504952196E+03  0.23930297165E+03  0.17770000000E+01 0.  1.
</event>
<event>
 7    1  0.1738451E-005  0.5173947E+03  0.7546771E-02  0.9361707E-01
        -11   -1    0    0    0    0  0.00000000000E+00  0.00000000000E+00  0.50000000000E+03  0.50000000000E+03  0.00000000000E+00 0.  1.
         11   -1    0    0    0    0 -0.00000000000E+00 -0.00000000000E+00 -0.50000000000E+03  0.50000000000E+03  0.00000000000E+00 0. -1.
         25    2    1    2    0    0  0.83571950655E+02 -0.68448298507E+02  0.31524013462E+03  0.35590773958E+03  0.12499814442E+03 0.  0.
        -11    1    1    2    0    0 -0.31699689865E+02 -0.10832437294E+02  0.15797411447E+03  0.16148694337E+03  0.00000000000E+00 0.  1.
         11    1    1    2    0    0 -0.51872260789E+02  0.79280735801E+02 -0.47321424909E+03  0.48260531706E+03  0.00000000000E+00 0. -1.
        -15    1    3    3    0    0  0.10626440041E+03 -0.71842592435E+02  0.19451048105E+03  0.23300421852E+03  0.17770000000E+01 0.  1.
         15    1    3    3    0    0 -0.22692449753E+02  0.33942939279E+01  0.12072965357E+03  0.12290352105E+03  0.17770000000E+01 0.  1.
</event>
<event>
 7    1  0.1738451E-005  0.5391370E+03  0.7546771E-02  0.9316259E-01
        -11   -1    0    0    0    0  0.00000000000E+00  0.00000000000E+00  0.50000000000E+03  0.50000000000E+03  0.00000000000E+00 0. -1.
         11   -1    0    0    0    0 -0.00000000000E+00 -0.00000000000E+00 -0.50000000000E+03  0.50000000000E+03  0.00000000000E+00 0. -1.
         25    2    1    2    0    0  0.18347289900E+02 -0.74267204864E+02  0.18701503172E+03  0.23759529655E+03  0.12499864835E+03 0.  0.
        -11    1    1    2    0    0  0.47804163520E+02  0.13592755766E+03  0.26488838387E+03  0.30154169677E+03  0.00000000000E+00 0. -1.
         11    1    1    2    0    0 -0.66151453420E+02 -0.61660352794E+02 -0.45190341559E+03  0.46086300668E+03  0.00000000000E+00 0. -1.
        -15    1    3    3    0    0  0.42317123815E+02 -0.41121876241E+02  0.15185093903E+02  0.60954839671E+02  0.17770000000E+01 0. -1.
         15    1    3    3    0    0 -0.23969833915E+02 -0.33145328624E+02  0.17182993782E+03  0.17664045688E+03  0.17770000000E+01 0. -1.
</event>
<event>
 7    1  0.1738451E-005  0.5265930E+03  0.7546771E-02  0.9342196E-01
        -11   -1    0    0    0    0  0.00000000000E+00  0.00000000000E+00  0.50000000000E+03  0.50000000000E+03  0.00000000000E+00 0. -1.
         11   -1    0    0    0    0 -0.00000000000E+00 -0.00000000000E+00 -0.50000000000E+03  0.50000000000E+03  0.00000000000E+00 0.  1.
         25    2    1    2    0    0  0.24552766785E+01  0.53739264826E+02 -0.16462606182E+03  0.21359106495E+03  0.12500186330E+03 0.  0.
        -11    1    1    2    0    0  0.25808763271E+02 -0.59576407683E+01  0.47266544204E+03  0.47340701921E+03  0.00000000000E+00 0. -1.
         11    1    1    2    0    0 -0.28264039949E+02 -0.47781624058E+02 -0.30803938021E+03  0.31300191583E+03  0.00000000000E+00 0.  1.
        -15    1    3    3    0    0 -0.30741830761E+01 -0.15913974843E+02  0.14180524129E+02  0.21609030299E+02  0.17770000000E+01 0. -1.
         15    1    3    3    0    0  0.55294597545E+01  0.69653239669E+02 -0.17880658595E+03  0.19198203466E+03  0.17770000000E+01 0. -1.
</event>
<event>
 7    1  0.1738451E-005  0.3486059E+03  0.7546771E-02  0.9821771E-01
        -11   -1    0    0    0    0  0.00000000000E+00  0.00000000000E+00  0.50000000000E+03  0.50000000000E+03  0.00000000000E+00 0.  1.
         11   -1    0    0    0    0 -0.00000000000E+00 -0.00000000000E+00 -0.50000000000E+03  0.50000000000E+03  0.00000000000E+00 0. -1.
         25    2    1    2    0    0  0.12549986601E+03 -0.88063379786E+02 -0.19839370087E+03  0.28015618221E+03  0.12498820207E+03 0.  0.
        -11    1    1    2    0    0  0.97961876808E+01  0.10308082681E+03  0.43484727095E+03  0.44700533688E+03  0.00000000000E+00 0.  1.
         11    1    1    2    0    0 -0.13529605369E+03 -0.15017447026E+02 -0.23645357008E+03  0.27283848091E+03  0.00000000000E+00 0. -1.
        -15    1    3    3    0    0  0.43601380326E+01  0.10746323388E+02  0.12819571508E+02  0.17377957667E+02  0.17770000000E+01 0. -1.
         15    1    3    3    0    0  0.12113972798E+03 -0.98809703175E+02 -0.21121327238E+03  0.26277822454E+03  0.17770000000E+01 0. -1.
</event>
<event>
 7    1  0.1738451E-005  0.3758875E+03  0.7546771E-02  0.9730458E-01
        -11   -1    0    0    0    0  0.00000000000E+00  0.00000000000E+00  0.50000000000E+03  0.50000000000E+03  0.00000000000E+00 0. -1.
         11   -1    0    0    0    0 -0.00000000000E+00 -0.00000000000E+00 -0.50000000000E+03  0.50000000000E+03  0.00000000000E+00 0.  1.
         25    2    1    2    0    0  0.15820471039E+03 -0.20864103898E+02 -0.98181635471E+02  0.22522957498E+03  0.12499874672E+03 0.  0.
        -11    1    1    2    0    0  0.21790401597E+02 -0.26112843430E+02  0.41014566957E+03  0.41155336527E+03  0.00000000000E+00 0. -1.
         11    1    1    2    0    0 -0.17999511199E+03  0.46976947328E+02 -0.31196403410E+03  0.36321705975E+03  0.00000000000E+00 0.  1.
        -15    1    3    3    0    0  0.39747898529E+02 -0.52975558745E+02 -0.75428062845E+02  0.10039350405E+03  0.17770000000E+01 0.  1.
         15    1    3    3    0    0  0.11845681186E+03  0.32111454848E+02 -0.22753572626E+02  0.12483607093E+03  0.17770000000E+01 0.  1.
</event>
<event>
 7    1  0.1738451E-005  0.4087729E+03  0.7546771E-02  0.9630829E-01
        -11   -1    0    0    0    0  0.00000000000E+00  0.00000000000E+00  0.50000000000E+03  0.50000000000E+03  0.00000000000E+00 0.  1.
         11   -1    0    0    0    0 -0.00000000000E+00 -0.00000000000E+00 -0.50000000000E+03  0.50000000000E+03  0.00000000000E+00 0. -1.
         25    2    1    2    0    0 -0.70152911307E+02 -0.58171640501E+02 -0.78860535154E+02  0.17361913067E+03  0.12497698911E+03 0.  0.
        -11    1    1    2    0    0  0.31165769675E+02 -0.73998202622E+01  0.44815046907E+03  0.44929378526E+03  0.00000000000E+00 0.  1.
         11    1    1    2    0    0  0.38987141633E+02  0.65571460763E+02 -0.36928993392E+03  0.37708708407E+03  0.00000000000E+00 0. -1.
        -15    1    3    3    0    0 -0.12650513439E+02  0.13991713555E+02 -0.79092381112E+02  0.81329982278E+02  0.17770000000E+01 0.  1.
         15    1    3    3    0    0 -0.57502397868E+02 -0.72163354055E+02  0.23184595809E+00  0.92289148391E+02  0.17770000000E+01 0.  1.
</event>
<event>
 7    1  0.1738451E-005  0.5297454E+03  0.7546771E-02  0.9335606E-01
        -11   -1    0    0    0    0  0.00000000000E+00  0.00000000000E+00  0.50000000000E+03  0.50000000000E+03  0.00000000000E+00 0.  1.
         11   -1    0    0    0    0 -0.00000000000E+00 -0.00000000000E+00 -0.50000000000E+03  0.50000000000E+03  0.00000000000E+00 0. -1.
         25    2    1    2    0    0 -0.40776023018E+02 -0.25826476129E+02  0.15641838700E+03  0.20596438394E+03  0.12499969894E+03 0.  0.
        -11    1    1    2    0    0  0.44712992803E+02  0.78942951813E+02  0.31081012763E+03  0.32378106308E+03  0.00000000000E+00 0.  1.
         11    1    1    2    0    0 -0.39369697849E+01 -0.53116475685E+02 -0.46722851463E+03  0.47025455299E+03  0.00000000000E+00 0. -1.
        -15    1    3    3    0    0 -0.59570220162E+01  0.48895427125E+02  0.40965983905E+02  0.64090705031E+02  0.17770000000E+01 0. -1.
         15    1    3    3    0    0 -0.34819001002E+02 -0.74721903254E+02  0.11545240309E+03  0.14187367890E+03  0.17770000000E+01 0. -1.
</event>
<event>
 7    1  0.1738451E-005  0.4078676E+03  0.7546771E-02  0.9633436E-01
        -11   -1    0    0    0    0  0.00000000000E+00  0.00000000000E+00  0.50000000000E+03  0.50000000000E+03  0.00000000000E+00 0.  1.
         11   -1    0    0    0    0 -0.00000000000E+00 -0.00000000000E+00 -0.50000000000E+03  0.50000000000E+03  0.00000000000E+00 0. -1.
         25    2    1    2    0    0  0.33605686689E+02 -0.10766273135E+03 -0.48106414337E+02  0.17510073399E+03  0.12500173616E+03 0.  0.
        -11    1    1    2    0    0 -0.35407055032E+02  0.12635993132E+03  0.42640178410E+03  0.44613784111E+03  0.00000000000E+00 0.  1.
         11    1    1    2    0    0  0.18013683433E+01 -0.18697199962E+02 -0.37829536976E+03  0.37876142490E+03  0.00000000000E+00 0. -1.
        -15    1    3    3    0    0  0.26780688583E+02 -0.13318354022E+03 -0.56765915562E+02  0.14724329378E+03  0.17770000000E+01 0.  1.
         15    1    3    3    0    0  0.68249981062E+01  0.25520808863E+02  0.86595012258E+01  0.27857440203E+02  0.17770000000E+01 0.  1.
</event>
<event>
 7    1  0.1738451E-005  0.3841566E+03  0.7546771E-02  0.9704407E-01
        -11   -1    0    0    0    0  0.00000000000E+00  0.00000000000E+00  0.50000000000E+03  0.50000000000E+03  0.00000000000E+00 0. -1.
         11   -1    0    0    0    0 -0.00000000000E+00 -0.00000000000E+00 -0.50000000000E+03  0.50000000000E+03  0.00000000000E+00 0. -1.
         25    2    1    2    0    0 -0.13502662111E+03 -0.10062829020E+03  0.35294352377E+02  0.21265699613E+03  0.12497625974E+03 0.  0.
        -11    1    1    2    0    0  0.37845315273E+02  0.18247676396E+01  0.36333754739E+03  0.36530777573E+03  0.00000000000E+00 0. -1.
         11    1    1    2    0    0  0.97181305835E+02  0.98803522559E+02 -0.39863189977E+03  0.42203522813E+03  0.00000000000E+00 0. -1.
        -15    1    3    3    0    0  0.23575666357E+02 -0.13081531936E+02 -0.38895649750E+01  0.27298808888E+02  0.17770000000E+01 0. -1.
         15    1    3    3    0    0 -0.15860228746E+03 -0.87546758262E+02  0.39183917352E+02  0.18535818725E+03  0.17770000000E+01 0. -1.
</event>
<event>
 7    1  0.1738451E-005  0.5409024E+03  0.7546771E-02  0.9312669E-01
        -11   -1    0    0    0    0  0.00000000000E+00  0.00000000000E+00  0.50000000000E+03  0.50000000000E+03  0.00000000000E+00 0. -1.
         11   -1    0    0    0    0 -0.00000000000E+00 -0.00000000000E+00 -0.50000000000E+03  0.50000000000E+03  0.00000000000E+00 0. -1.
         25    2    1    2    0    0 -0.65714087846E+02  0.11748923842E+02  0.90525000447E+02  0.16815349070E+03  0.12499776869E+03 0.  0.
        -11    1    1    2    0    0  0.43434308982E+02 -0.57033021120E+02  0.36579018592E+03  0.37274892999E+03  0.00000000000E+00 0. -1.
         11    1    1    2    0    0  0.22279778865E+02  0.45284097278E+02 -0.45631518637E+03  0.45909757930E+03  0.00000000000E+00 0. -1.
        -15    1    3    3    0    0 -0.22938918790E+01  0.55142283450E+02  0.87209030381E+01  0.55902998514E+02  0.17770000000E+01 0.  1.
         15    1    3    3    0    0 -0.63420195967E+02 -0.43393359608E+02  0.81804097408E+02  0.11225049219E+03  0.17770000000E+01 0.  1.
</event>
<event>
 7    1  0.1738451E-005  0.4127562E+03  0.7546771E-02  0.9619443E-01
        -11   -1    0    0    0    0  0.00000000000E+00  0.00000000000E+00  0.50000000000E+03  0.50000000000E+03  0.00000000000E+00 0. -1.
         11   -1    0    0    0    0 -0.00000000000E+00 -0.00000000000E+00 -0.50000000000E+03  0.50000000000E+03  0.00000000000E+00 0. -1.
         25    2    1    2    0    0 -0.88240327811E+02 -0.46751667153E+02  0.48094764518E+02  0.16707987072E+03  0.12502201002E+03 0.  0.
        -11    1    1    2    0    0  0.38871546288E+02  0.56061253129E+02  0.38799469344E+03  0.39394637116E+03  0.00000000000E+00 0. -1.
         11    1    1    2    0    0  0.49368781523E+02 -0.93095859765E+01 -0.43608945796E+03  0.43897375812E+03  0.00000000000E+00 0. -1.
        -15    1    3    3    0    0 -0.18233211675E+02  0.23836926615E+02 -0.28608500653E+02  0.41500037555E+02  0.17770000000E+01 0. -1.
         15    1    3    3    0    0 -0.70007116136E+02 -0.70588593768E+02  0.76703265171E+02  0.12557983316E+03  0.17770000000E+01 0. -1.
</event>
<event>
 7    1  0.1738451E-005  0.5273664E+03  0.7546771E-02  0.9340575E-01
        -11   -1    0    0    0    0  0.00000000000E+00  0.00000000000E+00  0.50000000000E+03  0.50000000000E+03  0.00000000000E+00 0.  1.
         11   -1    0    0    0    0 -0.00000000000E+00 -0.00000000000E+00 -0.50000000000E+03  0.50000000000E+03  0.00000000000E+00 0.  1.
         25    2    1    2    0    0 -0.35485323331E+02 -0.11461076828E+03  0.21861465098E+03  0.27895045390E+03  0.12500461485E+03 0.  0.
        -11    1    1    2    0    0  0.44034081599E+02  0.17496565461E+02  0.24385514327E+03  0.24841590336E+03  0.00000000000E+00 0.  1.
         11    1    1    2    0    0 -0.85487582685E+01  0.97114202820E+02 -0.46246979424E+03  0.47263364274E+03  0.00000000000E+00 0.  1.
        -15    1    3    3    0    0 -0.28568026987E+02 -0.84932549043E+02  0.22962785271E+03  0.24649904365E+03  0.17770000000E+01 0.  1.
         15    1    3    3    0    0 -0.69172963434E+01 -0.29678219238E+02 -0.11013201731E+02  0.32451410250E+02  0.17770000000E+01 0.  1.
</event>
<event>
 7    1  0.1738451E-005  0.5372286E+03  0.7546771E-02  0.9320156E-01
        -11   -1    0    0    0    0  0.00000000000E+00  0.00000000000E+00  0.50000000000E+03  0.50000000000E+03  0.00000000000E+00 0.  1.
         11   -1    0    0    0    0 -0.00000000000E+00 -0.00000000000E+00 -0.50000000000E+03  0.50000000000E+03  0.00000000000E+00 0.  1.
         25    2    1    2    0    0 -0.78861022956E+02 -0.44228275617E+02 -0.13849862065E+03  0.20732541240E+03  0.12500702940E+03 0.  0.
        -11    1    1    2    0    0  0.38798231358E+02 -0.12744618437E+02  0.46096596588E+03  0.46277137957E+03  0.00000000000E+00 0.  1.
         11    1    1    2    0    0  0.40062791598E+02  0.56972894054E+02 -0.32246734522E+03  0.32990320802E+03  0.00000000000E+00 0.  1.
        -15    1    3    3    0    0 -0.21688619770E+02 -0.73605497707E+02 -0.11620878563E+03  0.13926882317E+03  0.17770000000E+01 0. -1.
         15    1    3    3    0    0 -0.57172403186E+02  0.29377222090E+02 -0.22289835022E+02  0.68056589234E+02  0.17770000000E+01 0. -1.
</event>
<event>
 7    1  0.1738451E-005  0.3913555E+03  0.7546771E-02  0.9682293E-01
        -11   -1    0    0    0    0  0.00000000000E+00  0.00000000000E+00  0.50000000000E+03  0.50000000000E+03  0.00000000000E+00 0.  1.
         11   -1    0    0    0    0 -0.00000000000E+00 -0.00000000000E+00 -0.50000000000E+03  0.50000000000E+03  0.00000000000E+00 0. -1.
         25    2    1    2    0    0 -0.87768741573E+01  0.11429680150E+03 -0.10877260775E+03  0.20149587315E+03  0.12501325668E+03 0.  0.
        -11    1    1    2    0    0 -0.33096253244E+02 -0.21747614492E+02  0.44526018967E+03  0.44701784888E+03  0.00000000000E+00 0.  1.
         11    1    1    2    0    0  0.41873127402E+02 -0.92549187007E+02 -0.33648758192E+03  0.35148627797E+03  0.00000000000E+00 0. -1.
        -15    1    3    3    0    0 -0.55743331055E+02  0.92914698731E+02 -0.10305362581E+03  0.14954486858E+03  0.17770000000E+01 0. -1.
         15    1    3    3    0    0  0.46966456897E+02  0.21382102768E+02 -0.57189819428E+01  0.51951004569E+02  0.17770000000E+01 0. -1.
</event>
<event>
 7    1  0.1738451E-005  0.5324750E+03  0.7546771E-02  0.9329940E-01
        -11   -1    0    0    0    0  0.00000000000E+00  0.00000000000E+00  0.50000000000E+03  0.50000000000E+03  0.00000000000E+00 0.  1.
         11   -1    0    0    0    0 -0.00000000000E+00 -0.00000000000E+00 -0.50000000000E+03  0.50000000000E+03  0.00000000000E+00 0. -1.
         25    2    1    2    0    0 -0.17228587727E+03 -0.77932366319E+02  0.18437122019E+03  0.29218816167E+03  0.12500119103E+03 0.  0.
        -11    1    1    2    0    0  0.97789181704E+01 -0.51047378461E+02  0.23459816529E+03  0.24028683119E+03  0.00000000000E+00 0.  1.
         11    1    1    2    0    0  0.16250695910E+03  0.12897974478E+03 -0.41896938548E+03  0.46752500713E+03  0.00000000000E+00 0. -1.
        -15    1    3    3    0    0 -0.77939830556E+02 -0.68146299225E+01  0.14990529385E+03  0.16910296042E+03  0.17770000000E+01 0.  1.
         15    1    3    3    0    0 -0.94346046715E+02 -0.71117736397E+02  0.34465926344E+02  0.12308520126E+03  0.17770000000E+01 0.  1.
</event>
<event>
 7    1  0.1738451E-005  0.4077643E+03  0.7546771E-02  0.9633734E-01
        -11   -1    0    0    0    0  0.00000000000E+00  0.00000000000E+00  0.50000000000E+03  0.50000000000E+03  0.00000000000E+00 0.  1.
         11   -1    0    0    0    0 -0.00000000000E+00 -0.00000000000E+00 -0.50000000000E+03  0.50000000000E+03  0.00000000000E+00 0. -1.
         25    2    1    2    0    0  0.85224757036E+02 -0.85347154849E+02  0.23370592769E+02  0.17526939733E+03  0.12500312388E+03 0.  0.
        -11    1    1    2    0    0 -0.59753229002E+02  0.69423331350E+02  0.39489942677E+03  0.40538328107E+03  0.00000000000E+00 0.  1.
         11    1    1    2    0    0 -0.25471528034E+02  0.15923823499E+02 -0.41827001953E+03  0.41934732160E+03  0.00000000000E+00 0. -1.
        -15    1    3    3    0    0  0.69256680106E+00 -0.86272563226E+02 -0.40214333365E+01  0.86387293449E+02  0.17770000000E+01 0.  1.
         15    1    3    3    0    0  0.84532190235E+02  0.92540837686E+00  0.27392026105E+02  0.88882103878E+02  0.17770000000E+01 0.  1.
</event>
<event>
 7    1  0.1738451E-005  0.3504943E+03  0.7546771E-02  0.9815166E-01
        -11   -1    0    0    0    0  0.00000000000E+00  0.00000000000E+00  0.50000000000E+03  0.50000000000E+03  0.00000000000E+00 0.  1.
         11   -1    0    0    0    0 -0.00000000000E+00 -0.00000000000E+00 -0.50000000000E+03  0.50000000000E+03  0.00000000000E+00 0.  1.
         25    2    1    2    0    0  0.22520448199E+03  0.26748020025E+02 -0.40611189286E+02  0.26212005789E+03  0.12500056309E+03 0.  0.
        -11    1    1    2    0    0 -0.18914297261E+03 -0.66191656041E+01  0.36485279144E+03  0.41101877921E+03  0.00000000000E+00 0.  1.
         11    1    1    2    0    0 -0.36061509381E+02 -0.20128854421E+02 -0.32424160216E+03  0.32686116289E+03  0.00000000000E+00 0.  1.
        -15    1    3    3    0    0  0.59719410302E+02  0.54213813284E+02  0.21068569643E+02  0.83382179591E+02  0.17770000000E+01 0. -1.
         15    1    3    3    0    0  0.16548507168E+03 -0.27465793259E+02 -0.61679758929E+02  0.17873787830E+03  0.17770000000E+01 0. -1.
</event>
<event>
 7    1  0.1738451E-005  0.3548812E+03  0.7546771E-02  0.9799992E-01
        -11   -1    0    0    0    0  0.00000000000E+00  0.00000000000E+00  0.50000000000E+03  0.50000000000E+03  0.00000000000E+00 0. -1.
         11   -1    0    0    0    0 -0.00000000000E+00 -0.00000000000E+00 -0.50000000000E+03  0.50000000000E+03  0.00000000000E+00 0.  1.
         25    2    1    2    0    0  0.28569122387E+02  0.19150130071E+03 -0.11129704907E+03  0.25593096154E+03  0.12499872406E+03 0.  0.
        -11    1    1    2    0    0 -0.21546324505E+01 -0.13213479271E+03  0.41394305439E+03  0.43452629168E+03  0.00000000000E+00 0. -1.
         11    1    1    2    0    0 -0.26414489936E+02 -0.59366507996E+02 -0.30264600532E+03  0.30954274678E+03  0.00000000000E+00 0.  1.
        -15    1    3    3    0    0  0.37365379653E+02  0.11357237819E+03 -0.12859961492E+03  0.17560146745E+03  0.17770000000E+01 0.  1.
         15    1    3    3    0    0 -0.87962572660E+01  0.77928922519E+02  0.17302565850E+02  0.80329494090E+02  0.17770000000E+01 0.  1.
</event>
<event>
 7    1  0.1738451E-005  0.5372790E+03  0.7546771E-02  0.9320053E-01
        -11   -1    0    0    0    0  0.00000000000E+00  0.00000000000E+00  0.50000000000E+03  0.50000000000E+03  0.00000000000E+00 0.  1.
         11   -1    0    0    0    0 -0.00000000000E+00 -0.00000000000E+00 -0.50000000000E+03  0.50000000000E+03  0.00000000000E+00 0.  1.
         25    2    1    2    0    0  0.22023963938E+02  0.95078933788E+02 -0.16165940016E+03  0.22645806827E+03  0.12499774553E+03 0.  0.
        -11    1    1    2    0    0  0.16730922855E+02 -0.24150009832E+02  0.46178737095E+03  0.46272099879E+03  0.00000000000E+00 0.  1.
         11    1    1    2    0    0 -0.38754886794E+02 -0.70928923957E+02 -0.30012797079E+03  0.31082093294E+03  0.00000000000E+00 0.  1.
        -15    1    3    3    0    0 -0.54396737557E+01 -0.29976609673E+02 -0.32541946472E+02  0.44613038310E+02  0.17770000000E+01 0.  1.
         15    1    3    3    0    0  0.27463637694E+02  0.12505554346E+03 -0.12911745368E+03  0.18184502996E+03  0.17770000000E+01 0.  1.
</event>
<event>
 7    1  0.1738451E-005  0.3369830E+03  0.7546771E-02  0.9863438E-01
        -11   -1    0    0    0    0  0.00000000000E+00  0.00000000000E+00  0.50000000000E+03  0.50000000000E+03  0.00000000000E+00 0. -1.
         11   -1    0    0    0    0 -0.00000000000E+00 -0.00000000000E+00 -0.50000000000E+03  0.50000000000E+03  0.00000000000E+00 0. -1.
         25    2    1    2    0    0  0.66787079179E+02 -0.23949757565E+03  0.36688958723E+02  0.28069770527E+03  0.12500207745E+03 0.  0.
        -11    1    1    2    0    0  0.21449928794E+02 -0.38100989632E+02  0.28326297354E+03  0.28661768444E+03  0.00000000000E+00 0. -1.
         11    1    1    2    0    0 -0.88237007973E+02  0.27759856528E+03 -0.31995193226E+03  0.43268461029E+03  0.00000000000E+00 0. -1.
        -15    1    3    3    0    0  0.28110578295E+02 -0.86332022849E+01  0.36117390717E+02  0.46608587567E+02  0.17770000000E+01 0. -1.
         15    1    3    3    0    0  0.38676500885E+02 -0.23086437336E+03  0.57156800583E+00  0.23408911770E+03  0.17770000000E+01 0. -1.
</event>
<event>
 7    1  0.1738451E-005  0.4305062E+03  0.7546771E-02  0.9570325E-01
        -11   -1    0    0    0    0  0.00000000000E+00  0.00000000000E+00  0.50000000000E+03  0.50000000000E+03  0.00000000000E+00 0. -1.
         11   -1    0    0    0    0 -0.00000000000E+00 -0.00000000000E+00 -0.50000000000E+03  0.50000000000E+03  0.00000000000E+00 0. -1.
         25    2    1    2    0    0  0.42445657273E+02  0.37000254346E+02 -0.35487948658E+01  0.13714110318E+03  0.12499774235E+03 0.  0.
        -11    1    1    2    0    0 -0.76531147520E+02 -0.17578108408E+02  0.42873503474E+03  0.43586664985E+03  0.00000000000E+00 0. -1.
         11    1    1    2    0    0  0.34085490247E+02 -0.19422145937E+02 -0.42518623987E+03  0.42699224697E+03  0.00000000000E+00 0. -1.
        -15    1    3    3    0    0 -0.40570273013E+01 -0.43707132636E+02 -0.14082520531E+01  0.43953541571E+02  0.17770000000E+01 0.  1.
         15    1    3    3    0    0  0.46502684574E+02  0.80707386982E+02 -0.21405428127E+01  0.93187561609E+02  0.17770000000E+01 0.  1.
</event>
<event>
 7    1  0.1738451E-005  0.3845253E+03  0.7546771E-02  0.9703262E-01
        -11   -1    0    0    0    0  0.00000000000E+00  0.00000000000E+00  0.50000000000E+03  0.50000000000E+03  0.00000000000E+00 0. -1.
         11   -1    0    0    0    0 -0.00000000000E+00 -0.00000000000E+00 -0.50000000000E+03  0.50000000000E+03  0.00000000000E+00 0. -1.
         25    2    1    2    0    0  0.85437627206E+02  0.14500301939E+03 -0.32148686273E+02  0.21209279750E+03  0.12499741175E+03 0.  0.
        -11    1    1    2    0    0  0.46096104961E+02 -0.93668590567E+02  0.38972392040E+03  0.40346423619E+03  0.00000000000E+00 0. -1.
         11    1    1    2    0    0 -0.13153373217E+03 -0.51334428828E+02 -0.35757523413E+03  0.38444296631E+03  0.00000000000E+00 0. -1.
        -15    1    3    3    0    0 -0.25361649908E+02  0.49166802385E+02  0.16436809941E+02  0.57740057091E+02  0.17770000000E+01 0.  1.
         15    1    3    3    0    0  0.11079927711E+03  0.95836217009E+02 -0.48585496214E+02  0.15435274041E+03  0.17770000000E+01 0.  1.
</event>
<event>
 7    1  0.1738451E-005  0.5437222E+03  0.7546771E-02  0.9306964E-01
        -11   -1    0    0    0    0  0.00000000000E+00  0.00000000000E+00  0.50000000000E+03  0.50000000000E+03  0.00000000000E+00 0.  1.
         11   -1    0    0    0    0 -0.00000000000E+00 -0.00000000000E+00 -0.50000000000E+03  0.50000000000E+03  0.00000000000E+00 0.  1.
         25    2    1    2    0    0  0.93554478440E+02  0.44459104350E+02 -0.29598663644E+03  0.33759074574E+03  0.12502147921E+03 0.  0.
        -11    1    1    2    0    0 -0.41667412398E+02  0.87112938332E+02  0.44594234527E+03  0.45627778007E+03  0.00000000000E+00 0.  1.
         11    1    1    2    0    0 -0.51887066042E+02 -0.13157204268E+03 -0.14995570883E+03  0.20613147418E+03  0.00000000000E+00 0.  1.
        -15    1    3    3    0    0  0.66097616236E+02 -0.13677795933E+02 -0.24885248508E+03  0.25785013871E+03  0.17770000000E+01 0. -1.
         15    1    3    3    0    0  0.27456862204E+02  0.58136900283E+02 -0.47134151362E+02  0.79740607035E+02  0.17770000000E+01 0. -1.
</event>
<event>
 7    1  0.1738451E-005  0.5414886E+03  0.7546771E-02  0.9311480E-01
        -11   -1    0    0    0    0  0.00000000000E+00  0.00000000000E+00  0.50000000000E+03  0.50000000000E+03  0.00000000000E+00 0. -1.
         11   -1    0    0    0    0 -0.00000000000E+00 -0.00000000000E+00 -0.50000000000E+03  0.50000000000E+03  0.00000000000E+00 0. -1.
         25    2    1    2    0    0  0.68732606973E+02  0.62957947955E+02  0.11365775974E+03  0.19295421088E+03  0.12500146669E+03 0.  0.
        -11    1    1    2    0    0 -0.71575751448E+02 -0.43100233639E+01  0.34107849570E+03  0.34853436664E+03  0.00000000000E+00 0. -1.
         11    1    1    2    0    0  0.28431444752E+01 -0.58647924591E+02 -0.45473625544E+03  0.45851142248E+03  0.00000000000E+00 0. -1.
        -15    1    3    3    0    0  0.88908163541E+02  0.14173345079E+02  0.10678923515E+03  0.13968766491E+03  0.17770000000E+01 0.  1.
         15    1    3    3    0    0 -0.20175556567E+02  0.48784602876E+02  0.68685245864E+01  0.53266545970E+02  0.17770000000E+01 0.  1.
</event>
<event>
 7    1  0.1738451E-005  0.5201120E+03  0.7546771E-02  0.9355899E-01
        -11   -1    0    0    0    0  0.00000000000E+00  0.00000000000E+00  0.50000000000E+03  0.50000000000E+03  0.00000000000E+00 0. -1.
         11   -1    0    0    0    0 -0.00000000000E+00 -0.00000000000E+00 -0.50000000000E+03  0.50000000000E+03  0.00000000000E+00 0. -1.
         25    2    1    2    0    0 -0.17985867751E+02 -0.45738414558E+02 -0.20986356898E+03  0.24916484313E+03  0.12499962983E+03 0.  0.
        -11    1    1    2    0    0  0.15855711372E+02  0.17356881001E+02  0.47931177991E+03  0.47988795282E+03  0.00000000000E+00 0. -1.
         11    1    1    2    0    0  0.21301563784E+01  0.28381533557E+02 -0.26944821093E+03  0.27094720405E+03  0.00000000000E+00 0. -1.
        -15    1    3    3    0    0 -0.66443492793E+02  0.14061849574E+01 -0.97210574720E+02  0.11776998199E+03  0.17770000000E+01 0.  1.
         15    1    3    3    0    0  0.48457625042E+02 -0.47144599515E+02 -0.11265299426E+03  0.13139486114E+03  0.17770000000E+01 0.  1.
</event>
<event>
 7    1  0.1738451E-005  0.4140579E+03  0.7546771E-02  0.9615752E-01
        -11   -1    0    0    0    0  0.00000000000E+00  0.00000000000E+00  0.50000000000E+03  0.50000000000E+03  0.00000000000E+00 0. -1.
         11   -1    0    0    0    0 -0.00000000000E+00 -0.00000000000E+00 -0.50000000000E+03  0.50000000000E+03  0.00000000000E+00 0.  1.
         25    2    1    2    0    0 -0.24184568632E+02  0.10455500672E+03  0.75575203417E+01  0.16492546106E+03  0.12500659503E+03 0.  0.
        -11    1    1    2    0    0  0.23255261371E+02 -0.19660714012E+02  0.40890955437E+03  0.41004191800E+03  0.00000000000E+00 0. -1.
         11    1    1    2    0    0  0.92930726012E+00 -0.84894292708E+02 -0.41646707471E+03  0.42503262095E+03  0.00000000000E+00 0.  1.
        -15    1    3    3    0    0  0.29953996243E+01  0.32774219322E+02 -0.56184746627E+02  0.65138355472E+02  0.17770000000E+01 0.  1.
         15    1    3    3    0    0 -0.27179968256E+02  0.71780787397E+02  0.63742266968E+02  0.99787105585E+02  0.17770000000E+01 0.  1.
</event>
<event>
 7    1  0.1738451E-005  0.5295163E+03  0.7546771E-02  0.9336084E-01
        -11   -1    0    0    0    0  0.00000000000E+00  0.00000000000E+00  0.50000000000E+03  0.50000000000E+03  0.00000000000E+00 0. -1.
         11   -1    0    0    0    0 -0.00000000000E+00 -0.00000000000E+00 -0.50000000000E+03  0.50000000000E+03  0.00000000000E+00 0.  1.
         25    2    1    2    0    0  0.49583047278E+02 -0.98799127347E+02 -0.21937561799E+03  0.27562856940E+03  0.12500280140E+03 0.  0.
        -11    1    1    2    0    0  0.56650246287E+01  0.68929567140E+02  0.46537245754E+03  0.47048368937E+03  0.00000000000E+00 0. -1.
         11    1    1    2    0    0 -0.55248071907E+02  0.29869560207E+02 -0.24599683955E+03  0.25388774123E+03  0.00000000000E+00 0.  1.
        -15    1    3    3    0    0  0.89184730395E+02 -0.77765698937E+02 -0.18266946686E+03  0.21765273240E+03  0.17770000000E+01 0.  1.
         15    1    3    3    0    0 -0.39601683116E+02 -0.21033428410E+02 -0.36706151124E+02  0.57975836999E+02  0.17770000000E+01 0.  1.
</event>
<event>
 7    1  0.1738451E-005  0.5493390E+03  0.7546771E-02  0.9295710E-01
        -11   -1    0    0    0    0  0.00000000000E+00  0.00000000000E+00  0.50000000000E+03  0.50000000000E+03  0.00000000000E+00 0. -1.
         11   -1    0    0    0    0 -0.00000000000E+00 -0.00000000000E+00 -0.50000000000E+03  0.50000000000E+03  0.00000000000E+00 0.  1.
         25    2    1    2    0    0  0.87393811570E+02  0.72467751615E+02 -0.10008222665E+03  0.19629539745E+03  0.12500471049E+03 0.  0.
        -11    1    1    2    0    0 -0.37340292068E+02 -0.36078069695E+02  0.44765990225E+03  0.45066097303E+03  0.00000000000E+00 0. -1.
         11    1    1    2    0    0 -0.50053519502E+02 -0.36389681920E+02 -0.34757767561E+03  0.35304362952E+03  0.00000000000E+00 0.  1.
        -15    1    3    3    0    0  0.17401996978E+02  0.90867329419E+02 -0.76792657219E+02  0.12024961949E+03  0.17770000000E+01 0. -1.
         15    1    3    3    0    0  0.69991814592E+02 -0.18399577804E+02 -0.23289569427E+02  0.76045777966E+02  0.17770000000E+01 0. -1.
</event>
<event>
 7    1  0.1738451E-005  0.3527827E+03  0.7546771E-02  0.9807221E-01
        -11   -1    0    0    0    0  0.00000000000E+00  0.00000000000E+00  0.50000000000E+03  0.50000000000E+03  0.00000000000E+00 0.  1.
         11   -1    0    0    0    0 -0.00000000000E+00 -0.00000000000E+00 -0.50000000000E+03  0.50000000000E+03  0.00000000000E+00 0.  1.
         25    2    1    2    0    0 -0.22299622858E+03 -0.39996800117E+02 -0.88284162479E+01  0.25890109005E+03  0.12499908605E+03 0.  0.
        -11    1    1    2    0    0  0.20395651440E+03  0.89041199949E+02  0.33968026813E+03  0.40609023579E+03  0.00000000000E+00 0.  1.
         11    1    1    2    0    0  0.19039714187E+02 -0.49044399832E+02 -0.33085185188E+03  0.33500867416E+03  0.00000000000E+00 0.  1.
        -15    1    3    3    0    0 -0.51132976406E+02 -0.45999380741E+02 -0.46246801007E+02  0.82900233034E+02  0.17770000000E+01 0.  1.
         15    1    3    3    0    0 -0.17186325218E+03  0.60025806240E+01  0.37418384759E+02  0.17600085701E+03  0.17770000000E+01 0.  1.
</event>
<event>
 7    1  0.1738451E-005  0.4028202E+03  0.7546771E-02  0.9648104E-01
        -11   -1    0    0    0    0  0.00000000000E+00  0.00000000000E+00  0.50000000000E+03  0.50000000000E+03  0.00000000000E+00 0.  1.
         11   -1    0    0    0    0 -0.00000000000E+00 -0.00000000000E+00 -0.50000000000E+03  0.50000000000E+03  0.00000000000E+00 0. -1.
         25    2    1    2    0    0 -0.12427771461E+03  0.31371052787E+01 -0.50164364681E+02  0.18328235859E+03  0.12498466989E+03 0.  0.
        -11    1    1    2    0    0  0.27015151790E+02  0.90461974724E+02  0.41610188233E+03  0.42667782199E+03  0.00000000000E+00 0.  1.
         11    1    1    2    0    0  0.97262562824E+02 -0.93599080002E+02 -0.36593751765E+03  0.39003981942E+03  0.00000000000E+00 0. -1.
        -15    1    3    3    0    0 -0.13694911909E+02  0.48760650199E+02 -0.37360615482E+02  0.62961297146E+02  0.17770000000E+01 0. -1.
         15    1    3    3    0    0 -0.11058280270E+03 -0.45623544921E+02 -0.12803749199E+02  0.12032106145E+03  0.17770000000E+01 0. -1.
</event>
<event>
 7    1  0.1738451E-005  0.4125739E+03  0.7546771E-02  0.9619961E-01
        -11   -1    0    0    0    0  0.00000000000E+00  0.00000000000E+00  0.50000000000E+03  0.50000000000E+03  0.00000000000E+00 0.  1.
         11   -1    0    0    0    0 -0.00000000000E+00 -0.00000000000E+00 -0.50000000000E+03  0.50000000000E+03  0.00000000000E+00 0. -1.
         25    2    1    2    0    0 -0.46321953314E+02  0.90290213664E+02 -0.45765083478E+02  0.16737679663E+03  0.12499001217E+03 0.  0.
        -11    1    1    2    0    0  0.79234134487E+01  0.29422092344E+02  0.42859602641E+03  0.42967777910E+03  0.00000000000E+00 0.  1.
         11    1    1    2    0    0  0.38398539866E+02 -0.11971230601E+03 -0.38283094293E+03  0.40294542427E+03  0.00000000000E+00 0. -1.
        -15    1    3    3    0    0 -0.59204289641E+02 -0.90322293004E+01 -0.25809902096E+02  0.65238315837E+02  0.17770000000E+01 0.  1.
         15    1    3    3    0    0  0.12882336327E+02  0.99322442965E+02 -0.19955181383E+02  0.10213848079E+03  0.17770000000E+01 0.  1.
</event>
<event>
 7    1  0.1738451E-005  0.3651573E+03  0.7546771E-02  0.9765350E-01
        -11   -1    0    0    0    0  0.00000000000E+00  0.00000000000E+00  0.50000000000E+03  0.50000000000E+03  0.00000000000E+00 0. -1.
         11   -1    0    0    0    0 -0.00000000000E+00 -0.00000000000E+00 -0.50000000000E+03  0.50000000000E+03  0.00000000000E+00 0.  1.
         25    2    1    2    0    0  0.15306062653E+03  0.20266931604E+03 -0.28904842830E+03  0.40456452985E+03  0.12498423043E+03 0.  0.
        -11    1    1    2    0    0 -0.28424078467E+02  0.11296717653E+03  0.22028031041E+03  0.24918452272E+03  0.00000000000E+00 0. -1.
         11    1    1    2    0    0 -0.12463654806E+03 -0.31563649257E+03  0.68768117890E+02  0.34625094742E+03  0.00000000000E+00 0.  1.
        -15    1    3    3    0    0  0.74186206272E+02  0.17042859015E+03 -0.13939446271E+03  0.23234343439E+03  0.17770000000E+01 0. -1.
         15    1    3    3    0    0  0.78874420257E+02  0.32240725889E+02 -0.14965396559E+03  0.17222109546E+03  0.17770000000E+01 0. -1.
</event>
<event>
 7    1  0.1738451E-005  0.4344084E+03  0.7546771E-02  0.9559865E-01
        -11   -1    0    0    0    0  0.00000000000E+00  0.00000000000E+00  0.50000000000E+03  0.50000000000E+03  0.00000000000E+00 0.  1.
         11   -1    0    0    0    0 -0.00000000000E+00 -0.00000000000E+00 -0.50000000000E+03  0.50000000000E+03  0.00000000000E+00 0.  1.
         25    2    1    2    0    0 -0.19460558255E+02  0.31244567639E+02 -0.46590199675E+01  0.13039123130E+03  0.12500092159E+03 0.  0.
        -11    1    1    2    0    0  0.46891962900E+02 -0.46960583261E+02  0.43403062089E+03  0.43907485972E+03  0.00000000000E+00 0.  1.
         11    1    1    2    0    0 -0.27431404645E+02  0.15716015623E+02 -0.42937160092E+03  0.43053390898E+03  0.00000000000E+00 0.  1.
        -15    1    3    3    0    0 -0.59599529684E+02  0.47721367634E+02 -0.27690093371E+02  0.81236271870E+02  0.17770000000E+01 0.  1.
         15    1    3    3    0    0  0.40138971429E+02 -0.16476799995E+02  0.23031073403E+02  0.49154959430E+02  0.17770000000E+01 0.  1.
</event>
<event>
 7    1  0.1738451E-005  0.5468763E+03  0.7546771E-02  0.9300627E-01
        -11   -1    0    0    0    0  0.00000000000E+00  0.00000000000E+00  0.50000000000E+03  0.50000000000E+03  0.00000000000E+00 0. -1.
         11   -1    0    0    0    0 -0.00000000000E+00 -0.00000000000E+00 -0.50000000000E+03  0.50000000000E+03  0.00000000000E+00 0. -1.
         25    2    1    2    0    0 -0.37707020219E+02 -0.78162612323E+02 -0.15521114501E+03  0.21736741052E+03  0.12500751291E+03 0.  0.
        -11    1    1    2    0    0  0.44797927759E+02 -0.81201669273E+02  0.44353188170E+03  0.45312370883E+03  0.00000000000E+00 0. -1.
         11    1    1    2    0    0 -0.70909075399E+01  0.15936428160E+03 -0.28832073669E+03  0.32950888065E+03  0.00000000000E+00 0. -1.
        -15    1    3    3    0    0 -0.24235994864E+02 -0.32255094402E+02 -0.16381913312E+03  0.16872356287E+03  0.17770000000E+01 0. -1.
         15    1    3    3    0    0 -0.13471025355E+02 -0.45907517922E+02  0.86079881145E+01  0.48643847650E+02  0.17770000000E+01 0. -1.
</event>
<event>
 7    1  0.1738451E-005  0.5449429E+03  0.7546771E-02  0.9304506E-01
        -11   -1    0    0    0    0  0.00000000000E+00  0.00000000000E+00  0.50000000000E+03  0.50000000000E+03  0.00000000000E+00 0.  1.
         11   -1    0    0    0    0 -0.00000000000E+00 -0.00000000000E+00 -0.50000000000E+03  0.50000000000E+03  0.00000000000E+00 0.  1.
         25    2    1    2    0    0  0.79792673011E+02 -0.14082303017E+02  0.85141146863E+02  0.17157780053E+03  0.12499897927E+03 0.  0.
        -11    1    1    2    0    0 -0.46653552077E+02  0.45776004755E+02  0.36759967274E+03  0.37336512415E+03  0.00000000000E+00 0.  1.
         11    1    1    2    0    0 -0.33139120934E+02 -0.31693701738E+02 -0.45274081960E+03  0.45505707532E+03  0.00000000000E+00 0.  1.
        -15    1    3    3    0    0  0.66927288328E+02  0.99828653803E+01 -0.13665589602E+02  0.69056683907E+02  0.17770000000E+01 0.  1.
         15    1    3    3    0    0  0.12865384683E+02 -0.24065168397E+02  0.98806736464E+02  0.10252111662E+03  0.17770000000E+01 0.  1.
</event>
<event>
 7    1  0.1738451E-005  0.5185179E+03  0.7546771E-02  0.9359302E-01
        -11   -1    0    0    0    0  0.00000000000E+00  0.00000000000E+00  0.50000000000E+03  0.50000000000E+03  0.00000000000E+00 0. -1.
         11   -1    0    0    0    0 -0.00000000000E+00 -0.00000000000E+00 -0.50000000000E+03  0.50000000000E+03  0.00000000000E+00 0. -1.
         25    2    1    2    0    0  0.79529951396E+01 -0.71418093048E+02  0.28787175842E+03  0.32195754308E+03  0.12499086409E+03 0.  0.
        -11    1    1    2    0    0 -0.27388752934E+02  0.33566914747E+02  0.19172658668E+03  0.19656033575E+03  0.00000000000E+00 0. -1.
         11    1    1    2    0    0  0.19435757795E+02  0.37851178301E+02 -0.47959834510E+03  0.48148212116E+03  0.00000000000E+00 0. -1.
        -15    1    3    3    0    0  0.22681347810E+02 -0.94604976145E+02  0.27473537738E+03  0.29145708151E+03  0.17770000000E+01 0. -1.
         15    1    3    3    0    0 -0.14728352671E+02  0.23186883098E+02  0.13136381037E+02  0.30500461569E+02  0.17770000000E+01 0. -1.
</event>
<event>
 7    1  0.1738451E-005  0.5266558E+03  0.7546771E-02  0.9342064E-01
        -11   -1    0    0    0    0  0.00000000000E+00  0.00000000000E+00  0.50000000000E+03  0.50000000000E+03  0.00000000000E+00 0. -1.
         11   -1    0    0    0    0 -0.00000000000E+00 -0.00000000000E+00 -0.50000000000E+03  0.50000000000E+03  0.00000000000E+00 0. -1.
         25    2    1    2    0    0 -0.63541710947E+02  0.30670026960E+02  0.15258538304E+03  0.20950504466E+03  0.12502745713E+03 0.  0.
        -11    1    1    2    0    0  0.15132190015E+02  0.79608999381E+01  0.31668949481E+03  0.31715074527E+03  0.00000000000E+00 0. -1.
         11    1    1    2    0    0  0.48409520931E+02 -0.38630926898E+02 -0.46927487785E+03  0.47334421007E+03  0.00000000000E+00 0. -1.
        -15    1    3    3    0    0 -0.13329000690E+02 -0.54611050855E+01 -0.20824435267E+02  0.25383080218E+02  0.17770000000E+01 0. -1.
         15    1    3    3    0    0 -0.50212710256E+02  0.36131132045E+02  0.17340981831E+03  0.18412196444E+03  0.17770000000E+01 0. -1.
</event>
<event>
 7    1  0.1738451E-005  0.5325946E+03  0.7546771E-02  0.9329692E-01
        -11   -1    0    0    0    0  0.00000000000E+00  0.00000000000E+00  0.50000000000E+03  0.50000000000E+03  0.00000000000E+00 0. -1.
         11   -1    0    0    0    0 -0.00000000000E+00 -0.00000000000E+00 -0.50000000000E+03  0.50000000000E+03  0.00000000000E+00 0. -1.
         25    2    1    2    0    0 -0.16964368671E+02  0.29524706953E+02 -0.94565109601E+02  0.16039902419E+03  0.12500315549E+03 0.  0.
        -11    1    1    2    0    0 -0.69703087631E+01 -0.36518434627E+02  0.46592447201E+03  0.46740538603E+03  0.00000000000E+00 0. -1.
         11    1    1    2    0    0  0.23934677434E+02  0.69937276735E+01 -0.37135936241E+03  0.37219558979E+03  0.00000000000E+00 0. -1.
        -15    1    3    3    0    0  0.81214298758E+01 -0.25897405217E+02 -0.95738031766E+02  0.99526688258E+02  0.17770000000E+01 0. -1.
         15    1    3    3    0    0 -0.25085798547E+02  0.55422112170E+02  0.11729221650E+01  0.60872335930E+02  0.17770000000E+01 0. -1.
</event>
<event>
 7    1  0.1738451E-005  0.5153445E+03  0.7546771E-02  0.9366115E-01
        -11   -1    0    0    0    0  0.00000000000E+00  0.00000000000E+00  0.50000000000E+03  0.50000000000E+03  0.00000000000E+00 0. -1.
         11   -1    0    0    0    0 -0.00000000000E+00 -0.00000000000E+00 -0.50000000000E+03  0.50000000000E+03  0.00000000000E+00 0. -1.
         25    2    1    2    0    0  0.52409231434E+02  0.15491778258E+02  0.29199213142E+03  0.32229174799E+03  0.12500337307E+03 0.  0.
        -11    1    1    2    0    0 -0.17307227874E+02 -0.18523706635E+02  0.19138102671E+03  0.19305275246E+03  0.00000000000E+00 0. -1.
         11    1    1    2    0    0 -0.35102003560E+02  0.30319283771E+01 -0.48337315813E+03  0.48465549955E+03  0.00000000000E+00 0. -1.
        -15    1    3    3    0    0  0.52441262909E+02  0.25100285477E+02  0.41128264200E+02  0.71237646168E+02  0.17770000000E+01 0.  1.
         15    1    3    3    0    0 -0.32031475241E-01 -0.96085072193E+01  0.25086386722E+03  0.25105410182E+03  0.17770000000E+01 0.  1.
</event>
<event>
 7    1  0.1738451E-005  0.3834630E+03  0.7546771E-02  0.9706565E-01
        -11   -1    0    0    0    0  0.00000000000E+00  0.00000000000E+00  0.50000000000E+03  0.50000000000E+03  0.00000000000E+00 0.  1.
         11   -1    0    0    0    0 -0.00000000000E+00 -0.00000000000E+00 -0.50000000000E+03  0.50000000000E+03  0.00000000000E+00 0.  1.
         25    2    1    2    0    0 -0.12738074971E+03  0.67094491065E+02  0.96572275731E+02  0.21372449538E+03  0.12499771741E+03 0.  0.
        -11    1    1    2    0    0  0.90845519803E+02 -0.83628637568E+02  0.33283427194E+03  0.35500043671E+03  0.00000000000E+00 0.  1.
         11    1    1    2    0    0  0.36535229903E+02  0.16534146503E+02 -0.42940654767E+03  0.43127506791E+03  0.00000000000E+00 0.  1.
        -15    1    3    3    0    0  0.65844780902E+01 -0.69930561525E+01  0.53918774694E+02  0.54796443129E+02  0.17770000000E+01 0.  1.
         15    1    3    3    0    0 -0.13396522780E+03  0.74087547218E+02  0.42653501037E+02  0.15892805225E+03  0.17770000000E+01 0.  1.
</event>
<event>
 7    1  0.1738451E-005  0.5487420E+03  0.7546771E-02  0.9296900E-01
        -11   -1    0    0    0    0  0.00000000000E+00  0.00000000000E+00  0.50000000000E+03  0.50000000000E+03  0.00000000000E+00 0.  1.
         11   -1    0    0    0    0 -0.00000000000E+00 -0.00000000000E+00 -0.50000000000E+03  0.50000000000E+03  0.00000000000E+00 0. -1.
         25    2    1    2    0    0 -0.15166704825E+01 -0.46442475946E+02  0.40201512157E+02  0.13928191069E+03  0.12499634077E+03 0.  0.
        -11    1    1    2    0    0  0.28711867256E+02  0.59148664650E+01  0.40840936265E+03  0.40946008898E+03  0.00000000000E+00 0.  1.
         11    1    1    2    0    0 -0.27195196774E+02  0.40527609481E+02 -0.44861087481E+03  0.45125800032E+03  0.00000000000E+00 0. -1.
        -15    1    3    3    0    0 -0.35248022607E+01 -0.79671641385E+02 -0.85453728562E+01  0.80225780135E+02  0.17770000000E+01 0.  1.
         15    1    3    3    0    0  0.20081317783E+01  0.33229165439E+02  0.48746885013E+02  0.59056130558E+02  0.17770000000E+01 0.  1.
</event>
<event>
 7    1  0.1738451E-005  0.4027300E+03  0.7546771E-02  0.9648369E-01
        -11   -1    0    0    0    0  0.00000000000E+00  0.00000000000E+00  0.50000000000E+03  0.50000000000E+03  0.00000000000E+00 0.  1.
         11   -1    0    0    0    0 -0.00000000000E+00 -0.00000000000E+00 -0.50000000000E+03  0.50000000000E+03  0.00000000000E+00 0. -1.
         25    2    1    2    0    0 -0.54247483369E+01 -0.12950785846E+03  0.34906883209E+02  0.18343032575E+03  0.12500592231E+03 0.  0.
        -11    1    1    2    0    0  0.55725078950E+02  0.16589103259E+03  0.36874910941E+03  0.40816788802E+03  0.00000000000E+00 0.  1.
         11    1    1    2    0    0 -0.50300330613E+02 -0.36383174137E+02 -0.40365599262E+03  0.40840178623E+03  0.00000000000E+00 0. -1.
        -15    1    3    3    0    0 -0.26908125439E+02 -0.11532937689E+03 -0.22439289413E+02  0.12054705234E+03  0.17770000000E+01 0. -1.
         15    1    3    3    0    0  0.21483377102E+02 -0.14178481564E+02  0.57346172622E+02  0.62883273409E+02  0.17770000000E+01 0. -1.
</event>
<event>
 7    1  0.1738451E-005  0.3613880E+03  0.7546771E-02  0.9777914E-01
        -11   -1    0    0    0    0  0.00000000000E+00  0.00000000000E+00  0.50000000000E+03  0.50000000000E+03  0.00000000000E+00 0. -1.
         11   -1    0    0    0    0 -0.00000000000E+00 -0.00000000000E+00 -0.50000000000E+03  0.50000000000E+03  0.00000000000E+00 0. -1.
         25    2    1    2    0    0  0.13803293002E+03  0.15753749546E+03 -0.36336580200E+02  0.24660991436E+03  0.12499980222E+03 0.  0.
        -11    1    1    2    0    0 -0.87651430398E+02  0.27100388191E+01  0.36977367518E+03  0.38002985201E+03  0.00000000000E+00 0. -1.
         11    1    1    2    0    0 -0.50381499623E+02 -0.16024753428E+03 -0.33343709498E+03  0.37336023363E+03  0.00000000000E+00 0. -1.
        -15    1    3    3    0    0  0.37339098312E+02  0.13529047326E+03 -0.13779749912E+02  0.14103460445E+03  0.17770000000E+01 0. -1.
         15    1    3    3    0    0  0.10069383171E+03  0.22247022204E+02 -0.22556830287E+02  0.10557530991E+03  0.17770000000E+01 0. -1.
</event>
<event>
 7    1  0.1738451E-005  0.5447793E+03  0.7546771E-02  0.9304836E-01
        -11   -1    0    0    0    0  0.00000000000E+00  0.00000000000E+00  0.50000000000E+03  0.50000000000E+03  0.00000000000E+00 0.  1.
         11   -1    0    0    0    0 -0.00000000000E+00 -0.00000000000E+00 -0.50000000000E+03  0.50000000000E+03  0.00000000000E+00 0. -1.
         25    2    1    2    0    0 -0.42971412913E+02 -0.18596652635E+03 -0.21142836422E+03  0.31105726525E+03  0.12499831125E+03 0.  0.
        -11    1    1    2    0    0  0.62800222697E+02  0.11971364163E+03  0.43468459539E+03  0.45522073924E+03  0.00000000000E+00 0.  1.
         11    1    1    2    0    0 -0.19828809784E+02  0.66252884719E+02 -0.22325623117E+03  0.23372199551E+03  0.00000000000E+00 0. -1.
        -15    1    3    3    0    0  0.10107003010E+02 -0.55804783394E+02 -0.14473536592E+03  0.15545999240E+03  0.17770000000E+01 0.  1.
         15    1    3    3    0    0 -0.53078415923E+02 -0.13016174296E+03 -0.66692998300E+02  0.15559727285E+03  0.17770000000E+01 0.  1.
</event>
<event>
 7    1  0.1738451E-005  0.5229775E+03  0.7546771E-02  0.9349814E-01
        -11   -1    0    0    0    0  0.00000000000E+00  0.00000000000E+00  0.50000000000E+03  0.50000000000E+03  0.00000000000E+00 0. -1.
         11   -1    0    0    0    0 -0.00000000000E+00 -0.00000000000E+00 -0.50000000000E+03  0.50000000000E+03  0.00000000000E+00 0. -1.
         25    2    1    2    0    0  0.22160581194E+02 -0.29385146024E+02  0.17314654839E+03  0.21670065658E+03  0.12499947672E+03 0.  0.
        -11    1    1    2    0    0 -0.31738337908E+02  0.23239857023E+02  0.30374018407E+03  0.30627685591E+03  0.00000000000E+00 0. -1.
         11    1    1    2    0    0  0.95777567138E+01  0.61452890007E+01 -0.47688673245E+03  0.47702248751E+03  0.00000000000E+00 0. -1.
        -15    1    3    3    0    0 -0.19665036191E+02 -0.29956317930E+01  0.16541174570E+03  0.16661299710E+03  0.17770000000E+01 0.  1.
         15    1    3    3    0    0  0.41825617384E+02 -0.26389514231E+02  0.77348026884E+01  0.50087659484E+02  0.17770000000E+01 0.  1.
</event>
<event>
 7    1  0.1738451E-005  0.5016545E+03  0.7546771E-02  0.9396115E-01
        -11   -1    0    0    0    0  0.00000000000E+00  0.00000000000E+00  0.50000000000E+03  0.50000000000E+03  0.00000000000E+00 0.  1.
         11   -1    0    0    0    0 -0.00000000000E+00 -0.00000000000E+00 -0.50000000000E+03  0.50000000000E+03  0.00000000000E+00 0.  1.
         25    2    1    2    0    0  0.38033501319E+02 -0.32469065840E+02 -0.48023421358E+03  0.49874855041E+03  0.12499771674E+03 0.  0.
        -11    1    1    2    0    0 -0.46039488853E+02  0.24904235555E+02  0.48600569635E+03  0.48881631762E+03  0.00000000000E+00 0.  1.
         11    1    1    2    0    0  0.80059875333E+01  0.75648302847E+01 -0.57714827782E+01  0.12435131969E+02  0.00000000000E+00 0.  1.
        -15    1    3    3    0    0 -0.15679253460E+02 -0.29881337909E+02 -0.40416008136E+03  0.40557029284E+03  0.17770000000E+01 0. -1.
         15    1    3    3    0    0  0.53712754779E+02 -0.25877279307E+01 -0.76074132220E+02  0.93178257570E+02  0.17770000000E+01 0. -1.
</event>
<event>
 7    1  0.1738451E-005  0.5282575E+03  0.7546771E-02  0.9338711E-01
        -11   -1    0    0    0    0  0.00000000000E+00  0.00000000000E+00  0.50000000000E+03  0.50000000000E+03  0.00000000000E+00 0. -1.
         11   -1    0    0    0    0 -0.00000000000E+00 -0.00000000000E+00 -0.50000000000E+03  0.50000000000E+03  0.00000000000E+00 0.  1.
         25    2    1    2    0    0 -0.25264149756E+02  0.33729980852E+00  0.11563514736E+03  0.17215049565E+03  0.12500365920E+03 0.  0.
        -11    1    1    2    0    0 -0.37204364767E+02 -0.78066008815E+02  0.34544716743E+03  0.35610702320E+03  0.00000000000E+00 0. -1.
         11    1    1    2    0    0  0.62468514523E+02  0.77728709006E+02 -0.46108231479E+03  0.47174248115E+03  0.00000000000E+00 0.  1.
        -15    1    3    3    0    0  0.12453031990E+01 -0.25556604293E+02  0.12989608323E+03  0.13240408215E+03  0.17770000000E+01 0. -1.
         15    1    3    3    0    0 -0.26509452955E+02  0.25893904102E+02 -0.14260935866E+02  0.39746413503E+02  0.17770000000E+01 0. -1.
</event>
<event>
 7    1  0.1738451E-005  0.3943949E+03  0.7546771E-02  0.9673109E-01
        -11   -1    0    0    0    0  0.00000000000E+00  0.00000000000E+00  0.50000000000E+03  0.50000000000E+03  0.00000000000E+00 0.  1.
         11   -1    0    0    0    0 -0.00000000000E+00 -0.00000000000E+00 -0.50000000000E+03  0.50000000000E+03  0.00000000000E+00 0.  1.
         25    2    1    2    0    0  0.18270583334E+03  0.16382531197E+03 -0.22545347995E+03  0.35591551505E+03  0.12500571128E+03 0.  0.
        -11    1    1    2    0    0 -0.12681042767E+03 -0.94638814922E+02  0.40986277811E+03  0.43934597612E+03  0.00000000000E+00 0.  1.
         11    1    1    2    0    0 -0.55895405672E+02 -0.69186497052E+02 -0.18440929816E+03  0.20473850883E+03  0.00000000000E+00 0.  1.
        -15    1    3    3    0    0  0.12151193647E+03  0.31508579728E+02 -0.13494639055E+03  0.18431393695E+03  0.17770000000E+01 0. -1.
         15    1    3    3    0    0  0.61193896866E+02  0.13231673225E+03 -0.90507089390E+02  0.17160157810E+03  0.17770000000E+01 0. -1.
</event>
<event>
 7    1  0.1738451E-005  0.3546502E+03  0.7546771E-02  0.9800785E-01
        -11   -1    0    0    0    0  0.00000000000E+00  0.00000000000E+00  0.50000000000E+03  0.50000000000E+03  0.00000000000E+00 0. -1.
         11   -1    0    0    0    0 -0.00000000000E+00 -0.00000000000E+00 -0.50000000000E+03  0.50000000000E+03  0.00000000000E+00 0. -1.
         25    2    1    2    0    0 -0.53660510680E+01  0.14603449606E+03 -0.16937131823E+03  0.25626039021E+03  0.12501150191E+03 0.  0.
        -11    1    1    2    0    0 -0.88062069748E+01 -0.17112808407E+02  0.44169161018E+03  0.44211070559E+03  0.00000000000E+00 0. -1.
         11    1    1    2    0    0  0.14172258043E+02 -0.12892168765E+03 -0.27232029195E+03  0.30162890421E+03  0.00000000000E+00 0. -1.
        -15    1    3    3    0    0 -0.49690329853E+02  0.13638732762E+03 -0.11350400181E+03  0.18427411150E+03  0.17770000000E+01 0.  1.
         15    1    3    3    0    0  0.44324278785E+02  0.96471684412E+01 -0.55867316421E+02  0.71986278705E+02  0.17770000000E+01 0.  1.
</event>
<event>
 7    1  0.1738451E-005  0.5345110E+03  0.7546771E-02  0.9325736E-01
        -11   -1    0    0    0    0  0.00000000000E+00  0.00000000000E+00  0.50000000000E+03  0.50000000000E+03  0.00000000000E+00 0. -1.
         11   -1    0    0    0    0 -0.00000000000E+00 -0.00000000000E+00 -0.50000000000E+03  0.50000000000E+03  0.00000000000E+00 0. -1.
         25    2    1    2    0    0 -0.91011843280E+01 -0.80613645815E+02  0.21271137718E+03  0.25971728615E+03  0.12500218916E+03 0.  0.
        -11    1    1    2    0    0  0.50842559307E+02  0.10099146238E+03  0.25045426934E+03  0.27479370870E+03  0.00000000000E+00 0. -1.
         11    1    1    2    0    0 -0.41741374979E+02 -0.20377816569E+02 -0.46316564652E+03  0.46548900515E+03  0.00000000000E+00 0. -1.
        -15    1    3    3    0    0  0.27826553197E+01 -0.11311899285E+03  0.14797452974E+03  0.18628813407E+03  0.17770000000E+01 0.  1.
         15    1    3    3    0    0 -0.11883839648E+02  0.32505347031E+02  0.64736847440E+02  0.73429152085E+02  0.17770000000E+01 0.  1.
</event>
<event>
 7    1  0.1738451E-005  0.4094068E+03  0.7546771E-02  0.9629008E-01
        -11   -1    0    0    0    0  0.00000000000E+00  0.00000000000E+00  0.50000000000E+03  0.50000000000E+03  0.00000000000E+00 0.  1.
         11   -1    0    0    0    0 -0.00000000000E+00 -0.00000000000E+00 -0.50000000000E+03  0.50000000000E+03  0.00000000000E+00 0. -1.
         25    2    1    2    0    0  0.96763690587E+02 -0.55010394442E+02  0.42041189116E+02  0.17258693224E+03  0.12501772788E+03 0.  0.
        -11    1    1    2    0    0 -0.13113913995E+02 -0.20709865910E+02  0.38496838493E+03  0.38574801449E+03  0.00000000000E+00 0.  1.
         11    1    1    2    0    0 -0.83649776592E+02  0.75720260352E+02 -0.42700957405E+03  0.44166505327E+03  0.00000000000E+00 0. -1.
        -15    1    3    3    0    0  0.32620431017E+01 -0.33603896796E+02  0.65599847616E+02  0.73799461660E+02  0.17770000000E+01 0. -1.
         15    1    3    3    0    0  0.93501647486E+02 -0.21406497646E+02 -0.23558658500E+02  0.98787470579E+02  0.17770000000E+01 0. -1.
</event>
<event>
 7    1  0.1738451E-005  0.4319610E+03  0.7546771E-02  0.9566412E-01
        -11   -1    0    0    0    0  0.00000000000E+00  0.00000000000E+00  0.50000000000E+03  0.50000000000E+03  0.00000000000E+00 0. -1.
         11   -1    0    0    0    0 -0.00000000000E+00 -0.00000000000E+00 -0.50000000000E+03  0.50000000000E+03  0.00000000000E+00 0. -1.
         25    2    1    2    0    0 -0.14516954988E+02 -0.41646356406E+02  0.23551567919E+02  0.13463235351E+03  0.12500413303E+03 0.  0.
        -11    1    1    2    0    0  0.67019177321E+02  0.23305283793E+00  0.41569364676E+03  0.42106155417E+03  0.00000000000E+00 0. -1.
         11    1    1    2    0    0 -0.52502222333E+02  0.41413303568E+02 -0.43924521468E+03  0.44430609233E+03  0.00000000000E+00 0. -1.
        -15    1    3    3    0    0  0.15358759931E+02  0.41349258351E+02  0.45201325588E+01  0.44376142241E+02  0.17770000000E+01 0.  1.
         15    1    3    3    0    0 -0.29875714920E+02 -0.82995614758E+02  0.19031435361E+02  0.90256211265E+02  0.17770000000E+01 0.  1.
</event>
<event>
 7    1  0.1738451E-005  0.4079798E+03  0.7546771E-02  0.9633113E-01
        -11   -1    0    0    0    0  0.00000000000E+00  0.00000000000E+00  0.50000000000E+03  0.50000000000E+03  0.00000000000E+00 0. -1.
         11   -1    0    0    0    0 -0.00000000000E+00 -0.00000000000E+00 -0.50000000000E+03  0.50000000000E+03  0.00000000000E+00 0. -1.
         25    2    1    2    0    0 -0.90878444757E+01 -0.12180784721E+03  0.65415209068E+01  0.17492274150E+03  0.12504172679E+03 0.  0.
        -11    1    1    2    0    0  0.74532230963E+01  0.62590622832E+02  0.40470583446E+03  0.40958509378E+03  0.00000000000E+00 0. -1.
         11    1    1    2    0    0  0.16346213794E+01  0.59217224380E+02 -0.41124735537E+03  0.41549216472E+03  0.00000000000E+00 0. -1.
        -15    1    3    3    0    0 -0.19424040567E+02 -0.14605198687E+03 -0.13462346788E+01  0.14735483127E+03  0.17770000000E+01 0. -1.
         15    1    3    3    0    0  0.10336196092E+02  0.24244139657E+02  0.78877555857E+01  0.27567910232E+02  0.17770000000E+01 0. -1.
</event>
<event>
 7    1  0.1738451E-005  0.5323554E+03  0.7546771E-02  0.9330187E-01
        -11   -1    0    0    0    0  0.00000000000E+00  0.00000000000E+00  0.50000000000E+03  0.50000000000E+03  0.00000000000E+00 0.  1.
         11   -1    0    0    0    0 -0.00000000000E+00 -0.00000000000E+00 -0.50000000000E+03  0.50000000000E+03  0.00000000000E+00 0. -1.
         25    2    1    2    0    0 -0.83128243123E+02 -0.31986546879E+02 -0.16432175653E+03  0.22485474589E+03  0.12499829236E+03 0.  0.
        -11    1    1    2    0    0  0.26963114675E+02  0.20318015775E+02  0.46642433101E+03  0.46764461707E+03  0.00000000000E+00 0.  1.
         11    1    1    2    0    0  0.56165128448E+02  0.11668531104E+02 -0.30210257448E+03  0.30750063704E+03  0.00000000000E+00 0. -1.
        -15    1    3    3    0    0  0.16294375085E+02 -0.28154662926E+02  0.19959771369E+00  0.32578969784E+02  0.17770000000E+01 0.  1.
         15    1    3    3    0    0 -0.99422618209E+02 -0.38318839524E+01 -0.16452135424E+03  0.19227577610E+03  0.17770000000E+01 0.  1.
</event>
<event>
 7    1  0.1738451E-005  0.5435342E+03  0.7546771E-02  0.9307344E-01
        -11   -1    0    0    0    0  0.00000000000E+00  0.00000000000E+00  0.50000000000E+03  0.50000000000E+03  0.00000000000E+00 0.  1.
         11   -1    0    0    0    0 -0.00000000000E+00 -0.00000000000E+00 -0.50000000000E+03  0.50000000000E+03  0.00000000000E+00 0. -1.
         25    2    1    2    0    0  0.42793967997E+02  0.57301930061E+02  0.63817271720E+02  0.15751149205E+03  0.12498956385E+03 0.  0.
        -11    1    1    2    0    0  0.40631653530E+02 -0.19629129113E+02  0.38337616392E+03  0.38602268980E+03  0.00000000000E+00 0.  1.
         11    1    1    2    0    0 -0.83425621527E+02 -0.37672800948E+02 -0.44719343564E+03  0.45646581815E+03  0.00000000000E+00 0. -1.
        -15    1    3    3    0    0  0.20788821454E+02  0.47288938741E+02  0.10080729526E+03  0.11328586554E+03  0.17770000000E+01 0. -1.
         15    1    3    3    0    0  0.22005146542E+02  0.10012991320E+02 -0.36990023538E+02  0.44225626507E+02  0.17770000000E+01 0. -1.
</event>
<event>
 7    1  0.1738451E-005  0.5178002E+03  0.7546771E-02  0.9360838E-01
        -11   -1    0    0    0    0  0.00000000000E+00  0.00000000000E+00  0.50000000000E+03  0.50000000000E+03  0.00000000000E+00 0.  1.
         11   -1    0    0    0    0 -0.00000000000E+00 -0.00000000000E+00 -0.50000000000E+03  0.50000000000E+03  0.00000000000E+00 0. -1.
         25    2    1    2    0    0 -0.88597570576E+02  0.25239989119E+00 -0.30941585805E+03  0.34527044491E+03  0.12499565472E+03 0.  0.
        -11    1    1    2    0    0  0.56668091826E+02 -0.78834874801E+01  0.47879351332E+03  0.48219980340E+03  0.00000000000E+00 0.  1.
         11    1    1    2    0    0  0.31929478750E+02  0.76310875889E+01 -0.16937765527E+03  0.17252975169E+03  0.00000000000E+00 0. -1.
        -15    1    3    3    0    0  0.26188116164E+02  0.56041919464E+01 -0.18836500897E+02  0.32790179789E+02  0.17770000000E+01 0. -1.
         15    1    3    3    0    0 -0.11478568674E+03 -0.53517920552E+01 -0.29057935715E+03  0.31248026512E+03  0.17770000000E+01 0. -1.
</event>
<event>
 7    1  0.1738451E-005  0.5127737E+03  0.7546771E-02  0.9371673E-01
        -11   -1    0    0    0    0  0.00000000000E+00  0.00000000000E+00  0.50000000000E+03  0.50000000000E+03  0.00000000000E+00 0.  1.
         11   -1    0    0    0    0 -0.00000000000E+00 -0.00000000000E+00 -0.50000000000E+03  0.50000000000E+03  0.00000000000E+00 0.  1.
         25    2    1    2    0    0 -0.52525234707E+02  0.39240699430E+02  0.32877072800E+03  0.35779071015E+03  0.12500107161E+03 0.  0.
        -11    1    1    2    0    0 -0.56664377618E+01 -0.13550313189E+02  0.15428542592E+03  0.15498294150E+03  0.00000000000E+00 0.  1.
         11    1    1    2    0    0  0.58191672469E+02 -0.25690386241E+02 -0.48305615392E+03  0.48722634835E+03  0.00000000000E+00 0.  1.
        -15    1    3    3    0    0 -0.25476330775E+02  0.82248578646E+02  0.16235403662E+03  0.18378210755E+03  0.17770000000E+01 0. -1.
         15    1    3    3    0    0 -0.27048903932E+02 -0.43007879217E+02  0.16641669138E+03  0.17400860260E+03  0.17770000000E+01 0. -1.
</event>
<event>
 6    1  0.1738451E-005  0.5279493E+03  0.7546771E-02  0.9339355E-01
        -11   -1    0    0    0    0  0.00000000000E+00  0.00000000000E+00  0.50000000000E+03  0.50000000000E+03  0.00000000000E+00 0. -1.
         11   -1    0    0    0    0 -0.00000000000E+00 -0.00000000000E+00 -0.50000000000E+03  0.50000000000E+03  0.00000000000E+00 0. -1.
        -11    1    1    2    0    0  0.54587291542E+02 -0.36892288592E+02  0.25307635573E+03  0.26151186433E+03  0.00000000000E+00 0. -1.
         11    1    1    2    0    0 -0.27689441210E+02 -0.55721978565E+02 -0.46793187542E+03  0.47205072194E+03  0.00000000000E+00 0. -1.
        -15    1    1    2    0    0 -0.47086448216E+02  0.18036769709E+02  0.15743406526E+02  0.52853299284E+02  0.17770000000E+01 0.  1.
         15    1    1    2    0    0  0.20188597885E+02  0.74577497447E+02  0.19911211316E+03  0.21358411445E+03  0.17770000000E+01 0. -1.
</event>
<event>
 7    1  0.1738451E-005  0.5489269E+03  0.7546771E-02  0.9296531E-01
        -11   -1    0    0    0    0  0.00000000000E+00  0.00000000000E+00  0.50000000000E+03  0.50000000000E+03  0.00000000000E+00 0. -1.
         11   -1    0    0    0    0 -0.00000000000E+00 -0.00000000000E+00 -0.50000000000E+03  0.50000000000E+03  0.00000000000E+00 0.  1.
         25    2    1    2    0    0  0.10859029366E+03 -0.37696749334E+02 -0.17359242859E+02  0.17070024250E+03  0.12499733072E+03 0.  0.
        -11    1    1    2    0    0 -0.25936121230E+03  0.66221019383E+02  0.36306127299E+03  0.45107310915E+03  0.00000000000E+00 0. -1.
         11    1    1    2    0    0  0.15077091864E+03 -0.28524270049E+02 -0.34570203013E+03  0.37822664835E+03  0.00000000000E+00 0.  1.
        -15    1    3    3    0    0  0.27230275798E+02  0.71973816976E+01  0.48968394036E+02  0.56518594876E+02  0.17770000000E+01 0. -1.
         15    1    3    3    0    0  0.81360017866E+02 -0.44894131031E+02 -0.66327636895E+02  0.11418164762E+03  0.17770000000E+01 0. -1.
</event>
<event>
 7    1  0.1738451E-005  0.5356179E+03  0.7546771E-02  0.9323459E-01
        -11   -1    0    0    0    0  0.00000000000E+00  0.00000000000E+00  0.50000000000E+03  0.50000000000E+03  0.00000000000E+00 0. -1.
         11   -1    0    0    0    0 -0.00000000000E+00 -0.00000000000E+00 -0.50000000000E+03  0.50000000000E+03  0.00000000000E+00 0. -1.
         25    2    1    2    0    0  0.55415313489E+02 -0.68940893838E+02 -0.82410292000E+02  0.17392871491E+03  0.12504414353E+03 0.  0.
        -11    1    1    2    0    0 -0.14518047052E+03  0.87819268347E+02  0.43227438865E+03  0.46438210559E+03  0.00000000000E+00 0. -1.
         11    1    1    2    0    0  0.89765157034E+02 -0.18878374509E+02 -0.34986409665E+03  0.36168917949E+03  0.00000000000E+00 0. -1.
        -15    1    3    3    0    0  0.34892472864E+01 -0.25285015009E+02 -0.10049242974E+03  0.10369856795E+03  0.17770000000E+01 0.  1.
         15    1    3    3    0    0  0.51926066202E+02 -0.43655878829E+02  0.18082137744E+02  0.70230146960E+02  0.17770000000E+01 0.  1.
</event>
<event>
 7    1  0.1738451E-005  0.5409595E+03  0.7546771E-02  0.9312553E-01
        -11   -1    0    0    0    0  0.00000000000E+00  0.00000000000E+00  0.50000000000E+03  0.50000000000E+03  0.00000000000E+00 0.  1.
         11   -1    0    0    0    0 -0.00000000000E+00 -0.00000000000E+00 -0.50000000000E+03  0.50000000000E+03  0.00000000000E+00 0.  1.
         25    2    1    2    0    0 -0.11728765733E+02  0.38948548427E+02  0.74982699029E+02  0.15133651750E+03  0.12500313199E+03 0.  0.
        -11    1    1    2    0    0 -0.11230915598E+03 -0.74675497479E+02  0.36553560470E+03  0.38962296486E+03  0.00000000000E+00 0.  1.
         11    1    1    2    0    0  0.12403792172E+03  0.35726949052E+02 -0.44051830373E+03  0.45904051764E+03  0.00000000000E+00 0.  1.
        -15    1    3    3    0    0  0.16705845933E+02  0.26228317495E+02  0.10409989881E+03  0.10865982049E+03  0.17770000000E+01 0. -1.
         15    1    3    3    0    0 -0.28434611666E+02  0.12720230932E+02 -0.29117199785E+02  0.42676697013E+02  0.17770000000E+01 0. -1.
</event>
<event>
 7    1  0.1738451E-005  0.5127386E+03  0.7546771E-02  0.9371749E-01
        -11   -1    0    0    0    0  0.00000000000E+00  0.00000000000E+00  0.50000000000E+03  0.50000000000E+03  0.00000000000E+00 0.  1.
         11   -1    0    0    0    0 -0.00000000000E+00 -0.00000000000E+00 -0.50000000000E+03  0.50000000000E+03  0.00000000000E+00 0.  1.
         25    2    1    2    0    0 -0.69450465631E+01  0.36679481987E+02 -0.30597256999E+03  0.33262209539E+03  0.12499850673E+03 0.  0.
        -11    1    1    2    0    0 -0.68582339759E+01 -0.40630730196E+02  0.48551595385E+03  0.48726136011E+03  0.00000000000E+00 0.  1.
         11    1    1    2    0    0  0.13803280539E+02  0.39512482090E+01 -0.17954338386E+03  0.18011654450E+03  0.00000000000E+00 0.  1.
        -15    1    3    3    0    0 -0.31265157235E+02  0.46876765714E+02 -0.30035591635E+03  0.30560067970E+03  0.17770000000E+01 0.  1.
         15    1    3    3    0    0  0.24320110672E+02 -0.10197283726E+02 -0.56166536419E+01  0.27021415685E+02  0.17770000000E+01 0.  1.
</event>
<event>
 7    1  0.1738451E-005  0.5186830E+03  0.7546771E-02  0.9358949E-01
        -11   -1    0    0    0    0  0.00000000000E+00  0.00000000000E+00  0.50000000000E+03  0.50000000000E+03  0.00000000000E+00 0. -1.
         11   -1    0    0    0    0 -0.00000000000E+00 -0.00000000000E+00 -0.50000000000E+03  0.50000000000E+03  0.00000000000E+00 0. -1.
         25    2    1    2    0    0 -0.38999388430E+02  0.18106548642E+02  0.22240182151E+03  0.25872384539E+03  0.12500663408E+03 0.  0.
        -11    1    1    2    0    0  0.16902054876E+02 -0.23060392124E+02  0.25838211382E+03  0.25995918504E+03  0.00000000000E+00 0. -1.
         11    1    1    2    0    0  0.22097333554E+02  0.49538434817E+01 -0.48078393533E+03  0.48131696956E+03  0.00000000000E+00 0. -1.
        -15    1    3    3    0    0  0.45081734367E+02  0.17757172612E+00  0.92852735606E+02  0.10323363088E+03  0.17770000000E+01 0.  1.
         15    1    3    3    0    0 -0.84081122797E+02  0.17928976916E+02  0.12954908590E+03  0.15549021452E+03  0.17770000000E+01 0.  1.
</event>
<event>
 7    1  0.1738451E-005  0.3973632E+03  0.7546771E-02  0.9664224E-01
        -11   -1    0    0    0    0  0.00000000000E+00  0.00000000000E+00  0.50000000000E+03  0.50000000000E+03  0.00000000000E+00 0.  1.
         11   -1    0    0    0    0 -0.00000000000E+00 -0.00000000000E+00 -0.50000000000E+03  0.50000000000E+03  0.00000000000E+00 0. -1.
         25    2    1    2    0    0  0.35475322729E+02  0.12014271140E+03  0.74512014414E+02  0.19201806515E+03  0.12500450963E+03 0.  0.
        -11    1    1    2    0    0 -0.42315262308E+02 -0.20782459799E+01  0.35753763279E+03  0.36003896926E+03  0.00000000000E+00 0.  1.
         11    1    1    2    0    0  0.68399395789E+01 -0.11806446542E+03 -0.43204964720E+03  0.44794296558E+03  0.00000000000E+00 0. -1.
        -15    1    3    3    0    0 -0.15465715013E+02  0.12150926080E+03  0.34687672606E+02  0.12731881699E+03  0.17770000000E+01 0.  1.
         15    1    3    3    0    0  0.50941037742E+02 -0.13665493961E+01  0.39824341808E+02  0.64699248163E+02  0.17770000000E+01 0.  1.
</event>
<event>
 7    1  0.1738451E-005  0.5307558E+03  0.7546771E-02  0.9333505E-01
        -11   -1    0    0    0    0  0.00000000000E+00  0.00000000000E+00  0.50000000000E+03  0.50000000000E+03  0.00000000000E+00 0.  1.
         11   -1    0    0    0    0 -0.00000000000E+00 -0.00000000000E+00 -0.50000000000E+03  0.50000000000E+03  0.00000000000E+00 0. -1.
         25    2    1    2    0    0 -0.91924594519E-01 -0.62616418025E+02 -0.12428397583E+03  0.18706158809E+03  0.12499882733E+03 0.  0.
        -11    1    1    2    0    0 -0.62638508199E+02  0.52627339585E+02  0.46205727643E+03  0.46924422883E+03  0.00000000000E+00 0.  1.
         11    1    1    2    0    0  0.62730432794E+02  0.99890784398E+01 -0.33777330060E+03  0.34369418309E+03  0.00000000000E+00 0. -1.
        -15    1    3    3    0    0  0.12093020105E+02 -0.98379700683E+02 -0.71967627051E+02  0.12250430080E+03  0.17770000000E+01 0. -1.
         15    1    3    3    0    0 -0.12184944699E+02  0.35763282658E+02 -0.52316348778E+02  0.64557287291E+02  0.17770000000E+01 0. -1.
</event>
<event>
 7    1  0.1738451E-005  0.3777672E+03  0.7546771E-02  0.9724473E-01
        -11   -1    0    0    0    0  0.00000000000E+00  0.00000000000E+00  0.50000000000E+03  0.50000000000E+03  0.00000000000E+00 0.  1.
         11   -1    0    0    0    0 -0.00000000000E+00 -0.00000000000E+00 -0.50000000000E+03  0.50000000000E+03  0.00000000000E+00 0. -1.
         25    2    1    2    0    0  0.11181585226E+03 -0.12325793854E+03  0.78356408876E+02  0.22239648967E+03  0.12500067030E+03 0.  0.
        -11    1    1    2    0    0 -0.11977409549E+03  0.14444206267E+03  0.32410617733E+03  0.37450521705E+03  0.00000000000E+00 0.  1.
         11    1    1    2    0    0  0.79582432217E+01 -0.21184124133E+02 -0.40246258620E+03  0.40309829328E+03  0.00000000000E+00 0. -1.
        -15    1    3    3    0    0  0.99947844650E+02 -0.11573071287E+03  0.10956430288E+03  0.18812406477E+03  0.17770000000E+01 0.  1.
         15    1    3    3    0    0  0.11868007614E+02 -0.75272256713E+01 -0.31207894007E+02  0.34272424898E+02  0.17770000000E+01 0.  1.
</event>
<event>
 7    1  0.1738451E-005  0.4828509E+03  0.7546771E-02  0.9439021E-01
        -11   -1    0    0    0    0  0.00000000000E+00  0.00000000000E+00  0.50000000000E+03  0.50000000000E+03  0.00000000000E+00 0.  1.
         11   -1    0    0    0    0 -0.00000000000E+00 -0.00000000000E+00 -0.50000000000E+03  0.50000000000E+03  0.00000000000E+00 0.  1.
         25    2    1    2    0    0  0.46369373743E+02  0.49193222944E+02 -0.43730480888E+03  0.45981733016E+03  0.12500555683E+03 0.  0.
        -11    1    1    2    0    0 -0.62034166515E+02 -0.59105375104E+02  0.48317227925E+03  0.49071084624E+03  0.00000000000E+00 0.  1.
         11    1    1    2    0    0  0.15664792772E+02  0.99121521603E+01 -0.45867470364E+02  0.49471823603E+02  0.00000000000E+00 0.  1.
        -15    1    3    3    0    0  0.59144596576E+02  0.83341660122E+02 -0.36165622532E+03  0.37582216361E+03  0.17770000000E+01 0. -1.
         15    1    3    3    0    0 -0.12775222832E+02 -0.34148437179E+02 -0.75648583559E+02  0.83995166549E+02  0.17770000000E+01 0. -1.
</event>
<event>
 7    1  0.1738451E-005  0.4300528E+03  0.7546771E-02  0.9571548E-01
        -11   -1    0    0    0    0  0.00000000000E+00  0.00000000000E+00  0.50000000000E+03  0.50000000000E+03  0.00000000000E+00 0. -1.
         11   -1    0    0    0    0 -0.00000000000E+00 -0.00000000000E+00 -0.50000000000E+03  0.50000000000E+03  0.00000000000E+00 0. -1.
         25    2    1    2    0    0 -0.54537263072E+02  0.61599011574E+01 -0.19582132656E+02  0.13792269234E+03  0.12500780655E+03 0.  0.
        -11    1    1    2    0    0  0.34777066777E+02  0.12519784927E+02  0.43961454118E+03  0.44116565393E+03  0.00000000000E+00 0. -1.
         11    1    1    2    0    0  0.19760196295E+02 -0.18679686084E+02 -0.42003240853E+03  0.42091165373E+03  0.00000000000E+00 0. -1.
        -15    1    3    3    0    0  0.54120230700E+01 -0.36632562564E+02  0.31188348167E+02  0.48446934105E+02  0.17770000000E+01 0. -1.
         15    1    3    3    0    0 -0.59949286142E+02  0.42792463722E+02 -0.50770480824E+02  0.89475758239E+02  0.17770000000E+01 0. -1.
</event>
<event>
 7    1  0.1738451E-005  0.5225355E+03  0.7546771E-02  0.9350750E-01
        -11   -1    0    0    0    0  0.00000000000E+00  0.00000000000E+00  0.50000000000E+03  0.50000000000E+03  0.00000000000E+00 0. -1.
         11   -1    0    0    0    0 -0.00000000000E+00 -0.00000000000E+00 -0.50000000000E+03  0.50000000000E+03  0.00000000000E+00 0. -1.
         25    2    1    2    0    0  0.82536845515E+02 -0.41169792900E+02 -0.24391768453E+03  0.28918429683E+03  0.12499775194E+03 0.  0.
        -11    1    1    2    0    0 -0.48977602798E+02  0.25091059775E+02  0.47428264324E+03  0.47746454584E+03  0.00000000000E+00 0. -1.
         11    1    1    2    0    0 -0.33559242717E+02  0.16078733125E+02 -0.23036495870E+03  0.23335115733E+03  0.00000000000E+00 0. -1.
        -15    1    3    3    0    0 -0.13786538359E+01 -0.66820375308E+02 -0.11939280463E+03  0.13683808962E+03  0.17770000000E+01 0. -1.
         15    1    3    3    0    0  0.83915499351E+02  0.25650582407E+02 -0.12452487990E+03  0.15234620721E+03  0.17770000000E+01 0. -1.
</event>
<event>
 7    1  0.1738451E-005  0.5159902E+03  0.7546771E-02  0.9364725E-01
        -11   -1    0    0    0    0  0.00000000000E+00  0.00000000000E+00  0.50000000000E+03  0.50000000000E+03  0.00000000000E+00 0. -1.
         11   -1    0    0    0    0 -0.00000000000E+00 -0.00000000000E+00 -0.50000000000E+03  0.50000000000E+03  0.00000000000E+00 0. -1.
         25    2    1    2    0    0 -0.47235226709E+02  0.45679160662E+01 -0.25363953705E+03  0.28672404195E+03  0.12500251589E+03 0.  0.
        -11    1    1    2    0    0  0.41307200443E+02 -0.32005618354E+02  0.48118071101E+03  0.48400983571E+03  0.00000000000E+00 0. -1.
         11    1    1    2    0    0  0.59280262654E+01  0.27437702287E+02 -0.22754117397E+03  0.22926612234E+03  0.00000000000E+00 0. -1.
        -15    1    3    3    0    0 -0.80320531388E+02 -0.17364525125E+02 -0.10775856804E+03  0.13552852545E+03  0.17770000000E+01 0. -1.
         15    1    3    3    0    0  0.33085304679E+02  0.21932441191E+02 -0.14588096901E+03  0.15119551650E+03  0.17770000000E+01 0. -1.
</event>
<event>
 7    1  0.1738451E-005  0.5252251E+03  0.7546771E-02  0.9345071E-01
        -11   -1    0    0    0    0  0.00000000000E+00  0.00000000000E+00  0.50000000000E+03  0.50000000000E+03  0.00000000000E+00 0.  1.
         11   -1    0    0    0    0 -0.00000000000E+00 -0.00000000000E+00 -0.50000000000E+03  0.50000000000E+03  0.00000000000E+00 0.  1.
         25    2    1    2    0    0  0.29226978063E+02 -0.14283535413E+03  0.21840576881E+03  0.29082386999E+03  0.12498515458E+03 0.  0.
        -11    1    1    2    0    0  0.56922889715E+02  0.39439092113E+01  0.22735036381E+03  0.23440127499E+03  0.00000000000E+00 0.  1.
         11    1    1    2    0    0 -0.86149867778E+02  0.13889144492E+03 -0.44575613262E+03  0.47477485502E+03  0.00000000000E+00 0.  1.
        -15    1    3    3    0    0  0.23805942811E+01 -0.89257580573E+02  0.21259224984E+03  0.23058882310E+03  0.17770000000E+01 0.  1.
         15    1    3    3    0    0  0.26846383782E+02 -0.53577773555E+02  0.58135189765E+01  0.60235046885E+02  0.17770000000E+01 0.  1.
</event>
<event>
 7    1  0.1738451E-005  0.5257733E+03  0.7546771E-02  0.9343918E-01
        -11   -1    0    0    0    0  0.00000000000E+00  0.00000000000E+00  0.50000000000E+03  0.50000000000E+03  0.00000000000E+00 0.  1.
         11   -1    0    0    0    0 -0.00000000000E+00 -0.00000000000E+00 -0.50000000000E+03  0.50000000000E+03  0.00000000000E+00 0. -1.
         25    2    1    2    0    0  0.48939210376E+02 -0.87369074800E+02 -0.34279366430E+03  0.37836582539E+03  0.12499919998E+03 0.  0.
        -11    1    1    2    0    0 -0.34630742293E+01  0.35118353307E+02  0.47291188806E+03  0.47422668155E+03  0.00000000000E+00 0.  1.
         11    1    1    2    0    0 -0.45476136147E+02  0.52250721493E+02 -0.13011822376E+03  0.14740749306E+03  0.00000000000E+00 0. -1.
        -15    1    3    3    0    0 -0.50177254446E+01  0.23266372861E+02 -0.14929764488E+02  0.28152393706E+02  0.17770000000E+01 0.  1.
         15    1    3    3    0    0  0.53956935821E+02 -0.11063544766E+03 -0.32786389981E+03  0.35021343168E+03  0.17770000000E+01 0.  1.
</event>
<event>
 7    1  0.1738451E-005  0.5132705E+03  0.7546771E-02  0.9370596E-01
        -11   -1    0    0    0    0  0.00000000000E+00  0.00000000000E+00  0.50000000000E+03  0.50000000000E+03  0.00000000000E+00 0. -1.
         11   -1    0    0    0    0 -0.00000000000E+00 -0.00000000000E+00 -0.50000000000E+03  0.50000000000E+03  0.00000000000E+00 0.  1.
         25    2    1    2    0    0 -0.11308540658E+02 -0.33230714714E+02 -0.28199577983E+03  0.31044355570E+03  0.12498567096E+03 0.  0.
        -11    1    1    2    0    0  0.73689269366E+01  0.50432824194E+02  0.48405354019E+03  0.48672949429E+03  0.00000000000E+00 0. -1.
         11    1    1    2    0    0  0.39396137215E+01 -0.17202109480E+02 -0.20205776036E+03  0.20282695001E+03  0.00000000000E+00 0.  1.
        -15    1    3    3    0    0 -0.38788306046E+02  0.35817235322E+02 -0.14893701069E+03  0.15802783905E+03  0.17770000000E+01 0. -1.
         15    1    3    3    0    0  0.27479765388E+02 -0.69047950037E+02 -0.13305876914E+03  0.15241571666E+03  0.17770000000E+01 0. -1.
</event>
<event>
 7    1  0.1738451E-005  0.4934877E+03  0.7546771E-02  0.9414500E-01
        -11   -1    0    0    0    0  0.00000000000E+00  0.00000000000E+00  0.50000000000E+03  0.50000000000E+03  0.00000000000E+00 0.  1.
         11   -1    0    0    0    0 -0.00000000000E+00 -0.00000000000E+00 -0.50000000000E+03  0.50000000000E+03  0.00000000000E+00 0. -1.
         25    2    1    2    0    0 -0.13133232591E+03 -0.54701425930E+02  0.44832762441E+03  0.48668554944E+03  0.12499895762E+03 0.  0.
        -11    1    1    2    0    0  0.19019281780E+02  0.61355691248E+01  0.20590431860E+02  0.28693974491E+02  0.00000000000E+00 0.  1.
         11    1    1    2    0    0  0.11231304413E+03  0.48565856805E+02 -0.46891805627E+03  0.48462047606E+03  0.00000000000E+00 0. -1.
        -15    1    3    3    0    0 -0.13122986193E+03  0.33340274079E+01  0.31507212869E+03  0.34132974732E+03  0.17770000000E+01 0.  1.
         15    1    3    3    0    0 -0.10246397687E+00 -0.58035453338E+02  0.13325549572E+03  0.14535580213E+03  0.17770000000E+01 0.  1.
</event>
<event>
 7    1  0.1738451E-005  0.4348390E+03  0.7546771E-02  0.9558718E-01
        -11   -1    0    0    0    0  0.00000000000E+00  0.00000000000E+00  0.50000000000E+03  0.50000000000E+03  0.00000000000E+00 0.  1.
         11   -1    0    0    0    0 -0.00000000000E+00 -0.00000000000E+00 -0.50000000000E+03  0.50000000000E+03  0.00000000000E+00 0.  1.
         25    2    1    2    0    0 -0.86524232125E+01 -0.32890353763E+02  0.50521384449E+01  0.12964259188E+03  0.12500015091E+03 0.  0.
        -11    1    1    2    0    0 -0.15655812620E+02  0.66202909162E+01  0.43175345677E+03  0.43208793104E+03  0.00000000000E+00 0.  1.
         11    1    1    2    0    0  0.24308235833E+02  0.26270062846E+02 -0.43680559521E+03  0.43826947708E+03  0.00000000000E+00 0.  1.
        -15    1    3    3    0    0 -0.39946776432E+02 -0.60555627063E+01  0.52817495127E+02  0.66522630040E+02  0.17770000000E+01 0.  1.
         15    1    3    3    0    0  0.31294353219E+02 -0.26834791056E+02 -0.47765356682E+02  0.63119961838E+02  0.17770000000E+01 0.  1.
</event>
<event>
 7    1  0.1738451E-005  0.3608411E+03  0.7546771E-02  0.9779750E-01
        -11   -1    0    0    0    0  0.00000000000E+00  0.00000000000E+00  0.50000000000E+03  0.50000000000E+03  0.00000000000E+00 0.  1.
         11   -1    0    0    0    0 -0.00000000000E+00 -0.00000000000E+00 -0.50000000000E+03  0.50000000000E+03  0.00000000000E+00 0. -1.
         25    2    1    2    0    0 -0.20225261759E+03  0.57950406811E+02  0.36312553164E+02  0.24739904241E+03  0.12499325461E+03 0.  0.
        -11    1    1    2    0    0 -0.10806598877E+02  0.33470963890E+02  0.32303983511E+03  0.32494895456E+03  0.00000000000E+00 0.  1.
         11    1    1    2    0    0  0.21305921647E+03 -0.91421370701E+02 -0.35935238827E+03  0.42765200303E+03  0.00000000000E+00 0. -1.
        -15    1    3    3    0    0 -0.15356778340E+03 -0.15319545314E+02  0.39636158484E+02  0.15934847145E+03  0.17770000000E+01 0.  1.
         15    1    3    3    0    0 -0.48684834191E+02  0.73269952125E+02 -0.33236053200E+01  0.88050570958E+02  0.17770000000E+01 0.  1.
</event>
<event>
 7    1  0.1738451E-005  0.5237872E+03  0.7546771E-02  0.9348103E-01
        -11   -1    0    0    0    0  0.00000000000E+00  0.00000000000E+00  0.50000000000E+03  0.50000000000E+03  0.00000000000E+00 0.  1.
         11   -1    0    0    0    0 -0.00000000000E+00 -0.00000000000E+00 -0.50000000000E+03  0.50000000000E+03  0.00000000000E+00 0.  1.
         25    2    1    2    0    0 -0.24128284540E+01  0.71134686705E+02 -0.16832471628E+03  0.22140896014E+03  0.12499100817E+03 0.  0.
        -11    1    1    2    0    0  0.27402626894E+02 -0.73827892542E+02  0.46965647945E+03  0.47621284145E+03  0.00000000000E+00 0.  1.
         11    1    1    2    0    0 -0.24989798440E+02  0.26932058367E+01 -0.30133176316E+03  0.30237819841E+03  0.00000000000E+00 0.  1.
        -15    1    3    3    0    0  0.30758125582E+02 -0.25689757333E+02 -0.34406267170E+02  0.52848603300E+02  0.17770000000E+01 0. -1.
         15    1    3    3    0    0 -0.33170954036E+02  0.96824444039E+02 -0.13391844911E+03  0.16856035684E+03  0.17770000000E+01 0. -1.
</event>
<event>
 7    1  0.1738451E-005  0.5302342E+03  0.7546771E-02  0.9334589E-01
        -11   -1    0    0    0    0  0.00000000000E+00  0.00000000000E+00  0.50000000000E+03  0.50000000000E+03  0.00000000000E+00 0.  1.
         11   -1    0    0    0    0 -0.00000000000E+00 -0.00000000000E+00 -0.50000000000E+03  0.50000000000E+03  0.00000000000E+00 0.  1.
         25    2    1    2    0    0  0.58432382701E+01  0.83312509633E+02 -0.13265596265E+03  0.20049243028E+03  0.12499796989E+03 0.  0.
        -11    1    1    2    0    0 -0.75269131021E+02 -0.89670649909E+02  0.45494352596E+03  0.46976577074E+03  0.00000000000E+00 0.  1.
         11    1    1    2    0    0  0.69425892751E+02  0.63581402753E+01 -0.32228756331E+03  0.32974179898E+03  0.00000000000E+00 0.  1.
        -15    1    3    3    0    0 -0.27995587126E+02  0.65395076287E+02 -0.98412249684E+01  0.71835063437E+02  0.17770000000E+01 0.  1.
         15    1    3    3    0    0  0.33838825397E+02  0.17917433347E+02 -0.12281473768E+03  0.12865736684E+03  0.17770000000E+01 0.  1.
</event>
<event>
 7    1  0.1738451E-005  0.4456316E+03  0.7546771E-02  0.9530422E-01
        -11   -1    0    0    0    0  0.00000000000E+00  0.00000000000E+00  0.50000000000E+03  0.50000000000E+03  0.00000000000E+00 0.  1.
         11   -1    0    0    0    0 -0.00000000000E+00 -0.00000000000E+00 -0.50000000000E+03  0.50000000000E+03  0.00000000000E+00 0. -1.
         25    2    1    2    0    0 -0.61547608610E+02 -0.16057241419E+03 -0.35838664003E+03  0.41669976637E+03  0.12500441280E+03 0.  0.
        -11    1    1    2    0    0  0.18240326899E+02  0.10317971401E+03  0.45272198808E+03  0.46468910187E+03  0.00000000000E+00 0.  1.
         11    1    1    2    0    0  0.43307281712E+02  0.57392700180E+02 -0.94335348052E+02  0.11861113175E+03  0.00000000000E+00 0. -1.
        -15    1    3    3    0    0 -0.26701321626E+02 -0.92248568708E+02 -0.71525783174E+02  0.11975748157E+03  0.17770000000E+01 0. -1.
         15    1    3    3    0    0 -0.34846286984E+02 -0.68323845485E+02 -0.28686085685E+03  0.29694228480E+03  0.17770000000E+01 0. -1.
</event>
<event>
 7    1  0.1738451E-005  0.5408773E+03  0.7546771E-02  0.9312720E-01
        -11   -1    0    0    0    0  0.00000000000E+00  0.00000000000E+00  0.50000000000E+03  0.50000000000E+03  0.00000000000E+00 0.  1.
         11   -1    0    0    0    0 -0.00000000000E+00 -0.00000000000E+00 -0.50000000000E+03  0.50000000000E+03  0.00000000000E+00 0.  1.
         25    2    1    2    0    0 -0.20373135620E+02 -0.35638230894E+02  0.73882988333E+02  0.15090819230E+03  0.12501775226E+03 0.  0.
        -11    1    1    2    0    0  0.52235397298E+02  0.42807793656E+02  0.38407665153E+03  0.38996912465E+03  0.00000000000E+00 0.  1.
         11    1    1    2    0    0 -0.31862261678E+02 -0.71695627612E+01 -0.45795963987E+03  0.45912268305E+03  0.00000000000E+00 0.  1.
        -15    1    3    3    0    0  0.30163233085E+02  0.33891602951E+02  0.29586091881E+02  0.54193689140E+02  0.17770000000E+01 0.  1.
         15    1    3    3    0    0 -0.50536368705E+02 -0.69529833846E+02  0.44296896452E+02  0.96714503156E+02  0.17770000000E+01 0.  1.
</event>
<event>
 7    1  0.1738451E-005  0.3664866E+03  0.7546771E-02  0.9760958E-01
        -11   -1    0    0    0    0  0.00000000000E+00  0.00000000000E+00  0.50000000000E+03  0.50000000000E+03  0.00000000000E+00 0.  1.
         11   -1    0    0    0    0 -0.00000000000E+00 -0.00000000000E+00 -0.50000000000E+03  0.50000000000E+03  0.00000000000E+00 0. -1.
         25    2    1    2    0    0 -0.16726276093E+03 -0.10902835379E+03 -0.41521563495E+02  0.23918604458E+03  0.12498764163E+03 0.  0.
        -11    1    1    2    0    0  0.10647747885E+03  0.90134057863E+02  0.38603528625E+03  0.41046905379E+03  0.00000000000E+00 0.  1.
         11    1    1    2    0    0  0.60785282087E+02  0.18894295931E+02 -0.34451372275E+03  0.35034490163E+03  0.00000000000E+00 0. -1.
        -15    1    3    3    0    0 -0.99222288930E+02 -0.52382256193E+02  0.39695951394E+02  0.11902894468E+03  0.17770000000E+01 0.  1.
         15    1    3    3    0    0 -0.68040472004E+02 -0.56646097600E+02 -0.81217514889E+02  0.12015709991E+03  0.17770000000E+01 0.  1.
</event>
<event>
 7    1  0.1738451E-005  0.5485823E+03  0.7546771E-02  0.9297218E-01
        -11   -1    0    0    0    0  0.00000000000E+00  0.00000000000E+00  0.50000000000E+03  0.50000000000E+03  0.00000000000E+00 0.  1.
         11   -1    0    0    0    0 -0.00000000000E+00 -0.00000000000E+00 -0.50000000000E+03  0.50000000000E+03  0.00000000000E+00 0. -1.
         25    2    1    2    0    0  0.89987166078E+02 -0.78344353888E+02 -0.13995207386E+03  0.22237240051E+03  0.12500949438E+03 0.  0.
        -11    1    1    2    0    0 -0.62067728077E+02 -0.30878312964E+02  0.44606285457E+03  0.45141770381E+03  0.00000000000E+00 0.  1.
         11    1    1    2    0    0 -0.27919438001E+02  0.10922266685E+03 -0.30611078072E+03  0.32620989569E+03  0.00000000000E+00 0. -1.
        -15    1    3    3    0    0  0.55031284782E+02 -0.10925529055E+03 -0.79180999944E+02  0.14573245794E+03  0.17770000000E+01 0.  1.
         15    1    3    3    0    0  0.34955881296E+02  0.30910936660E+02 -0.60771073913E+02  0.76639942562E+02  0.17770000000E+01 0.  1.
</event>
<event>
 7    1  0.1738451E-005  0.3450075E+03  0.7546771E-02  0.9834482E-01
        -11   -1    0    0    0    0  0.00000000000E+00  0.00000000000E+00  0.50000000000E+03  0.50000000000E+03  0.00000000000E+00 0. -1.
         11   -1    0    0    0    0 -0.00000000000E+00 -0.00000000000E+00 -0.50000000000E+03  0.50000000000E+03  0.00000000000E+00 0. -1.
         25    2    1    2    0    0  0.99230292321E+02 -0.76226819459E+02 -0.28105672343E+03  0.33207780267E+03  0.12500242527E+03 0.  0.
        -11    1    1    2    0    0  0.14513967621E+03 -0.29145674494E+02  0.36090044071E+03  0.39008220167E+03  0.00000000000E+00 0. -1.
         11    1    1    2    0    0 -0.24436996853E+03  0.10537249395E+03 -0.79843717282E+02  0.27783999567E+03  0.00000000000E+00 0. -1.
        -15    1    3    3    0    0 -0.77216357738E+01  0.25128863331E+02 -0.68892538450E+02  0.73759223250E+02  0.17770000000E+01 0. -1.
         15    1    3    3    0    0  0.10695192809E+03 -0.10135568279E+03 -0.21216418498E+03  0.25831857942E+03  0.17770000000E+01 0. -1.
</event>
<event>
 7    1  0.1738451E-005  0.5176476E+03  0.7546771E-02  0.9361165E-01
        -11   -1    0    0    0    0  0.00000000000E+00  0.00000000000E+00  0.50000000000E+03  0.50000000000E+03  0.00000000000E+00 0. -1.
         11   -1    0    0    0    0 -0.00000000000E+00 -0.00000000000E+00 -0.50000000000E+03  0.50000000000E+03  0.00000000000E+00 0. -1.
         25    2    1    2    0    0  0.52495875349E+02  0.15989735955E+02 -0.21137826416E+03  0.25162834756E+03  0.12499826460E+03 0.  0.
        -11    1    1    2    0    0 -0.73750568178E+02 -0.12318653371E+02  0.47652167039E+03  0.48235235863E+03  0.00000000000E+00 0. -1.
         11    1    1    2    0    0  0.21254692830E+02 -0.36710825844E+01 -0.26514340622E+03  0.26601929381E+03  0.00000000000E+00 0. -1.
        -15    1    3    3    0    0 -0.15313968873E+02 -0.42264671075E+02 -0.50986038699E+02  0.67996720031E+02  0.17770000000E+01 0. -1.
         15    1    3    3    0    0  0.67809844221E+02  0.58254407030E+02 -0.16039222546E+03  0.18363162753E+03  0.17770000000E+01 0. -1.
</event>
<event>
 7    1  0.1738451E-005  0.3987101E+03  0.7546771E-02  0.9660220E-01
        -11   -1    0    0    0    0  0.00000000000E+00  0.00000000000E+00  0.50000000000E+03  0.50000000000E+03  0.00000000000E+00 0.  1.
         11   -1    0    0    0    0 -0.00000000000E+00 -0.00000000000E+00 -0.50000000000E+03  0.50000000000E+03  0.00000000000E+00 0.  1.
         25    2    1    2    0    0 -0.20476472271E+02  0.13492826912E+03  0.42448216291E+02  0.18987299769E+03  0.12499992185E+03 0.  0.
        -11    1    1    2    0    0  0.43407594758E+02 -0.94589257661E+02  0.37547709836E+03  0.38963367198E+03  0.00000000000E+00 0.  1.
         11    1    1    2    0    0 -0.22931122487E+02 -0.40339011462E+02 -0.41792531465E+03  0.42049333033E+03  0.00000000000E+00 0.  1.
        -15    1    3    3    0    0 -0.33131134009E+02 -0.13549593420E+02  0.47515723930E+01  0.36152436872E+02  0.17770000000E+01 0.  1.
         15    1    3    3    0    0  0.12654661738E+02  0.14847786254E+03  0.37696643898E+02  0.15372056082E+03  0.17770000000E+01 0.  1.
</event>
<event>
 7    1  0.1738451E-005  0.3925479E+03  0.7546771E-02  0.9678679E-01
        -11   -1    0    0    0    0  0.00000000000E+00  0.00000000000E+00  0.50000000000E+03  0.50000000000E+03  0.00000000000E+00 0.  1.
         11   -1    0    0    0    0 -0.00000000000E+00 -0.00000000000E+00 -0.50000000000E+03  0.50000000000E+03  0.00000000000E+00 0.  1.
         25    2    1    2    0    0  0.12371090058E+03 -0.89372863233E+02  0.30541008452E+02  0.19962508444E+03  0.12500210212E+03 0.  0.
        -11    1    1    2    0    0  0.59040477328E+01 -0.15448113192E+02  0.36800277922E+03  0.36837419494E+03  0.00000000000E+00 0.  1.
         11    1    1    2    0    0 -0.12961494832E+03  0.10482097643E+03 -0.39854378767E+03  0.43200072062E+03  0.00000000000E+00 0.  1.
        -15    1    3    3    0    0  0.10432455254E+03 -0.99581175664E+02  0.65436804231E+02  0.15838294064E+03  0.17770000000E+01 0. -1.
         15    1    3    3    0    0  0.19386348044E+02  0.10208312431E+02 -0.34895795779E+02  0.41242143800E+02  0.17770000000E+01 0. -1.
</event>
<event>
 7    1  0.1738451E-005  0.5502558E+03  0.7546771E-02  0.9293887E-01
        -11   -1    0    0    0    0  0.00000000000E+00  0.00000000000E+00  0.50000000000E+03  0.50000000000E+03  0.00000000000E+00 0.  1.
         11   -1    0    0    0    0 -0.00000000000E+00 -0.00000000000E+00 -0.50000000000E+03  0.50000000000E+03  0.00000000000E+00 0.  1.
         25    2    1    2    0    0  0.77996032217E+02 -0.41833740451E+02  0.71403034483E+02  0.16899042583E+03  0.12500371117E+03 0.  0.
        -11    1    1    2    0    0 -0.51678056472E+02  0.21740248591E+02  0.37712065780E+03  0.38126532818E+03  0.00000000000E+00 0.  1.
         11    1    1    2    0    0 -0.26317975745E+02  0.20093491859E+02 -0.44852369229E+03  0.44974424599E+03  0.00000000000E+00 0.  1.
        -15    1    3    3    0    0 -0.83911343906E+01  0.28119489767E+02 -0.10162368768E+02  0.31105438578E+02  0.17770000000E+01 0. -1.
         15    1    3    3    0    0  0.86387166608E+02 -0.69953230218E+02  0.81565403251E+02  0.13788498725E+03  0.17770000000E+01 0. -1.
</event>
<event>
 7    1  0.1738451E-005  0.5203930E+03  0.7546771E-02  0.9355300E-01
        -11   -1    0    0    0    0  0.00000000000E+00  0.00000000000E+00  0.50000000000E+03  0.50000000000E+03  0.00000000000E+00 0. -1.
         11   -1    0    0    0    0 -0.00000000000E+00 -0.00000000000E+00 -0.50000000000E+03  0.50000000000E+03  0.00000000000E+00 0.  1.
         25    2    1    2    0    0 -0.34771179822E+02 -0.69751560190E+02  0.18341000278E+03  0.23525652803E+03  0.12502835585E+03 0.  0.
        -11    1    1    2    0    0 -0.59533731928E+02 -0.20454073257E+02  0.27810100431E+03  0.28513646373E+03  0.00000000000E+00 0. -1.
         11    1    1    2    0    0  0.94304911750E+02  0.90205633446E+02 -0.46151100709E+03  0.47960700824E+03  0.00000000000E+00 0.  1.
        -15    1    3    3    0    0 -0.31047571077E+02 -0.41115077078E+02  0.20383938942E+01  0.51591801787E+02  0.17770000000E+01 0. -1.
         15    1    3    3    0    0 -0.37236087446E+01 -0.28636483112E+02  0.18137160889E+03  0.18366472624E+03  0.17770000000E+01 0. -1.
</event>
<event>
 7    1  0.1738451E-005  0.5329553E+03  0.7546771E-02  0.9328946E-01
        -11   -1    0    0    0    0  0.00000000000E+00  0.00000000000E+00  0.50000000000E+03  0.50000000000E+03  0.00000000000E+00 0.  1.
         11   -1    0    0    0    0 -0.00000000000E+00 -0.00000000000E+00 -0.50000000000E+03  0.50000000000E+03  0.00000000000E+00 0. -1.
         25    2    1    2    0    0  0.21740597877E+02  0.76201200841E+02  0.13105585694E+03  0.19768512605E+03  0.12499797925E+03 0.  0.
        -11    1    1    2    0    0 -0.39572453209E+02 -0.20403197897E+02  0.33230078151E+03  0.33527015812E+03  0.00000000000E+00 0.  1.
         11    1    1    2    0    0  0.17831855332E+02 -0.55798002944E+02 -0.46335663845E+03  0.46704471583E+03  0.00000000000E+00 0. -1.
        -15    1    3    3    0    0  0.55726798719E+02 -0.87524348207E+01  0.47648463908E+02  0.73862135445E+02  0.17770000000E+01 0.  1.
         15    1    3    3    0    0 -0.33986200842E+02  0.84953635662E+02  0.83407393032E+02  0.12382299060E+03  0.17770000000E+01 0.  1.
</event>
<event>
 7    1  0.1738451E-005  0.4010952E+03  0.7546771E-02  0.9653170E-01
        -11   -1    0    0    0    0  0.00000000000E+00  0.00000000000E+00  0.50000000000E+03  0.50000000000E+03  0.00000000000E+00 0.  1.
         11   -1    0    0    0    0 -0.00000000000E+00 -0.00000000000E+00 -0.50000000000E+03  0.50000000000E+03  0.00000000000E+00 0. -1.
         25    2    1    2    0    0 -0.12556061776E+02  0.13702121184E+03  0.76381004343E+01  0.18605881494E+03  0.12500829917E+03 0.  0.
        -11    1    1    2    0    0 -0.11415490285E+02 -0.21921758025E+03  0.36809302290E+03  0.42857803772E+03  0.00000000000E+00 0.  1.
         11    1    1    2    0    0  0.23971552061E+02  0.82196368414E+02 -0.37573112333E+03  0.38536314734E+03  0.00000000000E+00 0. -1.
        -15    1    3    3    0    0  0.72384393155E+01 -0.22558692978E+02  0.85318993835E+01  0.25243626298E+02  0.17770000000E+01 0. -1.
         15    1    3    3    0    0 -0.19794501092E+02  0.15957990481E+03 -0.89379894918E+00  0.16081518865E+03  0.17770000000E+01 0. -1.
</event>
<event>
 7    1  0.1738451E-005  0.4082840E+03  0.7546771E-02  0.9632236E-01
        -11   -1    0    0    0    0  0.00000000000E+00  0.00000000000E+00  0.50000000000E+03  0.50000000000E+03  0.00000000000E+00 0. -1.
         11   -1    0    0    0    0 -0.00000000000E+00 -0.00000000000E+00 -0.50000000000E+03  0.50000000000E+03  0.00000000000E+00 0. -1.
         25    2    1    2    0    0  0.73947982991E+02 -0.83301037826E+02 -0.48890305204E+02  0.17442094013E+03  0.12500014129E+03 0.  0.
        -11    1    1    2    0    0 -0.96076310156E+02 -0.51625078187E+01  0.42644698103E+03  0.43716625726E+03  0.00000000000E+00 0. -1.
         11    1    1    2    0    0  0.22128327165E+02  0.88463545645E+02 -0.37755667582E+03  0.38841280261E+03  0.00000000000E+00 0. -1.
        -15    1    3    3    0    0  0.47971391097E+02  0.61123539624E+01  0.25984071032E+02  0.54926723106E+02  0.17770000000E+01 0.  1.
         15    1    3    3    0    0  0.25976591894E+02 -0.89413391788E+02 -0.74874376236E+02  0.11949421703E+03  0.17770000000E+01 0.  1.
</event>
<event>
 7    1  0.1738451E-005  0.5376041E+03  0.7546771E-02  0.9319388E-01
        -11   -1    0    0    0    0  0.00000000000E+00  0.00000000000E+00  0.50000000000E+03  0.50000000000E+03  0.00000000000E+00 0.  1.
         11   -1    0    0    0    0 -0.00000000000E+00 -0.00000000000E+00 -0.50000000000E+03  0.50000000000E+03  0.00000000000E+00 0. -1.
         25    2    1    2    0    0  0.45767881101E+02 -0.15360740507E+02  0.62684637309E+02  0.14794073690E+03  0.12500578622E+03 0.  0.
        -11    1    1    2    0    0  0.87852809111E+02 -0.25295085332E+01  0.37962224976E+03  0.38966340217E+03  0.00000000000E+00 0.  1.
         11    1    1    2    0    0 -0.13362069021E+03  0.17890249040E+02 -0.44230688706E+03  0.46239586093E+03  0.00000000000E+00 0. -1.
        -15    1    3    3    0    0 -0.14136596017E+02 -0.41226786999E+02  0.69769774680E+02  0.82282868819E+02  0.17770000000E+01 0.  1.
         15    1    3    3    0    0  0.59904477117E+02  0.25866046493E+02 -0.70851373708E+01  0.65657868077E+02  0.17770000000E+01 0.  1.
</event>
<event>
 7    1  0.1738451E-005  0.4202288E+03  0.7546771E-02  0.9598450E-01
        -11   -1    0    0    0    0  0.00000000000E+00  0.00000000000E+00  0.50000000000E+03  0.50000000000E+03  0.00000000000E+00 0. -1.
         11   -1    0    0    0    0 -0.00000000000E+00 -0.00000000000E+00 -0.50000000000E+03  0.50000000000E+03  0.00000000000E+00 0.  1.
         25    2    1    2    0    0  0.62476665496E+02 -0.42896950484E+02 -0.50380151627E+02  0.15462992945E+03  0.12501509233E+03 0.  0.
        -11    1    1    2    0    0  0.16181722569E+01 -0.68944566424E+02  0.43463365502E+03  0.44007088724E+03  0.00000000000E+00 0. -1.
         11    1    1    2    0    0 -0.64094837753E+02  0.11184151691E+03 -0.38425350339E+03  0.40529918332E+03  0.00000000000E+00 0.  1.
        -15    1    3    3    0    0  0.63576179382E+02 -0.66300823389E+02 -0.76458522889E+02  0.11952737435E+03  0.17770000000E+01 0. -1.
         15    1    3    3    0    0 -0.10995138853E+01  0.23403872905E+02  0.26078371263E+02  0.35102555098E+02  0.17770000000E+01 0. -1.
</event>
<event>
 7    1  0.1738451E-005  0.4258350E+03  0.7546771E-02  0.9583003E-01
        -11   -1    0    0    0    0  0.00000000000E+00  0.00000000000E+00  0.50000000000E+03  0.50000000000E+03  0.00000000000E+00 0.  1.
         11   -1    0    0    0    0 -0.00000000000E+00 -0.00000000000E+00 -0.50000000000E+03  0.50000000000E+03  0.00000000000E+00 0. -1.
         25    2    1    2    0    0 -0.22631992008E+02 -0.70022993311E+02  0.51480893872E+01  0.14514103894E+03  0.12499596676E+03 0.  0.
        -11    1    1    2    0    0  0.20677705476E+02  0.10506131239E+03  0.41736977242E+03  0.43088626550E+03  0.00000000000E+00 0.  1.
         11    1    1    2    0    0  0.19542865316E+01 -0.35038319075E+02 -0.42251786181E+03  0.42397269556E+03  0.00000000000E+00 0. -1.
        -15    1    3    3    0    0 -0.46354141718E+02 -0.66872380544E+02  0.49110535351E+02  0.95055900109E+02  0.17770000000E+01 0.  1.
         15    1    3    3    0    0  0.23722149710E+02 -0.31506127677E+01 -0.43962445964E+02  0.50085138832E+02  0.17770000000E+01 0.  1.
</event>
<event>
 7    1  0.1738451E-005  0.4310274E+03  0.7546771E-02  0.9568921E-01
        -11   -1    0    0    0    0  0.00000000000E+00  0.00000000000E+00  0.50000000000E+03  0.50000000000E+03  0.00000000000E+00 0.  1.
         11   -1    0    0    0    0 -0.00000000000E+00 -0.00000000000E+00 -0.50000000000E+03  0.50000000000E+03  0.00000000000E+00 0. -1.
         25    2    1    2    0    0  0.53874707661E+02  0.29274805821E+01  0.49837043177E+01  0.13624404837E+03  0.12500619640E+03 0.  0.
        -11    1    1    2    0    0 -0.52235640547E+02 -0.32864549536E+02  0.42664591797E+03  0.43108627916E+03  0.00000000000E+00 0.  1.
         11    1    1    2    0    0 -0.16390671137E+01  0.29937068954E+02 -0.43162962229E+03  0.43266967247E+03  0.00000000000E+00 0. -1.
        -15    1    3    3    0    0  0.55400331755E+01  0.56105596411E+02  0.24891234907E+02  0.61654369029E+02  0.17770000000E+01 0.  1.
         15    1    3    3    0    0  0.48334674485E+02 -0.53178115829E+02 -0.19907530589E+02  0.74589679338E+02  0.17770000000E+01 0.  1.
</event>
<event>
 7    1  0.1738451E-005  0.3256123E+03  0.7546771E-02  0.9905984E-01
        -11   -1    0    0    0    0  0.00000000000E+00  0.00000000000E+00  0.50000000000E+03  0.50000000000E+03  0.00000000000E+00 0.  1.
         11   -1    0    0    0    0 -0.00000000000E+00 -0.00000000000E+00 -0.50000000000E+03  0.50000000000E+03  0.00000000000E+00 0.  1.
         25    2    1    2    0    0 -0.13929914649E+03 -0.19385167539E+03  0.12194250444E+03  0.29576550806E+03  0.12499814840E+03 0.  0.
        -11    1    1    2    0    0  0.11472107490E+03  0.84281860869E+02  0.26527853450E+03  0.30105989099E+03  0.00000000000E+00 0.  1.
         11    1    1    2    0    0  0.24578071598E+02  0.10956981452E+03 -0.38722103893E+03  0.40317460095E+03  0.00000000000E+00 0.  1.
        -15    1    3    3    0    0 -0.70271241981E+01 -0.90542427565E+02  0.45584414982E+01  0.90946406095E+02  0.17770000000E+01 0. -1.
         15    1    3    3    0    0 -0.13227202230E+03 -0.10330924783E+03  0.11738406294E+03  0.20481910197E+03  0.17770000000E+01 0. -1.
</event>
<event>
 7    1  0.1738451E-005  0.3524681E+03  0.7546771E-02  0.9808309E-01
        -11   -1    0    0    0    0  0.00000000000E+00  0.00000000000E+00  0.50000000000E+03  0.50000000000E+03  0.00000000000E+00 0.  1.
         11   -1    0    0    0    0 -0.00000000000E+00 -0.00000000000E+00 -0.50000000000E+03  0.50000000000E+03  0.00000000000E+00 0.  1.
         25    2    1    2    0    0  0.53587294657E+02  0.20241196800E+03 -0.88329048045E+02  0.25933869916E+03  0.12494933860E+03 0.  0.
        -11    1    1    2    0    0 -0.73993296416E+02 -0.89801903383E+02  0.39581734304E+03  0.41256606600E+03  0.00000000000E+00 0.  1.
         11    1    1    2    0    0  0.20406001759E+02 -0.11261006462E+03 -0.30748829500E+03  0.32809523483E+03  0.00000000000E+00 0.  1.
        -15    1    3    3    0    0  0.46867014361E+02  0.98601292483E+02 -0.10785964938E+03  0.15347831641E+03  0.17770000000E+01 0. -1.
         15    1    3    3    0    0  0.67202802963E+01  0.10381067552E+03  0.19530601338E+02  0.10586038275E+03  0.17770000000E+01 0. -1.
</event>
<event>
 7    1  0.1738451E-005  0.4215609E+03  0.7546771E-02  0.9594756E-01
        -11   -1    0    0    0    0  0.00000000000E+00  0.00000000000E+00  0.50000000000E+03  0.50000000000E+03  0.00000000000E+00 0. -1.
         11   -1    0    0    0    0 -0.00000000000E+00 -0.00000000000E+00 -0.50000000000E+03  0.50000000000E+03  0.00000000000E+00 0.  1.
         25    2    1    2    0    0 -0.80489965267E+02 -0.31197429614E+02  0.12009797810E+02  0.15238547821E+03  0.12500073841E+03 0.  0.
        -11    1    1    2    0    0  0.16115627147E+02  0.66553496323E+02  0.41181693649E+03  0.41747128103E+03  0.00000000000E+00 0. -1.
         11    1    1    2    0    0  0.64374338120E+02 -0.35356066709E+02 -0.42382673430E+03  0.43014324075E+03  0.00000000000E+00 0.  1.
        -15    1    3    3    0    0 -0.40890912462E+02 -0.59658327310E+01  0.67814517953E+02  0.79433144571E+02  0.17770000000E+01 0.  1.
         15    1    3    3    0    0 -0.39599052806E+02 -0.25231596883E+02 -0.55804720144E+02  0.72952333641E+02  0.17770000000E+01 0.  1.
</event>
<event>
 7    1  0.1738451E-005  0.4782046E+03  0.7546771E-02  0.9449944E-01
        -11   -1    0    0    0    0  0.00000000000E+00  0.00000000000E+00  0.50000000000E+03  0.50000000000E+03  0.00000000000E+00 0.  1.
         11   -1    0    0    0    0 -0.00000000000E+00 -0.00000000000E+00 -0.50000000000E+03  0.50000000000E+03  0.00000000000E+00 0. -1.
         25    2    1    2    0    0  0.12481559602E+02  0.54619545585E+02 -0.43590811844E+03  0.45692450482E+03  0.12500012516E+03 0.  0.
        -11    1    1    2    0    0 -0.35755312098E+02 -0.28234219575E+02  0.48252546350E+03  0.48467147268E+03  0.00000000000E+00 0.  1.
         11    1    1    2    0    0  0.23273752496E+02 -0.26385326011E+02 -0.46617345061E+02  0.58404022502E+02  0.00000000000E+00 0. -1.
        -15    1    3    3    0    0  0.32503100052E+02 -0.33409618391E+02 -0.14317767158E+03  0.15058438658E+03  0.17770000000E+01 0. -1.
         15    1    3    3    0    0 -0.20021540450E+02  0.88029163976E+02 -0.29273044687E+03  0.30634011824E+03  0.17770000000E+01 0. -1.
</event>
<event>
 7    1  0.1738451E-005  0.5452818E+03  0.7546771E-02  0.9303825E-01
        -11   -1    0    0    0    0  0.00000000000E+00  0.00000000000E+00  0.50000000000E+03  0.50000000000E+03  0.00000000000E+00 0.  1.
         11   -1    0    0    0    0 -0.00000000000E+00 -0.00000000000E+00 -0.50000000000E+03  0.50000000000E+03  0.00000000000E+00 0.  1.
         25    2    1    2    0    0  0.89995652715E+02 -0.56267193394E+02  0.10299248695E+03  0.19364338947E+03  0.12500038143E+03 0.  0.
        -11    1    1    2    0    0 -0.66609326676E+01  0.74153208464E+02  0.34366627645E+03  0.35163841645E+03  0.00000000000E+00 0.  1.
         11    1    1    2    0    0 -0.83334720047E+02 -0.17886015071E+02 -0.44665876341E+03  0.45471819408E+03  0.00000000000E+00 0.  1.
        -15    1    3    3    0    0  0.89130837590E+02 -0.27211825846E+02  0.12585959222E+03  0.15661604119E+03  0.17770000000E+01 0. -1.
         15    1    3    3    0    0  0.86481512502E+00 -0.29055367548E+02 -0.22867105268E+02  0.37027348283E+02  0.17770000000E+01 0. -1.
</event>
<event>
 7    1  0.1738451E-005  0.5322909E+03  0.7546771E-02  0.9330321E-01
        -11   -1    0    0    0    0  0.00000000000E+00  0.00000000000E+00  0.50000000000E+03  0.50000000000E+03  0.00000000000E+00 0. -1.
         11   -1    0    0    0    0 -0.00000000000E+00 -0.00000000000E+00 -0.50000000000E+03  0.50000000000E+03  0.00000000000E+00 0. -1.
         25    2    1    2    0    0 -0.75839205308E+02 -0.36389564528E+02 -0.14031503213E+03  0.20588505736E+03  0.12499825253E+03 0.  0.
        -11    1    1    2    0    0  0.48558344076E+02  0.15663507803E+02  0.46491779281E+03  0.46770911080E+03  0.00000000000E+00 0. -1.
         11    1    1    2    0    0  0.27280861232E+02  0.20726056725E+02 -0.32460276068E+03  0.32640583184E+03  0.00000000000E+00 0. -1.
        -15    1    3    3    0    0  0.27331510528E+02 -0.35661690883E+02 -0.26233120984E+02  0.52058640300E+02  0.17770000000E+01 0. -1.
         15    1    3    3    0    0 -0.10317071584E+03 -0.72787364455E+00 -0.11408191115E+03  0.15382641706E+03  0.17770000000E+01 0. -1.
</event>
<event>
 7    1  0.1738451E-005  0.5331113E+03  0.7546771E-02  0.9328624E-01
        -11   -1    0    0    0    0  0.00000000000E+00  0.00000000000E+00  0.50000000000E+03  0.50000000000E+03  0.00000000000E+00 0. -1.
         11   -1    0    0    0    0 -0.00000000000E+00 -0.00000000000E+00 -0.50000000000E+03  0.50000000000E+03  0.00000000000E+00 0. -1.
         25    2    1    2    0    0  0.79070168924E+02  0.13140183995E+03 -0.28083503572E+03  0.34353025241E+03  0.12500472741E+03 0.  0.
        -11    1    1    2    0    0 -0.44728292064E+02 -0.75219952965E+02  0.45861356098E+03  0.46688870167E+03  0.00000000000E+00 0. -1.
         11    1    1    2    0    0 -0.34341876860E+02 -0.56181886986E+02 -0.17777852525E+03  0.18958104592E+03  0.00000000000E+00 0. -1.
        -15    1    3    3    0    0 -0.70613011702E+00  0.10271743546E+03 -0.97961722590E+02  0.14195431304E+03  0.17770000000E+01 0. -1.
         15    1    3    3    0    0  0.79776299041E+02  0.28684404486E+02 -0.18287331313E+03  0.20157593937E+03  0.17770000000E+01 0. -1.
</event>
<event>
 7    1  0.1738451E-005  0.4023508E+03  0.7546771E-02  0.9649480E-01
        -11   -1    0    0    0    0  0.00000000000E+00  0.00000000000E+00  0.50000000000E+03  0.50000000000E+03  0.00000000000E+00 0.  1.
         11   -1    0    0    0    0 -0.00000000000E+00 -0.00000000000E+00 -0.50000000000E+03  0.50000000000E+03  0.00000000000E+00 0.  1.
         25    2    1    2    0    0  0.11667982114E+02  0.13216854334E+03 -0.25324551600E+02  0.18403996906E+03  0.12499884656E+03 0.  0.
        -11    1    1    2    0    0  0.90755199761E+02 -0.16149716050E+03  0.39229584344E+03  0.43383622246E+03  0.00000000000E+00 0.  1.
         11    1    1    2    0    0 -0.10242318187E+03  0.29328617158E+02 -0.36697129184E+03  0.38212380848E+03  0.00000000000E+00 0.  1.
        -15    1    3    3    0    0  0.16756044689E+02 -0.20570923559E+02 -0.15750814215E+02  0.30905886286E+02  0.17770000000E+01 0.  1.
         15    1    3    3    0    0 -0.50880625750E+01  0.15273946690E+03 -0.95737373853E+01  0.15313408277E+03  0.17770000000E+01 0.  1.
</event>
<event>
 7    1  0.1738451E-005  0.5144820E+03  0.7546771E-02  0.9367976E-01
        -11   -1    0    0    0    0  0.00000000000E+00  0.00000000000E+00  0.50000000000E+03  0.50000000000E+03  0.00000000000E+00 0.  1.
         11   -1    0    0    0    0 -0.00000000000E+00 -0.00000000000E+00 -0.50000000000E+03  0.50000000000E+03  0.00000000000E+00 0. -1.
         25    2    1    2    0    0  0.84477809797E+02  0.77432906307E+01 -0.32912684785E+03  0.36214097348E+03  0.12500057521E+03 0.  0.
        -11    1    1    2    0    0 -0.69402957566E+02 -0.22408445086E+02  0.48000917058E+03  0.48551798399E+03  0.00000000000E+00 0.  1.
         11    1    1    2    0    0 -0.15074852231E+02  0.14665154455E+02 -0.15088232274E+03  0.15234104253E+03  0.00000000000E+00 0. -1.
        -15    1    3    3    0    0  0.78435617801E+02 -0.24701144888E+02 -0.94859874923E+02  0.12555415683E+03  0.17770000000E+01 0.  1.
         15    1    3    3    0    0  0.60421919960E+01  0.32444435518E+02 -0.23426697292E+03  0.23658681665E+03  0.17770000000E+01 0.  1.
</event>
<event>
 7    1  0.1738451E-005  0.5188574E+03  0.7546771E-02  0.9358576E-01
        -11   -1    0    0    0    0  0.00000000000E+00  0.00000000000E+00  0.50000000000E+03  0.50000000000E+03  0.00000000000E+00 0.  1.
         11   -1    0    0    0    0 -0.00000000000E+00 -0.00000000000E+00 -0.50000000000E+03  0.50000000000E+03  0.00000000000E+00 0. -1.
         25    2    1    2    0    0 -0.57564090228E+02  0.16582472376E+02  0.19487858336E+03  0.23914445499E+03  0.12499522082E+03 0.  0.
        -11    1    1    2    0    0 -0.23729885715E+02  0.32755547881E+02  0.27677302255E+03  0.27971295895E+03  0.00000000000E+00 0.  1.
         11    1    1    2    0    0  0.81293975943E+02 -0.49338020256E+02 -0.47165160590E+03  0.48114258606E+03  0.00000000000E+00 0. -1.
        -15    1    3    3    0    0 -0.29885338944E+01  0.16785645023E+02 -0.14692180064E+02  0.22576693685E+02  0.17770000000E+01 0.  1.
         15    1    3    3    0    0 -0.54575556333E+02 -0.20317264750E+00  0.20957076342E+03  0.21656776131E+03  0.17770000000E+01 0.  1.
</event>
<event>
 7    1  0.1738451E-005  0.5339863E+03  0.7546771E-02  0.9326818E-01
        -11   -1    0    0    0    0  0.00000000000E+00  0.00000000000E+00  0.50000000000E+03  0.50000000000E+03  0.00000000000E+00 0. -1.
         11   -1    0    0    0    0 -0.00000000000E+00 -0.00000000000E+00 -0.50000000000E+03  0.50000000000E+03  0.00000000000E+00 0. -1.
         25    2    1    2    0    0 -0.10840360845E+03  0.55316213582E+02 -0.32633052525E+03  0.37003707415E+03  0.12499839487E+03 0.  0.
        -11    1    1    2    0    0  0.24522449848E+02 -0.28008349734E+02  0.46452447422E+03  0.46601373944E+03  0.00000000000E+00 0. -1.
         11    1    1    2    0    0  0.83881158602E+02 -0.27307863848E+02 -0.13819394896E+03  0.16394918641E+03  0.00000000000E+00 0. -1.
        -15    1    3    3    0    0 -0.12701445214E+03  0.13754842789E+02 -0.22111487262E+03  0.25537582379E+03  0.17770000000E+01 0.  1.
         15    1    3    3    0    0  0.18610843695E+02  0.41561370793E+02 -0.10521565263E+03  0.11466125036E+03  0.17770000000E+01 0.  1.
</event>
<event>
 7    1  0.1738451E-005  0.5223417E+03  0.7546771E-02  0.9351161E-01
        -11   -1    0    0    0    0  0.00000000000E+00  0.00000000000E+00  0.50000000000E+03  0.50000000000E+03  0.00000000000E+00 0.  1.
         11   -1    0    0    0    0 -0.00000000000E+00 -0.00000000000E+00 -0.50000000000E+03  0.50000000000E+03  0.00000000000E+00 0.  1.
         25    2    1    2    0    0  0.20655853264E+02 -0.27746261580E+02 -0.16710172417E+03  0.21152919184E+03  0.12500037389E+03 0.  0.
        -11    1    1    2    0    0  0.11060684736E+02  0.35790458464E+02  0.47618709911E+03  0.47765829734E+03  0.00000000000E+00 0.  1.
         11    1    1    2    0    0 -0.31716538000E+02 -0.80441968843E+01 -0.30908537493E+03  0.31081251082E+03  0.00000000000E+00 0.  1.
        -15    1    3    3    0    0 -0.52060649188E+02 -0.35556387585E+01 -0.56168542304E+02  0.76687786735E+02  0.17770000000E+01 0. -1.
         15    1    3    3    0    0  0.72716502452E+02 -0.24190622821E+02 -0.11093318187E+03  0.13484140510E+03  0.17770000000E+01 0. -1.
</event>
<event>
 7    1  0.1738451E-005  0.5524747E+03  0.7546771E-02  0.9289489E-01
        -11   -1    0    0    0    0  0.00000000000E+00  0.00000000000E+00  0.50000000000E+03  0.50000000000E+03  0.00000000000E+00 0.  1.
         11   -1    0    0    0    0 -0.00000000000E+00 -0.00000000000E+00 -0.50000000000E+03  0.50000000000E+03  0.00000000000E+00 0.  1.
         25    2    1    2    0    0  0.32841211960E+02  0.10510526944E+02 -0.24787842309E+02  0.13201603018E+03  0.12499911487E+03 0.  0.
        -11    1    1    2    0    0 -0.74045472600E+02  0.59383707085E+02  0.43734392719E+03  0.44752527005E+03  0.00000000000E+00 0.  1.
         11    1    1    2    0    0  0.41204260640E+02 -0.69894234028E+02 -0.41255608488E+03  0.42045869978E+03  0.00000000000E+00 0.  1.
        -15    1    3    3    0    0  0.50711403611E+02  0.53281648893E+02  0.96965153416E+01  0.74214289081E+02  0.17770000000E+01 0. -1.
         15    1    3    3    0    0 -0.17870191652E+02 -0.42771121949E+02 -0.34484357651E+02  0.57801741099E+02  0.17770000000E+01 0. -1.
</event>
<event>
 7    1  0.1738451E-005  0.5274765E+03  0.7546771E-02  0.9340344E-01
        -11   -1    0    0    0    0  0.00000000000E+00  0.00000000000E+00  0.50000000000E+03  0.50000000000E+03  0.00000000000E+00 0.  1.
         11   -1    0    0    0    0 -0.00000000000E+00 -0.00000000000E+00 -0.50000000000E+03  0.50000000000E+03  0.00000000000E+00 0. -1.
         25    2    1    2    0    0  0.95699282009E+02 -0.82855460560E+02 -0.21544660697E+03  0.27940274140E+03  0.12500108609E+03 0.  0.
        -11    1    1    2    0    0 -0.89212086797E+02  0.50307718683E+02  0.46129035896E+03  0.47252350022E+03  0.00000000000E+00 0.  1.
         11    1    1    2    0    0 -0.64871952119E+01  0.32547741877E+02 -0.24584375199E+03  0.24807375838E+03  0.00000000000E+00 0. -1.
        -15    1    3    3    0    0 -0.25980735728E+02 -0.39866619336E+02 -0.44226958429E+02  0.64988672452E+02  0.17770000000E+01 0. -1.
         15    1    3    3    0    0  0.12168001774E+03 -0.42988841225E+02 -0.17121964855E+03  0.21441406895E+03  0.17770000000E+01 0. -1.
</event>
<event>
 6    1  0.1738451E-005  0.3858038E+03  0.7546771E-02  0.9699302E-01
        -11   -1    0    0    0    0  0.00000000000E+00  0.00000000000E+00  0.50000000000E+03  0.50000000000E+03  0.00000000000E+00 0.  1.
         11   -1    0    0    0    0 -0.00000000000E+00 -0.00000000000E+00 -0.50000000000E+03  0.50000000000E+03  0.00000000000E+00 0. -1.
        -11    1    1    2    0    0  0.18921855909E+03 -0.48694521440E+02  0.38537659709E+03  0.43207631398E+03  0.00000000000E+00 0.  1.
         11    1    1    2    0    0 -0.73842476679E+02 -0.67253887170E+02 -0.34356221206E+03  0.35778595593E+03  0.00000000000E+00 0. -1.
        -15    1    1    2    0    0 -0.15514563081E+02 -0.22689931532E+02 -0.27093623479E+02  0.38636211289E+02  0.17770000000E+01 0.  1.
         15    1    1    2    0    0 -0.99861519333E+02  0.13863834014E+03 -0.14720761546E+02  0.17150151880E+03  0.17770000000E+01 0.  1.
</event>
<event>
 7    1  0.1738451E-005  0.4660389E+03  0.7546771E-02  0.9479181E-01
        -11   -1    0    0    0    0  0.00000000000E+00  0.00000000000E+00  0.50000000000E+03  0.50000000000E+03  0.00000000000E+00 0. -1.
         11   -1    0    0    0    0 -0.00000000000E+00 -0.00000000000E+00 -0.50000000000E+03  0.50000000000E+03  0.00000000000E+00 0. -1.
         25    2    1    2    0    0 -0.55567139273E+02  0.10491336292E+03  0.39658551791E+03  0.43244836807E+03  0.12504798015E+03 0.  0.
        -11    1    1    2    0    0  0.11247418617E+02 -0.15236094990E+02  0.79164955939E+02  0.81398607267E+02  0.00000000000E+00 0. -1.
         11    1    1    2    0    0  0.44319720656E+02 -0.89677267930E+02 -0.47575047385E+03  0.48615302467E+03  0.00000000000E+00 0. -1.
        -15    1    3    3    0    0 -0.87611783650E+02  0.39631190608E+02  0.18169364127E+03  0.20557770528E+03  0.17770000000E+01 0. -1.
         15    1    3    3    0    0  0.32044644377E+02  0.65282172312E+02  0.21489187664E+03  0.22687066278E+03  0.17770000000E+01 0. -1.
</event>
<event>
 7    1  0.1738451E-005  0.4051237E+03  0.7546771E-02  0.9641382E-01
        -11   -1    0    0    0    0  0.00000000000E+00  0.00000000000E+00  0.50000000000E+03  0.50000000000E+03  0.00000000000E+00 0.  1.
         11   -1    0    0    0    0 -0.00000000000E+00 -0.00000000000E+00 -0.50000000000E+03  0.50000000000E+03  0.00000000000E+00 0. -1.
         25    2    1    2    0    0 -0.48155236383E+02 -0.87920885597E+02 -0.81048447983E+02  0.17956194721E+03  0.12499853219E+03 0.  0.
        -11    1    1    2    0    0  0.19810961977E+02 -0.17684362222E+02  0.44225128414E+03  0.44304786333E+03  0.00000000000E+00 0.  1.
         11    1    1    2    0    0  0.28344274406E+02  0.10560524782E+03 -0.36120283615E+03  0.37739018946E+03  0.00000000000E+00 0. -1.
        -15    1    3    3    0    0 -0.40417087960E+02 -0.64506133631E+02  0.17358623195E+02  0.78096490340E+02  0.17770000000E+01 0.  1.
         15    1    3    3    0    0 -0.77381484234E+01 -0.23414751966E+02 -0.98407071178E+02  0.10146545687E+03  0.17770000000E+01 0.  1.
</event>
<event>
 7    1  0.1738451E-005  0.5385090E+03  0.7546771E-02  0.9317540E-01
        -11   -1    0    0    0    0  0.00000000000E+00  0.00000000000E+00  0.50000000000E+03  0.50000000000E+03  0.00000000000E+00 0.  1.
         11   -1    0    0    0    0 -0.00000000000E+00 -0.00000000000E+00 -0.50000000000E+03  0.50000000000E+03  0.00000000000E+00 0. -1.
         25    2    1    2    0    0  0.43587311742E+02 -0.35396150908E+02  0.90927928343E+02  0.16444867667E+03  0.12499095112E+03 0.  0.
        -11    1    1    2    0    0  0.16697099955E+02  0.84840691208E+02  0.36392912961E+03  0.37406035263E+03  0.00000000000E+00 0.  1.
         11    1    1    2    0    0 -0.60284411696E+02 -0.49444540300E+02 -0.45485705796E+03  0.46149097069E+03  0.00000000000E+00 0. -1.
        -15    1    3    3    0    0  0.48057015527E+02 -0.28532581418E+01  0.11433831818E+03  0.12407266643E+03  0.17770000000E+01 0.  1.
         15    1    3    3    0    0 -0.44697037851E+01 -0.32542892766E+02 -0.23410389836E+02  0.40376010239E+02  0.17770000000E+01 0.  1.
</event>
<event>
 7    1  0.1738451E-005  0.3558986E+03  0.7546771E-02  0.9796507E-01
        -11   -1    0    0    0    0  0.00000000000E+00  0.00000000000E+00  0.50000000000E+03  0.50000000000E+03  0.00000000000E+00 0.  1.
         11   -1    0    0    0    0 -0.00000000000E+00 -0.00000000000E+00 -0.50000000000E+03  0.50000000000E+03  0.00000000000E+00 0. -1.
         25    2    1    2    0    0 -0.27770528047E+03 -0.18078929882E+03  0.15208768661E+03  0.38543637068E+03  0.12500215222E+03 0.  0.
        -11    1    1    2    0    0  0.18446637095E+03  0.75884173531E+02  0.17073039114E+03  0.26255497760E+03  0.00000000000E+00 0.  1.
         11    1    1    2    0    0  0.93238909521E+02  0.10490512529E+03 -0.32281807775E+03  0.35200865172E+03  0.00000000000E+00 0. -1.
        -15    1    3    3    0    0 -0.14951496518E+03 -0.16109463820E+03  0.12527137610E+03  0.25298672429E+03  0.17770000000E+01 0. -1.
         15    1    3    3    0    0 -0.12819031529E+03 -0.19694660621E+02  0.26816310510E+02  0.13244964639E+03  0.17770000000E+01 0. -1.
</event>
<event>
 7    1  0.1738451E-005  0.5229143E+03  0.7546771E-02  0.9349948E-01
        -11   -1    0    0    0    0  0.00000000000E+00  0.00000000000E+00  0.50000000000E+03  0.50000000000E+03  0.00000000000E+00 0.  1.
         11   -1    0    0    0    0 -0.00000000000E+00 -0.00000000000E+00 -0.50000000000E+03  0.50000000000E+03  0.00000000000E+00 0. -1.
         25    2    1    2    0    0  0.11482906094E+03 -0.10610768523E+02 -0.27461014104E+03  0.32300834997E+03  0.12500145178E+03 0.  0.
        -11    1    1    2    0    0 -0.79050329879E+02 -0.77771673873E+01  0.47042676314E+03  0.47708571396E+03  0.00000000000E+00 0.  1.
         11    1    1    2    0    0 -0.35778731060E+02  0.18387935910E+02 -0.19581662210E+03  0.19990593607E+03  0.00000000000E+00 0. -1.
        -15    1    3    3    0    0  0.30811136113E+02  0.18343427091E+02 -0.21018893006E+03  0.21323309188E+03  0.17770000000E+01 0. -1.
         15    1    3    3    0    0  0.84017924826E+02 -0.28954195614E+02 -0.64421210979E+02  0.10977525809E+03  0.17770000000E+01 0. -1.
</event>
<event>
 7    1  0.1738451E-005  0.3502679E+03  0.7546771E-02  0.9815955E-01
        -11   -1    0    0    0    0  0.00000000000E+00  0.00000000000E+00  0.50000000000E+03  0.50000000000E+03  0.00000000000E+00 0. -1.
         11   -1    0    0    0    0 -0.00000000000E+00 -0.00000000000E+00 -0.50000000000E+03  0.50000000000E+03  0.00000000000E+00 0. -1.
         25    2    1    2    0    0 -0.15778593791E+03 -0.29544347026E+02  0.16576408368E+03  0.26243821005E+03  0.12500724785E+03 0.  0.
        -11    1    1    2    0    0  0.14905001466E+03 -0.29600364273E+02  0.26348715322E+03  0.30416700733E+03  0.00000000000E+00 0. -1.
         11    1    1    2    0    0  0.87359232480E+01  0.59144711299E+02 -0.42925123690E+03  0.43339478262E+03  0.00000000000E+00 0. -1.
        -15    1    3    3    0    0 -0.80714061204E+02 -0.66492402637E+02  0.13674536846E+03  0.17215822027E+03  0.17770000000E+01 0.  1.
         15    1    3    3    0    0 -0.77071876701E+02  0.36948055611E+02  0.29018715217E+02  0.90279989773E+02  0.17770000000E+01 0.  1.
</event>
<event>
 7    1  0.1738451E-005  0.5349851E+03  0.7546771E-02  0.9324760E-01
        -11   -1    0    0    0    0  0.00000000000E+00  0.00000000000E+00  0.50000000000E+03  0.50000000000E+03  0.00000000000E+00 0.  1.
         11   -1    0    0    0    0 -0.00000000000E+00 -0.00000000000E+00 -0.50000000000E+03  0.50000000000E+03  0.00000000000E+00 0. -1.
         25    2    1    2    0    0 -0.28756146868E+02  0.12802135523E+03  0.26893863769E+03  0.32429685122E+03  0.12499629392E+03 0.  0.
        -11    1    1    2    0    0  0.33653539387E+02 -0.76924809629E+02  0.19323447780E+03  0.21068827794E+03  0.00000000000E+00 0.  1.
         11    1    1    2    0    0 -0.48973925191E+01 -0.51096545598E+02 -0.46217311549E+03  0.46501487084E+03  0.00000000000E+00 0. -1.
        -15    1    3    3    0    0 -0.24582213988E+02  0.15337506588E+03  0.22643232304E+03  0.27459597725E+03  0.17770000000E+01 0.  1.
         15    1    3    3    0    0 -0.41739328807E+01 -0.25353710650E+02  0.42506314650E+02  0.49700873971E+02  0.17770000000E+01 0.  1.
</event>
<event>
 7    1  0.1738451E-005  0.3305746E+03  0.7546771E-02  0.9887190E-01
        -11   -1    0    0    0    0  0.00000000000E+00  0.00000000000E+00  0.50000000000E+03  0.50000000000E+03  0.00000000000E+00 0.  1.
         11   -1    0    0    0    0 -0.00000000000E+00 -0.00000000000E+00 -0.50000000000E+03  0.50000000000E+03  0.00000000000E+00 0.  1.
         25    2    1    2    0    0  0.15256114361E+03 -0.11836326147E+03 -0.17537426886E+03  0.28925444359E+03  0.12500893870E+03 0.  0.
        -11    1    1    2    0    0 -0.80637561964E+02 -0.84669248208E+02  0.38971382268E+03  0.40687610102E+03  0.00000000000E+00 0.  1.
         11    1    1    2    0    0 -0.71923581642E+02  0.20303250968E+03 -0.21433955382E+03  0.30386945538E+03  0.00000000000E+00 0.  1.
        -15    1    3    3    0    0  0.11641930037E+02 -0.57296736189E+02 -0.10524796672E+03  0.12041072519E+03  0.17770000000E+01 0. -1.
         15    1    3    3    0    0  0.14091921357E+03 -0.61066525285E+02 -0.70126302140E+02  0.16884371840E+03  0.17770000000E+01 0. -1.
</event>
<event>
 7    1  0.1738451E-005  0.4211984E+03  0.7546771E-02  0.9595760E-01
        -11   -1    0    0    0    0  0.00000000000E+00  0.00000000000E+00  0.50000000000E+03  0.50000000000E+03  0.00000000000E+00 0.  1.
         11   -1    0    0    0    0 -0.00000000000E+00 -0.00000000000E+00 -0.50000000000E+03  0.50000000000E+03  0.00000000000E+00 0.  1.
         25    2    1    2    0    0  0.34106137144E+03  0.35004229373E+02  0.13911879484E+03  0.39054842662E+03  0.12500351712E+03 0.  0.
        -11    1    1    2    0    0  0.23640984526E+02  0.15388427284E+03  0.40968403497E+02  0.16098967564E+03  0.00000000000E+00 0.  1.
         11    1    1    2    0    0 -0.36470235597E+03 -0.18888850222E+03 -0.18008719834E+03  0.44846189774E+03  0.00000000000E+00 0.  1.
        -15    1    3    3    0    0  0.50637380108E+02  0.37075761099E+02  0.65908588215E+02  0.91026677710E+02  0.17770000000E+01 0.  1.
         15    1    3    3    0    0  0.29042399133E+03 -0.20715317256E+01  0.73210206624E+02  0.29952174891E+03  0.17770000000E+01 0.  1.
</event>
<event>
 7    1  0.1738451E-005  0.5271670E+03  0.7546771E-02  0.9340993E-01
        -11   -1    0    0    0    0  0.00000000000E+00  0.00000000000E+00  0.50000000000E+03  0.50000000000E+03  0.00000000000E+00 0. -1.
         11   -1    0    0    0    0 -0.00000000000E+00 -0.00000000000E+00 -0.50000000000E+03  0.50000000000E+03  0.00000000000E+00 0. -1.
         25    2    1    2    0    0  0.16111739289E+03  0.16297501792E+03 -0.26603399754E+03  0.37271867990E+03  0.12500182294E+03 0.  0.
        -11    1    1    2    0    0 -0.13184621874E+03 -0.18048430351E+03  0.41666899430E+03  0.47283301494E+03  0.00000000000E+00 0. -1.
         11    1    1    2    0    0 -0.29271174149E+02  0.17509285591E+02 -0.15063499676E+03  0.15444830516E+03  0.00000000000E+00 0. -1.
        -15    1    3    3    0    0  0.16235509405E+03  0.17691586421E+03 -0.22402261955E+03  0.32840172255E+03  0.17770000000E+01 0.  1.
         15    1    3    3    0    0 -0.12377011557E+01 -0.13940846285E+02 -0.42011377992E+02  0.44316957354E+02  0.17770000000E+01 0.  1.
</event>
<event>
 7    1  0.1738451E-005  0.5372776E+03  0.7546771E-02  0.9320056E-01
        -11   -1    0    0    0    0  0.00000000000E+00  0.00000000000E+00  0.50000000000E+03  0.50000000000E+03  0.00000000000E+00 0. -1.
         11   -1    0    0    0    0 -0.00000000000E+00 -0.00000000000E+00 -0.50000000000E+03  0.50000000000E+03  0.00000000000E+00 0.  1.
         25    2    1    2    0    0 -0.71600991017E+02  0.82178604124E+02  0.12090143838E+03  0.20523285383E+03  0.12499336622E+03 0.  0.
        -11    1    1    2    0    0  0.74706582998E+02  0.71601796860E+02  0.31550885385E+03  0.33204476764E+03  0.00000000000E+00 0. -1.
         11    1    1    2    0    0 -0.31055919811E+01 -0.15378040098E+03 -0.43641029223E+03  0.46272237853E+03  0.00000000000E+00 0.  1.
        -15    1    3    3    0    0 -0.56947291968E+02  0.20200597942E+02 -0.84541664055E+01  0.61038421329E+02  0.17770000000E+01 0.  1.
         15    1    3    3    0    0 -0.14653699049E+02  0.61978006183E+02  0.12935560478E+03  0.14419443250E+03  0.17770000000E+01 0.  1.
</event>
<event>
 7    1  0.1738451E-005  0.5210404E+03  0.7546771E-02  0.9353923E-01
        -11   -1    0    0    0    0  0.00000000000E+00  0.00000000000E+00  0.50000000000E+03  0.50000000000E+03  0.00000000000E+00 0.  1.
         11   -1    0    0    0    0 -0.00000000000E+00 -0.00000000000E+00 -0.50000000000E+03  0.50000000000E+03  0.00000000000E+00 0.  1.
         25    2    1    2    0    0 -0.47410736813E+00 -0.42768949030E+02  0.17501566432E+03  0.21928505418E+03  0.12500417772E+03 0.  0.
        -11    1    1    2    0    0  0.30458724661E+02 -0.10455677146E+02  0.30003206766E+03  0.30175535905E+03  0.00000000000E+00 0.  1.
         11    1    1    2    0    0 -0.29984617293E+02  0.53224626176E+02 -0.47504773198E+03  0.47895958677E+03  0.00000000000E+00 0.  1.
        -15    1    3    3    0    0 -0.15901355811E+02  0.13564633660E+02 -0.11435789337E+02  0.23891157563E+02  0.17770000000E+01 0.  1.
         15    1    3    3    0    0  0.15427248443E+02 -0.56333582690E+02  0.18645145366E+03  0.19539389661E+03  0.17770000000E+01 0.  1.
</event>
<event>
 7    1  0.1738451E-005  0.5486233E+03  0.7546771E-02  0.9297136E-01
        -11   -1    0    0    0    0  0.00000000000E+00  0.00000000000E+00  0.50000000000E+03  0.50000000000E+03  0.00000000000E+00 0.  1.
         11   -1    0    0    0    0 -0.00000000000E+00 -0.00000000000E+00 -0.50000000000E+03  0.50000000000E+03  0.00000000000E+00 0. -1.
         25    2    1    2    0    0  0.10364506504E+03  0.44703467067E+02  0.78222980749E+02  0.18568996170E+03  0.12498490983E+03 0.  0.
        -11    1    1    2    0    0 -0.28330771266E+02  0.29216733607E+02  0.36064433070E+03  0.36293330433E+03  0.00000000000E+00 0.  1.
         11    1    1    2    0    0 -0.75314293774E+02 -0.73920200674E+02 -0.43886731145E+03  0.45137673397E+03  0.00000000000E+00 0. -1.
        -15    1    3    3    0    0  0.37032000200E+02  0.79205670523E+02  0.17563662877E+02  0.89199480180E+02  0.17770000000E+01 0.  1.
         15    1    3    3    0    0  0.66613064840E+02 -0.34502203456E+02  0.60659317871E+02  0.96490481522E+02  0.17770000000E+01 0.  1.
</event>
<event>
 7    1  0.1738451E-005  0.5387326E+03  0.7546771E-02  0.9317084E-01
        -11   -1    0    0    0    0  0.00000000000E+00  0.00000000000E+00  0.50000000000E+03  0.50000000000E+03  0.00000000000E+00 0. -1.
         11   -1    0    0    0    0 -0.00000000000E+00 -0.00000000000E+00 -0.50000000000E+03  0.50000000000E+03  0.00000000000E+00 0. -1.
         25    2    1    2    0    0 -0.56332606137E+02  0.74296848236E+02 -0.13390182996E+03  0.20554364034E+03  0.12500041539E+03 0.  0.
        -11    1    1    2    0    0  0.57407951574E+02  0.44080520268E+01  0.45765984198E+03  0.46126742221E+03  0.00000000000E+00 0. -1.
         11    1    1    2    0    0 -0.10753454370E+01 -0.78704900262E+02 -0.32375801202E+03  0.33318893745E+03  0.00000000000E+00 0. -1.
        -15    1    3    3    0    0  0.24200605311E+02  0.71031075597E+02 -0.70534769278E+02  0.10300191456E+03  0.17770000000E+01 0. -1.
         15    1    3    3    0    0 -0.80533211448E+02  0.32657726388E+01 -0.63367060685E+02  0.10254172578E+03  0.17770000000E+01 0. -1.
</event>
<event>
 7    1  0.1738451E-005  0.5200824E+03  0.7546771E-02  0.9355962E-01
        -11   -1    0    0    0    0  0.00000000000E+00  0.00000000000E+00  0.50000000000E+03  0.50000000000E+03  0.00000000000E+00 0. -1.
         11   -1    0    0    0    0 -0.00000000000E+00 -0.00000000000E+00 -0.50000000000E+03  0.50000000000E+03  0.00000000000E+00 0. -1.
         25    2    1    2    0    0 -0.17584563428E+02  0.21112454506E+00 -0.19513823310E+03  0.23240817946E+03  0.12500148167E+03 0.  0.
        -11    1    1    2    0    0 -0.28392254119E+02 -0.77716738111E+01  0.47901396448E+03  0.47991759415E+03  0.00000000000E+00 0. -1.
         11    1    1    2    0    0  0.45976817547E+02  0.75605492660E+01 -0.28387573139E+03  0.28767422639E+03  0.00000000000E+00 0. -1.
        -15    1    3    3    0    0 -0.67806789132E+02 -0.27170748074E+01 -0.15060744050E+03  0.16519958236E+03  0.17770000000E+01 0. -1.
         15    1    3    3    0    0  0.50222225705E+02  0.29281993525E+01 -0.44530792592E+02  0.67208597099E+02  0.17770000000E+01 0. -1.
</event>
<event>
 7    1  0.1738451E-005  0.5164863E+03  0.7546771E-02  0.9363658E-01
        -11   -1    0    0    0    0  0.00000000000E+00  0.00000000000E+00  0.50000000000E+03  0.50000000000E+03  0.00000000000E+00 0. -1.
         11   -1    0    0    0    0 -0.00000000000E+00 -0.00000000000E+00 -0.50000000000E+03  0.50000000000E+03  0.00000000000E+00 0.  1.
         25    2    1    2    0    0  0.39232362023E+02 -0.19066581328E+02  0.23624180144E+03  0.27080935223E+03  0.12499921502E+03 0.  0.
        -11    1    1    2    0    0 -0.62838282195E+01 -0.50559975151E+01  0.24554448753E+03  0.24567691174E+03  0.00000000000E+00 0. -1.
         11    1    1    2    0    0 -0.32948533804E+02  0.24122578843E+02 -0.48178628897E+03  0.48351373603E+03  0.00000000000E+00 0.  1.
        -15    1    3    3    0    0  0.19201481050E+02 -0.52961685197E+02  0.22177716652E+03  0.22882724114E+03  0.17770000000E+01 0.  1.
         15    1    3    3    0    0  0.20030880974E+02  0.33895103868E+02  0.14464634925E+02  0.41982111087E+02  0.17770000000E+01 0.  1.
</event>
<event>
 7    1  0.1738451E-005  0.5146457E+03  0.7546771E-02  0.9367622E-01
        -11   -1    0    0    0    0  0.00000000000E+00  0.00000000000E+00  0.50000000000E+03  0.50000000000E+03  0.00000000000E+00 0.  1.
         11   -1    0    0    0    0 -0.00000000000E+00 -0.00000000000E+00 -0.50000000000E+03  0.50000000000E+03  0.00000000000E+00 0. -1.
         25    2    1    2    0    0 -0.15250968703E+02  0.31157005562E+02  0.36181172175E+03  0.38436425181E+03  0.12499922013E+03 0.  0.
        -11    1    1    2    0    0 -0.34325061964E+02  0.54171424622E+02  0.11340412387E+03  0.13028142015E+03  0.00000000000E+00 0.  1.
         11    1    1    2    0    0  0.49576030667E+02 -0.85328430184E+02 -0.47521584562E+03  0.48535432804E+03  0.00000000000E+00 0. -1.
        -15    1    3    3    0    0 -0.18849287289E+01  0.74742524078E+02  0.14898588138E+03  0.16670317466E+03  0.17770000000E+01 0.  1.
         15    1    3    3    0    0 -0.13366039974E+02 -0.43585518516E+02  0.21282584037E+03  0.21766107715E+03  0.17770000000E+01 0.  1.
</event>
<event>
 7    1  0.1738451E-005  0.5142320E+03  0.7546771E-02  0.9368516E-01
        -11   -1    0    0    0    0  0.00000000000E+00  0.00000000000E+00  0.50000000000E+03  0.50000000000E+03  0.00000000000E+00 0.  1.
         11   -1    0    0    0    0 -0.00000000000E+00 -0.00000000000E+00 -0.50000000000E+03  0.50000000000E+03  0.00000000000E+00 0.  1.
         25    2    1    2    0    0 -0.72183766578E+02 -0.31994084923E+02  0.32132100474E+03  0.35370289231E+03  0.12499772122E+03 0.  0.
        -11    1    1    2    0    0  0.10787906546E+02 -0.39508367346E+02  0.15521699427E+03  0.16052914168E+03  0.00000000000E+00 0.  1.
         11    1    1    2    0    0  0.61395860032E+02  0.71502452269E+02 -0.47653799901E+03  0.48576796602E+03  0.00000000000E+00 0.  1.
        -15    1    3    3    0    0 -0.52585353359E+02 -0.53048312082E+02  0.31559718386E+03  0.32432095676E+03  0.17770000000E+01 0.  1.
         15    1    3    3    0    0 -0.19598413219E+02  0.21054227159E+02  0.57238208809E+01  0.29381935546E+02  0.17770000000E+01 0.  1.
</event>
<event>
 7    1  0.1738451E-005  0.5245734E+03  0.7546771E-02  0.9346444E-01
        -11   -1    0    0    0    0  0.00000000000E+00  0.00000000000E+00  0.50000000000E+03  0.50000000000E+03  0.00000000000E+00 0.  1.
         11   -1    0    0    0    0 -0.00000000000E+00 -0.00000000000E+00 -0.50000000000E+03  0.50000000000E+03  0.00000000000E+00 0.  1.
         25    2    1    2    0    0 -0.39263769769E+02  0.15675372456E+02 -0.14703505121E+03  0.19756342062E+03  0.12499855185E+03 0.  0.
        -11    1    1    2    0    0  0.44761031651E+02  0.60504085220E+01  0.47327617237E+03  0.47542664285E+03  0.00000000000E+00 0.  1.
         11    1    1    2    0    0 -0.54972618815E+01 -0.21725780978E+02 -0.32624112117E+03  0.32700993653E+03  0.00000000000E+00 0.  1.
        -15    1    3    3    0    0 -0.59754301639E+02  0.57631202632E+02 -0.76173875417E+02  0.11268340209E+03  0.17770000000E+01 0.  1.
         15    1    3    3    0    0  0.20490531870E+02 -0.41955830176E+02 -0.70861175789E+02  0.84880018528E+02  0.17770000000E+01 0.  1.
</event>
<event>
 7    1  0.1738451E-005  0.3905343E+03  0.7546771E-02  0.9684790E-01
        -11   -1    0    0    0    0  0.00000000000E+00  0.00000000000E+00  0.50000000000E+03  0.50000000000E+03  0.00000000000E+00 0. -1.
         11   -1    0    0    0    0 -0.00000000000E+00 -0.00000000000E+00 -0.50000000000E+03  0.50000000000E+03  0.00000000000E+00 0.  1.
         25    2    1    2    0    0 -0.11036338106E+03 -0.92215907549E+02  0.69353184569E+02  0.20277858167E+03  0.12500175795E+03 0.  0.
        -11    1    1    2    0    0  0.71389939224E+02  0.55897249349E+02  0.35660173027E+03  0.36794812126E+03  0.00000000000E+00 0. -1.
         11    1    1    2    0    0  0.38973441831E+02  0.36318658200E+02 -0.42595491484E+03  0.42927329707E+03  0.00000000000E+00 0.  1.
        -15    1    3    3    0    0 -0.42209761141E+02 -0.62563903735E+02 -0.27795266069E+02  0.80446507264E+02  0.17770000000E+01 0. -1.
         15    1    3    3    0    0 -0.68153619914E+02 -0.29652003814E+02  0.97148450638E+02  0.12233207440E+03  0.17770000000E+01 0. -1.
</event>
<event>
 7    1  0.1738451E-005  0.4204602E+03  0.7546771E-02  0.9597807E-01
        -11   -1    0    0    0    0  0.00000000000E+00  0.00000000000E+00  0.50000000000E+03  0.50000000000E+03  0.00000000000E+00 0. -1.
         11   -1    0    0    0    0 -0.00000000000E+00 -0.00000000000E+00 -0.50000000000E+03  0.50000000000E+03  0.00000000000E+00 0.  1.
         25    2    1    2    0    0  0.48269976424E+02  0.71846470246E+02 -0.25894321509E+02  0.15424028903E+03  0.12501057940E+03 0.  0.
        -11    1    1    2    0    0 -0.11470120268E+02  0.22224239419E+02  0.42923481015E+03  0.42996279226E+03  0.00000000000E+00 0. -1.
         11    1    1    2    0    0 -0.36799856156E+02 -0.94070709665E+02 -0.40334048865E+03  0.41579691871E+03  0.00000000000E+00 0.  1.
        -15    1    3    3    0    0  0.83884692235E+02  0.30667750569E+02  0.86301694181E+01  0.89748482269E+02  0.17770000000E+01 0. -1.
         15    1    3    3    0    0 -0.35614715812E+02  0.41178719677E+02 -0.34524490927E+02  0.64491806761E+02  0.17770000000E+01 0. -1.
</event>
<event>
 7    1  0.1738451E-005  0.3994508E+03  0.7546771E-02  0.9658025E-01
        -11   -1    0    0    0    0  0.00000000000E+00  0.00000000000E+00  0.50000000000E+03  0.50000000000E+03  0.00000000000E+00 0. -1.
         11   -1    0    0    0    0 -0.00000000000E+00 -0.00000000000E+00 -0.50000000000E+03  0.50000000000E+03  0.00000000000E+00 0. -1.
         25    2    1    2    0    0  0.13689123287E+03 -0.23166301078E+02  0.26726726487E+02  0.18868380194E+03  0.12494547636E+03 0.  0.
        -11    1    1    2    0    0 -0.92057385191E+02  0.48739468565E+01  0.38544203611E+03  0.39631285713E+03  0.00000000000E+00 0. -1.
         11    1    1    2    0    0 -0.44833847683E+02  0.18292354222E+02 -0.41216876260E+03  0.41500334093E+03  0.00000000000E+00 0. -1.
        -15    1    3    3    0    0  0.23236853554E+02 -0.59784055223E+02  0.26074307530E+02  0.69261185842E+02  0.17770000000E+01 0.  1.
         15    1    3    3    0    0  0.11365437932E+03  0.36617754145E+02  0.65241895687E+00  0.11942261610E+03  0.17770000000E+01 0.  1.
</event>
<event>
 7    1  0.1738451E-005  0.3190180E+03  0.7546771E-02  0.9931522E-01
        -11   -1    0    0    0    0  0.00000000000E+00  0.00000000000E+00  0.50000000000E+03  0.50000000000E+03  0.00000000000E+00 0.  1.
         11   -1    0    0    0    0 -0.00000000000E+00 -0.00000000000E+00 -0.50000000000E+03  0.50000000000E+03  0.00000000000E+00 0. -1.
         25    2    1    2    0    0  0.31186206963E+03  0.55234590765E+02  0.16803989820E+02  0.34090397159E+03  0.12499733309E+03 0.  0.
        -11    1    1    2    0    0 -0.14151172921E+03  0.82840606184E+01  0.27839265086E+03  0.31240464660E+03  0.00000000000E+00 0.  1.
         11    1    1    2    0    0 -0.17035034042E+03 -0.63518651384E+02 -0.29519664068E+03  0.34669138181E+03  0.00000000000E+00 0. -1.
        -15    1    3    3    0    0  0.16593381994E+03  0.89493680372E+02  0.27886954677E+02  0.19058853952E+03  0.17770000000E+01 0. -1.
         15    1    3    3    0    0  0.14592824969E+03 -0.34259089607E+02 -0.11082964857E+02  0.15031543207E+03  0.17770000000E+01 0. -1.
</event>
<event>
 7    1  0.1738451E-005  0.5494866E+03  0.7546771E-02  0.9295417E-01
        -11   -1    0    0    0    0  0.00000000000E+00  0.00000000000E+00  0.50000000000E+03  0.50000000000E+03  0.00000000000E+00 0.  1.
         11   -1    0    0    0    0 -0.00000000000E+00 -0.00000000000E+00 -0.50000000000E+03  0.50000000000E+03  0.00000000000E+00 0. -1.
         25    2    1    2    0    0  0.27547451758E+02 -0.24760159698E+02 -0.38631035307E+02  0.13597545981E+03  0.12500016469E+03 0.  0.
        -11    1    1    2    0    0  0.15160881879E+02  0.18410644271E+02  0.44988170800E+03  0.45051343527E+03  0.00000000000E+00 0.  1.
         11    1    1    2    0    0 -0.42708333637E+02  0.63495154277E+01 -0.41125067269E+03  0.41351110493E+03  0.00000000000E+00 0. -1.
        -15    1    3    3    0    0  0.11006339627E+02  0.51202005285E+02 -0.19330793423E+02  0.55853577867E+02  0.17770000000E+01 0.  1.
         15    1    3    3    0    0  0.16541112131E+02 -0.75962164983E+02 -0.19300241884E+02  0.80121881938E+02  0.17770000000E+01 0.  1.
</event>
<event>
 7    1  0.1738451E-005  0.5280000E+03  0.7546771E-02  0.9339249E-01
        -11   -1    0    0    0    0  0.00000000000E+00  0.00000000000E+00  0.50000000000E+03  0.50000000000E+03  0.00000000000E+00 0.  1.
         11   -1    0    0    0    0 -0.00000000000E+00 -0.00000000000E+00 -0.50000000000E+03  0.50000000000E+03  0.00000000000E+00 0. -1.
         25    2    1    2    0    0 -0.58027129521E+02 -0.19012308226E+03 -0.32488828929E+03  0.40086317152E+03  0.12499979037E+03 0.  0.
        -11    1    1    2    0    0  0.53459794554E+02  0.14835077404E+03  0.44487988520E+03  0.47200001489E+03  0.00000000000E+00 0.  1.
         11    1    1    2    0    0  0.45673349677E+01  0.41772308212E+02 -0.11999159591E+03  0.12713681360E+03  0.00000000000E+00 0. -1.
        -15    1    3    3    0    0 -0.60978934352E+02 -0.17535350113E+03 -0.33473798827E+03  0.38277925664E+03  0.17770000000E+01 0. -1.
         15    1    3    3    0    0  0.29518048307E+01 -0.14769581127E+02  0.98496989773E+01  0.18083914879E+02  0.17770000000E+01 0. -1.
</event>
<event>
 7    1  0.1738451E-005  0.3697647E+03  0.7546771E-02  0.9750213E-01
        -11   -1    0    0    0    0  0.00000000000E+00  0.00000000000E+00  0.50000000000E+03  0.50000000000E+03  0.00000000000E+00 0.  1.
         11   -1    0    0    0    0 -0.00000000000E+00 -0.00000000000E+00 -0.50000000000E+03  0.50000000000E+03  0.00000000000E+00 0. -1.
         25    2    1    2    0    0  0.62170325958E+00 -0.18434406935E+03 -0.72921531791E+02  0.23436015997E+03  0.12499604940E+03 0.  0.
        -11    1    1    2    0    0 -0.77340753672E+02  0.13177300064E+03  0.39863218763E+03  0.42691139232E+03  0.00000000000E+00 0.  1.
         11    1    1    2    0    0  0.76719050412E+02  0.52571068710E+02 -0.32571065584E+03  0.33872844771E+03  0.00000000000E+00 0. -1.
        -15    1    3    3    0    0 -0.13496300716E+02 -0.19875181203E+03 -0.77218658510E+02  0.21365933602E+03  0.17770000000E+01 0.  1.
         15    1    3    3    0    0  0.14118003976E+02  0.14407742680E+02  0.42971267189E+01  0.20700823956E+02  0.17770000000E+01 0.  1.
</event>
<event>
 7    1  0.1738451E-005  0.3888270E+03  0.7546771E-02  0.9690002E-01
        -11   -1    0    0    0    0  0.00000000000E+00  0.00000000000E+00  0.50000000000E+03  0.50000000000E+03  0.00000000000E+00 0. -1.
         11   -1    0    0    0    0 -0.00000000000E+00 -0.00000000000E+00 -0.50000000000E+03  0.50000000000E+03  0.00000000000E+00 0. -1.
         25    2    1    2    0    0  0.23744522136E+03  0.26357177612E+03 -0.31417153932E+02  0.37744193765E+03  0.12500025770E+03 0.  0.
        -11    1    1    2    0    0  0.64889954340E+00  0.15219409803E+02  0.21292097021E+03  0.21346519871E+03  0.00000000000E+00 0. -1.
         11    1    1    2    0    0 -0.23809412090E+03 -0.27879118593E+03 -0.18150381628E+03  0.40909286364E+03  0.00000000000E+00 0. -1.
        -15    1    3    3    0    0  0.20373998277E+02  0.10508101394E+03 -0.21560115108E+01  0.10707439194E+03  0.17770000000E+01 0.  1.
         15    1    3    3    0    0  0.21707122308E+03  0.15849076219E+03 -0.29261142421E+02  0.27036754571E+03  0.17770000000E+01 0.  1.
</event>
<event>
 7    1  0.1738451E-005  0.4473474E+03  0.7546771E-02  0.9526002E-01
        -11   -1    0    0    0    0  0.00000000000E+00  0.00000000000E+00  0.50000000000E+03  0.50000000000E+03  0.00000000000E+00 0.  1.
         11   -1    0    0    0    0 -0.00000000000E+00 -0.00000000000E+00 -0.50000000000E+03  0.50000000000E+03  0.00000000000E+00 0.  1.
         25    2    1    2    0    0  0.68021125687E+02 -0.14727241016E+03  0.34115666363E+03  0.39791208033E+03  0.12502047112E+03 0.  0.
        -11    1    1    2    0    0 -0.18084732764E+02 -0.23511244107E+02  0.11167755337E+03  0.11554960876E+03  0.00000000000E+00 0.  1.
         11    1    1    2    0    0 -0.49936392923E+02  0.17078365427E+03 -0.45283421700E+03  0.48653831091E+03  0.00000000000E+00 0.  1.
        -15    1    3    3    0    0  0.18938046633E+02  0.17373334628E+01 -0.33212276250E+01  0.19387011625E+02  0.17770000000E+01 0.  1.
         15    1    3    3    0    0  0.49083079055E+02 -0.14900974362E+03  0.34447789126E+03  0.37852506870E+03  0.17770000000E+01 0.  1.
</event>
<event>
 7    1  0.1738451E-005  0.5344388E+03  0.7546771E-02  0.9325885E-01
        -11   -1    0    0    0    0  0.00000000000E+00  0.00000000000E+00  0.50000000000E+03  0.50000000000E+03  0.00000000000E+00 0. -1.
         11   -1    0    0    0    0 -0.00000000000E+00 -0.00000000000E+00 -0.50000000000E+03  0.50000000000E+03  0.00000000000E+00 0.  1.
         25    2    1    2    0    0  0.25889949105E+02 -0.52746213433E+01  0.79403860613E+02  0.15042624982E+03  0.12499988984E+03 0.  0.
        -11    1    1    2    0    0  0.25008593712E+02 -0.20367245695E+02  0.38265571392E+03  0.38401256471E+03  0.00000000000E+00 0. -1.
         11    1    1    2    0    0 -0.50898542816E+02  0.25641867038E+02 -0.46205957453E+03  0.46556118548E+03  0.00000000000E+00 0.  1.
        -15    1    3    3    0    0  0.39299005103E+02 -0.37962049768E+02 -0.88185974599E+01  0.55375575978E+02  0.17770000000E+01 0.  1.
         15    1    3    3    0    0 -0.13409055999E+02  0.32687428425E+02  0.88222458073E+02  0.95050673839E+02  0.17770000000E+01 0.  1.
</event>
<event>
 7    1  0.1738451E-005  0.5295778E+03  0.7546771E-02  0.9335956E-01
        -11   -1    0    0    0    0  0.00000000000E+00  0.00000000000E+00  0.50000000000E+03  0.50000000000E+03  0.00000000000E+00 0. -1.
         11   -1    0    0    0    0 -0.00000000000E+00 -0.00000000000E+00 -0.50000000000E+03  0.50000000000E+03  0.00000000000E+00 0. -1.
         25    2    1    2    0    0  0.60805869997E+02  0.32770526926E+02 -0.13172893749E+03  0.19429135905E+03  0.12500143186E+03 0.  0.
        -11    1    1    2    0    0 -0.48476523901E+02 -0.32490158408E+02  0.46678847475E+03  0.47042221878E+03  0.00000000000E+00 0. -1.
         11    1    1    2    0    0 -0.12329346096E+02 -0.28036851771E+00 -0.33505953726E+03  0.33528642217E+03  0.00000000000E+00 0. -1.
        -15    1    3    3    0    0  0.68301842812E+01  0.28175550594E+02  0.18599389365E+02  0.34490695591E+02  0.17770000000E+01 0. -1.
         15    1    3    3    0    0  0.53975685715E+02  0.45949763315E+01 -0.15032832686E+03  0.15980066346E+03  0.17770000000E+01 0. -1.
</event>
<event>
 7    1  0.1738451E-005  0.5301120E+03  0.7546771E-02  0.9334843E-01
        -11   -1    0    0    0    0  0.00000000000E+00  0.00000000000E+00  0.50000000000E+03  0.50000000000E+03  0.00000000000E+00 0. -1.
         11   -1    0    0    0    0 -0.00000000000E+00 -0.00000000000E+00 -0.50000000000E+03  0.50000000000E+03  0.00000000000E+00 0. -1.
         25    2    1    2    0    0 -0.62135714811E+02 -0.16443304067E+03  0.16519991457E+03  0.27169024014E+03  0.12500201155E+03 0.  0.
        -11    1    1    2    0    0 -0.10800818373E+03 -0.15190966302E+02  0.23427602914E+03  0.25842173097E+03  0.00000000000E+00 0. -1.
         11    1    1    2    0    0  0.17014389854E+03  0.17962400697E+03 -0.39947594371E+03  0.46988802889E+03  0.00000000000E+00 0. -1.
        -15    1    3    3    0    0  0.71015774640E+01 -0.13175642148E+03  0.13663764806E+03  0.18995576222E+03  0.17770000000E+01 0. -1.
         15    1    3    3    0    0 -0.69237292275E+02 -0.32676619189E+02  0.28562266515E+02  0.81734477919E+02  0.17770000000E+01 0. -1.
</event>
<event>
 7    1  0.1738451E-005  0.5228809E+03  0.7546771E-02  0.9350019E-01
        -11   -1    0    0    0    0  0.00000000000E+00  0.00000000000E+00  0.50000000000E+03  0.50000000000E+03  0.00000000000E+00 0. -1.
         11   -1    0    0    0    0 -0.00000000000E+00 -0.00000000000E+00 -0.50000000000E+03  0.50000000000E+03  0.00000000000E+00 0.  1.
         25    2    1    2    0    0  0.61252483107E+02  0.17028365423E+02  0.18788462077E+03  0.23445152274E+03  0.12500021552E+03 0.  0.
        -11    1    1    2    0    0 -0.25170778141E+02  0.44089264545E+02  0.28392615213E+03  0.28842935215E+03  0.00000000000E+00 0. -1.
         11    1    1    2    0    0 -0.36081704966E+02 -0.61117629968E+02 -0.47181077289E+03  0.47711912511E+03  0.00000000000E+00 0.  1.
        -15    1    3    3    0    0 -0.37684384241E+02 -0.53271658344E+01  0.62090471097E+02  0.72848307060E+02  0.17770000000E+01 0.  1.
         15    1    3    3    0    0  0.98936867347E+02  0.22355531258E+02  0.12579414967E+03  0.16160321568E+03  0.17770000000E+01 0.  1.
</event>
<event>
 7    1  0.1738451E-005  0.3927879E+03  0.7546771E-02  0.9677954E-01
        -11   -1    0    0    0    0  0.00000000000E+00  0.00000000000E+00  0.50000000000E+03  0.50000000000E+03  0.00000000000E+00 0.  1.
         11   -1    0    0    0    0 -0.00000000000E+00 -0.00000000000E+00 -0.50000000000E+03  0.50000000000E+03  0.00000000000E+00 0. -1.
         25    2    1    2    0    0  0.12122148782E+03 -0.64517342172E+02 -0.72248826921E+02  0.19924634790E+03  0.12498830988E+03 0.  0.
        -11    1    1    2    0    0 -0.32731663084E+02  0.39900338636E+01  0.42796450952E+03  0.42923292458E+03  0.00000000000E+00 0.  1.
         11    1    1    2    0    0 -0.88489824739E+02  0.60527308309E+02 -0.35571568260E+03  0.37152072752E+03  0.00000000000E+00 0. -1.
        -15    1    3    3    0    0  0.59663875039E+02 -0.98402815585E+02 -0.50356301974E+02  0.12562566210E+03  0.17770000000E+01 0.  1.
         15    1    3    3    0    0  0.61557612784E+02  0.33885473412E+02 -0.21892524947E+02  0.73620685799E+02  0.17770000000E+01 0.  1.
</event>
<event>
 7    1  0.1738451E-005  0.5387882E+03  0.7546771E-02  0.9316970E-01
        -11   -1    0    0    0    0  0.00000000000E+00  0.00000000000E+00  0.50000000000E+03  0.50000000000E+03  0.00000000000E+00 0. -1.
         11   -1    0    0    0    0 -0.00000000000E+00 -0.00000000000E+00 -0.50000000000E+03  0.50000000000E+03  0.00000000000E+00 0. -1.
         25    2    1    2    0    0  0.69112249095E+02  0.33242247735E+02  0.11947138285E+03  0.18915663059E+03  0.12500107826E+03 0.  0.
        -11    1    1    2    0    0 -0.71275116006E+02 -0.21812397391E+02  0.34159373714E+03  0.34963152617E+03  0.00000000000E+00 0. -1.
         11    1    1    2    0    0  0.21628669114E+01 -0.11429850344E+02 -0.46106511999E+03  0.46121184324E+03  0.00000000000E+00 0. -1.
        -15    1    3    3    0    0  0.62021608488E+01  0.14600925239E+02  0.12241631390E+03  0.12345268508E+03  0.17770000000E+01 0.  1.
         15    1    3    3    0    0  0.62910088246E+02  0.18641322496E+02 -0.29449310416E+01  0.65703945508E+02  0.17770000000E+01 0.  1.
</event>
<event>
 7    1  0.1738451E-005  0.3980505E+03  0.7546771E-02  0.9662178E-01
        -11   -1    0    0    0    0  0.00000000000E+00  0.00000000000E+00  0.50000000000E+03  0.50000000000E+03  0.00000000000E+00 0.  1.
         11   -1    0    0    0    0 -0.00000000000E+00 -0.00000000000E+00 -0.50000000000E+03  0.50000000000E+03  0.00000000000E+00 0. -1.
         25    2    1    2    0    0  0.21677562400E+02  0.10178984477E+03  0.99978019333E+02  0.19092422210E+03  0.12500146010E+03 0.  0.
        -11    1    1    2    0    0  0.13238909215E+02 -0.93471469687E+02  0.34753336571E+03  0.36012723397E+03  0.00000000000E+00 0.  1.
         11    1    1    2    0    0 -0.34916471615E+02 -0.83183750791E+01 -0.44751138504E+03  0.44894854393E+03  0.00000000000E+00 0. -1.
        -15    1    3    3    0    0  0.98792791448E+01  0.80396382311E+02  0.12938021487E+03  0.15265508892E+03  0.17770000000E+01 0.  1.
         15    1    3    3    0    0  0.11798283255E+02  0.21393462455E+02 -0.29402195532E+02  0.38269133184E+02  0.17770000000E+01 0.  1.
</event>
<event>
 7    1  0.1738451E-005  0.5341856E+03  0.7546771E-02  0.9326407E-01
        -11   -1    0    0    0    0  0.00000000000E+00  0.00000000000E+00  0.50000000000E+03  0.50000000000E+03  0.00000000000E+00 0.  1.
         11   -1    0    0    0    0 -0.00000000000E+00 -0.00000000000E+00 -0.50000000000E+03  0.50000000000E+03  0.00000000000E+00 0. -1.
         25    2    1    2    0    0  0.10570313498E+02  0.10103176872E+03  0.20532269007E+03  0.26096250581E+03  0.12499949025E+03 0.  0.
        -11    1    1    2    0    0 -0.42331292843E+02 -0.76777433772E+02  0.25877431128E+03  0.27322308992E+03  0.00000000000E+00 0.  1.
         11    1    1    2    0    0  0.31760979345E+02 -0.24254334944E+02 -0.46409700134E+03  0.46581440427E+03  0.00000000000E+00 0. -1.
        -15    1    3    3    0    0 -0.51808717049E+02  0.27984094140E+02  0.11444224564E+03  0.12871456018E+03  0.17770000000E+01 0.  1.
         15    1    3    3    0    0  0.62379030547E+02  0.73047674577E+02  0.90880444432E+02  0.13224794563E+03  0.17770000000E+01 0.  1.
</event>
<event>
 7    1  0.1738451E-005  0.3706366E+03  0.7546771E-02  0.9747375E-01
        -11   -1    0    0    0    0  0.00000000000E+00  0.00000000000E+00  0.50000000000E+03  0.50000000000E+03  0.00000000000E+00 0. -1.
         11   -1    0    0    0    0 -0.00000000000E+00 -0.00000000000E+00 -0.50000000000E+03  0.50000000000E+03  0.00000000000E+00 0. -1.
         25    2    1    2    0    0  0.14462355889E+03 -0.17184165368E+03 -0.17376373316E+03  0.31025333111E+03  0.12497106377E+03 0.  0.
        -11    1    1    2    0    0 -0.81963605672E+02  0.17100441394E+03  0.40658822139E+03  0.44863629369E+03  0.00000000000E+00 0. -1.
         11    1    1    2    0    0 -0.62659953221E+02  0.83723974113E+00 -0.23282448823E+03  0.24111037520E+03  0.00000000000E+00 0. -1.
        -15    1    3    3    0    0  0.14160275408E+02  0.20108879275E+02 -0.12618134677E+02  0.27699376835E+02  0.17770000000E+01 0. -1.
         15    1    3    3    0    0  0.13046328349E+03 -0.19195053296E+03 -0.16114559848E+03  0.28255395428E+03  0.17770000000E+01 0. -1.
</event>
<event>
 7    1  0.1738451E-005  0.3128807E+03  0.7546771E-02  0.9955895E-01
        -11   -1    0    0    0    0  0.00000000000E+00  0.00000000000E+00  0.50000000000E+03  0.50000000000E+03  0.00000000000E+00 0. -1.
         11   -1    0    0    0    0 -0.00000000000E+00 -0.00000000000E+00 -0.50000000000E+03  0.50000000000E+03  0.00000000000E+00 0. -1.
         25    2    1    2    0    0 -0.24404597340E+02 -0.29345932468E+03  0.80526688539E+02  0.32988022305E+03  0.12498981710E+03 0.  0.
        -11    1    1    2    0    0 -0.22303706523E+01  0.19472243757E+03  0.25414370328E+03  0.32017311593E+03  0.00000000000E+00 0. -1.
         11    1    1    2    0    0  0.26634967993E+02  0.98736887115E+02 -0.33467039182E+03  0.34994666102E+03  0.00000000000E+00 0. -1.
        -15    1    3    3    0    0 -0.74060873200E+02 -0.15034404025E+03  0.53928131031E+02  0.17606744283E+03  0.17770000000E+01 0.  1.
         15    1    3    3    0    0  0.49656275860E+02 -0.14311528443E+03  0.26598557508E+02  0.15381278023E+03  0.17770000000E+01 0.  1.
</event>
<event>
 7    1  0.1738451E-005  0.5417239E+03  0.7546771E-02  0.9311003E-01
        -11   -1    0    0    0    0  0.00000000000E+00  0.00000000000E+00  0.50000000000E+03  0.50000000000E+03  0.00000000000E+00 0.  1.
         11   -1    0    0    0    0 -0.00000000000E+00 -0.00000000000E+00 -0.50000000000E+03  0.50000000000E+03  0.00000000000E+00 0. -1.
         25    2    1    2    0    0 -0.14105214466E+02 -0.18242013018E+03  0.23565360598E+03  0.32347265296E+03  0.12500349687E+03 0.  0.
        -11    1    1    2    0    0  0.61353080079E+02  0.55161157839E+02  0.20205607672E+03  0.21825125867E+03  0.00000000000E+00 0.  1.
         11    1    1    2    0    0 -0.47247865613E+02  0.12725897234E+03 -0.43770968270E+03  0.45827608838E+03  0.00000000000E+00 0. -1.
        -15    1    3    3    0    0 -0.32086136577E+02 -0.19541463387E+03  0.22137869409E+03  0.29703212489E+03  0.17770000000E+01 0.  1.
         15    1    3    3    0    0  0.17980922111E+02  0.12994503687E+02  0.14274911886E+02  0.26440528066E+02  0.17770000000E+01 0.  1.
</event>
<event>
 7    1  0.1738451E-005  0.4026926E+03  0.7546771E-02  0.9648478E-01
        -11   -1    0    0    0    0  0.00000000000E+00  0.00000000000E+00  0.50000000000E+03  0.50000000000E+03  0.00000000000E+00 0.  1.
         11   -1    0    0    0    0 -0.00000000000E+00 -0.00000000000E+00 -0.50000000000E+03  0.50000000000E+03  0.00000000000E+00 0.  1.
         25    2    1    2    0    0  0.72111599068E+01  0.12217398289E+03 -0.55344129553E+02  0.18349103586E+03  0.12501001817E+03 0.  0.
        -11    1    1    2    0    0 -0.30414625346E+02 -0.46161844963E+02  0.42998861089E+03  0.43352758950E+03  0.00000000000E+00 0.  1.
         11    1    1    2    0    0  0.23203465440E+02 -0.76012137932E+02 -0.37464448134E+03  0.38298137463E+03  0.00000000000E+00 0.  1.
        -15    1    3    3    0    0 -0.25544055808E+02 -0.11732020115E+02  0.11318356816E+02  0.30354604480E+02  0.17770000000E+01 0.  1.
         15    1    3    3    0    0  0.32755215715E+02  0.13390600301E+03 -0.66662486370E+02  0.15313643138E+03  0.17770000000E+01 0.  1.
</event>
<event>
 7    1  0.1738451E-005  0.4191579E+03  0.7546771E-02  0.9601430E-01
        -11   -1    0    0    0    0  0.00000000000E+00  0.00000000000E+00  0.50000000000E+03  0.50000000000E+03  0.00000000000E+00 0.  1.
         11   -1    0    0    0    0 -0.00000000000E+00 -0.00000000000E+00 -0.50000000000E+03  0.50000000000E+03  0.00000000000E+00 0.  1.
         25    2    1    2    0    0  0.49770679838E+02  0.63123177343E+02 -0.48811276734E+02  0.15642565358E+03  0.12499915309E+03 0.  0.
        -11    1    1    2    0    0 -0.64783004400E+01 -0.72835105883E+02  0.44194066545E+03  0.44794918551E+03  0.00000000000E+00 0.  1.
         11    1    1    2    0    0 -0.43292379398E+02  0.97119285402E+01 -0.39312938871E+03  0.39562516090E+03  0.00000000000E+00 0.  1.
        -15    1    3    3    0    0 -0.61137854982E+01  0.82600889106E+02 -0.50806073513E+02  0.97183846852E+02  0.17770000000E+01 0.  1.
         15    1    3    3    0    0  0.55884465337E+02 -0.19477711763E+02  0.19947967790E+01  0.59241806730E+02  0.17770000000E+01 0.  1.
</event>
<event>
 7    1  0.1738451E-005  0.5346070E+03  0.7546771E-02  0.9325539E-01
        -11   -1    0    0    0    0  0.00000000000E+00  0.00000000000E+00  0.50000000000E+03  0.50000000000E+03  0.00000000000E+00 0.  1.
         11   -1    0    0    0    0 -0.00000000000E+00 -0.00000000000E+00 -0.50000000000E+03  0.50000000000E+03  0.00000000000E+00 0.  1.
         25    2    1    2    0    0  0.12121145182E+02 -0.24932981226E+01 -0.84999671313E+02  0.15165826208E+03  0.12498858203E+03 0.  0.
        -11    1    1    2    0    0  0.35025135939E+02  0.77609757590E+02  0.45753755711E+03  0.46539300681E+03  0.00000000000E+00 0.  1.
         11    1    1    2    0    0 -0.47146281121E+02 -0.75116459468E+02 -0.37253788580E+03  0.38294873111E+03  0.00000000000E+00 0.  1.
        -15    1    3    3    0    0 -0.44124280905E+02  0.29770687635E+02 -0.13146141238E+02  0.54856401323E+02  0.17770000000E+01 0.  1.
         15    1    3    3    0    0  0.56245426087E+02 -0.32263985757E+02 -0.71853530075E+02  0.96801860756E+02  0.17770000000E+01 0.  1.
</event>
<event>
 7    1  0.1738451E-005  0.5235191E+03  0.7546771E-02  0.9348669E-01
        -11   -1    0    0    0    0  0.00000000000E+00  0.00000000000E+00  0.50000000000E+03  0.50000000000E+03  0.00000000000E+00 0.  1.
         11   -1    0    0    0    0 -0.00000000000E+00 -0.00000000000E+00 -0.50000000000E+03  0.50000000000E+03  0.00000000000E+00 0. -1.
         25    2    1    2    0    0 -0.26834214733E+02  0.78169635547E+02 -0.17272357978E+03  0.22866836087E+03  0.12500086900E+03 0.  0.
        -11    1    1    2    0    0  0.65560791643E+02 -0.80634085024E+02  0.46500964181E+03  0.47648089158E+03  0.00000000000E+00 0.  1.
         11    1    1    2    0    0 -0.38726576910E+02  0.24644494768E+01 -0.29228606203E+03  0.29485074754E+03  0.00000000000E+00 0. -1.
        -15    1    3    3    0    0  0.47834671012E+02  0.42261328238E+02 -0.98669575928E+02  0.11752879885E+03  0.17770000000E+01 0.  1.
         15    1    3    3    0    0 -0.74668885745E+02  0.35908307309E+02 -0.74054003851E+02  0.11113956203E+03  0.17770000000E+01 0.  1.
</event>
<event>
 7    1  0.1738451E-005  0.5323393E+03  0.7546771E-02  0.9330221E-01
        -11   -1    0    0    0    0  0.00000000000E+00  0.00000000000E+00  0.50000000000E+03  0.50000000000E+03  0.00000000000E+00 0. -1.
         11   -1    0    0    0    0 -0.00000000000E+00 -0.00000000000E+00 -0.50000000000E+03  0.50000000000E+03  0.00000000000E+00 0. -1.
         25    2    1    2    0    0 -0.73213885568E+02  0.92599749660E+02 -0.19979470758E+03  0.26358982350E+03  0.12500673262E+03 0.  0.
        -11    1    1    2    0    0  0.36066263334E+01 -0.87807966031E+02  0.45932918015E+03  0.46766071290E+03  0.00000000000E+00 0. -1.
         11    1    1    2    0    0  0.69607259235E+02 -0.47917836287E+01 -0.25953447257E+03  0.26874946359E+03  0.00000000000E+00 0. -1.
        -15    1    3    3    0    0  0.74044246183E+00  0.40762491343E+02 -0.15957538642E+03  0.16471062697E+03  0.17770000000E+01 0.  1.
         15    1    3    3    0    0 -0.73954328030E+02  0.51837258317E+02 -0.40219321160E+02  0.98879196537E+02  0.17770000000E+01 0.  1.
</event>
<event>
 7    1  0.1738451E-005  0.3950230E+03  0.7546771E-02  0.9671222E-01
        -11   -1    0    0    0    0  0.00000000000E+00  0.00000000000E+00  0.50000000000E+03  0.50000000000E+03  0.00000000000E+00 0.  1.
         11   -1    0    0    0    0 -0.00000000000E+00 -0.00000000000E+00 -0.50000000000E+03  0.50000000000E+03  0.00000000000E+00 0. -1.
         25    2    1    2    0    0 -0.10576110410E+03  0.78574515209E+02 -0.72976128451E+02  0.19572539399E+03  0.12499419567E+03 0.  0.
        -11    1    1    2    0    0  0.64697383305E+02  0.12111841069E+02  0.42929442918E+03  0.43431112698E+03  0.00000000000E+00 0.  1.
         11    1    1    2    0    0  0.41063720791E+02 -0.90686356279E+02 -0.35631830072E+03  0.36996347902E+03  0.00000000000E+00 0. -1.
        -15    1    3    3    0    0 -0.12042286589E+03  0.30819819087E+02 -0.25745064657E+02  0.12695469255E+03  0.17770000000E+01 0.  1.
         15    1    3    3    0    0  0.14661761794E+02  0.47754696122E+02 -0.47231063794E+02  0.68770701441E+02  0.17770000000E+01 0.  1.
</event>
<event>
 7    1  0.1738451E-005  0.5305013E+03  0.7546771E-02  0.9334033E-01
        -11   -1    0    0    0    0  0.00000000000E+00  0.00000000000E+00  0.50000000000E+03  0.50000000000E+03  0.00000000000E+00 0.  1.
         11   -1    0    0    0    0 -0.00000000000E+00 -0.00000000000E+00 -0.50000000000E+03  0.50000000000E+03  0.00000000000E+00 0. -1.
         25    2    1    2    0    0  0.10036770138E+03 -0.47102175334E+00 -0.10995045121E+03  0.19439126622E+03  0.12499986127E+03 0.  0.
        -11    1    1    2    0    0 -0.16485391666E+03  0.25554320925E+02  0.43886124541E+03  0.46949870061E+03  0.00000000000E+00 0.  1.
         11    1    1    2    0    0  0.64486215282E+02 -0.25083299171E+02 -0.32891079419E+03  0.33611003317E+03  0.00000000000E+00 0. -1.
        -15    1    3    3    0    0 -0.38192303497E+01 -0.31722874601E+02  0.89533999172E+01  0.33230233109E+02  0.17770000000E+01 0. -1.
         15    1    3    3    0    0  0.10418693173E+03  0.31251852848E+02 -0.11890385113E+03  0.16116103311E+03  0.17770000000E+01 0. -1.
</event>
<event>
 7    1  0.1738451E-005  0.5239851E+03  0.7546771E-02  0.9347685E-01
        -11   -1    0    0    0    0  0.00000000000E+00  0.00000000000E+00  0.50000000000E+03  0.50000000000E+03  0.00000000000E+00 0. -1.
         11   -1    0    0    0    0 -0.00000000000E+00 -0.00000000000E+00 -0.50000000000E+03  0.50000000000E+03  0.00000000000E+00 0. -1.
         25    2    1    2    0    0 -0.22700628816E+02  0.36325152177E+02 -0.17531216213E+03  0.21953359487E+03  0.12500323938E+03 0.  0.
        -11    1    1    2    0    0 -0.22494302367E+02 -0.11301887319E+02  0.47534877902E+03  0.47601490314E+03  0.00000000000E+00 0. -1.
         11    1    1    2    0    0  0.45194931183E+02 -0.25023264859E+02 -0.30003661689E+03  0.30445150199E+03  0.00000000000E+00 0. -1.
        -15    1    3    3    0    0  0.13017480976E+02  0.39479848999E+02 -0.17869326139E+03  0.18347357489E+03  0.17770000000E+01 0. -1.
         15    1    3    3    0    0 -0.35718109792E+02 -0.31546968218E+01  0.33810992676E+01  0.36060019972E+02  0.17770000000E+01 0. -1.
</event>
<event>
 7    1  0.1738451E-005  0.5198527E+03  0.7546771E-02  0.9356452E-01
        -11   -1    0    0    0    0  0.00000000000E+00  0.00000000000E+00  0.50000000000E+03  0.50000000000E+03  0.00000000000E+00 0.  1.
         11   -1    0    0    0    0 -0.00000000000E+00 -0.00000000000E+00 -0.50000000000E+03  0.50000000000E+03  0.00000000000E+00 0. -1.
         25    2    1    2    0    0  0.22525474808E+02 -0.53823204604E+02  0.23433262406E+03  0.27194438531E+03  0.12505053232E+03 0.  0.
        -11    1    1    2    0    0  0.34732683388E+02  0.39969490796E+02  0.24218710108E+03  0.24790827219E+03  0.00000000000E+00 0.  1.
         11    1    1    2    0    0 -0.57258158195E+02  0.13853713808E+02 -0.47651972514E+03  0.48014734250E+03  0.00000000000E+00 0. -1.
        -15    1    3    3    0    0  0.43622837257E+02 -0.42455669009E+02  0.23970552629E+03  0.24732030411E+03  0.17770000000E+01 0.  1.
         15    1    3    3    0    0 -0.21097362449E+02 -0.11367535596E+02 -0.53729022290E+01  0.24624081205E+02  0.17770000000E+01 0.  1.
</event>
<event>
 7    1  0.1738451E-005  0.4060865E+03  0.7546771E-02  0.9638586E-01
        -11   -1    0    0    0    0  0.00000000000E+00  0.00000000000E+00  0.50000000000E+03  0.50000000000E+03  0.00000000000E+00 0. -1.
         11   -1    0    0    0    0 -0.00000000000E+00 -0.00000000000E+00 -0.50000000000E+03  0.50000000000E+03  0.00000000000E+00 0.  1.
         25    2    1    2    0    0  0.11653567249E+03 -0.47170272321E+02 -0.15931301351E+02  0.17799970267E+03  0.12499796092E+03 0.  0.
        -11    1    1    2    0    0 -0.20748325465E+02  0.85963503504E+02  0.40751983642E+03  0.41700435731E+03  0.00000000000E+00 0. -1.
         11    1    1    2    0    0 -0.95787347023E+02 -0.38793231184E+02 -0.39158853507E+03  0.40499594002E+03  0.00000000000E+00 0.  1.
        -15    1    3    3    0    0  0.73558673820E+02 -0.16192149837E+02  0.52214111049E+02  0.91665344227E+02  0.17770000000E+01 0.  1.
         15    1    3    3    0    0  0.42976998668E+02 -0.30978122484E+02 -0.68145412399E+02  0.86334358440E+02  0.17770000000E+01 0.  1.
</event>
<event>
 7    1  0.1738451E-005  0.4277904E+03  0.7546771E-02  0.9577675E-01
        -11   -1    0    0    0    0  0.00000000000E+00  0.00000000000E+00  0.50000000000E+03  0.50000000000E+03  0.00000000000E+00 0.  1.
         11   -1    0    0    0    0 -0.00000000000E+00 -0.00000000000E+00 -0.50000000000E+03  0.50000000000E+03  0.00000000000E+00 0.  1.
         25    2    1    2    0    0 -0.65181437454E+02 -0.14254497095E+02  0.56281501483E+01  0.14180313618E+03  0.12499857151E+03 0.  0.
        -11    1    1    2    0    0  0.14769174117E+02  0.17245192188E+02  0.42450374092E+03  0.42511051647E+03  0.00000000000E+00 0.  1.
         11    1    1    2    0    0  0.50412263337E+02 -0.29906950932E+01 -0.43013189107E+03  0.43308634735E+03  0.00000000000E+00 0.  1.
        -15    1    3    3    0    0 -0.75703398079E+02  0.28893968179E+02 -0.28339844617E+02  0.85861344036E+02  0.17770000000E+01 0.  1.
         15    1    3    3    0    0  0.10521960625E+02 -0.43148465273E+02  0.33967994766E+02  0.55941792144E+02  0.17770000000E+01 0.  1.
</event>
<event>
 7    1  0.1738451E-005  0.4359963E+03  0.7546771E-02  0.9555642E-01
        -11   -1    0    0    0    0  0.00000000000E+00  0.00000000000E+00  0.50000000000E+03  0.50000000000E+03  0.00000000000E+00 0.  1.
         11   -1    0    0    0    0 -0.00000000000E+00 -0.00000000000E+00 -0.50000000000E+03  0.50000000000E+03  0.00000000000E+00 0.  1.
         25    2    1    2    0    0  0.19113096383E+02  0.61990861995E+01  0.16121371999E+02  0.12762687382E+03  0.12499992466E+03 0.  0.
        -11    1    1    2    0    0 -0.78083433285E+02  0.97419958544E+01  0.42237490375E+03  0.42964227952E+03  0.00000000000E+00 0.  1.
         11    1    1    2    0    0  0.58970336902E+02 -0.15941082054E+02 -0.43849627575E+03  0.44273084665E+03  0.00000000000E+00 0.  1.
        -15    1    3    3    0    0  0.68740860047E+02  0.22965059224E+02  0.19594059661E+02  0.75098499907E+02  0.17770000000E+01 0.  1.
         15    1    3    3    0    0 -0.49627763664E+02 -0.16765973025E+02 -0.34726876621E+01  0.52528373917E+02  0.17770000000E+01 0.  1.
</event>
<event>
 7    1  0.1738451E-005  0.3415170E+03  0.7546771E-02  0.9846973E-01
        -11   -1    0    0    0    0  0.00000000000E+00  0.00000000000E+00  0.50000000000E+03  0.50000000000E+03  0.00000000000E+00 0. -1.
         11   -1    0    0    0    0 -0.00000000000E+00 -0.00000000000E+00 -0.50000000000E+03  0.50000000000E+03  0.00000000000E+00 0. -1.
         25    2    1    2    0    0  0.17777728923E+03  0.14228106855E+03 -0.11613323464E+03  0.28454524705E+03  0.12502160772E+03 0.  0.
        -11    1    1    2    0    0 -0.10196621380E+03 -0.16338128000E+03  0.38760136698E+03  0.43281101083E+03  0.00000000000E+00 0. -1.
         11    1    1    2    0    0 -0.75811075432E+02  0.21100211445E+02 -0.27146813234E+03  0.28264374211E+03  0.00000000000E+00 0. -1.
        -15    1    3    3    0    0  0.15509888829E+03  0.57860930028E+02 -0.44260224361E+02  0.17136416651E+03  0.17770000000E+01 0. -1.
         15    1    3    3    0    0  0.22678400942E+02  0.84420138526E+02 -0.71873010282E+02  0.11318108055E+03  0.17770000000E+01 0. -1.
</event>
<event>
 7    1  0.1738451E-005  0.5399243E+03  0.7546771E-02  0.9314656E-01
        -11   -1    0    0    0    0  0.00000000000E+00  0.00000000000E+00  0.50000000000E+03  0.50000000000E+03  0.00000000000E+00 0. -1.
         11   -1    0    0    0    0 -0.00000000000E+00 -0.00000000000E+00 -0.50000000000E+03  0.50000000000E+03  0.00000000000E+00 0.  1.
         25    2    1    2    0    0 -0.19922959978E+02  0.48099860092E+02  0.19661402952E+03  0.23873212579E+03  0.12500172159E+03 0.  0.
        -11    1    1    2    0    0  0.73134522023E+02 -0.15494882464E+03  0.24770734198E+03  0.30119217095E+03  0.00000000000E+00 0. -1.
         11    1    1    2    0    0 -0.53211562045E+02  0.10684896455E+03 -0.44432137151E+03  0.46007570327E+03  0.00000000000E+00 0.  1.
        -15    1    3    3    0    0  0.19909385400E+02 -0.30197050198E+02  0.10813497624E+03  0.11403760907E+03  0.17770000000E+01 0.  1.
         15    1    3    3    0    0 -0.39832345378E+02  0.78296910290E+02  0.88479053289E+02  0.12469451672E+03  0.17770000000E+01 0.  1.
</event>
<event>
 7    1  0.1738451E-005  0.3833865E+03  0.7546771E-02  0.9706804E-01
        -11   -1    0    0    0    0  0.00000000000E+00  0.00000000000E+00  0.50000000000E+03  0.50000000000E+03  0.00000000000E+00 0.  1.
         11   -1    0    0    0    0 -0.00000000000E+00 -0.00000000000E+00 -0.50000000000E+03  0.50000000000E+03  0.00000000000E+00 0.  1.
         25    2    1    2    0    0 -0.44060271581E+02 -0.14547546808E+03 -0.83660819938E+02  0.21384205893E+03  0.12499949611E+03 0.  0.
        -11    1    1    2    0    0  0.84414735473E+02  0.13589042541E+03  0.41887672914E+03  0.44838573739E+03  0.00000000000E+00 0.  1.
         11    1    1    2    0    0 -0.40354463892E+02  0.95850426751E+01 -0.33521590920E+03  0.33777220368E+03  0.00000000000E+00 0.  1.
        -15    1    3    3    0    0 -0.83976209347E+02 -0.94152361756E+02 -0.30422721852E+02  0.12978971721E+03  0.17770000000E+01 0.  1.
         15    1    3    3    0    0  0.39915937766E+02 -0.51323106328E+02 -0.53238098086E+02  0.84052341715E+02  0.17770000000E+01 0.  1.
</event>
<event>
 7    1  0.1738451E-005  0.5412127E+03  0.7546771E-02  0.9312039E-01
        -11   -1    0    0    0    0  0.00000000000E+00  0.00000000000E+00  0.50000000000E+03  0.50000000000E+03  0.00000000000E+00 0.  1.
         11   -1    0    0    0    0 -0.00000000000E+00 -0.00000000000E+00 -0.50000000000E+03  0.50000000000E+03  0.00000000000E+00 0.  1.
         25    2    1    2    0    0 -0.62090634570E+02  0.62632896971E+02  0.13508415735E+03  0.20408829437E+03  0.12500470250E+03 0.  0.
        -11    1    1    2    0    0  0.13144171352E+03  0.28913679419E+02  0.30909535596E+03  0.33712440432E+03  0.00000000000E+00 0.  1.
         11    1    1    2    0    0 -0.69351078946E+02 -0.91546576390E+02 -0.44417951331E+03  0.45878730131E+03  0.00000000000E+00 0.  1.
        -15    1    3    3    0    0 -0.61261836673E+02 -0.15529374562E+02  0.10018387781E+03  0.11846578075E+03  0.17770000000E+01 0.  1.
         15    1    3    3    0    0 -0.82879789712E+00  0.78162271533E+02  0.34900279546E+02  0.85622513620E+02  0.17770000000E+01 0.  1.
</event>
<event>
 7    1  0.1738451E-005  0.5452421E+03  0.7546771E-02  0.9303905E-01
        -11   -1    0    0    0    0  0.00000000000E+00  0.00000000000E+00  0.50000000000E+03  0.50000000000E+03  0.00000000000E+00 0.  1.
         11   -1    0    0    0    0 -0.00000000000E+00 -0.00000000000E+00 -0.50000000000E+03  0.50000000000E+03  0.00000000000E+00 0. -1.
         25    2    1    2    0    0 -0.77267737373E+02  0.77483945343E+02  0.22879540137E+03  0.28275457501E+03  0.12501499502E+03 0.  0.
        -11    1    1    2    0    0  0.12709687418E+03 -0.56066287952E+02  0.22271657263E+03  0.26248755360E+03  0.00000000000E+00 0.  1.
         11    1    1    2    0    0 -0.49829136810E+02 -0.21417657392E+02 -0.45151197400E+03  0.45475787138E+03  0.00000000000E+00 0. -1.
        -15    1    3    3    0    0  0.30781951996E+02  0.39805572275E+02  0.87191714393E+02  0.10068547532E+03  0.17770000000E+01 0.  1.
         15    1    3    3    0    0 -0.10804968937E+03  0.37678373069E+02  0.14160368697E+03  0.18206909969E+03  0.17770000000E+01 0.  1.
</event>
<event>
 7    1  0.1738451E-005  0.4707526E+03  0.7546771E-02  0.9467741E-01
        -11   -1    0    0    0    0  0.00000000000E+00  0.00000000000E+00  0.50000000000E+03  0.50000000000E+03  0.00000000000E+00 0.  1.
         11   -1    0    0    0    0 -0.00000000000E+00 -0.00000000000E+00 -0.50000000000E+03  0.50000000000E+03  0.00000000000E+00 0.  1.
         25    2    1    2    0    0  0.19449263932E+02  0.11131762632E+02 -0.41934105336E+03  0.43814912892E+03  0.12500220054E+03 0.  0.
        -11    1    1    2    0    0 -0.44942805377E+02 -0.75390786588E+01  0.48717181168E+03  0.48929854645E+03  0.00000000000E+00 0.  1.
         11    1    1    2    0    0  0.25493541445E+02 -0.35926839731E+01 -0.67830758326E+02  0.72552324626E+02  0.00000000000E+00 0.  1.
        -15    1    3    3    0    0  0.77897467593E+01 -0.55469959892E+02 -0.24054382646E+03  0.24698600523E+03  0.17770000000E+01 0. -1.
         15    1    3    3    0    0  0.11659517173E+02  0.66601722524E+02 -0.17879722690E+03  0.19116312369E+03  0.17770000000E+01 0. -1.
</event>
<event>
 7    1  0.1738451E-005  0.5502583E+03  0.7546771E-02  0.9293882E-01
        -11   -1    0    0    0    0  0.00000000000E+00  0.00000000000E+00  0.50000000000E+03  0.50000000000E+03  0.00000000000E+00 0.  1.
         11   -1    0    0    0    0 -0.00000000000E+00 -0.00000000000E+00 -0.50000000000E+03  0.50000000000E+03  0.00000000000E+00 0.  1.
         25    2    1    2    0    0  0.13516738851E+03 -0.85401348906E+02  0.13404507941E+03  0.24321944614E+03  0.12499600936E+03 0.  0.
        -11    1    1    2    0    0 -0.26125283439E+02  0.53903431195E+02  0.30113910708E+03  0.30703887725E+03  0.00000000000E+00 0.  1.
         11    1    1    2    0    0 -0.10904210507E+03  0.31497917711E+02 -0.43518418650E+03  0.44974167661E+03  0.00000000000E+00 0.  1.
        -15    1    3    3    0    0  0.53159822343E+02 -0.10301041622E+03  0.56465934377E+02  0.12895220834E+03  0.17770000000E+01 0.  1.
         15    1    3    3    0    0  0.82007566170E+02  0.17609067319E+02  0.77579145037E+02  0.11426723780E+03  0.17770000000E+01 0.  1.
</event>
<event>
 7    1  0.1738451E-005  0.3897147E+03  0.7546771E-02  0.9687288E-01
        -11   -1    0    0    0    0  0.00000000000E+00  0.00000000000E+00  0.50000000000E+03  0.50000000000E+03  0.00000000000E+00 0. -1.
         11   -1    0    0    0    0 -0.00000000000E+00 -0.00000000000E+00 -0.50000000000E+03  0.50000000000E+03  0.00000000000E+00 0. -1.
         25    2    1    2    0    0  0.77116127511E+01  0.14486790990E+03 -0.70490673232E+02  0.20405688466E+03  0.12499638746E+03 0.  0.
        -11    1    1    2    0    0 -0.75177591273E+02 -0.92987040174E+02  0.41975731691E+03  0.43645671603E+03  0.00000000000E+00 0. -1.
         11    1    1    2    0    0  0.67465978522E+02 -0.51880869721E+02 -0.34926664368E+03  0.35948639931E+03  0.00000000000E+00 0. -1.
        -15    1    3    3    0    0  0.21001147654E+02  0.16249278695E+03 -0.44256340204E+02  0.16972547066E+03  0.17770000000E+01 0. -1.
         15    1    3    3    0    0 -0.13289534903E+02 -0.17624877055E+02 -0.26234333027E+02  0.34331414004E+02  0.17770000000E+01 0. -1.
</event>
<event>
 7    1  0.1738451E-005  0.5215065E+03  0.7546771E-02  0.9352933E-01
        -11   -1    0    0    0    0  0.00000000000E+00  0.00000000000E+00  0.50000000000E+03  0.50000000000E+03  0.00000000000E+00 0.  1.
         11   -1    0    0    0    0 -0.00000000000E+00 -0.00000000000E+00 -0.50000000000E+03  0.50000000000E+03  0.00000000000E+00 0.  1.
         25    2    1    2    0    0 -0.72040702926E+02  0.92927854001E+01 -0.27322956933E+03  0.30911949785E+03  0.12499699060E+03 0.  0.
        -11    1    1    2    0    0  0.16659861482E+02 -0.28902788068E+02  0.47732915672E+03  0.47849351720E+03  0.00000000000E+00 0.  1.
         11    1    1    2    0    0  0.55380841445E+02  0.19610002668E+02 -0.20409958739E+03  0.21238698495E+03  0.00000000000E+00 0.  1.
        -15    1    3    3    0    0 -0.77249393192E+02  0.55597554941E+02 -0.20987357518E+03  0.23045310185E+03  0.17770000000E+01 0.  1.
         15    1    3    3    0    0  0.52086902653E+01 -0.46304769541E+02 -0.63355994147E+02  0.78666396002E+02  0.17770000000E+01 0.  1.
</event>
<event>
 7    1  0.1738451E-005  0.5144412E+03  0.7546771E-02  0.9368064E-01
        -11   -1    0    0    0    0  0.00000000000E+00  0.00000000000E+00  0.50000000000E+03  0.50000000000E+03  0.00000000000E+00 0. -1.
         11   -1    0    0    0    0 -0.00000000000E+00 -0.00000000000E+00 -0.50000000000E+03  0.50000000000E+03  0.00000000000E+00 0. -1.
         25    2    1    2    0    0 -0.10149342873E+03  0.70819518231E+02 -0.31471300831E+03  0.36053485841E+03  0.12499914516E+03 0.  0.
        -11    1    1    2    0    0  0.12331466413E+03 -0.55754439789E+02  0.46631784045E+03  0.48555884532E+03  0.00000000000E+00 0. -1.
         11    1    1    2    0    0 -0.21821235404E+02 -0.15065078441E+02 -0.15160483214E+03  0.15390629627E+03  0.00000000000E+00 0. -1.
        -15    1    3    3    0    0 -0.21463825210E+02  0.21161678154E+01  0.63764041879E+01  0.22560811560E+02  0.17770000000E+01 0. -1.
         15    1    3    3    0    0 -0.80029603520E+02  0.68703350415E+02 -0.32108941249E+03  0.33797404685E+03  0.17770000000E+01 0. -1.
</event>
<event>
 7    1  0.1738451E-005  0.4295732E+03  0.7546771E-02  0.9572844E-01
        -11   -1    0    0    0    0  0.00000000000E+00  0.00000000000E+00  0.50000000000E+03  0.50000000000E+03  0.00000000000E+00 0.  1.
         11   -1    0    0    0    0 -0.00000000000E+00 -0.00000000000E+00 -0.50000000000E+03  0.50000000000E+03  0.00000000000E+00 0.  1.
         25    2    1    2    0    0 -0.53504848118E+02 -0.26670312308E+02  0.71498427886E+01  0.13874647464E+03  0.12500155856E+03 0.  0.
        -11    1    1    2    0    0  0.36470034123E+02  0.22685301012E+02  0.42579483589E+03  0.42795552168E+03  0.00000000000E+00 0.  1.
         11    1    1    2    0    0  0.17034813995E+02  0.39850112955E+01 -0.43294467867E+03  0.43329800368E+03  0.00000000000E+00 0.  1.
        -15    1    3    3    0    0 -0.37956420563E+02 -0.70371093998E+02  0.31947467301E+02  0.86119562983E+02  0.17770000000E+01 0.  1.
         15    1    3    3    0    0 -0.15548427555E+02  0.43700781690E+02 -0.24797624513E+02  0.52626911654E+02  0.17770000000E+01 0.  1.
</event>
<event>
 7    1  0.1738451E-005  0.5506675E+03  0.7546771E-02  0.9293069E-01
        -11   -1    0    0    0    0  0.00000000000E+00  0.00000000000E+00  0.50000000000E+03  0.50000000000E+03  0.00000000000E+00 0.  1.
         11   -1    0    0    0    0 -0.00000000000E+00 -0.00000000000E+00 -0.50000000000E+03  0.50000000000E+03  0.00000000000E+00 0. -1.
         25    2    1    2    0    0  0.44385660268E+02  0.64611382595E+02 -0.57587623618E+02  0.15837833802E+03  0.12499058350E+03 0.  0.
        -11    1    1    2    0    0 -0.14499726289E+02 -0.35768248757E+02  0.44767184234E+03  0.44933249171E+03  0.00000000000E+00 0.  1.
         11    1    1    2    0    0 -0.29885933980E+02 -0.28843133837E+02 -0.39008421872E+03  0.39228917027E+03  0.00000000000E+00 0. -1.
        -15    1    3    3    0    0  0.35117172652E+02  0.58989569369E+02  0.26475216472E+02  0.73600814708E+02  0.17770000000E+01 0. -1.
         15    1    3    3    0    0  0.92684876161E+01  0.56218132253E+01 -0.84062840090E+02  0.84777523316E+02  0.17770000000E+01 0. -1.
</event>
<event>
 7    1  0.1738451E-005  0.4213178E+03  0.7546771E-02  0.9595429E-01
        -11   -1    0    0    0    0  0.00000000000E+00  0.00000000000E+00  0.50000000000E+03  0.50000000000E+03  0.00000000000E+00 0.  1.
         11   -1    0    0    0    0 -0.00000000000E+00 -0.00000000000E+00 -0.50000000000E+03  0.50000000000E+03  0.00000000000E+00 0. -1.
         25    2    1    2    0    0 -0.33946555047E+01 -0.87324167725E+02  0.91899640293E+01  0.15279502478E+03  0.12499932082E+03 0.  0.
        -11    1    1    2    0    0 -0.25179391493E+02  0.30252236290E+02  0.41569432629E+03  0.41755355641E+03  0.00000000000E+00 0.  1.
         11    1    1    2    0    0  0.28574046997E+02  0.57071931435E+02 -0.42488429032E+03  0.42965141881E+03  0.00000000000E+00 0. -1.
        -15    1    3    3    0    0 -0.35398788216E+02 -0.60013215915E+02 -0.45899544880E+02  0.83454096609E+02  0.17770000000E+01 0.  1.
         15    1    3    3    0    0  0.32004132712E+02 -0.27310951809E+02  0.55089508909E+02  0.69340928175E+02  0.17770000000E+01 0.  1.
</event>
<event>
 7    1  0.1738451E-005  0.3750645E+03  0.7546771E-02  0.9733089E-01
        -11   -1    0    0    0    0  0.00000000000E+00  0.00000000000E+00  0.50000000000E+03  0.50000000000E+03  0.00000000000E+00 0.  1.
         11   -1    0    0    0    0 -0.00000000000E+00 -0.00000000000E+00 -0.50000000000E+03  0.50000000000E+03  0.00000000000E+00 0. -1.
         25    2    1    2    0    0 -0.95956029805E+02  0.12669442612E+03  0.24183314135E+03  0.31522707690E+03  0.12500321792E+03 0.  0.
        -11    1    1    2    0    0  0.61119449444E+02 -0.94149512598E+02  0.20589986176E+03  0.23450899961E+03  0.00000000000E+00 0.  1.
         11    1    1    2    0    0  0.34836580361E+02 -0.32544913525E+02 -0.44773300311E+03  0.45026392349E+03  0.00000000000E+00 0. -1.
        -15    1    3    3    0    0 -0.10303459983E+03  0.47926764920E+02  0.18751888101E+03  0.21927059088E+03  0.17770000000E+01 0.  1.
         15    1    3    3    0    0  0.70785700271E+01  0.78767661203E+02  0.54314260335E+02  0.95956486023E+02  0.17770000000E+01 0.  1.
</event>
<event>
 7    1  0.1738451E-005  0.5315134E+03  0.7546771E-02  0.9331932E-01
        -11   -1    0    0    0    0  0.00000000000E+00  0.00000000000E+00  0.50000000000E+03  0.50000000000E+03  0.00000000000E+00 0.  1.
         11   -1    0    0    0    0 -0.00000000000E+00 -0.00000000000E+00 -0.50000000000E+03  0.50000000000E+03  0.00000000000E+00 0.  1.
         25    2    1    2    0    0  0.19037582030E+02 -0.91411770048E+02 -0.14617906791E+03  0.21380478322E+03  0.12500249678E+03 0.  0.
        -11    1    1    2    0    0  0.63190001562E+02  0.10189933175E+03  0.45288320892E+03  0.46848655374E+03  0.00000000000E+00 0.  1.
         11    1    1    2    0    0 -0.82227583593E+02 -0.10487561704E+02 -0.30670414102E+03  0.31770866304E+03  0.00000000000E+00 0.  1.
        -15    1    3    3    0    0  0.72181683080E+02 -0.51137508195E+02 -0.94227117087E+02  0.12925613115E+03  0.17770000000E+01 0.  1.
         15    1    3    3    0    0 -0.53144101049E+02 -0.40274261853E+02 -0.51951950818E+02  0.84548652070E+02  0.17770000000E+01 0.  1.
</event>
<event>
 7    1  0.1738451E-005  0.4533165E+03  0.7546771E-02  0.9510789E-01
        -11   -1    0    0    0    0  0.00000000000E+00  0.00000000000E+00  0.50000000000E+03  0.50000000000E+03  0.00000000000E+00 0.  1.
         11   -1    0    0    0    0 -0.00000000000E+00 -0.00000000000E+00 -0.50000000000E+03  0.50000000000E+03  0.00000000000E+00 0. -1.
         25    2    1    2    0    0  0.25465681513E+02  0.18567717152E+03  0.42267386722E+03  0.47896000758E+03  0.12499991150E+03 0.  0.
        -11    1    1    2    0    0  0.32817816831E+02 -0.97470966989E+02 -0.20071503081E+02  0.10478770798E+03  0.00000000000E+00 0.  1.
         11    1    1    2    0    0 -0.58283498344E+02 -0.88206204529E+02 -0.40260236413E+03  0.41625228444E+03  0.00000000000E+00 0. -1.
        -15    1    3    3    0    0 -0.41361842910E+02  0.11577396714E+03  0.18263319199E+03  0.22016460674E+03  0.17770000000E+01 0. -1.
         15    1    3    3    0    0  0.66827524423E+02  0.69903204375E+02  0.24004067523E+03  0.25879540084E+03  0.17770000000E+01 0. -1.
</event>
<event>
 7    1  0.1738451E-005  0.3686639E+03  0.7546771E-02  0.9753808E-01
        -11   -1    0    0    0    0  0.00000000000E+00  0.00000000000E+00  0.50000000000E+03  0.50000000000E+03  0.00000000000E+00 0.  1.
         11   -1    0    0    0    0 -0.00000000000E+00 -0.00000000000E+00 -0.50000000000E+03  0.50000000000E+03  0.00000000000E+00 0.  1.
         25    2    1    2    0    0 -0.10953109191E+03  0.12051514989E+03  0.11637337104E+03  0.23598682657E+03  0.12500423745E+03 0.  0.
        -11    1    1    2    0    0  0.64992049760E+02 -0.45365199609E+02  0.31452048117E+03  0.32435335815E+03  0.00000000000E+00 0.  1.
         11    1    1    2    0    0  0.44539042148E+02 -0.75149950278E+02 -0.43089385221E+03  0.43965981528E+03  0.00000000000E+00 0.  1.
        -15    1    3    3    0    0  0.74400048317E+01 -0.19219424804E+02  0.23964041377E+02  0.31657115627E+02  0.17770000000E+01 0.  1.
         15    1    3    3    0    0 -0.11697109674E+03  0.13973457469E+03  0.92409329659E+02  0.20432971094E+03  0.17770000000E+01 0.  1.
</event>
<event>
 7    1  0.1738451E-005  0.4267479E+03  0.7546771E-02  0.9580512E-01
        -11   -1    0    0    0    0  0.00000000000E+00  0.00000000000E+00  0.50000000000E+03  0.50000000000E+03  0.00000000000E+00 0.  1.
         11   -1    0    0    0    0 -0.00000000000E+00 -0.00000000000E+00 -0.50000000000E+03  0.50000000000E+03  0.00000000000E+00 0. -1.
         25    2    1    2    0    0 -0.49069147608E+02  0.38491435271E+02 -0.33204299321E+02  0.14358482229E+03  0.12499881544E+03 0.  0.
        -11    1    1    2    0    0 -0.38867458752E+01 -0.43407903854E+02  0.44201562845E+03  0.44415894532E+03  0.00000000000E+00 0.  1.
         11    1    1    2    0    0  0.52955893483E+02  0.49164685834E+01 -0.40881132913E+03  0.41225623239E+03  0.00000000000E+00 0. -1.
        -15    1    3    3    0    0 -0.28181139709E+01  0.22945258218E+02 -0.75504143205E+02  0.78983922486E+02  0.17770000000E+01 0. -1.
         15    1    3    3    0    0 -0.46251033637E+02  0.15546177052E+02  0.42299843884E+02  0.64600899801E+02  0.17770000000E+01 0. -1.
</event>
<event>
 7    1  0.1738451E-005  0.5491043E+03  0.7546771E-02  0.9296178E-01
        -11   -1    0    0    0    0  0.00000000000E+00  0.00000000000E+00  0.50000000000E+03  0.50000000000E+03  0.00000000000E+00 0. -1.
         11   -1    0    0    0    0 -0.00000000000E+00 -0.00000000000E+00 -0.50000000000E+03  0.50000000000E+03  0.00000000000E+00 0. -1.
         25    2    1    2    0    0 -0.29637275492E+02 -0.95895408895E+02  0.90829294090E+02  0.18425343280E+03  0.12500027716E+03 0.  0.
        -11    1    1    2    0    0  0.13347993667E+02  0.65216720721E+02  0.35872654291E+03  0.36485082182E+03  0.00000000000E+00 0. -1.
         11    1    1    2    0    0  0.16289281825E+02  0.30678688174E+02 -0.44955583700E+03  0.45089574537E+03  0.00000000000E+00 0. -1.
        -15    1    3    3    0    0 -0.78510939815E+02 -0.53879889286E+02  0.46299502530E+02  0.10589528698E+03  0.17770000000E+01 0.  1.
         15    1    3    3    0    0  0.48873664323E+02 -0.42015519610E+02  0.44529791560E+02  0.78358145829E+02  0.17770000000E+01 0.  1.
</event>
<event>
 7    1  0.1738451E-005  0.4674597E+03  0.7546771E-02  0.9475718E-01
        -11   -1    0    0    0    0  0.00000000000E+00  0.00000000000E+00  0.50000000000E+03  0.50000000000E+03  0.00000000000E+00 0. -1.
         11   -1    0    0    0    0 -0.00000000000E+00 -0.00000000000E+00 -0.50000000000E+03  0.50000000000E+03  0.00000000000E+00 0. -1.
         25    2    1    2    0    0  0.31189404793E+02 -0.14128816089E+03 -0.38734528346E+03  0.43196890607E+03  0.12500257522E+03 0.  0.
        -11    1    1    2    0    0 -0.42007841045E+02  0.14570675320E+03  0.46520657000E+03  0.48929773085E+03  0.00000000000E+00 0. -1.
         11    1    1    2    0    0  0.10818436252E+02 -0.44185923125E+01 -0.77861286543E+02  0.78733363087E+02  0.00000000000E+00 0. -1.
        -15    1    3    3    0    0  0.38774861423E+02 -0.13102506370E+03 -0.18911890264E+03  0.23332418276E+03  0.17770000000E+01 0.  1.
         15    1    3    3    0    0 -0.75854566294E+01 -0.10263097188E+02 -0.19822638082E+03  0.19864472331E+03  0.17770000000E+01 0.  1.
</event>
<event>
 7    1  0.1738451E-005  0.5459342E+03  0.7546771E-02  0.9302515E-01
        -11   -1    0    0    0    0  0.00000000000E+00  0.00000000000E+00  0.50000000000E+03  0.50000000000E+03  0.00000000000E+00 0. -1.
         11   -1    0    0    0    0 -0.00000000000E+00 -0.00000000000E+00 -0.50000000000E+03  0.50000000000E+03  0.00000000000E+00 0. -1.
         25    2    1    2    0    0 -0.68622025926E+02  0.30283890246E+02 -0.53118101586E+02  0.15516214609E+03  0.12501064919E+03 0.  0.
        -11    1    1    2    0    0  0.80446377465E+02 -0.64391081117E+02  0.44221926671E+03  0.45406575606E+03  0.00000000000E+00 0. -1.
         11    1    1    2    0    0 -0.11824351538E+02  0.34107190870E+02 -0.38910116513E+03  0.39077209785E+03  0.00000000000E+00 0. -1.
        -15    1    3    3    0    0  0.35062123178E+02 -0.28009479411E+01 -0.30519112611E+01  0.35350667355E+02  0.17770000000E+01 0. -1.
         15    1    3    3    0    0 -0.10368414910E+03  0.33084838187E+02 -0.50066190325E+02  0.11981147873E+03  0.17770000000E+01 0. -1.
</event>
<event>
 7    1  0.1738451E-005  0.4290976E+03  0.7546771E-02  0.9574130E-01
        -11   -1    0    0    0    0  0.00000000000E+00  0.00000000000E+00  0.50000000000E+03  0.50000000000E+03  0.00000000000E+00 0.  1.
         11   -1    0    0    0    0 -0.00000000000E+00 -0.00000000000E+00 -0.50000000000E+03  0.50000000000E+03  0.00000000000E+00 0.  1.
         25    2    1    2    0    0  0.40105829415E+02  0.32872309692E+02  0.34113096278E+02  0.13956304329E+03  0.12500029367E+03 0.  0.
        -11    1    1    2    0    0  0.13895759918E+02 -0.54279439871E+02  0.40935940304E+03  0.41317607699E+03  0.00000000000E+00 0.  1.
         11    1    1    2    0    0 -0.54001589333E+02  0.21407130179E+02 -0.44347249932E+03  0.44726087972E+03  0.00000000000E+00 0.  1.
        -15    1    3    3    0    0  0.76471389260E+02  0.38484237981E+02 -0.50755299013E+01  0.85777786642E+02  0.17770000000E+01 0.  1.
         15    1    3    3    0    0 -0.36365559845E+02 -0.56119282884E+01  0.39188626179E+02  0.53785256649E+02  0.17770000000E+01 0.  1.
</event>
<event>
 7    1  0.1738451E-005  0.3589417E+03  0.7546771E-02  0.9786155E-01
        -11   -1    0    0    0    0  0.00000000000E+00  0.00000000000E+00  0.50000000000E+03  0.50000000000E+03  0.00000000000E+00 0. -1.
         11   -1    0    0    0    0 -0.00000000000E+00 -0.00000000000E+00 -0.50000000000E+03  0.50000000000E+03  0.00000000000E+00 0. -1.
         25    2    1    2    0    0  0.40289424729E+02 -0.15734207636E+03 -0.14339371194E+03  0.25013459843E+03  0.12500317584E+03 0.  0.
        -11    1    1    2    0    0 -0.27994873939E+02  0.96183760698E+02  0.43770173494E+03  0.44901874967E+03  0.00000000000E+00 0. -1.
         11    1    1    2    0    0 -0.12294550790E+02  0.61158315663E+02 -0.29430802300E+03  0.30084665190E+03  0.00000000000E+00 0. -1.
        -15    1    3    3    0    0 -0.32122269841E+02 -0.98051204314E+02 -0.10980328624E+03  0.15068443279E+03  0.17770000000E+01 0. -1.
         15    1    3    3    0    0  0.72411694570E+02 -0.59290872048E+02 -0.33590425695E+02  0.99450165641E+02  0.17770000000E+01 0. -1.
</event>
<event>
 7    1  0.1738451E-005  0.5183780E+03  0.7546771E-02  0.9359601E-01
        -11   -1    0    0    0    0  0.00000000000E+00  0.00000000000E+00  0.50000000000E+03  0.50000000000E+03  0.00000000000E+00 0. -1.
         11   -1    0    0    0    0 -0.00000000000E+00 -0.00000000000E+00 -0.50000000000E+03  0.50000000000E+03  0.00000000000E+00 0.  1.
         25    2    1    2    0    0  0.95755957809E+02  0.37453971541E+02  0.34152778248E+03  0.37793667152E+03  0.12499159185E+03 0.  0.
        -11    1    1    2    0    0 -0.33909570665E+02 -0.14225365972E+02  0.13554164503E+03  0.14044129577E+03  0.00000000000E+00 0. -1.
         11    1    1    2    0    0 -0.61846387144E+02 -0.23228605569E+02 -0.47706942751E+03  0.48162203271E+03  0.00000000000E+00 0.  1.
        -15    1    3    3    0    0  0.47667210747E+02  0.70605988100E+02  0.10996506560E+03  0.13911449212E+03  0.17770000000E+01 0. -1.
         15    1    3    3    0    0  0.48088747062E+02 -0.33152016560E+02  0.23156271688E+03  0.23882217941E+03  0.17770000000E+01 0. -1.
</event>
<event>
 7    1  0.1738451E-005  0.5138578E+03  0.7546771E-02  0.9369325E-01
        -11   -1    0    0    0    0  0.00000000000E+00  0.00000000000E+00  0.50000000000E+03  0.50000000000E+03  0.00000000000E+00 0.  1.
         11   -1    0    0    0    0 -0.00000000000E+00 -0.00000000000E+00 -0.50000000000E+03  0.50000000000E+03  0.00000000000E+00 0. -1.
         25    2    1    2    0    0  0.13816880930E+02 -0.50805749178E+02 -0.36335611506E+03  0.38784447919E+03  0.12499417321E+03 0.  0.
        -11    1    1    2    0    0 -0.63198894669E+02  0.82225378777E+02  0.47495171733E+03  0.48614220861E+03  0.00000000000E+00 0.  1.
         11    1    1    2    0    0  0.49382013739E+02 -0.31419629598E+02 -0.11159560227E+03  0.12601331220E+03  0.00000000000E+00 0. -1.
        -15    1    3    3    0    0 -0.45413375378E+02 -0.44251224824E+02 -0.26784315157E+03  0.27525198843E+03  0.17770000000E+01 0.  1.
         15    1    3    3    0    0  0.59230256308E+02 -0.65545243546E+01 -0.95512963483E+02  0.11259249075E+03  0.17770000000E+01 0.  1.
</event>
<event>
 7    1  0.1738451E-005  0.3813859E+03  0.7546771E-02  0.9713057E-01
        -11   -1    0    0    0    0  0.00000000000E+00  0.00000000000E+00  0.50000000000E+03  0.50000000000E+03  0.00000000000E+00 0.  1.
         11   -1    0    0    0    0 -0.00000000000E+00 -0.00000000000E+00 -0.50000000000E+03  0.50000000000E+03  0.00000000000E+00 0.  1.
         25    2    1    2    0    0  0.32144833396E+02  0.11485501984E+03 -0.13113082858E+03  0.21690293265E+03  0.12500648820E+03 0.  0.
        -11    1    1    2    0    0 -0.12431330022E+02  0.29687392443E+02  0.44017619971E+03  0.44135129549E+03  0.00000000000E+00 0.  1.
         11    1    1    2    0    0 -0.19713503374E+02 -0.14454241228E+03 -0.30904537114E+03  0.34174577186E+03  0.00000000000E+00 0.  1.
        -15    1    3    3    0    0  0.29248365493E+01  0.92314893944E+02 -0.13195657224E+02  0.93316008333E+02  0.17770000000E+01 0. -1.
         15    1    3    3    0    0  0.29219996847E+02  0.22540125896E+02 -0.11793517135E+03  0.12358692432E+03  0.17770000000E+01 0. -1.
</event>
<event>
 7    1  0.1738451E-005  0.3584824E+03  0.7546771E-02  0.9787711E-01
        -11   -1    0    0    0    0  0.00000000000E+00  0.00000000000E+00  0.50000000000E+03  0.50000000000E+03  0.00000000000E+00 0.  1.
         11   -1    0    0    0    0 -0.00000000000E+00 -0.00000000000E+00 -0.50000000000E+03  0.50000000000E+03  0.00000000000E+00 0.  1.
         25    2    1    2    0    0  0.14323664643E+03  0.30445518920E+03  0.67115623836E+01  0.35900405609E+03  0.12501667132E+03 0.  0.
        -11    1    1    2    0    0 -0.17217662492E+03 -0.24009962499E+03  0.24234861268E+03  0.38213279126E+03  0.00000000000E+00 0.  1.
         11    1    1    2    0    0  0.28939978482E+02 -0.64355564216E+02 -0.24906017506E+03  0.25886315265E+03  0.00000000000E+00 0.  1.
        -15    1    3    3    0    0  0.15833194444E+03  0.25236782516E+03  0.31036604467E+02  0.29954123648E+03  0.17770000000E+01 0. -1.
         15    1    3    3    0    0 -0.15095298006E+02  0.52087364039E+02 -0.24325042083E+02  0.59462819609E+02  0.17770000000E+01 0. -1.
</event>
<event>
 7    1  0.1738451E-005  0.5244987E+03  0.7546771E-02  0.9346601E-01
        -11   -1    0    0    0    0  0.00000000000E+00  0.00000000000E+00  0.50000000000E+03  0.50000000000E+03  0.00000000000E+00 0.  1.
         11   -1    0    0    0    0 -0.00000000000E+00 -0.00000000000E+00 -0.50000000000E+03  0.50000000000E+03  0.00000000000E+00 0.  1.
         25    2    1    2    0    0  0.20641646992E+02  0.22063884528E+02 -0.15551770835E+03  0.20180268335E+03  0.12500269120E+03 0.  0.
        -11    1    1    2    0    0 -0.17333347376E+02  0.27281083448E+02  0.47440148152E+03  0.47550128088E+03  0.00000000000E+00 0.  1.
         11    1    1    2    0    0 -0.33082996159E+01 -0.49344967975E+02 -0.31888377317E+03  0.32269603577E+03  0.00000000000E+00 0.  1.
        -15    1    3    3    0    0  0.36911945632E+02  0.59858842480E+02 -0.14197346028E+03  0.15844618615E+03  0.17770000000E+01 0. -1.
         15    1    3    3    0    0 -0.16270298640E+02 -0.37794957953E+02 -0.13544248069E+02  0.43356497197E+02  0.17770000000E+01 0. -1.
</event>
<event>
 7    1  0.1738451E-005  0.5208132E+03  0.7546771E-02  0.9354406E-01
        -11   -1    0    0    0    0  0.00000000000E+00  0.00000000000E+00  0.50000000000E+03  0.50000000000E+03  0.00000000000E+00 0. -1.
         11   -1    0    0    0    0 -0.00000000000E+00 -0.00000000000E+00 -0.50000000000E+03  0.50000000000E+03  0.00000000000E+00 0.  1.
         25    2    1    2    0    0  0.32659184122E+02  0.56096897907E+02 -0.18893233067E+03  0.23565548001E+03  0.12499838168E+03 0.  0.
        -11    1    1    2    0    0  0.81050533378E+01 -0.15198004459E+03  0.45437467225E+03  0.47918677843E+03  0.00000000000E+00 0. -1.
         11    1    1    2    0    0 -0.40764237460E+02  0.95883146679E+02 -0.26544234158E+03  0.28515774156E+03  0.00000000000E+00 0.  1.
        -15    1    3    3    0    0  0.17854101692E+02 -0.34679787319E+02 -0.10145938345E+03  0.10871348038E+03  0.17770000000E+01 0. -1.
         15    1    3    3    0    0  0.14805082430E+02  0.90776685225E+02 -0.87472947216E+02  0.12694199963E+03  0.17770000000E+01 0. -1.
</event>
<event>
 7    1  0.1738451E-005  0.4433076E+03  0.7546771E-02  0.9536442E-01
        -11   -1    0    0    0    0  0.00000000000E+00  0.00000000000E+00  0.50000000000E+03  0.50000000000E+03  0.00000000000E+00 0. -1.
         11   -1    0    0    0    0 -0.00000000000E+00 -0.00000000000E+00 -0.50000000000E+03  0.50000000000E+03  0.00000000000E+00 0. -1.
         25    2    1    2    0    0  0.55076338826E+02  0.94457999390E+02 -0.36356783833E+03  0.39970385415E+03  0.12500352478E+03 0.  0.
        -11    1    1    2    0    0 -0.26983329075E+02 -0.49380103630E+02  0.47422478790E+03  0.47755171881E+03  0.00000000000E+00 0. -1.
         11    1    1    2    0    0 -0.28093009751E+02 -0.45077895759E+02 -0.11065694957E+03  0.12274442705E+03  0.00000000000E+00 0. -1.
        -15    1    3    3    0    0 -0.32519788580E+02  0.66603613891E+02 -0.16322416281E+03  0.17927315217E+03  0.17770000000E+01 0.  1.
         15    1    3    3    0    0  0.87596127406E+02  0.27854385499E+02 -0.20034367551E+03  0.22043070198E+03  0.17770000000E+01 0.  1.
</event>
<event>
 7    1  0.1738451E-005  0.3111374E+03  0.7546771E-02  0.9962927E-01
        -11   -1    0    0    0    0  0.00000000000E+00  0.00000000000E+00  0.50000000000E+03  0.50000000000E+03  0.00000000000E+00 0.  1.
         11   -1    0    0    0    0 -0.00000000000E+00 -0.00000000000E+00 -0.50000000000E+03  0.50000000000E+03  0.00000000000E+00 0.  1.
         25    2    1    2    0    0 -0.15289292454E+03 -0.27619632478E+03  0.91818865075E+02  0.35173456609E+03  0.12500337915E+03 0.  0.
        -11    1    1    2    0    0  0.19963983375E+03  0.15718255004E+03  0.20409359216E+03  0.32590890079E+03  0.00000000000E+00 0.  1.
         11    1    1    2    0    0 -0.46746909208E+02  0.11901377474E+03 -0.29591245723E+03  0.32235653312E+03  0.00000000000E+00 0.  1.
        -15    1    3    3    0    0 -0.94272553496E+02 -0.16669586273E+03 -0.90384701800E+01  0.19172813217E+03  0.17770000000E+01 0.  1.
         15    1    3    3    0    0 -0.58620371045E+02 -0.10950046205E+03  0.10085733525E+03  0.16000643392E+03  0.17770000000E+01 0.  1.
</event>
<event>
 7    1  0.1738451E-005  0.5250146E+03  0.7546771E-02  0.9345514E-01
        -11   -1    0    0    0    0  0.00000000000E+00  0.00000000000E+00  0.50000000000E+03  0.50000000000E+03  0.00000000000E+00 0.  1.
         11   -1    0    0    0    0 -0.00000000000E+00 -0.00000000000E+00 -0.50000000000E+03  0.50000000000E+03  0.00000000000E+00 0. -1.
         25    2    1    2    0    0 -0.77653903729E+02 -0.17461945824E+03  0.26254670864E+03  0.34795194821E+03  0.12497079694E+03 0.  0.
        -11    1    1    2    0    0 -0.41369573104E+02  0.21024104442E+02  0.17087342456E+03  0.17706264927E+03  0.00000000000E+00 0.  1.
         11    1    1    2    0    0  0.11902347683E+03  0.15359535380E+03 -0.43342013319E+03  0.47498540252E+03  0.00000000000E+00 0. -1.
        -15    1    3    3    0    0  0.22912383489E+02  0.37265975789E+01  0.32553098689E+02  0.40021579303E+02  0.17770000000E+01 0. -1.
         15    1    3    3    0    0 -0.10056628722E+03 -0.17834605582E+03  0.22999360995E+03  0.30793036891E+03  0.17770000000E+01 0. -1.
</event>
<event>
 7    1  0.1738451E-005  0.3875995E+03  0.7546771E-02  0.9693767E-01
        -11   -1    0    0    0    0  0.00000000000E+00  0.00000000000E+00  0.50000000000E+03  0.50000000000E+03  0.00000000000E+00 0.  1.
         11   -1    0    0    0    0 -0.00000000000E+00 -0.00000000000E+00 -0.50000000000E+03  0.50000000000E+03  0.00000000000E+00 0. -1.
         25    2    1    2    0    0  0.15663647644E+03 -0.49089201146E+02 -0.20584256640E+02  0.20734507292E+03  0.12499412875E+03 0.  0.
        -11    1    1    2    0    0 -0.89053342373E+02  0.84724808675E+02  0.39336649383E+03  0.41212375503E+03  0.00000000000E+00 0.  1.
         11    1    1    2    0    0 -0.67583134066E+02 -0.35635607528E+02 -0.37278223719E+03  0.38053117205E+03  0.00000000000E+00 0. -1.
        -15    1    3    3    0    0  0.14572143429E+03 -0.84618620084E+02 -0.10767815995E+02  0.16886133621E+03  0.17770000000E+01 0.  1.
         15    1    3    3    0    0  0.10915042146E+02  0.35529418938E+02 -0.98164406443E+01  0.38483736708E+02  0.17770000000E+01 0.  1.
</event>
<event>
 7    1  0.1738451E-005  0.5299445E+03  0.7546771E-02  0.9335192E-01
        -11   -1    0    0    0    0  0.00000000000E+00  0.00000000000E+00  0.50000000000E+03  0.50000000000E+03  0.00000000000E+00 0.  1.
         11   -1    0    0    0    0 -0.00000000000E+00 -0.00000000000E+00 -0.50000000000E+03  0.50000000000E+03  0.00000000000E+00 0. -1.
         25    2    1    2    0    0  0.46176749236E+02  0.80417394000E+02 -0.15162043657E+03  0.21730875902E+03  0.12504035561E+03 0.  0.
        -11    1    1    2    0    0 -0.11522933172E+02 -0.84215387123E+02  0.46230639823E+03  0.47005554486E+03  0.00000000000E+00 0.  1.
         11    1    1    2    0    0 -0.34653816064E+02  0.37979931226E+01 -0.31068596165E+03  0.31263569612E+03  0.00000000000E+00 0. -1.
        -15    1    3    3    0    0 -0.12460691571E+02  0.87449278696E+01  0.18248196390E+02  0.23830589551E+02  0.17770000000E+01 0. -1.
         15    1    3    3    0    0  0.58637440807E+02  0.71672466131E+02 -0.16986863296E+03  0.19347816946E+03  0.17770000000E+01 0. -1.
</event>
<event>
 7    1  0.1738451E-005  0.3858297E+03  0.7546771E-02  0.9699222E-01
        -11   -1    0    0    0    0  0.00000000000E+00  0.00000000000E+00  0.50000000000E+03  0.50000000000E+03  0.00000000000E+00 0.  1.
         11   -1    0    0    0    0 -0.00000000000E+00 -0.00000000000E+00 -0.50000000000E+03  0.50000000000E+03  0.00000000000E+00 0. -1.
         25    2    1    2    0    0 -0.11281931574E+03  0.79227560659E+02 -0.97494006064E+02  0.21008318158E+03  0.12499863037E+03 0.  0.
        -11    1    1    2    0    0  0.20792762904E+02 -0.46833108533E+02  0.43529948796E+03  0.43830505730E+03  0.00000000000E+00 0.  1.
         11    1    1    2    0    0  0.92026552838E+02 -0.32394452125E+02 -0.33780548189E+03  0.35161176111E+03  0.00000000000E+00 0. -1.
        -15    1    3    3    0    0  0.67523935481E+00 -0.62937594447E+01 -0.63650569036E+02  0.63989218028E+02  0.17770000000E+01 0.  1.
         15    1    3    3    0    0 -0.11349455510E+03  0.85521320103E+02 -0.33843437027E+02  0.14609396356E+03  0.17770000000E+01 0.  1.
</event>
<event>
 7    1  0.1738451E-005  0.5212906E+03  0.7546771E-02  0.9353391E-01
        -11   -1    0    0    0    0  0.00000000000E+00  0.00000000000E+00  0.50000000000E+03  0.50000000000E+03  0.00000000000E+00 0.  1.
         11   -1    0    0    0    0 -0.00000000000E+00 -0.00000000000E+00 -0.50000000000E+03  0.50000000000E+03  0.00000000000E+00 0.  1.
         25    2    1    2    0    0 -0.73038260288E+02  0.55112145366E+02 -0.20346537927E+03  0.25572323133E+03  0.12499709777E+03 0.  0.
        -11    1    1    2    0    0  0.85041345030E+02 -0.47826039444E+02  0.46866124522E+03  0.47870943502E+03  0.00000000000E+00 0.  1.
         11    1    1    2    0    0 -0.12003084742E+02 -0.72861059227E+01 -0.26519586595E+03  0.26556733364E+03  0.00000000000E+00 0.  1.
        -15    1    3    3    0    0 -0.41627107321E+02  0.45068929256E+01  0.18368639259E+01  0.41948300870E+02  0.17770000000E+01 0. -1.
         15    1    3    3    0    0 -0.31411152966E+02  0.50605252441E+02 -0.20530224319E+03  0.21377493046E+03  0.17770000000E+01 0. -1.
</event>
<event>
 7    1  0.1738451E-005  0.3983851E+03  0.7546771E-02  0.9661184E-01
        -11   -1    0    0    0    0  0.00000000000E+00  0.00000000000E+00  0.50000000000E+03  0.50000000000E+03  0.00000000000E+00 0. -1.
         11   -1    0    0    0    0 -0.00000000000E+00 -0.00000000000E+00 -0.50000000000E+03  0.50000000000E+03  0.00000000000E+00 0. -1.
         25    2    1    2    0    0 -0.63870891418E+02 -0.12600463840E+03  0.25833898893E+02  0.19039086364E+03  0.12499852381E+03 0.  0.
        -11    1    1    2    0    0  0.13959901175E+03  0.11804292826E+03  0.36670691995E+03  0.40975112219E+03  0.00000000000E+00 0. -1.
         11    1    1    2    0    0 -0.75728120335E+02  0.79617101402E+01 -0.39254081884E+03  0.39985801417E+03  0.00000000000E+00 0. -1.
        -15    1    3    3    0    0  0.20555399817E+02 -0.42895541852E+02 -0.33182370512E+02  0.58023955520E+02  0.17770000000E+01 0.  1.
         15    1    3    3    0    0 -0.84426291235E+02 -0.83109096552E+02  0.59016269406E+02  0.13236690812E+03  0.17770000000E+01 0.  1.
</event>
<event>
 7    1  0.1738451E-005  0.5400769E+03  0.7546771E-02  0.9314346E-01
        -11   -1    0    0    0    0  0.00000000000E+00  0.00000000000E+00  0.50000000000E+03  0.50000000000E+03  0.00000000000E+00 0.  1.
         11   -1    0    0    0    0 -0.00000000000E+00 -0.00000000000E+00 -0.50000000000E+03  0.50000000000E+03  0.00000000000E+00 0.  1.
         25    2    1    2    0    0 -0.79808515048E+01 -0.24416421794E+02 -0.67555912530E+02  0.14437985303E+03  0.12498753937E+03 0.  0.
        -11    1    1    2    0    0 -0.27540015975E+02 -0.26776043191E+02  0.45831635582E+03  0.45992313594E+03  0.00000000000E+00 0.  1.
         11    1    1    2    0    0  0.35520867479E+02  0.51192464985E+02 -0.39076044329E+03  0.39569701103E+03  0.00000000000E+00 0.  1.
        -15    1    3    3    0    0 -0.17468873715E+02  0.15779423312E+02  0.30147653225E+02  0.38290866704E+02  0.17770000000E+01 0.  1.
         15    1    3    3    0    0  0.94880222104E+01 -0.40195845106E+02 -0.97703565755E+02  0.10608898633E+03  0.17770000000E+01 0.  1.
</event>
<event>
 7    1  0.1738451E-005  0.4017002E+03  0.7546771E-02  0.9651390E-01
        -11   -1    0    0    0    0  0.00000000000E+00  0.00000000000E+00  0.50000000000E+03  0.50000000000E+03  0.00000000000E+00 0.  1.
         11   -1    0    0    0    0 -0.00000000000E+00 -0.00000000000E+00 -0.50000000000E+03  0.50000000000E+03  0.00000000000E+00 0.  1.
         25    2    1    2    0    0  0.11315894194E+03  0.53099175833E+02  0.54845658409E+02  0.18508601321E+03  0.12499726966E+03 0.  0.
        -11    1    1    2    0    0 -0.26036885495E+02  0.12562323619E+02  0.37262353890E+03  0.37374327168E+03  0.00000000000E+00 0.  1.
         11    1    1    2    0    0 -0.87122056442E+02 -0.65661499451E+02 -0.42746919731E+03  0.44117071512E+03  0.00000000000E+00 0.  1.
        -15    1    3    3    0    0  0.54042400984E+02 -0.39392200363E+02  0.23637407308E+02  0.70952176195E+02  0.17770000000E+01 0. -1.
         15    1    3    3    0    0  0.59116540953E+02  0.92491376196E+02  0.31208251101E+02  0.11413383701E+03  0.17770000000E+01 0. -1.
</event>
<event>
 7    1  0.1738451E-005  0.5494992E+03  0.7546771E-02  0.9295391E-01
        -11   -1    0    0    0    0  0.00000000000E+00  0.00000000000E+00  0.50000000000E+03  0.50000000000E+03  0.00000000000E+00 0. -1.
         11   -1    0    0    0    0 -0.00000000000E+00 -0.00000000000E+00 -0.50000000000E+03  0.50000000000E+03  0.00000000000E+00 0. -1.
         25    2    1    2    0    0  0.39460885284E+02 -0.28957583380E+02 -0.47343889537E+02  0.14234777618E+03  0.12500296958E+03 0.  0.
        -11    1    1    2    0    0  0.18129072663E+02  0.10997852829E+02  0.45000148751E+03  0.45050078224E+03  0.00000000000E+00 0. -1.
         11    1    1    2    0    0 -0.57589957948E+02  0.17959730551E+02 -0.40265759797E+03  0.40715144158E+03  0.00000000000E+00 0. -1.
        -15    1    3    3    0    0  0.45945523577E+00  0.42507604714E+02 -0.43461829085E+02  0.60821015069E+02  0.17770000000E+01 0.  1.
         15    1    3    3    0    0  0.39001430049E+02 -0.71465188094E+02 -0.38820604530E+01  0.81526761112E+02  0.17770000000E+01 0.  1.
</event>
<event>
 7    1  0.1738451E-005  0.5506307E+03  0.7546771E-02  0.9293142E-01
        -11   -1    0    0    0    0  0.00000000000E+00  0.00000000000E+00  0.50000000000E+03  0.50000000000E+03  0.00000000000E+00 0.  1.
         11   -1    0    0    0    0 -0.00000000000E+00 -0.00000000000E+00 -0.50000000000E+03  0.50000000000E+03  0.00000000000E+00 0.  1.
         25    2    1    2    0    0 -0.65194707787E+02 -0.45719289111E+02 -0.58481366547E+02  0.15933270679E+03  0.12500495150E+03 0.  0.
        -11    1    1    2    0    0  0.39384352971E+02  0.12094485220E+02  0.44747664823E+03  0.44936928527E+03  0.00000000000E+00 0.  1.
         11    1    1    2    0    0  0.25810354817E+02  0.33624803891E+02 -0.38899528168E+03  0.39129800795E+03  0.00000000000E+00 0.  1.
        -15    1    3    3    0    0  0.34038116309E+02 -0.33436367756E+02 -0.24828879239E+02  0.53816493975E+02  0.17770000000E+01 0.  1.
         15    1    3    3    0    0 -0.99232824096E+02 -0.12282921355E+02 -0.33652487308E+02  0.10551621281E+03  0.17770000000E+01 0.  1.
</event>
<event>
 7    1  0.1738451E-005  0.5379975E+03  0.7546771E-02  0.9318584E-01
        -11   -1    0    0    0    0  0.00000000000E+00  0.00000000000E+00  0.50000000000E+03  0.50000000000E+03  0.00000000000E+00 0. -1.
         11   -1    0    0    0    0 -0.00000000000E+00 -0.00000000000E+00 -0.50000000000E+03  0.50000000000E+03  0.00000000000E+00 0. -1.
         25    2    1    2    0    0  0.10798475573E+02  0.40613809988E+02 -0.72011774124E+02  0.15025746225E+03  0.12500208284E+03 0.  0.
        -11    1    1    2    0    0 -0.54625531091E+02 -0.37192449306E+02  0.45725169433E+03  0.46200253127E+03  0.00000000000E+00 0. -1.
         11    1    1    2    0    0  0.43827055518E+02 -0.34213606819E+01 -0.38523992020E+03  0.38774000648E+03  0.00000000000E+00 0. -1.
        -15    1    3    3    0    0 -0.36402310189E+01 -0.39970491588E+02  0.15160391792E+01  0.40203825483E+02  0.17770000000E+01 0. -1.
         15    1    3    3    0    0  0.14438706592E+02  0.80584301576E+02 -0.73527813303E+02  0.11005363677E+03  0.17770000000E+01 0. -1.
</event>
<event>
 7    1  0.1738451E-005  0.4173899E+03  0.7546771E-02  0.9606370E-01
        -11   -1    0    0    0    0  0.00000000000E+00  0.00000000000E+00  0.50000000000E+03  0.50000000000E+03  0.00000000000E+00 0.  1.
         11   -1    0    0    0    0 -0.00000000000E+00 -0.00000000000E+00 -0.50000000000E+03  0.50000000000E+03  0.00000000000E+00 0. -1.
         25    2    1    2    0    0 -0.43728490730E+02  0.87942457591E+02  0.11495440914E+02  0.15938387133E+03  0.12500006612E+03 0.  0.
        -11    1    1    2    0    0  0.55932964933E+02 -0.32281644656E+02  0.41011690872E+03  0.41517042279E+03  0.00000000000E+00 0.  1.
         11    1    1    2    0    0 -0.12204474203E+02 -0.55660812934E+02 -0.42161234963E+03  0.42544570587E+03  0.00000000000E+00 0. -1.
        -15    1    3    3    0    0 -0.65670284839E+02  0.57487295117E+02 -0.39682156126E+02  0.95891640170E+02  0.17770000000E+01 0.  1.
         15    1    3    3    0    0  0.21941794110E+02  0.30455162474E+02  0.51177597041E+02  0.63492231162E+02  0.17770000000E+01 0.  1.
</event>
<event>
 7    1  0.1738451E-005  0.4087924E+03  0.7546771E-02  0.9630773E-01
        -11   -1    0    0    0    0  0.00000000000E+00  0.00000000000E+00  0.50000000000E+03  0.50000000000E+03  0.00000000000E+00 0.  1.
         11   -1    0    0    0    0 -0.00000000000E+00 -0.00000000000E+00 -0.50000000000E+03  0.50000000000E+03  0.00000000000E+00 0. -1.
         25    2    1    2    0    0  0.36891811187E+02 -0.13364037169E+03  0.31067483818E+03  0.36244275145E+03  0.12500055330E+03 0.  0.
        -11    1    1    2    0    0  0.25511180109E+02  0.11219959780E+03  0.14048835341E+03  0.18159445889E+03  0.00000000000E+00 0.  1.
         11    1    1    2    0    0 -0.62402991295E+02  0.21440773891E+02 -0.45116319158E+03  0.45596278965E+03  0.00000000000E+00 0. -1.
        -15    1    3    3    0    0 -0.25132746754E+02 -0.52847352356E+02  0.21449593282E+03  0.22234243980E+03  0.17770000000E+01 0. -1.
         15    1    3    3    0    0  0.62024557941E+02 -0.80793019336E+02  0.96178905359E+02  0.14010031166E+03  0.17770000000E+01 0. -1.
</event>
<event>
 7    1  0.1738451E-005  0.5192717E+03  0.7546771E-02  0.9357691E-01
        -11   -1    0    0    0    0  0.00000000000E+00  0.00000000000E+00  0.50000000000E+03  0.50000000000E+03  0.00000000000E+00 0.  1.
         11   -1    0    0    0    0 -0.00000000000E+00 -0.00000000000E+00 -0.50000000000E+03  0.50000000000E+03  0.00000000000E+00 0. -1.
         25    2    1    2    0    0 -0.11193191433E+03  0.59436530741E+01 -0.31850615436E+03  0.36004892931E+03  0.12499992269E+03 0.  0.
        -11    1    1    2    0    0  0.89460653650E+02  0.33388094182E+02  0.47114936071E+03  0.48072829486E+03  0.00000000000E+00 0.  1.
         11    1    1    2    0    0  0.22471260676E+02 -0.39331747256E+02 -0.15264320635E+03  0.15922277583E+03  0.00000000000E+00 0. -1.
        -15    1    3    3    0    0 -0.24427233637E+02 -0.15399561226E+02  0.12098926088E+00  0.28931100852E+02  0.17770000000E+01 0.  1.
         15    1    3    3    0    0 -0.87504680689E+02  0.21343214300E+02 -0.31862714362E+03  0.33111782845E+03  0.17770000000E+01 0.  1.
</event>
<event>
 7    1  0.1738451E-005  0.3808901E+03  0.7546771E-02  0.9714613E-01
        -11   -1    0    0    0    0  0.00000000000E+00  0.00000000000E+00  0.50000000000E+03  0.50000000000E+03  0.00000000000E+00 0. -1.
         11   -1    0    0    0    0 -0.00000000000E+00 -0.00000000000E+00 -0.50000000000E+03  0.50000000000E+03  0.00000000000E+00 0. -1.
         25    2    1    2    0    0  0.12259462450E+03  0.24772735698E+03 -0.25708195308E+03  0.39763691543E+03  0.12500280220E+03 0.  0.
        -11    1    1    2    0    0  0.81506467450E+02 -0.17691310084E+03  0.32239457751E+03  0.37666936841E+03  0.00000000000E+00 0. -1.
         11    1    1    2    0    0 -0.20410109195E+03 -0.70814256134E+02 -0.65312624428E+02  0.22569371617E+03  0.00000000000E+00 0. -1.
        -15    1    3    3    0    0  0.10813101992E+03  0.21412855388E+03 -0.26774710549E+03  0.35949273328E+03  0.17770000000E+01 0.  1.
         15    1    3    3    0    0  0.14463604581E+02  0.33598803099E+02  0.10665152402E+02  0.38144182150E+02  0.17770000000E+01 0.  1.
</event>
<event>
 7    1  0.1738451E-005  0.5232747E+03  0.7546771E-02  0.9349186E-01
        -11   -1    0    0    0    0  0.00000000000E+00  0.00000000000E+00  0.50000000000E+03  0.50000000000E+03  0.00000000000E+00 0. -1.
         11   -1    0    0    0    0 -0.00000000000E+00 -0.00000000000E+00 -0.50000000000E+03  0.50000000000E+03  0.00000000000E+00 0. -1.
         25    2    1    2    0    0  0.67320775796E+02  0.10118324843E+03  0.21693960516E+03  0.27831352056E+03  0.12500194726E+03 0.  0.
        -11    1    1    2    0    0 -0.10804331575E+02  0.35270377768E+01  0.24469735300E+03  0.24496115639E+03  0.00000000000E+00 0. -1.
         11    1    1    2    0    0 -0.56516444221E+02 -0.10471028621E+03 -0.46163695816E+03  0.47672532305E+03  0.00000000000E+00 0. -1.
        -15    1    3    3    0    0  0.75685814848E+02  0.12174194291E+03  0.21130098194E+03  0.25534428901E+03  0.17770000000E+01 0.  1.
         15    1    3    3    0    0 -0.83650390514E+01 -0.20558694478E+02  0.56386232223E+01  0.22969231546E+02  0.17770000000E+01 0.  1.
</event>
<event>
 7    1  0.1738451E-005  0.4668034E+03  0.7546771E-02  0.9477316E-01
        -11   -1    0    0    0    0  0.00000000000E+00  0.00000000000E+00  0.50000000000E+03  0.50000000000E+03  0.00000000000E+00 0.  1.
         11   -1    0    0    0    0 -0.00000000000E+00 -0.00000000000E+00 -0.50000000000E+03  0.50000000000E+03  0.00000000000E+00 0. -1.
         25    2    1    2    0    0 -0.15651057066E+03  0.93454145769E+02  0.37342356811E+03  0.43393491147E+03  0.12500044036E+03 0.  0.
        -11    1    1    2    0    0 -0.17521400422E+02 -0.22107274879E+02  0.74818545949E+02  0.79959651657E+02  0.00000000000E+00 0.  1.
         11    1    1    2    0    0  0.17403197108E+03 -0.71346870890E+02 -0.44824211405E+03  0.48610543687E+03  0.00000000000E+00 0. -1.
        -15    1    3    3    0    0 -0.10601739909E+03  0.70950283929E+02  0.35236786192E+03  0.37475311812E+03  0.17770000000E+01 0. -1.
         15    1    3    3    0    0 -0.50493171565E+02  0.22503861840E+02  0.21055706189E+02  0.59181793354E+02  0.17770000000E+01 0. -1.
</event>
<event>
 7    1  0.1738451E-005  0.3949355E+03  0.7546771E-02  0.9671484E-01
        -11   -1    0    0    0    0  0.00000000000E+00  0.00000000000E+00  0.50000000000E+03  0.50000000000E+03  0.00000000000E+00 0. -1.
         11   -1    0    0    0    0 -0.00000000000E+00 -0.00000000000E+00 -0.50000000000E+03  0.50000000000E+03  0.00000000000E+00 0. -1.
         25    2    1    2    0    0 -0.32836373825E+02  0.13184641600E+03 -0.65365121059E+02  0.19586654435E+03  0.12501759591E+03 0.  0.
        -11    1    1    2    0    0  0.41925495064E+02 -0.77312250961E+02  0.42818579189E+03  0.43712470035E+03  0.00000000000E+00 0. -1.
         11    1    1    2    0    0 -0.90891212391E+01 -0.54534165039E+02 -0.36282067083E+03  0.36700875529E+03  0.00000000000E+00 0. -1.
        -15    1    3    3    0    0 -0.50247443297E+02  0.29156397912E+02  0.19707732579E+02  0.61371439200E+02  0.17770000000E+01 0. -1.
         15    1    3    3    0    0  0.17411069472E+02  0.10269001809E+03 -0.85072853637E+02  0.13449510515E+03  0.17770000000E+01 0. -1.
</event>
<event>
 7    1  0.1738451E-005  0.3807499E+03  0.7546771E-02  0.9715054E-01
        -11   -1    0    0    0    0  0.00000000000E+00  0.00000000000E+00  0.50000000000E+03  0.50000000000E+03  0.00000000000E+00 0.  1.
         11   -1    0    0    0    0 -0.00000000000E+00 -0.00000000000E+00 -0.50000000000E+03  0.50000000000E+03  0.00000000000E+00 0. -1.
         25    2    1    2    0    0 -0.60305974896E+02 -0.21529973392E+03  0.23450525274E+03  0.34728805076E+03  0.12500196241E+03 0.  0.
        -11    1    1    2    0    0  0.11890135452E+02  0.13379274282E+03  0.18163752357E+03  0.22590720069E+03  0.00000000000E+00 0.  1.
         11    1    1    2    0    0  0.48415839444E+02  0.81506991097E+02 -0.41614277631E+03  0.42680474855E+03  0.00000000000E+00 0. -1.
        -15    1    3    3    0    0 -0.46682913560E+02 -0.10589714632E+03  0.37751586027E+02  0.12174497934E+03  0.17770000000E+01 0. -1.
         15    1    3    3    0    0 -0.13623061336E+02 -0.10940258759E+03  0.19675366671E+03  0.22554307142E+03  0.17770000000E+01 0. -1.
</event>
<event>
 7    1  0.1738451E-005  0.3691802E+03  0.7546771E-02  0.9752120E-01
        -11   -1    0    0    0    0  0.00000000000E+00  0.00000000000E+00  0.50000000000E+03  0.50000000000E+03  0.00000000000E+00 0.  1.
         11   -1    0    0    0    0 -0.00000000000E+00 -0.00000000000E+00 -0.50000000000E+03  0.50000000000E+03  0.00000000000E+00 0.  1.
         25    2    1    2    0    0  0.11473582124E+03  0.13501860311E+03 -0.91166217730E+02  0.23522450896E+03  0.12499983399E+03 0.  0.
        -11    1    1    2    0    0 -0.41535559467E+02 -0.15131422646E+03  0.40907760095E+03  0.43813888372E+03  0.00000000000E+00 0.  1.
         11    1    1    2    0    0 -0.73200261775E+02  0.16295623349E+02 -0.31791138322E+03  0.32663660732E+03  0.00000000000E+00 0.  1.
        -15    1    3    3    0    0  0.13629567332E+03  0.13679572289E+03 -0.91090234889E+02  0.21351854483E+03  0.17770000000E+01 0. -1.
         15    1    3    3    0    0 -0.21559852079E+02 -0.17771197749E+01 -0.75982840692E-01  0.21705964128E+02  0.17770000000E+01 0. -1.
</event>
<event>
 7    1  0.1738451E-005  0.5248659E+03  0.7546771E-02  0.9345827E-01
        -11   -1    0    0    0    0  0.00000000000E+00  0.00000000000E+00  0.50000000000E+03  0.50000000000E+03  0.00000000000E+00 0.  1.
         11   -1    0    0    0    0 -0.00000000000E+00 -0.00000000000E+00 -0.50000000000E+03  0.50000000000E+03  0.00000000000E+00 0. -1.
         25    2    1    2    0    0  0.72918516773E+00  0.46974294248E+02  0.17457095229E+03  0.21978453241E+03  0.12499242885E+03 0.  0.
        -11    1    1    2    0    0  0.15331599533E+02 -0.51758567550E+02  0.30026756141E+03  0.30508132636E+03  0.00000000000E+00 0.  1.
         11    1    1    2    0    0 -0.16060784701E+02  0.47842733014E+01 -0.47483851370E+03  0.47513414124E+03  0.00000000000E+00 0. -1.
        -15    1    3    3    0    0  0.61505443209E+01  0.76102674838E+02  0.17408304454E+03  0.19009868605E+03  0.17770000000E+01 0.  1.
         15    1    3    3    0    0 -0.54213591532E+01 -0.29128380590E+02  0.48790775099E+00  0.29685846355E+02  0.17770000000E+01 0.  1.
</event>
<event>
 7    1  0.1738451E-005  0.3930855E+03  0.7546771E-02  0.9677054E-01
        -11   -1    0    0    0    0  0.00000000000E+00  0.00000000000E+00  0.50000000000E+03  0.50000000000E+03  0.00000000000E+00 0. -1.
         11   -1    0    0    0    0 -0.00000000000E+00 -0.00000000000E+00 -0.50000000000E+03  0.50000000000E+03  0.00000000000E+00 0. -1.
         25    2    1    2    0    0 -0.13198533969E+03 -0.40618432350E+01  0.80324480252E+02  0.19877997119E+03  0.12499930542E+03 0.  0.
        -11    1    1    2    0    0  0.39117759255E+02  0.39436637021E+01  0.35445714781E+03  0.35663093137E+03  0.00000000000E+00 0. -1.
         11    1    1    2    0    0  0.92867580432E+02  0.11817953291E+00 -0.43478162806E+03  0.44458909744E+03  0.00000000000E+00 0. -1.
        -15    1    3    3    0    0 -0.15628903777E+03 -0.94677188020E+01  0.65376607932E+02  0.16968547262E+03  0.17770000000E+01 0. -1.
         15    1    3    3    0    0  0.24303698080E+02  0.54058755670E+01  0.14947872320E+02  0.29094498568E+02  0.17770000000E+01 0. -1.
</event>
<event>
 7    1  0.1738451E-005  0.5277150E+03  0.7546771E-02  0.9339845E-01
        -11   -1    0    0    0    0  0.00000000000E+00  0.00000000000E+00  0.50000000000E+03  0.50000000000E+03  0.00000000000E+00 0.  1.
         11   -1    0    0    0    0 -0.00000000000E+00 -0.00000000000E+00 -0.50000000000E+03  0.50000000000E+03  0.00000000000E+00 0. -1.
         25    2    1    2    0    0 -0.16719162704E+02  0.57237037248E+02  0.16421390806E+03  0.21481863837E+03  0.12500092381E+03 0.  0.
        -11    1    1    2    0    0 -0.31841073794E+02 -0.59340845580E+02  0.30556329617E+03  0.31289633731E+03  0.00000000000E+00 0.  1.
         11    1    1    2    0    0  0.48560236498E+02  0.21038083323E+01 -0.46977720424E+03  0.47228502432E+03  0.00000000000E+00 0. -1.
        -15    1    3    3    0    0 -0.14134467335E+02 -0.39083907388E+02  0.58328811484E+02  0.71643164096E+02  0.17770000000E+01 0.  1.
         15    1    3    3    0    0 -0.25846953690E+01  0.96320944636E+02  0.10588509658E+03  0.14317547427E+03  0.17770000000E+01 0.  1.
</event>
<event>
 7    1  0.1738451E-005  0.4209848E+03  0.7546771E-02  0.9596352E-01
        -11   -1    0    0    0    0  0.00000000000E+00  0.00000000000E+00  0.50000000000E+03  0.50000000000E+03  0.00000000000E+00 0. -1.
         11   -1    0    0    0    0 -0.00000000000E+00 -0.00000000000E+00 -0.50000000000E+03  0.50000000000E+03  0.00000000000E+00 0.  1.
         25    2    1    2    0    0  0.51133268791E+01  0.88259975221E+02  0.88156599979E+01  0.15335582821E+03  0.12499729936E+03 0.  0.
        -11    1    1    2    0    0 -0.17742008447E+02 -0.90964538304E+02  0.41368842981E+03  0.42394273558E+03  0.00000000000E+00 0. -1.
         11    1    1    2    0    0  0.12628681568E+02  0.27045630838E+01 -0.42250408981E+03  0.42270143620E+03  0.00000000000E+00 0.  1.
        -15    1    3    3    0    0  0.15146638286E+02  0.33268578607E+02  0.64674301150E+02  0.74311115805E+02  0.17770000000E+01 0. -1.
         15    1    3    3    0    0 -0.10033311407E+02  0.54991396613E+02 -0.55858641152E+02  0.79044712408E+02  0.17770000000E+01 0. -1.
</event>
<event>
 7    1  0.1738451E-005  0.5455329E+03  0.7546771E-02  0.9303321E-01
        -11   -1    0    0    0    0  0.00000000000E+00  0.00000000000E+00  0.50000000000E+03  0.50000000000E+03  0.00000000000E+00 0. -1.
         11   -1    0    0    0    0 -0.00000000000E+00 -0.00000000000E+00 -0.50000000000E+03  0.50000000000E+03  0.00000000000E+00 0.  1.
         25    2    1    2    0    0  0.73818896640E+02 -0.46077139279E+02  0.71333475757E+02  0.16817059415E+03  0.12498220557E+03 0.  0.
        -11    1    1    2    0    0 -0.41862441143E+02 -0.50313681549E+02  0.37164278260E+03  0.37736227738E+03  0.00000000000E+00 0. -1.
         11    1    1    2    0    0 -0.31956455497E+02  0.96390820828E+02 -0.44297625836E+03  0.45446712847E+03  0.00000000000E+00 0.  1.
        -15    1    3    3    0    0  0.72925882479E+02  0.24346374756E+02  0.58346806866E+02  0.96532056332E+02  0.17770000000E+01 0. -1.
         15    1    3    3    0    0  0.89301416028E+00 -0.70423514035E+02  0.12986668891E+02  0.71638537821E+02  0.17770000000E+01 0.  1.
</event>
<event>
 7    1  0.1738451E-005  0.4813776E+03  0.7546771E-02  0.9442471E-01
        -11   -1    0    0    0    0  0.00000000000E+00  0.00000000000E+00  0.50000000000E+03  0.50000000000E+03  0.00000000000E+00 0. -1.
         11   -1    0    0    0    0 -0.00000000000E+00 -0.00000000000E+00 -0.50000000000E+03  0.50000000000E+03  0.00000000000E+00 0.  1.
         25    2    1    2    0    0 -0.11828138340E+03  0.23283315145E+02 -0.43711734685E+03  0.47034656142E+03  0.12498685728E+03 0.  0.
        -11    1    1    2    0    0  0.88178495509E+02  0.51261684332E+01  0.46910112660E+03  0.47734431143E+03  0.00000000000E+00 0. -1.
         11    1    1    2    0    0  0.30102887894E+02 -0.28409483579E+02 -0.31983779748E+02  0.52309127155E+02  0.00000000000E+00 0.  1.
        -15    1    3    3    0    0 -0.11091757092E+03 -0.31828051939E+02 -0.25450480621E+03  0.27944871898E+03  0.17770000000E+01 0.  1.
         15    1    3    3    0    0 -0.73638124851E+01  0.55111367084E+02 -0.18261254065E+03  0.19089784244E+03  0.17770000000E+01 0.  1.
</event>
<event>
 7    1  0.1738451E-005  0.5304734E+03  0.7546771E-02  0.9334091E-01
        -11   -1    0    0    0    0  0.00000000000E+00  0.00000000000E+00  0.50000000000E+03  0.50000000000E+03  0.00000000000E+00 0. -1.
         11   -1    0    0    0    0 -0.00000000000E+00 -0.00000000000E+00 -0.50000000000E+03  0.50000000000E+03  0.00000000000E+00 0.  1.
         25    2    1    2    0    0 -0.57330805590E+02 -0.77260648897E+02  0.12266176093E+03  0.19981244081E+03  0.12499229884E+03 0.  0.
        -11    1    1    2    0    0 -0.45452983647E+02 -0.82952948250E+01  0.32741699970E+03  0.33066097038E+03  0.00000000000E+00 0. -1.
         11    1    1    2    0    0  0.10278378924E+03  0.85555943722E+02 -0.45007876063E+03  0.46952658881E+03  0.00000000000E+00 0.  1.
        -15    1    3    3    0    0  0.29658804197E+02 -0.26915049443E+02 -0.14271618579E+01  0.40115571451E+02  0.17770000000E+01 0. -1.
         15    1    3    3    0    0 -0.86989609786E+02 -0.50345599454E+02  0.12408892278E+03  0.15969686936E+03  0.17770000000E+01 0. -1.
</event>
<event>
 7    1  0.1738451E-005  0.5226396E+03  0.7546771E-02  0.9350530E-01
        -11   -1    0    0    0    0  0.00000000000E+00  0.00000000000E+00  0.50000000000E+03  0.50000000000E+03  0.00000000000E+00 0. -1.
         11   -1    0    0    0    0 -0.00000000000E+00 -0.00000000000E+00 -0.50000000000E+03  0.50000000000E+03  0.00000000000E+00 0.  1.
         25    2    1    2    0    0  0.12580471401E+01  0.19628273022E+02  0.15640148409E+03  0.20118161318E+03  0.12500306185E+03 0.  0.
        -11    1    1    2    0    0 -0.52005233349E+02  0.20211800519E+02  0.31657888093E+03  0.32145800507E+03  0.00000000000E+00 0. -1.
         11    1    1    2    0    0  0.50747186209E+02 -0.39840073541E+02 -0.47298036502E+03  0.47736038174E+03  0.00000000000E+00 0.  1.
        -15    1    3    3    0    0  0.83100721306E+01  0.64794570890E+02  0.41260227158E+02  0.77284913080E+02  0.17770000000E+01 0. -1.
         15    1    3    3    0    0 -0.70520249905E+01 -0.45166297868E+02  0.11514125693E+03  0.12389670010E+03  0.17770000000E+01 0. -1.
</event>
<event>
 7    1  0.1738451E-005  0.4024640E+03  0.7546771E-02  0.9649148E-01
        -11   -1    0    0    0    0  0.00000000000E+00  0.00000000000E+00  0.50000000000E+03  0.50000000000E+03  0.00000000000E+00 0.  1.
         11   -1    0    0    0    0 -0.00000000000E+00 -0.00000000000E+00 -0.50000000000E+03  0.50000000000E+03  0.00000000000E+00 0. -1.
         25    2    1    2    0    0 -0.10295822782E+03 -0.65611125303E+02 -0.57216994479E+02  0.18385786814E+03  0.12499885911E+03 0.  0.
        -11    1    1    2    0    0  0.60634260342E+02 -0.18602879992E+02  0.42845635452E+03  0.43312518791E+03  0.00000000000E+00 0.  1.
         11    1    1    2    0    0  0.42323967477E+02  0.84214005295E+02 -0.37123936004E+03  0.38301694395E+03  0.00000000000E+00 0. -1.
        -15    1    3    3    0    0 -0.12388191556E+03 -0.81449826620E+02 -0.45781875414E+02  0.15517712817E+03  0.17770000000E+01 0. -1.
         15    1    3    3    0    0  0.20923687745E+02  0.15838701317E+02 -0.11435119065E+02  0.28680739971E+02  0.17770000000E+01 0. -1.
</event>
<event>
 7    1  0.1738451E-005  0.3318001E+03  0.7546771E-02  0.9882604E-01
        -11   -1    0    0    0    0  0.00000000000E+00  0.00000000000E+00  0.50000000000E+03  0.50000000000E+03  0.00000000000E+00 0. -1.
         11   -1    0    0    0    0 -0.00000000000E+00 -0.00000000000E+00 -0.50000000000E+03  0.50000000000E+03  0.00000000000E+00 0.  1.
         25    2    1    2    0    0  0.24545926025E+03 -0.44262198655E+02  0.69988300114E+02  0.28762862023E+03  0.12498988100E+03 0.  0.
        -11    1    1    2    0    0 -0.74117850995E+02  0.27354567569E+02  0.29682573921E+03  0.30715997080E+03  0.00000000000E+00 0. -1.
         11    1    1    2    0    0 -0.17134140926E+03  0.16907631086E+02 -0.36681403932E+03  0.40521140897E+03  0.00000000000E+00 0.  1.
        -15    1    3    3    0    0  0.13931856544E+03 -0.20271894714E+02 -0.25208976087E+02  0.14303587870E+03  0.17770000000E+01 0. -1.
         15    1    3    3    0    0  0.10614069481E+03 -0.23990303941E+02  0.95197276201E+02  0.14459274153E+03  0.17770000000E+01 0. -1.
</event>
<event>
 7    1  0.1738451E-005  0.5383847E+03  0.7546771E-02  0.9317793E-01
        -11   -1    0    0    0    0  0.00000000000E+00  0.00000000000E+00  0.50000000000E+03  0.50000000000E+03  0.00000000000E+00 0. -1.
         11   -1    0    0    0    0 -0.00000000000E+00 -0.00000000000E+00 -0.50000000000E+03  0.50000000000E+03  0.00000000000E+00 0.  1.
         25    2    1    2    0    0  0.34384111614E+02 -0.11594449745E+02  0.66975133173E+02  0.14638354530E+03  0.12500310186E+03 0.  0.
        -11    1    1    2    0    0  0.49265736390E+01 -0.62867068742E+02  0.38689581116E+03  0.39200115835E+03  0.00000000000E+00 0. -1.
         11    1    1    2    0    0 -0.39310685253E+02  0.74461518487E+02 -0.45387094433E+03  0.46161529634E+03  0.00000000000E+00 0.  1.
        -15    1    3    3    0    0  0.34114563704E+02  0.59090864879E+01  0.10170465486E+03  0.10745099026E+03  0.17770000000E+01 0. -1.
         15    1    3    3    0    0  0.26954791059E+00 -0.17503536233E+02 -0.34729521683E+02  0.38932555042E+02  0.17770000000E+01 0. -1.
</event>
<event>
 7    1  0.1738451E-005  0.5260692E+03  0.7546771E-02  0.9343296E-01
        -11   -1    0    0    0    0  0.00000000000E+00  0.00000000000E+00  0.50000000000E+03  0.50000000000E+03  0.00000000000E+00 0. -1.
         11   -1    0    0    0    0 -0.00000000000E+00 -0.00000000000E+00 -0.50000000000E+03  0.50000000000E+03  0.00000000000E+00 0.  1.
         25    2    1    2    0    0 -0.12520282380E+02 -0.10315742628E+02  0.12604897748E+03  0.17825030696E+03  0.12498662005E+03 0.  0.
        -11    1    1    2    0    0  0.15478815187E+02 -0.20601489199E+02  0.34686303846E+03  0.34781889329E+03  0.00000000000E+00 0. -1.
         11    1    1    2    0    0 -0.29585328066E+01  0.30917231827E+02 -0.47291201594E+03  0.47393079976E+03  0.00000000000E+00 0.  1.
        -15    1    3    3    0    0 -0.62990207848E+02  0.21214927880E+02  0.67522174926E+02  0.94764135016E+02  0.17770000000E+01 0.  1.
         15    1    3    3    0    0  0.50469925468E+02 -0.31530670507E+02  0.58526802549E+02  0.83486171939E+02  0.17770000000E+01 0.  1.
</event>
<event>
 7    1  0.1738451E-005  0.5226579E+03  0.7546771E-02  0.9350491E-01
        -11   -1    0    0    0    0  0.00000000000E+00  0.00000000000E+00  0.50000000000E+03  0.50000000000E+03  0.00000000000E+00 0.  1.
         11   -1    0    0    0    0 -0.00000000000E+00 -0.00000000000E+00 -0.50000000000E+03  0.50000000000E+03  0.00000000000E+00 0.  1.
         25    2    1    2    0    0  0.42182267745E+02 -0.35815518022E+02 -0.21171374786E+03  0.25201189344E+03  0.12500075343E+03 0.  0.
        -11    1    1    2    0    0 -0.68181219378E+02 -0.37415061965E+02  0.47096381514E+03  0.47734210029E+03  0.00000000000E+00 0.  1.
         11    1    1    2    0    0  0.25998951633E+02  0.73230579987E+02 -0.25925006727E+03  0.27064600627E+03  0.00000000000E+00 0.  1.
        -15    1    3    3    0    0  0.43399102091E+02  0.90865709990E+01 -0.10184077727E+02  0.45529342220E+02  0.17770000000E+01 0. -1.
         15    1    3    3    0    0 -0.12168343460E+01 -0.44902089021E+02 -0.20152967014E+03  0.20648255122E+03  0.17770000000E+01 0. -1.
</event>
<event>
 7    1  0.1738451E-005  0.4148988E+03  0.7546771E-02  0.9613376E-01
        -11   -1    0    0    0    0  0.00000000000E+00  0.00000000000E+00  0.50000000000E+03  0.50000000000E+03  0.00000000000E+00 0. -1.
         11   -1    0    0    0    0 -0.00000000000E+00 -0.00000000000E+00 -0.50000000000E+03  0.50000000000E+03  0.00000000000E+00 0. -1.
         25    2    1    2    0    0 -0.92043993137E+02  0.48874867623E+02  0.16056777240E+02  0.16352957457E+03  0.12499300903E+03 0.  0.
        -11    1    1    2    0    0  0.61958576180E+02 -0.56396224329E+02  0.40535315369E+03  0.41392098097E+03  0.00000000000E+00 0. -1.
         11    1    1    2    0    0  0.30085416957E+02  0.75213567057E+01 -0.42140993093E+03  0.42254944445E+03  0.00000000000E+00 0. -1.
        -15    1    3    3    0    0 -0.72042924097E+02  0.66780760661E+02 -0.36238296124E+02  0.10471974380E+03  0.17770000000E+01 0.  1.
         15    1    3    3    0    0 -0.20001069040E+02 -0.17905893038E+02  0.52295073364E+02  0.58809830772E+02  0.17770000000E+01 0.  1.
</event>
<event>
 7    1  0.1738451E-005  0.5271111E+03  0.7546771E-02  0.9341110E-01
        -11   -1    0    0    0    0  0.00000000000E+00  0.00000000000E+00  0.50000000000E+03  0.50000000000E+03  0.00000000000E+00 0. -1.
         11   -1    0    0    0    0 -0.00000000000E+00 -0.00000000000E+00 -0.50000000000E+03  0.50000000000E+03  0.00000000000E+00 0.  1.
         25    2    1    2    0    0 -0.10568647287E+03 -0.37247519125E+02 -0.18297326820E+03  0.24831456087E+03  0.12499558405E+03 0.  0.
        -11    1    1    2    0    0  0.10638723019E+03  0.11887335137E+02  0.46061306738E+03  0.47288893973E+03  0.00000000000E+00 0. -1.
         11    1    1    2    0    0 -0.70075731364E+00  0.25360183989E+02 -0.27763979917E+03  0.27879649940E+03  0.00000000000E+00 0.  1.
        -15    1    3    3    0    0  0.28874239115E+02 -0.55221132759E+01 -0.36357139239E+02  0.46789044895E+02  0.17770000000E+01 0. -1.
         15    1    3    3    0    0 -0.13456071199E+03 -0.31725405849E+02 -0.14661612896E+03  0.20152551597E+03  0.17770000000E+01 0. -1.
</event>
<event>
 7    1  0.1738451E-005  0.5360091E+03  0.7546771E-02  0.9322656E-01
        -11   -1    0    0    0    0  0.00000000000E+00  0.00000000000E+00  0.50000000000E+03  0.50000000000E+03  0.00000000000E+00 0.  1.
         11   -1    0    0    0    0 -0.00000000000E+00 -0.00000000000E+00 -0.50000000000E+03  0.50000000000E+03  0.00000000000E+00 0. -1.
         25    2    1    2    0    0 -0.31132960548E+02  0.42654928835E+02  0.10874744401E+03  0.17389758934E+03  0.12500264322E+03 0.  0.
        -11    1    1    2    0    0  0.66407548319E+02 -0.38500710094E+02  0.35388200566E+03  0.36211150366E+03  0.00000000000E+00 0.  1.
         11    1    1    2    0    0 -0.35274587771E+02 -0.41542187414E+01 -0.46262944967E+03  0.46399090700E+03  0.00000000000E+00 0. -1.
        -15    1    3    3    0    0 -0.77819231143E+02  0.10134717708E+02  0.68503058201E+02  0.10418431720E+03  0.17770000000E+01 0. -1.
         15    1    3    3    0    0  0.46686270596E+02  0.32520211127E+02  0.40244385813E+02  0.69713272139E+02  0.17770000000E+01 0. -1.
</event>
<event>
 7    1  0.1738451E-005  0.5266283E+03  0.7546771E-02  0.9342122E-01
        -11   -1    0    0    0    0  0.00000000000E+00  0.00000000000E+00  0.50000000000E+03  0.50000000000E+03  0.00000000000E+00 0.  1.
         11   -1    0    0    0    0 -0.00000000000E+00 -0.00000000000E+00 -0.50000000000E+03  0.50000000000E+03  0.00000000000E+00 0. -1.
         25    2    1    2    0    0  0.60808536853E+02 -0.26390170522E+01 -0.14247759167E+03  0.19907136769E+03  0.12499961096E+03 0.  0.
        -11    1    1    2    0    0 -0.56670432506E+02 -0.32052557174E+01  0.46995628577E+03  0.47337165327E+03  0.00000000000E+00 0.  1.
         11    1    1    2    0    0 -0.41381043470E+01  0.58442727697E+01 -0.32747869410E+03  0.32755697904E+03  0.00000000000E+00 0. -1.
        -15    1    3    3    0    0 -0.35177124184E+02  0.11684404121E+00 -0.71313690416E+02  0.79537688476E+02  0.17770000000E+01 0. -1.
         15    1    3    3    0    0  0.95985661037E+02 -0.27558610934E+01 -0.71163901254E+02  0.11953367921E+03  0.17770000000E+01 0. -1.
</event>
<event>
 7    1  0.1738451E-005  0.5335058E+03  0.7546771E-02  0.9327809E-01
        -11   -1    0    0    0    0  0.00000000000E+00  0.00000000000E+00  0.50000000000E+03  0.50000000000E+03  0.00000000000E+00 0.  1.
         11   -1    0    0    0    0 -0.00000000000E+00 -0.00000000000E+00 -0.50000000000E+03  0.50000000000E+03  0.00000000000E+00 0. -1.
         25    2    1    2    0    0  0.80568099120E+02 -0.63755854810E+02  0.19978463923E+03  0.25709095775E+03  0.12500332342E+03 0.  0.
        -11    1    1    2    0    0 -0.69512201783E+02  0.32607481574E+02  0.26553715282E+03  0.27641485774E+03  0.00000000000E+00 0.  1.
         11    1    1    2    0    0 -0.11055897338E+02  0.31148373236E+02 -0.46532179205E+03  0.46649418451E+03  0.00000000000E+00 0. -1.
        -15    1    3    3    0    0  0.64830398362E+02  0.18918967891E+02  0.13467858816E+03  0.15067311550E+03  0.17770000000E+01 0. -1.
         15    1    3    3    0    0  0.15737700759E+02 -0.82674822701E+02  0.65106051077E+02  0.10641784225E+03  0.17770000000E+01 0. -1.
</event>
<event>
 7    1  0.1738451E-005  0.5342947E+03  0.7546771E-02  0.9326182E-01
        -11   -1    0    0    0    0  0.00000000000E+00  0.00000000000E+00  0.50000000000E+03  0.50000000000E+03  0.00000000000E+00 0.  1.
         11   -1    0    0    0    0 -0.00000000000E+00 -0.00000000000E+00 -0.50000000000E+03  0.50000000000E+03  0.00000000000E+00 0. -1.
         25    2    1    2    0    0  0.79647678976E+02  0.57204876077E+02  0.17720851662E+03  0.23800326393E+03  0.12500617852E+03 0.  0.
        -11    1    1    2    0    0 -0.37821217624E+02 -0.65189100379E+02  0.28654593565E+03  0.29629147229E+03  0.00000000000E+00 0.  1.
         11    1    1    2    0    0 -0.41826461353E+02  0.79842243014E+01 -0.46375445227E+03  0.46570526378E+03  0.00000000000E+00 0. -1.
        -15    1    3    3    0    0  0.74942482883E+02 -0.14854207251E+02  0.48804012004E+02  0.90675313787E+02  0.17770000000E+01 0. -1.
         15    1    3    3    0    0  0.47051960937E+01  0.72059083329E+02  0.12840450461E+03  0.14732795015E+03  0.17770000000E+01 0. -1.
</event>
<event>
 7    1  0.1738451E-005  0.3844771E+03  0.7546771E-02  0.9703412E-01
        -11   -1    0    0    0    0  0.00000000000E+00  0.00000000000E+00  0.50000000000E+03  0.50000000000E+03  0.00000000000E+00 0. -1.
         11   -1    0    0    0    0 -0.00000000000E+00 -0.00000000000E+00 -0.50000000000E+03  0.50000000000E+03  0.00000000000E+00 0. -1.
         25    2    1    2    0    0  0.16983643966E+02 -0.16522787611E+03  0.42442753388E+02  0.21216709334E+03  0.12499917190E+03 0.  0.
        -11    1    1    2    0    0  0.42797936825E+02  0.11072329151E+03  0.35910526892E+03  0.37821674321E+03  0.00000000000E+00 0. -1.
         11    1    1    2    0    0 -0.59781580791E+02  0.54504584593E+02 -0.40154802230E+03  0.40961616345E+03  0.00000000000E+00 0. -1.
        -15    1    3    3    0    0  0.18428816787E+02 -0.69566611865E+02  0.81565282092E+02  0.10878964908E+03  0.17770000000E+01 0.  1.
         15    1    3    3    0    0 -0.14451728208E+01 -0.95661264244E+02 -0.39122528704E+02  0.10337744426E+03  0.17770000000E+01 0.  1.
</event>
<event>
 7    1  0.1738451E-005  0.5360316E+03  0.7546771E-02  0.9322610E-01
        -11   -1    0    0    0    0  0.00000000000E+00  0.00000000000E+00  0.50000000000E+03  0.50000000000E+03  0.00000000000E+00 0. -1.
         11   -1    0    0    0    0 -0.00000000000E+00 -0.00000000000E+00 -0.50000000000E+03  0.50000000000E+03  0.00000000000E+00 0.  1.
         25    2    1    2    0    0 -0.28555594942E+01 -0.13605196710E+03 -0.26065165644E+03  0.31950374752E+03  0.12500026682E+03 0.  0.
        -11    1    1    2    0    0  0.10878145423E+03  0.86028957649E+02  0.44275529126E+03  0.46396835482E+03  0.00000000000E+00 0. -1.
         11    1    1    2    0    0 -0.10592589474E+03  0.50023009452E+02 -0.18210363481E+03  0.21652789766E+03  0.00000000000E+00 0.  1.
        -15    1    3    3    0    0  0.26588906916E+01 -0.13960644002E+03 -0.13686493300E+03  0.19553054853E+03  0.17770000000E+01 0. -1.
         15    1    3    3    0    0 -0.55144501859E+01  0.35544729206E+01 -0.12378672345E+03  0.12397319900E+03  0.17770000000E+01 0. -1.
</event>
<event>
 7    1  0.1738451E-005  0.5503971E+03  0.7546771E-02  0.9293606E-01
        -11   -1    0    0    0    0  0.00000000000E+00  0.00000000000E+00  0.50000000000E+03  0.50000000000E+03  0.00000000000E+00 0. -1.
         11   -1    0    0    0    0 -0.00000000000E+00 -0.00000000000E+00 -0.50000000000E+03  0.50000000000E+03  0.00000000000E+00 0. -1.
         25    2    1    2    0    0 -0.48625918540E+02 -0.26813066228E+02  0.41882763884E+02  0.14304398293E+03  0.12499597860E+03 0.  0.
        -11    1    1    2    0    0  0.18433212814E+02  0.16728512686E+02  0.40659184668E+03  0.40735311004E+03  0.00000000000E+00 0. -1.
         11    1    1    2    0    0  0.30192705727E+02  0.10084553543E+02 -0.44847461056E+03  0.44960290704E+03  0.00000000000E+00 0. -1.
        -15    1    3    3    0    0  0.24690562534E+02 -0.52698489301E+02  0.10416790741E+02  0.59147459043E+02  0.17770000000E+01 0.  1.
         15    1    3    3    0    0 -0.73316481075E+02  0.25885423073E+02  0.31465973143E+02  0.83896523883E+02  0.17770000000E+01 0.  1.
</event>
<event>
 7    1  0.1738451E-005  0.5382320E+03  0.7546771E-02  0.9318105E-01
        -11   -1    0    0    0    0  0.00000000000E+00  0.00000000000E+00  0.50000000000E+03  0.50000000000E+03  0.00000000000E+00 0.  1.
         11   -1    0    0    0    0 -0.00000000000E+00 -0.00000000000E+00 -0.50000000000E+03  0.50000000000E+03  0.00000000000E+00 0. -1.
         25    2    1    2    0    0 -0.39451647300E+02  0.64279813767E+02 -0.89804808053E+02  0.17137778575E+03  0.12496845588E+03 0.  0.
        -11    1    1    2    0    0  0.12432320172E+02 -0.74715300555E+02  0.45551376207E+03  0.46176804367E+03  0.00000000000E+00 0.  1.
         11    1    1    2    0    0  0.27019327128E+02  0.10435486787E+02 -0.36570895402E+03  0.36685417058E+03  0.00000000000E+00 0. -1.
        -15    1    3    3    0    0 -0.30899528093E+02  0.62108125718E+02 -0.12068484641E+03  0.13921275085E+03  0.17770000000E+01 0. -1.
         15    1    3    3    0    0 -0.85521192076E+01  0.21716880498E+01  0.30880038360E+02  0.32165034899E+02  0.17770000000E+01 0. -1.
</event>
<event>
 7    1  0.1738451E-005  0.3927490E+03  0.7546771E-02  0.9678071E-01
        -11   -1    0    0    0    0  0.00000000000E+00  0.00000000000E+00  0.50000000000E+03  0.50000000000E+03  0.00000000000E+00 0. -1.
         11   -1    0    0    0    0 -0.00000000000E+00 -0.00000000000E+00 -0.50000000000E+03  0.50000000000E+03  0.00000000000E+00 0. -1.
         25    2    1    2    0    0 -0.12544726807E+03 -0.70911914407E+02  0.57748316063E+02  0.19930817836E+03  0.12499346096E+03 0.  0.
        -11    1    1    2    0    0  0.10903398355E+03  0.14865468762E+03  0.34447044698E+03  0.39070003143E+03  0.00000000000E+00 0. -1.
         11    1    1    2    0    0  0.16413284519E+02 -0.77742773210E+02 -0.40221876304E+03  0.40999179021E+03  0.00000000000E+00 0. -1.
        -15    1    3    3    0    0 -0.28921561995E+02  0.34402490606E+02  0.29167418842E+02  0.53608620193E+02  0.17770000000E+01 0.  1.
         15    1    3    3    0    0 -0.96525706072E+02 -0.10531440501E+03  0.28580897222E+02  0.14569955817E+03  0.17770000000E+01 0.  1.
</event>
<event>
 7    1  0.1738451E-005  0.5471985E+03  0.7546771E-02  0.9299982E-01
        -11   -1    0    0    0    0  0.00000000000E+00  0.00000000000E+00  0.50000000000E+03  0.50000000000E+03  0.00000000000E+00 0. -1.
         11   -1    0    0    0    0 -0.00000000000E+00 -0.00000000000E+00 -0.50000000000E+03  0.50000000000E+03  0.00000000000E+00 0. -1.
         25    2    1    2    0    0 -0.15666265521E+03  0.88414798623E+02 -0.17422769894E+03  0.27989359354E+03  0.12499907388E+03 0.  0.
        -11    1    1    2    0    0  0.12459162039E+03 -0.34105473644E+02  0.43398498222E+03  0.45280152385E+03  0.00000000000E+00 0. -1.
         11    1    1    2    0    0  0.32071034814E+02 -0.54309324979E+02 -0.25975728328E+03  0.26730488262E+03  0.00000000000E+00 0. -1.
        -15    1    3    3    0    0 -0.90710351366E+02  0.63778801576E+02 -0.17760513499E+03  0.20938683119E+03  0.17770000000E+01 0.  1.
         15    1    3    3    0    0 -0.65952303842E+02  0.24635997047E+02  0.33774360410E+01  0.70506762341E+02  0.17770000000E+01 0.  1.
</event>
<event>
 6    1  0.1738451E-005  0.5260002E+03  0.7546771E-02  0.9343441E-01
        -11   -1    0    0    0    0  0.00000000000E+00  0.00000000000E+00  0.50000000000E+03  0.50000000000E+03  0.00000000000E+00 0.  1.
         11   -1    0    0    0    0 -0.00000000000E+00 -0.00000000000E+00 -0.50000000000E+03  0.50000000000E+03  0.00000000000E+00 0.  1.
        -11    1    1    2    0    0 -0.20634791111E+02  0.36113044816E+02  0.16933831438E+03  0.17437147510E+03  0.00000000000E+00 0.  1.
         11    1    1    2    0    0 -0.12892751892E+03  0.26155717572E+02 -0.45537824471E+03  0.47399975997E+03  0.00000000000E+00 0.  1.
        -15    1    1    2    0    0  0.16706724725E+03 -0.71783645331E+02  0.27201218832E+03  0.32719741009E+03  0.17770000000E+01 0. -1.
         15    1    1    2    0    0 -0.17504937222E+02  0.95148829426E+01  0.14027742007E+02  0.24431354841E+02  0.17770000000E+01 0. -1.
</event>
<event>
 7    1  0.1738451E-005  0.5452446E+03  0.7546771E-02  0.9303900E-01
        -11   -1    0    0    0    0  0.00000000000E+00  0.00000000000E+00  0.50000000000E+03  0.50000000000E+03  0.00000000000E+00 0. -1.
         11   -1    0    0    0    0 -0.00000000000E+00 -0.00000000000E+00 -0.50000000000E+03  0.50000000000E+03  0.00000000000E+00 0. -1.
         25    2    1    2    0    0  0.13100126016E+03  0.68958215640E+02 -0.17629367967E+03  0.26195587741E+03  0.12499941821E+03 0.  0.
        -11    1    1    2    0    0 -0.68485850126E+02 -0.24053157242E+02  0.44892499363E+03  0.45475544630E+03  0.00000000000E+00 0. -1.
         11    1    1    2    0    0 -0.62515410030E+02 -0.44905058398E+02 -0.27263131396E+03  0.28328867628E+03  0.00000000000E+00 0. -1.
        -15    1    3    3    0    0  0.51806589689E+02  0.91698523897E+02 -0.13038256785E+03  0.16761656765E+03  0.17770000000E+01 0.  1.
         15    1    3    3    0    0  0.79194670466E+02 -0.22740308257E+02 -0.45911111814E+02  0.94339309765E+02  0.17770000000E+01 0.  1.
</event>
<event>
 7    1  0.1738451E-005  0.5303848E+03  0.7546771E-02  0.9334276E-01
        -11   -1    0    0    0    0  0.00000000000E+00  0.00000000000E+00  0.50000000000E+03  0.50000000000E+03  0.00000000000E+00 0.  1.
         11   -1    0    0    0    0 -0.00000000000E+00 -0.00000000000E+00 -0.50000000000E+03  0.50000000000E+03  0.00000000000E+00 0. -1.
         25    2    1    2    0    0 -0.44042268707E+01  0.50957754870E+02  0.11867963607E+03  0.17979529586E+03  0.12500160960E+03 0.  0.
        -11    1    1    2    0    0 -0.10402035575E+02 -0.21485219032E+02  0.34977589750E+03  0.35058949707E+03  0.00000000000E+00 0.  1.
         11    1    1    2    0    0  0.14806262446E+02 -0.29472535838E+02 -0.46845553357E+03  0.46961520707E+03  0.00000000000E+00 0. -1.
        -15    1    3    3    0    0 -0.12718077494E+02  0.38291514194E+02 -0.16594471268E+02  0.43663757970E+02  0.17770000000E+01 0. -1.
         15    1    3    3    0    0  0.83138506231E+01  0.12666240676E+02  0.13527410733E+03  0.13613153789E+03  0.17770000000E+01 0. -1.
</event>
<event>
 7    1  0.1738451E-005  0.5233816E+03  0.7546771E-02  0.9348960E-01
        -11   -1    0    0    0    0  0.00000000000E+00  0.00000000000E+00  0.50000000000E+03  0.50000000000E+03  0.00000000000E+00 0.  1.
         11   -1    0    0    0    0 -0.00000000000E+00 -0.00000000000E+00 -0.50000000000E+03  0.50000000000E+03  0.00000000000E+00 0.  1.
         25    2    1    2    0    0  0.19943845411E+02 -0.18406501584E+02  0.15830049803E+03  0.20352462996E+03  0.12500668403E+03 0.  0.
        -11    1    1    2    0    0  0.10807903387E+02  0.43952615196E+02  0.31663830040E+03  0.31985693121E+03  0.00000000000E+00 0.  1.
         11    1    1    2    0    0 -0.30751748798E+02 -0.25546113612E+02 -0.47493879844E+03  0.47661843883E+03  0.00000000000E+00 0.  1.
        -15    1    3    3    0    0  0.47951115951E+02 -0.54850456186E+02  0.57859845821E+02  0.93052681596E+02  0.17770000000E+01 0. -1.
         15    1    3    3    0    0 -0.28007270540E+02  0.36443954601E+02  0.10044065221E+03  0.11047194837E+03  0.17770000000E+01 0. -1.
</event>
<event>
 7    1  0.1738451E-005  0.5222133E+03  0.7546771E-02  0.9351433E-01
        -11   -1    0    0    0    0  0.00000000000E+00  0.00000000000E+00  0.50000000000E+03  0.50000000000E+03  0.00000000000E+00 0.  1.
         11   -1    0    0    0    0 -0.00000000000E+00 -0.00000000000E+00 -0.50000000000E+03  0.50000000000E+03  0.00000000000E+00 0. -1.
         25    2    1    2    0    0 -0.45604748633E+01 -0.34485584104E+02  0.19263093240E+03  0.23225340593E+03  0.12499966003E+03 0.  0.
        -11    1    1    2    0    0  0.82525493429E+02  0.61605731826E+01  0.27789988739E+03  0.28995992333E+03  0.00000000000E+00 0.  1.
         11    1    1    2    0    0 -0.77965018565E+02  0.28325010921E+02 -0.47053081979E+03  0.47778667074E+03  0.00000000000E+00 0. -1.
        -15    1    3    3    0    0 -0.25497728552E+02  0.14884625078E+02  0.17238644962E+03  0.17490549439E+03  0.17770000000E+01 0. -1.
         15    1    3    3    0    0  0.20937253689E+02 -0.49370209181E+02  0.20244482777E+02  0.57347911545E+02  0.17770000000E+01 0. -1.
</event>
<event>
 7    1  0.1738451E-005  0.3351239E+03  0.7546771E-02  0.9870270E-01
        -11   -1    0    0    0    0  0.00000000000E+00  0.00000000000E+00  0.50000000000E+03  0.50000000000E+03  0.00000000000E+00 0.  1.
         11   -1    0    0    0    0 -0.00000000000E+00 -0.00000000000E+00 -0.50000000000E+03  0.50000000000E+03  0.00000000000E+00 0. -1.
         25    2    1    2    0    0  0.20412549762E+03 -0.27083113756E+03  0.39959275585E+02  0.36364536458E+03  0.12499793447E+03 0.  0.
        -11    1    1    2    0    0 -0.11970423119E+03  0.22284211187E+03  0.23467926566E+03  0.34505371686E+03  0.00000000000E+00 0.  1.
         11    1    1    2    0    0 -0.84421266438E+02  0.47989025687E+02 -0.27463854125E+03  0.29130091856E+03  0.00000000000E+00 0. -1.
        -15    1    3    3    0    0  0.21708485478E+03 -0.24410114221E+03  0.53372883529E+02  0.33100305773E+03  0.17770000000E+01 0.  1.
         15    1    3    3    0    0 -0.12959357154E+02 -0.26729995349E+02 -0.13413607945E+02  0.32642306847E+02  0.17770000000E+01 0.  1.
</event>
<event>
 7    1  0.1738451E-005  0.3506799E+03  0.7546771E-02  0.9814519E-01
        -11   -1    0    0    0    0  0.00000000000E+00  0.00000000000E+00  0.50000000000E+03  0.50000000000E+03  0.00000000000E+00 0. -1.
         11   -1    0    0    0    0 -0.00000000000E+00 -0.00000000000E+00 -0.50000000000E+03  0.50000000000E+03  0.00000000000E+00 0. -1.
         25    2    1    2    0    0  0.23424570417E+03  0.74767027768E+02  0.13279452066E+03  0.30614309121E+03  0.12501219626E+03 0.  0.
        -11    1    1    2    0    0 -0.76371187932E+02 -0.26045120012E+02  0.25759862079E+03  0.26994065284E+03  0.00000000000E+00 0. -1.
         11    1    1    2    0    0 -0.15787451624E+03 -0.48721907756E+02 -0.39039314145E+03  0.42391625595E+03  0.00000000000E+00 0. -1.
        -15    1    3    3    0    0  0.22801625634E+03  0.87318225503E+02  0.88602536132E+02  0.25974882636E+03  0.17770000000E+01 0.  1.
         15    1    3    3    0    0  0.62294478315E+01 -0.12551197735E+02  0.44191984528E+02  0.46394264844E+02  0.17770000000E+01 0.  1.
</event>
<event>
 7    1  0.1738451E-005  0.4184530E+03  0.7546771E-02  0.9603396E-01
        -11   -1    0    0    0    0  0.00000000000E+00  0.00000000000E+00  0.50000000000E+03  0.50000000000E+03  0.00000000000E+00 0. -1.
         11   -1    0    0    0    0 -0.00000000000E+00 -0.00000000000E+00 -0.50000000000E+03  0.50000000000E+03  0.00000000000E+00 0.  1.
         25    2    1    2    0    0 -0.10063911276E+02 -0.91088567799E+02 -0.28554437565E+02  0.15760742179E+03  0.12500533591E+03 0.  0.
        -11    1    1    2    0    0  0.28608558750E+02  0.55997547928E+02  0.43222512682E+03  0.43677538308E+03  0.00000000000E+00 0. -1.
         11    1    1    2    0    0 -0.18544647474E+02  0.35091019871E+02 -0.40367068925E+03  0.40561719513E+03  0.00000000000E+00 0.  1.
        -15    1    3    3    0    0 -0.53650913489E+02 -0.95096265236E+02 -0.88081004797E+01  0.10955574172E+03  0.17770000000E+01 0. -1.
         15    1    3    3    0    0  0.43587002214E+02  0.40076974365E+01 -0.19746337086E+02  0.48051680075E+02  0.17770000000E+01 0. -1.
</event>
<event>
 7    1  0.1738451E-005  0.3739422E+03  0.7546771E-02  0.9736690E-01
        -11   -1    0    0    0    0  0.00000000000E+00  0.00000000000E+00  0.50000000000E+03  0.50000000000E+03  0.00000000000E+00 0.  1.
         11   -1    0    0    0    0 -0.00000000000E+00 -0.00000000000E+00 -0.50000000000E+03  0.50000000000E+03  0.00000000000E+00 0. -1.
         25    2    1    2    0    0  0.21523627798E+02  0.17358730263E+03 -0.76371347183E+02  0.22814543994E+03  0.12498776304E+03 0.  0.
        -11    1    1    2    0    0  0.17686418103E+01 -0.11345363717E+03  0.41341165903E+03  0.42870042653E+03  0.00000000000E+00 0.  1.
         11    1    1    2    0    0 -0.23292269608E+02 -0.60133665453E+02 -0.33704031185E+03  0.34315413353E+03  0.00000000000E+00 0. -1.
        -15    1    3    3    0    0  0.58088591611E+02  0.14662316299E+03 -0.88813229190E+02  0.18100713745E+03  0.17770000000E+01 0. -1.
         15    1    3    3    0    0 -0.36564963813E+02  0.26964139638E+02  0.12441882007E+02  0.47138302493E+02  0.17770000000E+01 0. -1.
</event>
<event>
 7    1  0.1738451E-005  0.5503179E+03  0.7546771E-02  0.9293763E-01
        -11   -1    0    0    0    0  0.00000000000E+00  0.00000000000E+00  0.50000000000E+03  0.50000000000E+03  0.00000000000E+00 0.  1.
         11   -1    0    0    0    0 -0.00000000000E+00 -0.00000000000E+00 -0.50000000000E+03  0.50000000000E+03  0.00000000000E+00 0.  1.
         25    2    1    2    0    0  0.13135641560E+03 -0.32136384494E+02  0.14932922969E+03  0.23708976967E+03  0.12500033967E+03 0.  0.
        -11    1    1    2    0    0 -0.91356872828E+02  0.25511714988E+02  0.29852130019E+03  0.31322817957E+03  0.00000000000E+00 0.  1.
         11    1    1    2    0    0 -0.39999542767E+02  0.66246695064E+01 -0.44785052987E+03  0.44968205076E+03  0.00000000000E+00 0.  1.
        -15    1    3    3    0    0  0.61313236457E+02 -0.72663013050E+02  0.45439066348E+02  0.10539019361E+03  0.17770000000E+01 0.  1.
         15    1    3    3    0    0  0.70043179138E+02  0.40526628556E+02  0.10389016334E+03  0.13169957606E+03  0.17770000000E+01 0.  1.
</event>
<event>
 7    1  0.1738451E-005  0.5368742E+03  0.7546771E-02  0.9320882E-01
        -11   -1    0    0    0    0  0.00000000000E+00  0.00000000000E+00  0.50000000000E+03  0.50000000000E+03  0.00000000000E+00 0.  1.
         11   -1    0    0    0    0 -0.00000000000E+00 -0.00000000000E+00 -0.50000000000E+03  0.50000000000E+03  0.00000000000E+00 0. -1.
         25    2    1    2    0    0 -0.17062803658E+01 -0.10477147215E+03 -0.19198459013E+03  0.25191654374E+03  0.12499555749E+03 0.  0.
        -11    1    1    2    0    0 -0.77952875451E+01  0.16520078100E+02  0.46276543395E+03  0.46312582129E+03  0.00000000000E+00 0.  1.
         11    1    1    2    0    0  0.95015679109E+01  0.88251394052E+02 -0.27078084382E+03  0.28495763496E+03  0.00000000000E+00 0. -1.
        -15    1    3    3    0    0 -0.21648168058E+01  0.24751921298E+02 -0.66180215816E+01  0.25774017506E+02  0.17770000000E+01 0.  1.
         15    1    3    3    0    0  0.45853644002E+00 -0.12952339345E+03 -0.18536656855E+03  0.22614252624E+03  0.17770000000E+01 0.  1.
</event>
<event>
 7    1  0.1738451E-005  0.5373914E+03  0.7546771E-02  0.9319823E-01
        -11   -1    0    0    0    0  0.00000000000E+00  0.00000000000E+00  0.50000000000E+03  0.50000000000E+03  0.00000000000E+00 0.  1.
         11   -1    0    0    0    0 -0.00000000000E+00 -0.00000000000E+00 -0.50000000000E+03  0.50000000000E+03  0.00000000000E+00 0. -1.
         25    2    1    2    0    0 -0.11976567690E+02  0.11525652657E+03  0.17317416544E+03  0.24298494648E+03  0.12499955021E+03 0.  0.
        -11    1    1    2    0    0  0.24675478326E+02 -0.63683069408E+02  0.28637520074E+03  0.29440646759E+03  0.00000000000E+00 0.  1.
         11    1    1    2    0    0 -0.12698910636E+02 -0.51573457157E+02 -0.45954936618E+03  0.46260858592E+03  0.00000000000E+00 0. -1.
        -15    1    3    3    0    0 -0.46202790074E+02  0.26887297084E+02  0.10195824261E+02  0.54449399597E+02  0.17770000000E+01 0.  1.
         15    1    3    3    0    0  0.34226222384E+02  0.88369229482E+02  0.16297834118E+03  0.18853554689E+03  0.17770000000E+01 0.  1.
</event>
<event>
 7    1  0.1738451E-005  0.3650162E+03  0.7546771E-02  0.9765818E-01
        -11   -1    0    0    0    0  0.00000000000E+00  0.00000000000E+00  0.50000000000E+03  0.50000000000E+03  0.00000000000E+00 0.  1.
         11   -1    0    0    0    0 -0.00000000000E+00 -0.00000000000E+00 -0.50000000000E+03  0.50000000000E+03  0.00000000000E+00 0. -1.
         25    2    1    2    0    0  0.15417135575E+03 -0.99621133788E+02 -0.94481012438E+02  0.24133850816E+03  0.12499774630E+03 0.  0.
        -11    1    1    2    0    0 -0.14915608534E+03 -0.98768438610E+02  0.37474217961E+03  0.41525226482E+03  0.00000000000E+00 0.  1.
         11    1    1    2    0    0 -0.50152704128E+01  0.19838957240E+03 -0.28026116717E+03  0.34340922701E+03  0.00000000000E+00 0. -1.
        -15    1    3    3    0    0  0.16717444184E+03 -0.71352966048E+02 -0.52786493921E+02  0.18928315149E+03  0.17770000000E+01 0. -1.
         15    1    3    3    0    0 -0.13003086088E+02 -0.28268167740E+02 -0.41694518516E+02  0.52055356674E+02  0.17770000000E+01 0. -1.
</event>
<event>
 7    1  0.1738451E-005  0.4672120E+03  0.7546771E-02  0.9476320E-01
        -11   -1    0    0    0    0  0.00000000000E+00  0.00000000000E+00  0.50000000000E+03  0.50000000000E+03  0.00000000000E+00 0.  1.
         11   -1    0    0    0    0 -0.00000000000E+00 -0.00000000000E+00 -0.50000000000E+03  0.50000000000E+03  0.00000000000E+00 0. -1.
         25    2    1    2    0    0  0.20776552007E+02  0.46137732203E+02  0.40956329188E+03  0.43119406262E+03  0.12500349650E+03 0.  0.
        -11    1    1    2    0    0 -0.16402848731E+02  0.11490306232E+02  0.76622834175E+02  0.79196838958E+02  0.00000000000E+00 0.  1.
         11    1    1    2    0    0 -0.43737032761E+01 -0.57628038435E+02 -0.48618612605E+03  0.48960909843E+03  0.00000000000E+00 0. -1.
        -15    1    3    3    0    0 -0.36789915402E+02  0.62322626808E+02  0.26574703670E+03  0.27543103117E+03  0.17770000000E+01 0.  1.
         15    1    3    3    0    0  0.57566467409E+02 -0.16184894604E+02  0.14381625517E+03  0.15576303144E+03  0.17770000000E+01 0.  1.
</event>
<event>
 7    1  0.1738451E-005  0.5425195E+03  0.7546771E-02  0.9309393E-01
        -11   -1    0    0    0    0  0.00000000000E+00  0.00000000000E+00  0.50000000000E+03  0.50000000000E+03  0.00000000000E+00 0. -1.
         11   -1    0    0    0    0 -0.00000000000E+00 -0.00000000000E+00 -0.50000000000E+03  0.50000000000E+03  0.00000000000E+00 0.  1.
         25    2    1    2    0    0  0.72415961345E+01 -0.24293269497E+02 -0.48708093094E+02  0.13653223541E+03  0.12500387721E+03 0.  0.
        -11    1    1    2    0    0 -0.34603967210E+02  0.60256441534E+02  0.45217264200E+03  0.45748046020E+03  0.00000000000E+00 0. -1.
         11    1    1    2    0    0  0.27362371075E+02 -0.35963172037E+02 -0.40346454891E+03  0.40598730438E+03  0.00000000000E+00 0.  1.
        -15    1    3    3    0    0 -0.21921185886E+02 -0.23499534407E+01  0.37142362264E+02  0.43229312687E+02  0.17770000000E+01 0.  1.
         15    1    3    3    0    0  0.29162782021E+02 -0.21943316056E+02 -0.85850455359E+02  0.93302922725E+02  0.17770000000E+01 0.  1.
</event>
<event>
 7    1  0.1738451E-005  0.5396736E+03  0.7546771E-02  0.9315166E-01
        -11   -1    0    0    0    0  0.00000000000E+00  0.00000000000E+00  0.50000000000E+03  0.50000000000E+03  0.00000000000E+00 0. -1.
         11   -1    0    0    0    0 -0.00000000000E+00 -0.00000000000E+00 -0.50000000000E+03  0.50000000000E+03  0.00000000000E+00 0. -1.
         25    2    1    2    0    0 -0.64873989979E+02 -0.90789814507E+01  0.89679053684E+02  0.16720240206E+03  0.12499299223E+03 0.  0.
        -11    1    1    2    0    0  0.44008281811E+02 -0.13806616879E+02  0.36960440626E+03  0.37247116488E+03  0.00000000000E+00 0. -1.
         11    1    1    2    0    0  0.20865708168E+02  0.22885598329E+02 -0.45928345995E+03  0.46032643306E+03  0.00000000000E+00 0. -1.
        -15    1    3    3    0    0 -0.37340757075E+02 -0.86323048175E+01 -0.27251467364E+02  0.47060057670E+02  0.17770000000E+01 0. -1.
         15    1    3    3    0    0 -0.27533232904E+02 -0.44667663313E+00  0.11693052105E+03  0.12014234439E+03  0.17770000000E+01 0. -1.
</event>
<event>
 7    1  0.1738451E-005  0.4107240E+03  0.7546771E-02  0.9625235E-01
        -11   -1    0    0    0    0  0.00000000000E+00  0.00000000000E+00  0.50000000000E+03  0.50000000000E+03  0.00000000000E+00 0. -1.
         11   -1    0    0    0    0 -0.00000000000E+00 -0.00000000000E+00 -0.50000000000E+03  0.50000000000E+03  0.00000000000E+00 0. -1.
         25    2    1    2    0    0  0.93482055582E+02 -0.55812677696E+01  0.68176474228E+02  0.17042494585E+03  0.12500634089E+03 0.  0.
        -11    1    1    2    0    0 -0.10134596555E+03  0.44818204912E+02  0.37170787295E+03  0.38787423096E+03  0.00000000000E+00 0. -1.
         11    1    1    2    0    0  0.78639099687E+01 -0.39236937143E+02 -0.43988434718E+03  0.44170082320E+03  0.00000000000E+00 0. -1.
        -15    1    3    3    0    0  0.89683515490E+02 -0.14759579172E+02  0.10111698435E+03  0.13597345469E+03  0.17770000000E+01 0.  1.
         15    1    3    3    0    0  0.37985400916E+01  0.91783114023E+01 -0.32940510118E+02  0.34451491156E+02  0.17770000000E+01 0.  1.
</event>
<event>
 7    1  0.1738451E-005  0.5305475E+03  0.7546771E-02  0.9333938E-01
        -11   -1    0    0    0    0  0.00000000000E+00  0.00000000000E+00  0.50000000000E+03  0.50000000000E+03  0.00000000000E+00 0.  1.
         11   -1    0    0    0    0 -0.00000000000E+00 -0.00000000000E+00 -0.50000000000E+03  0.50000000000E+03  0.00000000000E+00 0.  1.
         25    2    1    2    0    0 -0.44428460321E+02  0.59376054806E+02  0.13669806033E+03  0.19952514498E+03  0.12499807922E+03 0.  0.
        -11    1    1    2    0    0  0.78708469028E+01 -0.24452459892E+02  0.33002409277E+03  0.33102231773E+03  0.00000000000E+00 0.  1.
         11    1    1    2    0    0  0.36557613418E+02 -0.34923594915E+02 -0.46672215310E+03  0.46945253730E+03  0.00000000000E+00 0.  1.
        -15    1    3    3    0    0 -0.28404077583E+02  0.98506078043E+02  0.10397881853E+03  0.14603078945E+03  0.17770000000E+01 0. -1.
         15    1    3    3    0    0 -0.16024382738E+02 -0.39130023237E+02  0.32719241799E+02  0.53494355529E+02  0.17770000000E+01 0. -1.
</event>
<event>
 7    1  0.1738451E-005  0.3776168E+03  0.7546771E-02  0.9724951E-01
        -11   -1    0    0    0    0  0.00000000000E+00  0.00000000000E+00  0.50000000000E+03  0.50000000000E+03  0.00000000000E+00 0.  1.
         11   -1    0    0    0    0 -0.00000000000E+00 -0.00000000000E+00 -0.50000000000E+03  0.50000000000E+03  0.00000000000E+00 0. -1.
         25    2    1    2    0    0 -0.15179581963E+03  0.17292023155E+03  0.19383086509E+03  0.32578919065E+03  0.12499926060E+03 0.  0.
        -11    1    1    2    0    0  0.42544770072E+02 -0.55689267567E+02  0.21975857372E+03  0.23066248656E+03  0.00000000000E+00 0.  1.
         11    1    1    2    0    0  0.10925104955E+03 -0.11723096398E+03 -0.41358943881E+03  0.44354832278E+03  0.00000000000E+00 0. -1.
        -15    1    3    3    0    0 -0.11347083934E+02  0.77552804732E+01  0.79457715689E+02  0.80657219148E+02  0.17770000000E+01 0.  1.
         15    1    3    3    0    0 -0.14044873569E+03  0.16516495108E+03  0.11437314940E+03  0.24513197151E+03  0.17770000000E+01 0.  1.
</event>
<event>
 7    1  0.1738451E-005  0.5281205E+03  0.7546771E-02  0.9338997E-01
        -11   -1    0    0    0    0  0.00000000000E+00  0.00000000000E+00  0.50000000000E+03  0.50000000000E+03  0.00000000000E+00 0.  1.
         11   -1    0    0    0    0 -0.00000000000E+00 -0.00000000000E+00 -0.50000000000E+03  0.50000000000E+03  0.00000000000E+00 0. -1.
         25    2    1    2    0    0  0.14016768885E+02  0.46946166703E+02  0.16905275825E+03  0.21588070337E+03  0.12500092255E+03 0.  0.
        -11    1    1    2    0    0 -0.26913071109E+02 -0.75452861126E+02  0.30178836057E+03  0.31223975119E+03  0.00000000000E+00 0.  1.
         11    1    1    2    0    0  0.12896302224E+02  0.28506694423E+02 -0.47084111882E+03  0.47187954544E+03  0.00000000000E+00 0. -1.
        -15    1    3    3    0    0 -0.48087738722E+02  0.68948500115E+01  0.11331258095E+03  0.12329991201E+03  0.17770000000E+01 0. -1.
         15    1    3    3    0    0  0.62104507607E+02  0.40051316691E+02  0.55740177296E+02  0.92580791354E+02  0.17770000000E+01 0. -1.
</event>
<event>
 7    1  0.1738451E-005  0.4084618E+03  0.7546771E-02  0.9631724E-01
        -11   -1    0    0    0    0  0.00000000000E+00  0.00000000000E+00  0.50000000000E+03  0.50000000000E+03  0.00000000000E+00 0.  1.
         11   -1    0    0    0    0 -0.00000000000E+00 -0.00000000000E+00 -0.50000000000E+03  0.50000000000E+03  0.00000000000E+00 0. -1.
         25    2    1    2    0    0  0.98996174873E+02 -0.28951484119E+02 -0.63707738875E+02  0.17412997315E+03  0.12499656190E+03 0.  0.
        -11    1    1    2    0    0 -0.15392451482E+02  0.35382283070E+02  0.43932052239E+03  0.44101174010E+03  0.00000000000E+00 0.  1.
         11    1    1    2    0    0 -0.83603723391E+02 -0.64307989513E+01 -0.37561278351E+03  0.38485828675E+03  0.00000000000E+00 0. -1.
        -15    1    3    3    0    0  0.77285776921E+02 -0.68555914155E+02 -0.98130450566E+01  0.10379045362E+03  0.17770000000E+01 0.  1.
         15    1    3    3    0    0  0.21710397952E+02  0.39604430036E+02 -0.53894693819E+02  0.70339519536E+02  0.17770000000E+01 0.  1.
</event>
<event>
 7    1  0.1738451E-005  0.5503093E+03  0.7546771E-02  0.9293781E-01
        -11   -1    0    0    0    0  0.00000000000E+00  0.00000000000E+00  0.50000000000E+03  0.50000000000E+03  0.00000000000E+00 0.  1.
         11   -1    0    0    0    0 -0.00000000000E+00 -0.00000000000E+00 -0.50000000000E+03  0.50000000000E+03  0.00000000000E+00 0.  1.
         25    2    1    2    0    0 -0.81843951805E+02  0.23958522375E+02 -0.78902693889E+02  0.17065148323E+03  0.12499540145E+03 0.  0.
        -11    1    1    2    0    0  0.19760395106E+02  0.45579718262E+02  0.44693818543E+03  0.44969069984E+03  0.00000000000E+00 0.  1.
         11    1    1    2    0    0  0.62083556699E+02 -0.69538240636E+02 -0.36803549154E+03  0.37965781693E+03  0.00000000000E+00 0.  1.
        -15    1    3    3    0    0 -0.86250732537E+02  0.57219369015E+02 -0.23970784757E+02  0.10625912339E+03  0.17770000000E+01 0.  1.
         15    1    3    3    0    0  0.44067807322E+01 -0.33260846640E+02 -0.54931909131E+02  0.64392359838E+02  0.17770000000E+01 0.  1.
</event>
<event>
 7    1  0.1738451E-005  0.5244977E+03  0.7546771E-02  0.9346603E-01
        -11   -1    0    0    0    0  0.00000000000E+00  0.00000000000E+00  0.50000000000E+03  0.50000000000E+03  0.00000000000E+00 0.  1.
         11   -1    0    0    0    0 -0.00000000000E+00 -0.00000000000E+00 -0.50000000000E+03  0.50000000000E+03  0.00000000000E+00 0. -1.
         25    2    1    2    0    0 -0.37540655435E+02 -0.45275926515E+02  0.18086401955E+03  0.22758462492E+03  0.12499503029E+03 0.  0.
        -11    1    1    2    0    0  0.16072161655E+02  0.37547651850E+02  0.29409051982E+03  0.29691307548E+03  0.00000000000E+00 0.  1.
         11    1    1    2    0    0  0.21468493780E+02  0.77282746644E+01 -0.47495453938E+03  0.47550229960E+03  0.00000000000E+00 0. -1.
        -15    1    3    3    0    0 -0.50676081111E+02  0.18212855993E+02  0.14222786870E+03  0.15209108351E+03  0.17770000000E+01 0. -1.
         15    1    3    3    0    0  0.13135425677E+02 -0.63488782508E+02  0.38636150853E+02  0.75493541405E+02  0.17770000000E+01 0. -1.
</event>
<event>
 7    1  0.1738451E-005  0.5237779E+03  0.7546771E-02  0.9348122E-01
        -11   -1    0    0    0    0  0.00000000000E+00  0.00000000000E+00  0.50000000000E+03  0.50000000000E+03  0.00000000000E+00 0.  1.
         11   -1    0    0    0    0 -0.00000000000E+00 -0.00000000000E+00 -0.50000000000E+03  0.50000000000E+03  0.00000000000E+00 0. -1.
         25    2    1    2    0    0  0.12735150297E+03 -0.41656950528E+02 -0.27281105141E+03  0.32863793767E+03  0.12499326971E+03 0.  0.
        -11    1    1    2    0    0 -0.95563426496E+02  0.34919019338E+02  0.46522657008E+03  0.47622207834E+03  0.00000000000E+00 0.  1.
         11    1    1    2    0    0 -0.31788076471E+02  0.67379311895E+01 -0.19241551867E+03  0.19513998398E+03  0.00000000000E+00 0. -1.
        -15    1    3    3    0    0  0.13127943394E+03  0.84197187676E+01 -0.17817718132E+03  0.22148464306E+03  0.17770000000E+01 0. -1.
         15    1    3    3    0    0 -0.39279309742E+01 -0.50076669295E+02 -0.94633870091E+02  0.10715329461E+03  0.17770000000E+01 0. -1.
</event>
<event>
 7    1  0.1738451E-005  0.5323658E+03  0.7546771E-02  0.9330166E-01
        -11   -1    0    0    0    0  0.00000000000E+00  0.00000000000E+00  0.50000000000E+03  0.50000000000E+03  0.00000000000E+00 0.  1.
         11   -1    0    0    0    0 -0.00000000000E+00 -0.00000000000E+00 -0.50000000000E+03  0.50000000000E+03  0.00000000000E+00 0. -1.
         25    2    1    2    0    0 -0.16795409148E+02  0.16544690483E+02 -0.94815121374E+02  0.15865270799E+03  0.12499984784E+03 0.  0.
        -11    1    1    2    0    0 -0.83880127951E+01 -0.57789489157E+01  0.46752326382E+03  0.46763421306E+03  0.00000000000E+00 0.  1.
         11    1    1    2    0    0  0.25183421943E+02 -0.10765741567E+02 -0.37270814245E+03  0.37371307895E+03  0.00000000000E+00 0. -1.
        -15    1    3    3    0    0 -0.66824221133E+00 -0.14812819568E+02 -0.11634509476E+03  0.11729963758E+03  0.17770000000E+01 0.  1.
         15    1    3    3    0    0 -0.16127166936E+02  0.31357510051E+02  0.21529973388E+02  0.41353070419E+02  0.17770000000E+01 0.  1.
</event>
<event>
 7    1  0.1738451E-005  0.3706701E+03  0.7546771E-02  0.9747266E-01
        -11   -1    0    0    0    0  0.00000000000E+00  0.00000000000E+00  0.50000000000E+03  0.50000000000E+03  0.00000000000E+00 0.  1.
         11   -1    0    0    0    0 -0.00000000000E+00 -0.00000000000E+00 -0.50000000000E+03  0.50000000000E+03  0.00000000000E+00 0.  1.
         25    2    1    2    0    0 -0.42915594073E+02 -0.17321431559E+03  0.82634270450E+02  0.23301972829E+03  0.12499929513E+03 0.  0.
        -11    1    1    2    0    0  0.24674863632E+02  0.10309738972E+03  0.33073542530E+03  0.34730943295E+03  0.00000000000E+00 0.  1.
         11    1    1    2    0    0  0.18240730441E+02  0.70116925863E+02 -0.41336969575E+03  0.41967083876E+03  0.00000000000E+00 0.  1.
        -15    1    3    3    0    0 -0.57748142072E+02 -0.79057402387E+02 -0.12047478707E+02  0.98657084171E+02  0.17770000000E+01 0. -1.
         15    1    3    3    0    0  0.14832547999E+02 -0.94156913199E+02  0.94681749156E+02  0.13436264412E+03  0.17770000000E+01 0. -1.
</event>
<event>
 7    1  0.1738451E-005  0.5118619E+03  0.7546771E-02  0.9373652E-01
        -11   -1    0    0    0    0  0.00000000000E+00  0.00000000000E+00  0.50000000000E+03  0.50000000000E+03  0.00000000000E+00 0.  1.
         11   -1    0    0    0    0 -0.00000000000E+00 -0.00000000000E+00 -0.50000000000E+03  0.50000000000E+03  0.00000000000E+00 0.  1.
         25    2    1    2    0    0  0.82751419121E+02  0.27020805109E+02 -0.30574846314E+03  0.34158969744E+03  0.12499390950E+03 0.  0.
        -11    1    1    2    0    0 -0.12322770332E+03 -0.42910598782E+02  0.47037474696E+03  0.48813808388E+03  0.00000000000E+00 0.  1.
         11    1    1    2    0    0  0.40476284201E+02  0.15889793673E+02 -0.16462628383E+03  0.17027221868E+03  0.00000000000E+00 0.  1.
        -15    1    3    3    0    0  0.11350178675E+03  0.94415843416E+01 -0.20141766716E+03  0.23139583722E+03  0.17770000000E+01 0. -1.
         15    1    3    3    0    0 -0.30750367630E+02  0.17579220767E+02 -0.10433079598E+03  0.11019386022E+03  0.17770000000E+01 0. -1.
</event>
<event>
 7    1  0.1738451E-005  0.5164705E+03  0.7546771E-02  0.9363692E-01
        -11   -1    0    0    0    0  0.00000000000E+00  0.00000000000E+00  0.50000000000E+03  0.50000000000E+03  0.00000000000E+00 0.  1.
         11   -1    0    0    0    0 -0.00000000000E+00 -0.00000000000E+00 -0.50000000000E+03  0.50000000000E+03  0.00000000000E+00 0.  1.
         25    2    1    2    0    0 -0.17757199446E+02  0.29756604119E+02  0.22741302112E+03  0.26180611924E+03  0.12499995311E+03 0.  0.
        -11    1    1    2    0    0  0.14544947750E+02  0.23702191446E+02  0.25314146216E+03  0.25466438551E+03  0.00000000000E+00 0.  1.
         11    1    1    2    0    0  0.32122516953E+01 -0.53458795565E+02 -0.48055448327E+03  0.48352949525E+03  0.00000000000E+00 0.  1.
        -15    1    3    3    0    0 -0.68240663649E+02  0.17706218094E+02  0.17182232063E+03  0.18573197337E+03  0.17770000000E+01 0. -1.
         15    1    3    3    0    0  0.50483464203E+02  0.12050386024E+02  0.55590700484E+02  0.76074145875E+02  0.17770000000E+01 0. -1.
</event>
<event>
 7    1  0.1738451E-005  0.5380400E+03  0.7546771E-02  0.9318497E-01
        -11   -1    0    0    0    0  0.00000000000E+00  0.00000000000E+00  0.50000000000E+03  0.50000000000E+03  0.00000000000E+00 0.  1.
         11   -1    0    0    0    0 -0.00000000000E+00 -0.00000000000E+00 -0.50000000000E+03  0.50000000000E+03  0.00000000000E+00 0.  1.
         25    2    1    2    0    0  0.58926087600E+02  0.38669790603E+02  0.10157435115E+03  0.17580634938E+03  0.12499154838E+03 0.  0.
        -11    1    1    2    0    0 -0.41975406289E+02 -0.15141675662E+02  0.35947462160E+03  0.36223363821E+03  0.00000000000E+00 0.  1.
         11    1    1    2    0    0 -0.16950681311E+02 -0.23528114941E+02 -0.46104897275E+03  0.46196001241E+03  0.00000000000E+00 0.  1.
        -15    1    3    3    0    0  0.45247694261E+02  0.73736257286E+02  0.24369846560E+02  0.89896810983E+02  0.17770000000E+01 0.  1.
         15    1    3    3    0    0  0.13678393340E+02 -0.35066466683E+02  0.77204504591E+02  0.85909538400E+02  0.17770000000E+01 0.  1.
</event>
<event>
 7    1  0.1738451E-005  0.5146715E+03  0.7546771E-02  0.9367567E-01
        -11   -1    0    0    0    0  0.00000000000E+00  0.00000000000E+00  0.50000000000E+03  0.50000000000E+03  0.00000000000E+00 0.  1.
         11   -1    0    0    0    0 -0.00000000000E+00 -0.00000000000E+00 -0.50000000000E+03  0.50000000000E+03  0.00000000000E+00 0.  1.
         25    2    1    2    0    0 -0.98901124461E+01  0.61724891830E+02  0.31586847608E+03  0.34540679032E+03  0.12500072009E+03 0.  0.
        -11    1    1    2    0    0  0.30131740570E+01 -0.22089682153E+02  0.16779003096E+03  0.16926466780E+03  0.00000000000E+00 0.  1.
         11    1    1    2    0    0  0.68769383891E+01 -0.39635209677E+02 -0.48365850704E+03  0.48532854188E+03  0.00000000000E+00 0.  1.
        -15    1    3    3    0    0 -0.20684327743E+02  0.91083333345E+02  0.15080269304E+03  0.17739398238E+03  0.17770000000E+01 0. -1.
         15    1    3    3    0    0  0.10794215296E+02 -0.29358441515E+02  0.16506578304E+03  0.16801280794E+03  0.17770000000E+01 0. -1.
</event>
<event>
 7    1  0.1738451E-005  0.4046763E+03  0.7546771E-02  0.9642684E-01
        -11   -1    0    0    0    0  0.00000000000E+00  0.00000000000E+00  0.50000000000E+03  0.50000000000E+03  0.00000000000E+00 0.  1.
         11   -1    0    0    0    0 -0.00000000000E+00 -0.00000000000E+00 -0.50000000000E+03  0.50000000000E+03  0.00000000000E+00 0. -1.
         25    2    1    2    0    0  0.79450462915E+02  0.91178786093E+02  0.47454769339E+02  0.18028692105E+03  0.12500188670E+03 0.  0.
        -11    1    1    2    0    0 -0.58553507925E+02  0.13120864926E+02  0.37719755293E+03  0.38194065549E+03  0.00000000000E+00 0.  1.
         11    1    1    2    0    0 -0.20896954990E+02 -0.10429965102E+03 -0.42465232226E+03  0.43777242345E+03  0.00000000000E+00 0. -1.
        -15    1    3    3    0    0  0.98853001105E+02  0.10495184858E+03  0.56371306320E+02  0.15481501301E+03  0.17770000000E+01 0.  1.
         15    1    3    3    0    0 -0.19402538190E+02 -0.13773062489E+02 -0.89165369813E+01  0.25471908042E+02  0.17770000000E+01 0.  1.
</event>
<event>
 7    1  0.1738451E-005  0.3799835E+03  0.7546771E-02  0.9717465E-01
        -11   -1    0    0    0    0  0.00000000000E+00  0.00000000000E+00  0.50000000000E+03  0.50000000000E+03  0.00000000000E+00 0.  1.
         11   -1    0    0    0    0 -0.00000000000E+00 -0.00000000000E+00 -0.50000000000E+03  0.50000000000E+03  0.00000000000E+00 0.  1.
         25    2    1    2    0    0  0.31873140664E+01 -0.12043438320E+03 -0.13355806374E+03  0.21903772165E+03  0.12500066994E+03 0.  0.
        -11    1    1    2    0    0  0.33840108308E+02  0.22266162083E+01  0.44474043666E+03  0.44603157596E+03  0.00000000000E+00 0.  1.
         11    1    1    2    0    0 -0.37027422375E+02  0.11820776700E+03 -0.31118237293E+03  0.33493070239E+03  0.00000000000E+00 0.  1.
        -15    1    3    3    0    0 -0.28021666261E+02 -0.44984978822E+02  0.99164610473E+01  0.53947715692E+02  0.17770000000E+01 0. -1.
         15    1    3    3    0    0  0.31208980328E+02 -0.75449404382E+02 -0.14347452478E+03  0.16509000595E+03  0.17770000000E+01 0. -1.
</event>
<event>
 7    1  0.1738451E-005  0.5467638E+03  0.7546771E-02  0.9300852E-01
        -11   -1    0    0    0    0  0.00000000000E+00  0.00000000000E+00  0.50000000000E+03  0.50000000000E+03  0.00000000000E+00 0. -1.
         11   -1    0    0    0    0 -0.00000000000E+00 -0.00000000000E+00 -0.50000000000E+03  0.50000000000E+03  0.00000000000E+00 0. -1.
         25    2    1    2    0    0 -0.10911369634E+03  0.53005030385E+02  0.95224508680E+02  0.19851409786E+03  0.12499923207E+03 0.  0.
        -11    1    1    2    0    0  0.39162995736E+02  0.30822400553E+02  0.34466517250E+03  0.34824968305E+03  0.00000000000E+00 0. -1.
         11    1    1    2    0    0  0.69950700607E+02 -0.83827430938E+02 -0.43988968118E+03  0.45323621909E+03  0.00000000000E+00 0. -1.
        -15    1    3    3    0    0 -0.24269626321E+02  0.13041437414E+02 -0.30831988865E+02  0.41386750512E+02  0.17770000000E+01 0.  1.
         15    1    3    3    0    0 -0.84844070022E+02  0.39963592971E+02  0.12605649754E+03  0.15712734734E+03  0.17770000000E+01 0.  1.
</event>
<event>
 6    1  0.1738451E-005  0.5222594E+03  0.7546771E-02  0.9351335E-01
        -11   -1    0    0    0    0  0.00000000000E+00  0.00000000000E+00  0.50000000000E+03  0.50000000000E+03  0.00000000000E+00 0. -1.
         11   -1    0    0    0    0 -0.00000000000E+00 -0.00000000000E+00 -0.50000000000E+03  0.50000000000E+03  0.00000000000E+00 0.  1.
        -11    1    1    2    0    0 -0.17732733791E+02 -0.64763203569E+02  0.11374891639E+03  0.13208913038E+03  0.00000000000E+00 0. -1.
         11    1    1    2    0    0 -0.58691504840E+02  0.17646207965E+02 -0.47379316223E+03  0.47774055927E+03  0.00000000000E+00 0.  1.
        -15    1    1    2    0    0  0.42244693869E+02 -0.19241442972E+02  0.26631892249E+03  0.27034010707E+03  0.17770000000E+01 0. -1.
         15    1    1    2    0    0  0.34179544762E+02  0.66358438576E+02  0.93725323353E+02  0.11983020328E+03  0.17770000000E+01 0.  1.
</event>
<event>
 7    1  0.1738451E-005  0.5338042E+03  0.7546771E-02  0.9327193E-01
        -11   -1    0    0    0    0  0.00000000000E+00  0.00000000000E+00  0.50000000000E+03  0.50000000000E+03  0.00000000000E+00 0. -1.
         11   -1    0    0    0    0 -0.00000000000E+00 -0.00000000000E+00 -0.50000000000E+03  0.50000000000E+03  0.00000000000E+00 0.  1.
         25    2    1    2    0    0  0.15948936145E+02 -0.78725028470E+02  0.25337036898E+03  0.29372259333E+03  0.12499767711E+03 0.  0.
        -11    1    1    2    0    0  0.84775429247E+02  0.99578731039E+02  0.20133644204E+03  0.24008156941E+03  0.00000000000E+00 0. -1.
         11    1    1    2    0    0 -0.10072436539E+03 -0.20853702569E+02 -0.45470681102E+03  0.46619583726E+03  0.00000000000E+00 0.  1.
        -15    1    3    3    0    0  0.64586277955E+01 -0.54743688326E+02  0.26100375373E+03  0.26676713155E+03  0.17770000000E+01 0. -1.
         15    1    3    3    0    0  0.94903083493E+01 -0.23981340143E+02 -0.76333847548E+01  0.26955461774E+02  0.17770000000E+01 0. -1.
</event>
<event>
 7    1  0.1738451E-005  0.5317367E+03  0.7546771E-02  0.9331469E-01
        -11   -1    0    0    0    0  0.00000000000E+00  0.00000000000E+00  0.50000000000E+03  0.50000000000E+03  0.00000000000E+00 0.  1.
         11   -1    0    0    0    0 -0.00000000000E+00 -0.00000000000E+00 -0.50000000000E+03  0.50000000000E+03  0.00000000000E+00 0. -1.
         25    2    1    2    0    0  0.15739805983E+02 -0.73391697525E+02 -0.15419162204E+03  0.21221039098E+03  0.12499644386E+03 0.  0.
        -11    1    1    2    0    0 -0.29579187892E+02  0.10717338809E+02  0.46720518304E+03  0.46826325157E+03  0.00000000000E+00 0.  1.
         11    1    1    2    0    0  0.13839381909E+02  0.62674358716E+02 -0.31301356101E+03  0.31952635745E+03  0.00000000000E+00 0. -1.
        -15    1    3    3    0    0 -0.21608312544E+02 -0.16734938823E+02 -0.14026512909E+03  0.14291410538E+03  0.17770000000E+01 0. -1.
         15    1    3    3    0    0  0.37348118527E+02 -0.56656758702E+02 -0.13926492949E+02  0.69296285608E+02  0.17770000000E+01 0. -1.
</event>
