<event>
 7    1  0.3091307E-006  0.1592157E+03  0.7546771E-02  0.1088666E+00
        -11   -1    0    0    0    0  0.00000000000E+00  0.00000000000E+00  0.18250000000E+03  0.18250000000E+03  0.00000000000E+00 0.  1.
         11   -1    0    0    0    0 -0.00000000000E+00 -0.00000000000E+00 -0.18250000000E+03  0.18250000000E+03  0.00000000000E+00 0.  1.
         25    2    1    2    0    0  0.14654542349E+02 -0.21734429651E+02 -0.48367688027E+02  0.13654655012E+03  0.12497354144E+03 0.  0.
        -11    1    1    2    0    0  0.10059153215E+02  0.13556705735E+02  0.13599630383E+03  0.13704001419E+03  0.00000000000E+00 0.  1.
         11    1    1    2    0    0 -0.24713695563E+02  0.81777239158E+01 -0.87628615805E+02  0.91413435691E+02  0.00000000000E+00 0.  1.
        -15    1    3    3    0    0 -0.14518396307E+02  0.21829382341E+02 -0.73733738762E+02  0.78275971572E+02  0.17770000000E+01 0.  1.
         15    1    3    3    0    0  0.29172938656E+02 -0.43563811992E+02  0.25366050735E+02  0.58270578545E+02  0.17770000000E+01 0.  1.
</event>
<event>
 7    1  0.3091307E-006  0.1761823E+03  0.7546771E-02  0.1073598E+00
        -11   -1    0    0    0    0  0.00000000000E+00  0.00000000000E+00  0.18250000000E+03  0.18250000000E+03  0.00000000000E+00 0. -1.
         11   -1    0    0    0    0 -0.00000000000E+00 -0.00000000000E+00 -0.18250000000E+03  0.18250000000E+03  0.00000000000E+00 0.  1.
         25    2    1    2    0    0  0.74923831364E+01  0.31927264144E+02 -0.88340179447E+02  0.15653546904E+03  0.12499551897E+03 0.  0.
        -11    1    1    2    0    0 -0.27065588407E+02 -0.30346648707E+02  0.14390090600E+03  0.14953573456E+03  0.00000000000E+00 0. -1.
         11    1    1    2    0    0  0.19573205271E+02 -0.15806154371E+01 -0.55560726554E+02  0.58928796398E+02  0.00000000000E+00 0.  1.
        -15    1    3    3    0    0  0.54328263217E+01  0.29987458758E+02 -0.12044694889E+03  0.12425533595E+03  0.17770000000E+01 0. -1.
         15    1    3    3    0    0  0.20595568147E+01  0.19398053859E+01  0.32106769446E+02  0.32280133092E+02  0.17770000000E+01 0. -1.
</event>
<event>
 7    1  0.3091307E-006  0.1654913E+03  0.7546771E-02  0.1082862E+00
        -11   -1    0    0    0    0  0.00000000000E+00  0.00000000000E+00  0.18250000000E+03  0.18250000000E+03  0.00000000000E+00 0.  1.
         11   -1    0    0    0    0 -0.00000000000E+00 -0.00000000000E+00 -0.18250000000E+03  0.18250000000E+03  0.00000000000E+00 0. -1.
         25    2    1    2    0    0 -0.42476312011E+02 -0.31053639687E+01  0.58340729936E+02  0.14436694014E+03  0.12499716904E+03 0.  0.
        -11    1    1    2    0    0  0.92251855037E+01 -0.19248268741E+02  0.76782825159E+02  0.79694429771E+02  0.00000000000E+00 0.  1.
         11    1    1    2    0    0  0.33251126507E+02  0.22353632710E+02 -0.13512355509E+03  0.14093863009E+03  0.00000000000E+00 0. -1.
        -15    1    3    3    0    0  0.39788220276E+02  0.56170607254E+01 -0.44886200711E+01  0.40471709663E+02  0.17770000000E+01 0. -1.
         15    1    3    3    0    0 -0.82264532287E+02 -0.87224246942E+01  0.62829350007E+02  0.10389523048E+03  0.17770000000E+01 0. -1.
</event>
<event>
 7    1  0.3091307E-006  0.1624230E+03  0.7546771E-02  0.1085664E+00
        -11   -1    0    0    0    0  0.00000000000E+00  0.00000000000E+00  0.18250000000E+03  0.18250000000E+03  0.00000000000E+00 0.  1.
         11   -1    0    0    0    0 -0.00000000000E+00 -0.00000000000E+00 -0.18250000000E+03  0.18250000000E+03  0.00000000000E+00 0.  1.
         25    2    1    2    0    0 -0.51729656824E+01  0.71371355754E+02  0.25386800006E+02  0.14625590624E+03  0.12500268196E+03 0.  0.
        -11    1    1    2    0    0  0.42103560793E+02  0.96602899361E+01  0.73759164994E+02  0.85477748296E+02  0.00000000000E+00 0.  1.
         11    1    1    2    0    0 -0.36930595111E+02 -0.81031645690E+02 -0.99145965000E+02  0.13326634547E+03  0.00000000000E+00 0.  1.
        -15    1    3    3    0    0 -0.25017168627E+02  0.31941552400E+02  0.71605194783E+02  0.82320004523E+02  0.17770000000E+01 0.  1.
         15    1    3    3    0    0  0.19844202945E+02  0.39429803354E+02 -0.46218394777E+02  0.63935901713E+02  0.17770000000E+01 0.  1.
</event>
<event>
 7    1  0.3091307E-006  0.1540911E+03  0.7546771E-02  0.1093626E+00
        -11   -1    0    0    0    0  0.00000000000E+00  0.00000000000E+00  0.18250000000E+03  0.18250000000E+03  0.00000000000E+00 0. -1.
         11   -1    0    0    0    0 -0.00000000000E+00 -0.00000000000E+00 -0.18250000000E+03  0.18250000000E+03  0.00000000000E+00 0. -1.
         25    2    1    2    0    0 -0.58184909208E+02 -0.70612034381E+02  0.19500681998E+02  0.15613203855E+03  0.12500157520E+03 0.  0.
        -11    1    1    2    0    0  0.28213690147E+02  0.50769992499E+02  0.82400089872E+02  0.10081358669E+03  0.00000000000E+00 0. -1.
         11    1    1    2    0    0  0.29971219062E+02  0.19842041882E+02 -0.10190077187E+03  0.10805437477E+03  0.00000000000E+00 0. -1.
        -15    1    3    3    0    0 -0.89082307037E+02 -0.13779157318E+02  0.96647255444E+01  0.90675725817E+02  0.17770000000E+01 0. -1.
         15    1    3    3    0    0  0.30897397829E+02 -0.56832877063E+02  0.98359564539E+01  0.65456312730E+02  0.17770000000E+01 0. -1.
</event>
<event>
 7    1  0.3091307E-006  0.1470898E+03  0.7546771E-02  0.1100758E+00
        -11   -1    0    0    0    0  0.00000000000E+00  0.00000000000E+00  0.18250000000E+03  0.18250000000E+03  0.00000000000E+00 0.  1.
         11   -1    0    0    0    0 -0.00000000000E+00 -0.00000000000E+00 -0.18250000000E+03  0.18250000000E+03  0.00000000000E+00 0.  1.
         25    2    1    2    0    0  0.98889129490E+01  0.12208656258E+02 -0.30451122054E+02  0.12960890329E+03  0.12499742034E+03 0.  0.
        -11    1    1    2    0    0  0.35635665648E+02  0.70962196843E+02  0.92629088310E+02  0.12200689345E+03  0.00000000000E+00 0.  1.
         11    1    1    2    0    0 -0.45524578597E+02 -0.83170853101E+02 -0.62177966256E+02  0.11338420326E+03  0.00000000000E+00 0.  1.
        -15    1    3    3    0    0 -0.54110668352E+02  0.40727476100E+01  0.73910978881E+01  0.54793592322E+02  0.17770000000E+01 0.  1.
         15    1    3    3    0    0  0.63999581301E+02  0.81359086479E+01 -0.37842219942E+02  0.74815310969E+02  0.17770000000E+01 0.  1.
</event>
<event>
 7    1  0.3091307E-006  0.1654152E+03  0.7546771E-02  0.1082931E+00
        -11   -1    0    0    0    0  0.00000000000E+00  0.00000000000E+00  0.18250000000E+03  0.18250000000E+03  0.00000000000E+00 0.  1.
         11   -1    0    0    0    0 -0.00000000000E+00 -0.00000000000E+00 -0.18250000000E+03  0.18250000000E+03  0.00000000000E+00 0. -1.
         25    2    1    2    0    0  0.54062728859E+02  0.74206049046E+02 -0.66662899062E+02  0.16881089870E+03  0.12499544408E+03 0.  0.
        -11    1    1    2    0    0  0.24913539253E+00 -0.35711908044E+02  0.11073556153E+03  0.11635191030E+03  0.00000000000E+00 0.  1.
         11    1    1    2    0    0 -0.54311864252E+02 -0.38494141003E+02 -0.44072662465E+02  0.79837191000E+02  0.00000000000E+00 0. -1.
        -15    1    3    3    0    0  0.45491656460E+02  0.53344807208E+02 -0.10383256680E+03  0.12529772113E+03  0.17770000000E+01 0.  1.
         15    1    3    3    0    0  0.85710723989E+01  0.20861241838E+02  0.37169667737E+02  0.43513177565E+02  0.17770000000E+01 0.  1.
</event>
<event>
 7    1  0.3091307E-006  0.1561685E+03  0.7546771E-02  0.1091590E+00
        -11   -1    0    0    0    0  0.00000000000E+00  0.00000000000E+00  0.18250000000E+03  0.18250000000E+03  0.00000000000E+00 0.  1.
         11   -1    0    0    0    0 -0.00000000000E+00 -0.00000000000E+00 -0.18250000000E+03  0.18250000000E+03  0.00000000000E+00 0. -1.
         25    2    1    2    0    0 -0.84949249307E+02  0.36512290553E+02  0.14771237058E+02  0.15618023652E+03  0.12499821805E+03 0.  0.
        -11    1    1    2    0    0  0.16255099362E+02 -0.67475489122E+02  0.67807064773E+02  0.97030757601E+02  0.00000000000E+00 0.  1.
         11    1    1    2    0    0  0.68694149945E+02  0.30963198569E+02 -0.82578301830E+02  0.11178900588E+03  0.00000000000E+00 0. -1.
        -15    1    3    3    0    0 -0.19717646681E+02 -0.39320368145E+02  0.32313324146E+02  0.54609391024E+02  0.17770000000E+01 0.  1.
         15    1    3    3    0    0 -0.65231602626E+02  0.75832658698E+02 -0.17542087089E+02  0.10157084550E+03  0.17770000000E+01 0.  1.
</event>
<event>
 7    1  0.3091307E-006  0.1713256E+03  0.7546771E-02  0.1077715E+00
        -11   -1    0    0    0    0  0.00000000000E+00  0.00000000000E+00  0.18250000000E+03  0.18250000000E+03  0.00000000000E+00 0. -1.
         11   -1    0    0    0    0 -0.00000000000E+00 -0.00000000000E+00 -0.18250000000E+03  0.18250000000E+03  0.00000000000E+00 0. -1.
         25    2    1    2    0    0  0.26435001344E+02  0.99191239864E+02 -0.78902232734E+02  0.17996918744E+03  0.12500253891E+03 0.  0.
        -11    1    1    2    0    0 -0.21838582675E+02 -0.37440236484E+02  0.10817714192E+03  0.11653750055E+03  0.00000000000E+00 0. -1.
         11    1    1    2    0    0 -0.45964186688E+01 -0.61751003381E+02 -0.29274909183E+02  0.68493312015E+02  0.00000000000E+00 0. -1.
        -15    1    3    3    0    0  0.15802058705E+02  0.82670025845E+02  0.13696522565E+02  0.85292383551E+02  0.17770000000E+01 0. -1.
         15    1    3    3    0    0  0.10632942639E+02  0.16521214020E+02 -0.92598755299E+02  0.94676803884E+02  0.17770000000E+01 0. -1.
</event>
<event>
 7    1  0.3091307E-006  0.1556771E+03  0.7546771E-02  0.1092069E+00
        -11   -1    0    0    0    0  0.00000000000E+00  0.00000000000E+00  0.18250000000E+03  0.18250000000E+03  0.00000000000E+00 0. -1.
         11   -1    0    0    0    0 -0.00000000000E+00 -0.00000000000E+00 -0.18250000000E+03  0.18250000000E+03  0.00000000000E+00 0.  1.
         25    2    1    2    0    0 -0.22576633661E+01  0.59803461947E+02 -0.16519780868E+02  0.13956559595E+03  0.12499640519E+03 0.  0.
        -11    1    1    2    0    0  0.40896965856E+02 -0.57033058896E+02  0.10645730044E+03  0.12750877790E+03  0.00000000000E+00 0. -1.
         11    1    1    2    0    0 -0.38639302490E+02 -0.27704030510E+01 -0.89937519573E+02  0.97925626150E+02  0.00000000000E+00 0.  1.
        -15    1    3    3    0    0 -0.22706747843E+02 -0.27890326164E+02 -0.32009657625E+02  0.48179275642E+02  0.17770000000E+01 0. -1.
         15    1    3    3    0    0  0.20449084477E+02  0.87693788111E+02  0.15489876756E+02  0.91386320312E+02  0.17770000000E+01 0. -1.
</event>
<event>
 7    1  0.3091307E-006  0.1619292E+03  0.7546771E-02  0.1086121E+00
        -11   -1    0    0    0    0  0.00000000000E+00  0.00000000000E+00  0.18250000000E+03  0.18250000000E+03  0.00000000000E+00 0.  1.
         11   -1    0    0    0    0 -0.00000000000E+00 -0.00000000000E+00 -0.18250000000E+03  0.18250000000E+03  0.00000000000E+00 0. -1.
         25    2    1    2    0    0  0.10660025315E+02  0.12803811260E+03  0.78773089794E+01  0.17942962218E+03  0.12500217159E+03 0.  0.
        -11    1    1    2    0    0 -0.44041748891E+01 -0.77397215314E+02  0.61846324616E+02  0.99170023512E+02  0.00000000000E+00 0.  1.
         11    1    1    2    0    0 -0.62558504258E+01 -0.50640897284E+02 -0.69723633595E+02  0.86400354305E+02  0.00000000000E+00 0. -1.
        -15    1    3    3    0    0  0.44307196565E+02  0.57609782224E+02 -0.44663967822E+02  0.85323164651E+02  0.17770000000E+01 0.  1.
         15    1    3    3    0    0 -0.33647171250E+02  0.70428330374E+02  0.52541276801E+02  0.94106457532E+02  0.17770000000E+01 0.  1.
</event>
<event>
 7    1  0.3091307E-006  0.1551575E+03  0.7546771E-02  0.1092577E+00
        -11   -1    0    0    0    0  0.00000000000E+00  0.00000000000E+00  0.18250000000E+03  0.18250000000E+03  0.00000000000E+00 0.  1.
         11   -1    0    0    0    0 -0.00000000000E+00 -0.00000000000E+00 -0.18250000000E+03  0.18250000000E+03  0.00000000000E+00 0. -1.
         25    2    1    2    0    0 -0.49104760105E+02 -0.60456881960E+02 -0.14945182845E+02  0.14804987563E+03  0.12501637950E+03 0.  0.
        -11    1    1    2    0    0  0.59472776048E+02  0.13104982127E+02  0.10114031048E+03  0.11805979015E+03  0.00000000000E+00 0.  1.
         11    1    1    2    0    0 -0.10368015943E+02  0.47351899833E+02 -0.86195127636E+02  0.98890334211E+02  0.00000000000E+00 0. -1.
        -15    1    3    3    0    0  0.50557300012E+01 -0.60071963495E+02  0.38810845810E+02  0.71719179341E+02  0.17770000000E+01 0. -1.
         15    1    3    3    0    0 -0.54160490106E+02 -0.38491846507E+00 -0.53756028654E+02  0.76330696292E+02  0.17770000000E+01 0. -1.
</event>
<event>
 7    1  0.3091307E-006  0.1709923E+03  0.7546771E-02  0.1078003E+00
        -11   -1    0    0    0    0  0.00000000000E+00  0.00000000000E+00  0.18250000000E+03  0.18250000000E+03  0.00000000000E+00 0.  1.
         11   -1    0    0    0    0 -0.00000000000E+00 -0.00000000000E+00 -0.18250000000E+03  0.18250000000E+03  0.00000000000E+00 0.  1.
         25    2    1    2    0    0 -0.92460499351E+01 -0.33917306265E+02  0.72519099763E+02  0.14872744705E+03  0.12499984229E+03 0.  0.
        -11    1    1    2    0    0 -0.22996383626E+01 -0.49196595796E+01  0.68925610478E+02  0.69139215838E+02  0.00000000000E+00 0.  1.
         11    1    1    2    0    0  0.11545688298E+02  0.38836965845E+02 -0.14144471024E+03  0.14713333711E+03  0.00000000000E+00 0.  1.
        -15    1    3    3    0    0 -0.49055156439E+02 -0.61355799220E+02  0.29323581027E+02  0.83868782061E+02  0.17770000000E+01 0.  1.
         15    1    3    3    0    0  0.39809106504E+02  0.27438492955E+02  0.43195518736E+02  0.64858664989E+02  0.17770000000E+01 0.  1.
</event>
<event>
 7    1  0.3091307E-006  0.1866926E+03  0.7546771E-02  0.1065166E+00
        -11   -1    0    0    0    0  0.00000000000E+00  0.00000000000E+00  0.18250000000E+03  0.18250000000E+03  0.00000000000E+00 0.  1.
         11   -1    0    0    0    0 -0.00000000000E+00 -0.00000000000E+00 -0.18250000000E+03  0.18250000000E+03  0.00000000000E+00 0.  1.
         25    2    1    2    0    0 -0.47927631775E+02 -0.36464389874E+01 -0.12252733094E+03  0.18151744766E+03  0.12500113028E+03 0.  0.
        -11    1    1    2    0    0  0.40465688478E+02 -0.30117362176E+02  0.13700446664E+03  0.14599572366E+03  0.00000000000E+00 0.  1.
         11    1    1    2    0    0  0.74619432964E+01  0.33763801163E+02 -0.14477135698E+02  0.37486828684E+02  0.00000000000E+00 0.  1.
        -15    1    3    3    0    0  0.54993022582E+01 -0.35723114465E+02 -0.11274820351E+03  0.11841325246E+03  0.17770000000E+01 0. -1.
         15    1    3    3    0    0 -0.53426934033E+02  0.32076675477E+02 -0.97791274235E+01  0.63104195201E+02  0.17770000000E+01 0. -1.
</event>
<event>
 7    1  0.3091307E-006  0.1636251E+03  0.7546771E-02  0.1084558E+00
        -11   -1    0    0    0    0  0.00000000000E+00  0.00000000000E+00  0.18250000000E+03  0.18250000000E+03  0.00000000000E+00 0.  1.
         11   -1    0    0    0    0 -0.00000000000E+00 -0.00000000000E+00 -0.18250000000E+03  0.18250000000E+03  0.00000000000E+00 0. -1.
         25    2    1    2    0    0 -0.82273157370E+02 -0.70575113441E+02 -0.59353249923E+02  0.17577205395E+03  0.12499315027E+03 0.  0.
        -11    1    1    2    0    0  0.44242703004E+02  0.63432242613E+01  0.96131094851E+02  0.10601339849E+03  0.00000000000E+00 0.  1.
         11    1    1    2    0    0  0.38030454366E+02  0.64231889180E+02 -0.36777844928E+02  0.83214547553E+02  0.00000000000E+00 0. -1.
        -15    1    3    3    0    0 -0.10051979727E+03 -0.56784409488E+02 -0.36405600193E+01  0.11552103796E+03  0.17770000000E+01 0.  1.
         15    1    3    3    0    0  0.18246639901E+02 -0.13790703954E+02 -0.55712689904E+02  0.60251015996E+02  0.17770000000E+01 0.  1.
</event>
<event>
 7    1  0.3091307E-006  0.1665710E+03  0.7546771E-02  0.1081892E+00
        -11   -1    0    0    0    0  0.00000000000E+00  0.00000000000E+00  0.18250000000E+03  0.18250000000E+03  0.00000000000E+00 0.  1.
         11   -1    0    0    0    0 -0.00000000000E+00 -0.00000000000E+00 -0.18250000000E+03  0.18250000000E+03  0.00000000000E+00 0. -1.
         25    2    1    2    0    0 -0.65564007690E+02  0.49204089804E+02  0.48694754855E+02  0.15721023200E+03  0.12499678530E+03 0.  0.
        -11    1    1    2    0    0  0.55469963292E+00 -0.44048536568E+02  0.63935488103E+02  0.77642307439E+02  0.00000000000E+00 0.  1.
         11    1    1    2    0    0  0.65009308057E+02 -0.51555532362E+01 -0.11263024296E+03  0.13014746057E+03  0.00000000000E+00 0. -1.
        -15    1    3    3    0    0 -0.67278680377E+02  0.65250352022E+02 -0.11887097660E+02  0.94490687859E+02  0.17770000000E+01 0. -1.
         15    1    3    3    0    0  0.17146726869E+01 -0.16046262219E+02  0.60581852514E+02  0.62719544136E+02  0.17770000000E+01 0. -1.
</event>
<event>
 7    1  0.3091307E-006  0.1574158E+03  0.7546771E-02  0.1090384E+00
        -11   -1    0    0    0    0  0.00000000000E+00  0.00000000000E+00  0.18250000000E+03  0.18250000000E+03  0.00000000000E+00 0. -1.
         11   -1    0    0    0    0 -0.00000000000E+00 -0.00000000000E+00 -0.18250000000E+03  0.18250000000E+03  0.00000000000E+00 0.  1.
         25    2    1    2    0    0  0.57732874908E+02  0.61068302629E+02  0.28392761285E+02  0.15325483601E+03  0.12497389102E+03 0.  0.
        -11    1    1    2    0    0 -0.72773778900E+02 -0.64526399813E+02  0.65067597403E+02  0.11701910699E+03  0.00000000000E+00 0. -1.
         11    1    1    2    0    0  0.15040903992E+02  0.34580971840E+01 -0.93460358688E+02  0.94726057002E+02  0.00000000000E+00 0.  1.
        -15    1    3    3    0    0  0.66847637045E+02  0.47521663465E+02  0.70430402360E+02  0.10812268209E+03  0.17770000000E+01 0.  1.
         15    1    3    3    0    0 -0.91147621364E+01  0.13546639164E+02 -0.42037641074E+02  0.45132153921E+02  0.17770000000E+01 0. -1.
</event>
<event>
 7    1  0.3091307E-006  0.1745653E+03  0.7546771E-02  0.1074952E+00
        -11   -1    0    0    0    0  0.00000000000E+00  0.00000000000E+00  0.18250000000E+03  0.18250000000E+03  0.00000000000E+00 0. -1.
         11   -1    0    0    0    0 -0.00000000000E+00 -0.00000000000E+00 -0.18250000000E+03  0.18250000000E+03  0.00000000000E+00 0.  1.
         25    2    1    2    0    0 -0.76822424451E+02  0.24817061551E+02 -0.12104495623E+03  0.19182786759E+03  0.12501391088E+03 0.  0.
        -11    1    1    2    0    0  0.16246183114E+02 -0.24018299321E+02  0.10716798659E+03  0.11102159482E+03  0.00000000000E+00 0. -1.
         11    1    1    2    0    0  0.60576241337E+02 -0.79876222994E+00  0.13876969644E+02  0.62150537585E+02  0.00000000000E+00 0.  1.
        -15    1    3    3    0    0 -0.44193684938E+02  0.75253562096E+02 -0.84515468441E+02  0.12149980466E+03  0.17770000000E+01 0.  1.
         15    1    3    3    0    0 -0.32628739513E+02 -0.50436500545E+02 -0.36529487789E+02  0.70328062937E+02  0.17770000000E+01 0.  1.
</event>
<event>
 7    1  0.3091307E-006  0.1731295E+03  0.7546771E-02  0.1076168E+00
        -11   -1    0    0    0    0  0.00000000000E+00  0.00000000000E+00  0.18250000000E+03  0.18250000000E+03  0.00000000000E+00 0.  1.
         11   -1    0    0    0    0 -0.00000000000E+00 -0.00000000000E+00 -0.18250000000E+03  0.18250000000E+03  0.00000000000E+00 0. -1.
         25    2    1    2    0    0  0.26579818918E+02  0.13689620042E+02  0.80878770848E+02  0.15185870809E+03  0.12500319667E+03 0.  0.
        -11    1    1    2    0    0 -0.43427430199E+01  0.19672060468E+02  0.61766347542E+02  0.64968692989E+02  0.00000000000E+00 0.  1.
         11    1    1    2    0    0 -0.22237075898E+02 -0.33361680510E+02 -0.14264511839E+03  0.14817259892E+03  0.00000000000E+00 0. -1.
        -15    1    3    3    0    0 -0.36069588495E+02  0.45094476808E+02  0.28966911603E+02  0.64627909990E+02  0.17770000000E+01 0.  1.
         15    1    3    3    0    0  0.62649407413E+02 -0.31404856767E+02  0.51911859244E+02  0.87230798099E+02  0.17770000000E+01 0.  1.
</event>
<event>
 7    1  0.3091307E-006  0.1784548E+03  0.7546771E-02  0.1071721E+00
        -11   -1    0    0    0    0  0.00000000000E+00  0.00000000000E+00  0.18250000000E+03  0.18250000000E+03  0.00000000000E+00 0. -1.
         11   -1    0    0    0    0 -0.00000000000E+00 -0.00000000000E+00 -0.18250000000E+03  0.18250000000E+03  0.00000000000E+00 0.  1.
         25    2    1    2    0    0  0.75620009492E+02 -0.97770841893E+02 -0.45126107928E+02  0.18148709277E+03  0.12499470335E+03 0.  0.
        -11    1    1    2    0    0 -0.28231427700E+02  0.10406932349E+03  0.71047222627E+02  0.12913227886E+03  0.00000000000E+00 0. -1.
         11    1    1    2    0    0 -0.47388581792E+02 -0.62984815946E+01 -0.25921114698E+02  0.54380628369E+02  0.00000000000E+00 0.  1.
        -15    1    3    3    0    0 -0.61770954450E+01 -0.66566102480E+01  0.34300754774E+02  0.35526982355E+02  0.17770000000E+01 0.  1.
         15    1    3    3    0    0  0.81797104937E+02 -0.91114231645E+02 -0.79426862703E+02  0.14596011041E+03  0.17770000000E+01 0.  1.
</event>
<event>
 7    1  0.3091307E-006  0.1504539E+03  0.7546771E-02  0.1097278E+00
        -11   -1    0    0    0    0  0.00000000000E+00  0.00000000000E+00  0.18250000000E+03  0.18250000000E+03  0.00000000000E+00 0.  1.
         11   -1    0    0    0    0 -0.00000000000E+00 -0.00000000000E+00 -0.18250000000E+03  0.18250000000E+03  0.00000000000E+00 0. -1.
         25    2    1    2    0    0  0.40991994384E+02  0.15773564884E+01 -0.12860023784E+02  0.13218457372E+03  0.12499819863E+03 0.  0.
        -11    1    1    2    0    0 -0.36025945036E+02 -0.47418327216E+01  0.12006796573E+03  0.12544588510E+03  0.00000000000E+00 0.  1.
         11    1    1    2    0    0 -0.49660493474E+01  0.31644762333E+01 -0.10720794195E+03  0.10736954118E+03  0.00000000000E+00 0. -1.
        -15    1    3    3    0    0 -0.86946505445E+01 -0.22664203481E+02  0.45609058275E+02  0.51697262919E+02  0.17770000000E+01 0.  1.
         15    1    3    3    0    0  0.49686644928E+02  0.24241559969E+02 -0.58469082059E+02  0.80487310800E+02  0.17770000000E+01 0.  1.
</event>
<event>
 7    1  0.3091307E-006  0.1474641E+03  0.7546771E-02  0.1100366E+00
        -11   -1    0    0    0    0  0.00000000000E+00  0.00000000000E+00  0.18250000000E+03  0.18250000000E+03  0.00000000000E+00 0.  1.
         11   -1    0    0    0    0 -0.00000000000E+00 -0.00000000000E+00 -0.18250000000E+03  0.18250000000E+03  0.00000000000E+00 0. -1.
         25    2    1    2    0    0 -0.43529043003E+02  0.14386712259E+02  0.92363528041E+01  0.13347674557E+03  0.12501590427E+03 0.  0.
        -11    1    1    2    0    0  0.57851766120E+02 -0.15533704654E+02  0.10257929307E+03  0.11878819045E+03  0.00000000000E+00 0.  1.
         11    1    1    2    0    0 -0.14322723117E+02  0.11469923953E+01 -0.11181564587E+03  0.11273506398E+03  0.00000000000E+00 0. -1.
        -15    1    3    3    0    0 -0.78937855333E+02 -0.12227707303E+02  0.28920052353E+02  0.84971930587E+02  0.17770000000E+01 0.  1.
         15    1    3    3    0    0  0.35408812330E+02  0.26614419563E+02 -0.19683699549E+02  0.48504814980E+02  0.17770000000E+01 0.  1.
</event>
<event>
 7    1  0.3091307E-006  0.1734344E+03  0.7546771E-02  0.1075909E+00
        -11   -1    0    0    0    0  0.00000000000E+00  0.00000000000E+00  0.18250000000E+03  0.18250000000E+03  0.00000000000E+00 0. -1.
         11   -1    0    0    0    0 -0.00000000000E+00 -0.00000000000E+00 -0.18250000000E+03  0.18250000000E+03  0.00000000000E+00 0. -1.
         25    2    1    2    0    0 -0.39742361903E+02 -0.56073965165E+02 -0.82977440238E+02  0.16503699004E+03  0.12501282972E+03 0.  0.
        -11    1    1    2    0    0 -0.96058462657E+01  0.53442813975E+02  0.12423716782E+03  0.13558495682E+03  0.00000000000E+00 0. -1.
         11    1    1    2    0    0  0.49348208168E+02  0.26311511899E+01 -0.41259727581E+02  0.64378053140E+02  0.00000000000E+00 0. -1.
        -15    1    3    3    0    0  0.14744340525E+02  0.10203122167E+02 -0.76924415831E+02  0.79006472896E+02  0.17770000000E+01 0. -1.
         15    1    3    3    0    0 -0.54486702428E+02 -0.66277087332E+02 -0.60530244071E+01  0.86030517144E+02  0.17770000000E+01 0. -1.
</event>
<event>
 7    1  0.3091307E-006  0.1570412E+03  0.7546771E-02  0.1090745E+00
        -11   -1    0    0    0    0  0.00000000000E+00  0.00000000000E+00  0.18250000000E+03  0.18250000000E+03  0.00000000000E+00 0.  1.
         11   -1    0    0    0    0 -0.00000000000E+00 -0.00000000000E+00 -0.18250000000E+03  0.18250000000E+03  0.00000000000E+00 0.  1.
         25    2    1    2    0    0  0.45581953908E+02  0.29968100051E+02 -0.21464286884E+02  0.13805500103E+03  0.12499066427E+03 0.  0.
        -11    1    1    2    0    0 -0.66962024825E+02 -0.11479646215E+02  0.11261012112E+03  0.13151704994E+03  0.00000000000E+00 0.  1.
         11    1    1    2    0    0  0.21380070918E+02 -0.18488453836E+02 -0.91145834235E+02  0.95427949030E+02  0.00000000000E+00 0.  1.
        -15    1    3    3    0    0  0.45717472938E+01  0.57769711155E+02 -0.53612682333E+02  0.78966561507E+02  0.17770000000E+01 0. -1.
         15    1    3    3    0    0  0.41010206614E+02 -0.27801611104E+02  0.32148395449E+02  0.59088439525E+02  0.17770000000E+01 0. -1.
</event>
<event>
 7    1  0.3091307E-006  0.1582401E+03  0.7546771E-02  0.1089594E+00
        -11   -1    0    0    0    0  0.00000000000E+00  0.00000000000E+00  0.18250000000E+03  0.18250000000E+03  0.00000000000E+00 0.  1.
         11   -1    0    0    0    0 -0.00000000000E+00 -0.00000000000E+00 -0.18250000000E+03  0.18250000000E+03  0.00000000000E+00 0. -1.
         25    2    1    2    0    0 -0.88824613930E+02  0.28710825740E+02 -0.39900748365E+02  0.16103535301E+03  0.12500476649E+03 0.  0.
        -11    1    1    2    0    0  0.33895155985E+02  0.92050902822E+01  0.10500665951E+03  0.11072494673E+03  0.00000000000E+00 0.  1.
         11    1    1    2    0    0  0.54929457945E+02 -0.37915916022E+02 -0.65105911146E+02  0.93239700257E+02  0.00000000000E+00 0. -1.
        -15    1    3    3    0    0 -0.38987957280E+01  0.54393025781E+02 -0.46994970334E+02  0.72010324451E+02  0.17770000000E+01 0. -1.
         15    1    3    3    0    0 -0.84925818202E+02 -0.25682200042E+02  0.70942219693E+01  0.89025028563E+02  0.17770000000E+01 0. -1.
</event>
<event>
 7    1  0.3091307E-006  0.1706059E+03  0.7546771E-02  0.1078338E+00
        -11   -1    0    0    0    0  0.00000000000E+00  0.00000000000E+00  0.18250000000E+03  0.18250000000E+03  0.00000000000E+00 0. -1.
         11   -1    0    0    0    0 -0.00000000000E+00 -0.00000000000E+00 -0.18250000000E+03  0.18250000000E+03  0.00000000000E+00 0. -1.
         25    2    1    2    0    0  0.63777549697E+01 -0.42230855125E+02  0.79194431193E+02  0.15401280127E+03  0.12499625650E+03 0.  0.
        -11    1    1    2    0    0  0.60437417856E+02 -0.96401638855E+01  0.33741645579E+02  0.69886428463E+02  0.00000000000E+00 0. -1.
         11    1    1    2    0    0 -0.66815172826E+02  0.51871019011E+02 -0.11293607677E+03  0.14110077027E+03  0.00000000000E+00 0. -1.
        -15    1    3    3    0    0  0.37632499543E+02  0.33297105795E+02  0.32283567252E+02  0.59751893022E+02  0.17770000000E+01 0.  1.
         15    1    3    3    0    0 -0.31254744573E+02 -0.75527960920E+02  0.46910863941E+02  0.94260908249E+02  0.17770000000E+01 0.  1.
</event>
<event>
 7    1  0.3091307E-006  0.1744464E+03  0.7546771E-02  0.1075053E+00
        -11   -1    0    0    0    0  0.00000000000E+00  0.00000000000E+00  0.18250000000E+03  0.18250000000E+03  0.00000000000E+00 0. -1.
         11   -1    0    0    0    0 -0.00000000000E+00 -0.00000000000E+00 -0.18250000000E+03  0.18250000000E+03  0.00000000000E+00 0. -1.
         25    2    1    2    0    0  0.48701606737E+02  0.29095728941E+02 -0.82203987963E+02  0.16000248072E+03  0.12499956103E+03 0.  0.
        -11    1    1    2    0    0 -0.33508376808E+02 -0.68560951080E+01  0.13846235873E+03  0.14262412889E+03  0.00000000000E+00 0. -1.
         11    1    1    2    0    0 -0.15193229929E+02 -0.22239633833E+02 -0.56258370763E+02  0.62373390397E+02  0.00000000000E+00 0. -1.
        -15    1    3    3    0    0  0.54114840552E+02  0.45501988519E+02 -0.10788471418E+03  0.12900045043E+03  0.17770000000E+01 0.  1.
         15    1    3    3    0    0 -0.54132338148E+01 -0.16406259578E+02  0.25680726222E+02  0.31002030288E+02  0.17770000000E+01 0.  1.
</event>
<event>
 7    1  0.3091307E-006  0.1933704E+03  0.7546771E-02  0.1060117E+00
        -11   -1    0    0    0    0  0.00000000000E+00  0.00000000000E+00  0.18250000000E+03  0.18250000000E+03  0.00000000000E+00 0.  1.
         11   -1    0    0    0    0 -0.00000000000E+00 -0.00000000000E+00 -0.18250000000E+03  0.18250000000E+03  0.00000000000E+00 0. -1.
         25    2    1    2    0    0  0.26245310183E+01  0.38462751835E+02 -0.13405678158E+03  0.18729003935E+03  0.12498026529E+03 0.  0.
        -11    1    1    2    0    0 -0.16298467830E+02 -0.54794044179E+02  0.14345713425E+03  0.15442790129E+03  0.00000000000E+00 0.  1.
         11    1    1    2    0    0  0.13673936812E+02  0.16331292343E+02 -0.94003526648E+01  0.23282059354E+02  0.00000000000E+00 0. -1.
        -15    1    3    3    0    0 -0.45152709658E+02  0.62127635968E+02 -0.87974410100E+02  0.11679582570E+03  0.17770000000E+01 0.  1.
         15    1    3    3    0    0  0.47777240676E+02 -0.23664884133E+02 -0.46082371482E+02  0.70494213649E+02  0.17770000000E+01 0.  1.
</event>
<event>
 7    1  0.3091307E-006  0.1788664E+03  0.7546771E-02  0.1071384E+00
        -11   -1    0    0    0    0  0.00000000000E+00  0.00000000000E+00  0.18250000000E+03  0.18250000000E+03  0.00000000000E+00 0. -1.
         11   -1    0    0    0    0 -0.00000000000E+00 -0.00000000000E+00 -0.18250000000E+03  0.18250000000E+03  0.00000000000E+00 0. -1.
         25    2    1    2    0    0  0.32773807651E+02  0.16437688514E+02 -0.10294863545E+03  0.16606190365E+03  0.12503525196E+03 0.  0.
        -11    1    1    2    0    0 -0.21287444313E+02  0.17605295915E+02  0.14270398878E+03  0.14535312224E+03  0.00000000000E+00 0. -1.
         11    1    1    2    0    0 -0.11486363338E+02 -0.34042984429E+02 -0.39755353336E+02  0.53584974110E+02  0.00000000000E+00 0. -1.
        -15    1    3    3    0    0  0.10168425833E+02 -0.12364203110E+02 -0.12315576400E+03  0.12420455039E+03  0.17770000000E+01 0. -1.
         15    1    3    3    0    0  0.22605381819E+02  0.28801891624E+02  0.20207128555E+02  0.41857353258E+02  0.17770000000E+01 0.  1.
</event>
<event>
 7    1  0.3091307E-006  0.1583764E+03  0.7546771E-02  0.1089464E+00
        -11   -1    0    0    0    0  0.00000000000E+00  0.00000000000E+00  0.18250000000E+03  0.18250000000E+03  0.00000000000E+00 0. -1.
         11   -1    0    0    0    0 -0.00000000000E+00 -0.00000000000E+00 -0.18250000000E+03  0.18250000000E+03  0.00000000000E+00 0.  1.
         25    2    1    2    0    0 -0.43629361848E+02 -0.70818448521E+02  0.26185449453E+02  0.15241213406E+03  0.12500002792E+03 0.  0.
        -11    1    1    2    0    0 -0.19086387756E+01  0.44993119656E+02  0.81351846938E+02  0.92984658512E+02  0.00000000000E+00 0. -1.
         11    1    1    2    0    0  0.45538000624E+02  0.25825328865E+02 -0.10753729639E+03  0.11960320743E+03  0.00000000000E+00 0.  1.
        -15    1    3    3    0    0 -0.50764265231E+02 -0.10283849530E+03  0.31928998449E+02  0.11906042756E+03  0.17770000000E+01 0.  1.
         15    1    3    3    0    0  0.71349033827E+01  0.32020046782E+02 -0.57435489963E+01  0.33351706497E+02  0.17770000000E+01 0.  1.
</event>
<event>
 7    1  0.3091307E-006  0.1476505E+03  0.7546771E-02  0.1100171E+00
        -11   -1    0    0    0    0  0.00000000000E+00  0.00000000000E+00  0.18250000000E+03  0.18250000000E+03  0.00000000000E+00 0. -1.
         11   -1    0    0    0    0 -0.00000000000E+00 -0.00000000000E+00 -0.18250000000E+03  0.18250000000E+03  0.00000000000E+00 0.  1.
         25    2    1    2    0    0  0.54169799724E+02 -0.28844274862E+02 -0.78364048157E+01  0.13947086295E+03  0.12499741189E+03 0.  0.
        -11    1    1    2    0    0  0.45149616447E+01  0.43761792396E+02  0.10341535720E+03  0.11238423135E+03  0.00000000000E+00 0. -1.
         11    1    1    2    0    0 -0.58684761369E+02 -0.14917517534E+02 -0.95578952381E+02  0.11314490569E+03  0.00000000000E+00 0.  1.
        -15    1    3    3    0    0  0.62830485358E+02 -0.68888006636E+02  0.11810387432E+02  0.93999310257E+02  0.17770000000E+01 0.  1.
         15    1    3    3    0    0 -0.86606856338E+01  0.40043731774E+02 -0.19646792247E+02  0.45471552697E+02  0.17770000000E+01 0.  1.
</event>
<event>
 7    1  0.3091307E-006  0.1794963E+03  0.7546771E-02  0.1070871E+00
        -11   -1    0    0    0    0  0.00000000000E+00  0.00000000000E+00  0.18250000000E+03  0.18250000000E+03  0.00000000000E+00 0. -1.
         11   -1    0    0    0    0 -0.00000000000E+00 -0.00000000000E+00 -0.18250000000E+03  0.18250000000E+03  0.00000000000E+00 0. -1.
         25    2    1    2    0    0  0.72442969771E+02  0.28724219723E+02  0.73824619144E+02  0.16476803981E+03  0.12500147153E+03 0.  0.
        -11    1    1    2    0    0 -0.34142306540E+01  0.96808163743E+01  0.51268094836E+02  0.52285683746E+02  0.00000000000E+00 0. -1.
         11    1    1    2    0    0 -0.69028739117E+02 -0.38405036097E+02 -0.12509271398E+03  0.14794627644E+03  0.00000000000E+00 0. -1.
        -15    1    3    3    0    0  0.72739755417E+02  0.57274373089E+02  0.92276107770E+02  0.13072667526E+03  0.17770000000E+01 0.  1.
         15    1    3    3    0    0 -0.29678564615E+00 -0.28550153366E+02 -0.18451488627E+02  0.34041364551E+02  0.17770000000E+01 0.  1.
</event>
<event>
 7    1  0.3091307E-006  0.1807324E+03  0.7546771E-02  0.1069871E+00
        -11   -1    0    0    0    0  0.00000000000E+00  0.00000000000E+00  0.18250000000E+03  0.18250000000E+03  0.00000000000E+00 0. -1.
         11   -1    0    0    0    0 -0.00000000000E+00 -0.00000000000E+00 -0.18250000000E+03  0.18250000000E+03  0.00000000000E+00 0. -1.
         25    2    1    2    0    0  0.13531398409E+02  0.31611149868E+02 -0.10555943319E+03  0.16716385139E+03  0.12497438033E+03 0.  0.
        -11    1    1    2    0    0 -0.12659609943E+02 -0.77048060599E+02  0.12582021336E+03  0.14807901761E+03  0.00000000000E+00 0. -1.
         11    1    1    2    0    0 -0.87178846556E+00  0.45436910731E+02 -0.20260780173E+02  0.49757130998E+02  0.00000000000E+00 0. -1.
        -15    1    3    3    0    0 -0.24507579437E+02 -0.27400526094E+02 -0.87084941851E+02  0.94542874435E+02  0.17770000000E+01 0. -1.
         15    1    3    3    0    0  0.38038977846E+02  0.59011675962E+02 -0.18474491335E+02  0.72620976959E+02  0.17770000000E+01 0. -1.
</event>
<event>
 7    1  0.3091307E-006  0.1656613E+03  0.7546771E-02  0.1082709E+00
        -11   -1    0    0    0    0  0.00000000000E+00  0.00000000000E+00  0.18250000000E+03  0.18250000000E+03  0.00000000000E+00 0. -1.
         11   -1    0    0    0    0 -0.00000000000E+00 -0.00000000000E+00 -0.18250000000E+03  0.18250000000E+03  0.00000000000E+00 0. -1.
         25    2    1    2    0    0 -0.10554775796E+02  0.53920981411E+02  0.54755499764E+02  0.14711214535E+03  0.12499977211E+03 0.  0.
        -11    1    1    2    0    0 -0.23979460312E+01 -0.15741596725E+02  0.77760759598E+02  0.79374326743E+02  0.00000000000E+00 0. -1.
         11    1    1    2    0    0  0.12952721827E+02 -0.38179384686E+02 -0.13251625936E+03  0.13851352791E+03  0.00000000000E+00 0. -1.
        -15    1    3    3    0    0 -0.34648303400E+02  0.86027712175E+02  0.22153846750E+02  0.95368877761E+02  0.17770000000E+01 0.  1.
         15    1    3    3    0    0  0.24093527604E+02 -0.32106730764E+02  0.32601653014E+02  0.51743267591E+02  0.17770000000E+01 0.  1.
</event>
<event>
 7    1  0.3091307E-006  0.1539326E+03  0.7546771E-02  0.1093783E+00
        -11   -1    0    0    0    0  0.00000000000E+00  0.00000000000E+00  0.18250000000E+03  0.18250000000E+03  0.00000000000E+00 0.  1.
         11   -1    0    0    0    0 -0.00000000000E+00 -0.00000000000E+00 -0.18250000000E+03  0.18250000000E+03  0.00000000000E+00 0. -1.
         25    2    1    2    0    0 -0.24723810345E+02 -0.46432489682E+02  0.33790270408E+02  0.13976499432E+03  0.12500091347E+03 0.  0.
        -11    1    1    2    0    0  0.34865531665E+02  0.32535516078E+02  0.89146508516E+02  0.10110027243E+03  0.00000000000E+00 0.  1.
         11    1    1    2    0    0 -0.10141721320E+02  0.13896973604E+02 -0.12293677892E+03  0.12413473325E+03  0.00000000000E+00 0. -1.
        -15    1    3    3    0    0 -0.64738836440E+01 -0.15940066297E+01 -0.45948950357E+02  0.46464134496E+02  0.17770000000E+01 0. -1.
         15    1    3    3    0    0 -0.18249926701E+02 -0.44838483052E+02  0.79739220764E+02  0.93300859825E+02  0.17770000000E+01 0. -1.
</event>
<event>
 7    1  0.3091307E-006  0.1691204E+03  0.7546771E-02  0.1079634E+00
        -11   -1    0    0    0    0  0.00000000000E+00  0.00000000000E+00  0.18250000000E+03  0.18250000000E+03  0.00000000000E+00 0. -1.
         11   -1    0    0    0    0 -0.00000000000E+00 -0.00000000000E+00 -0.18250000000E+03  0.18250000000E+03  0.00000000000E+00 0. -1.
         25    2    1    2    0    0  0.60932111238E+01 -0.31583997079E+01  0.83590759861E+02  0.15053217288E+03  0.12500166890E+03 0.  0.
        -11    1    1    2    0    0  0.46252838476E+02 -0.37779736138E+02  0.41566425859E+02  0.72762636624E+02  0.00000000000E+00 0. -1.
         11    1    1    2    0    0 -0.52346049600E+02  0.40938135846E+02 -0.12515718572E+03  0.14170519049E+03  0.00000000000E+00 0. -1.
        -15    1    3    3    0    0  0.24331998336E+02  0.54165500136E+02  0.63810714333E+02  0.87183212494E+02  0.17770000000E+01 0. -1.
         15    1    3    3    0    0 -0.18238787213E+02 -0.57323899844E+02  0.19780045528E+02  0.63348960389E+02  0.17770000000E+01 0. -1.
</event>
<event>
 7    1  0.3091307E-006  0.1832696E+03  0.7546771E-02  0.1067844E+00
        -11   -1    0    0    0    0  0.00000000000E+00  0.00000000000E+00  0.18250000000E+03  0.18250000000E+03  0.00000000000E+00 0.  1.
         11   -1    0    0    0    0 -0.00000000000E+00 -0.00000000000E+00 -0.18250000000E+03  0.18250000000E+03  0.00000000000E+00 0. -1.
         25    2    1    2    0    0 -0.55054675731E+02 -0.10392081215E+03 -0.73022773212E+02  0.18651017363E+03  0.12499266755E+03 0.  0.
        -11    1    1    2    0    0  0.16009131481E+02  0.95273277164E+02  0.92725719691E+02  0.13390798604E+03  0.00000000000E+00 0. -1.
         11    1    1    2    0    0  0.39045544250E+02  0.86475349896E+01 -0.19702946479E+02  0.44581840330E+02  0.00000000000E+00 0.  1.
        -15    1    3    3    0    0  0.25229237096E+01 -0.10952325692E+03 -0.66740849831E+02  0.12829344378E+03  0.17770000000E+01 0.  1.
         15    1    3    3    0    0 -0.57577599441E+02  0.56024447681E+01 -0.62819233811E+01  0.58216729856E+02  0.17770000000E+01 0.  1.
</event>
<event>
 7    1  0.3091307E-006  0.1674603E+03  0.7546771E-02  0.1081099E+00
        -11   -1    0    0    0    0  0.00000000000E+00  0.00000000000E+00  0.18250000000E+03  0.18250000000E+03  0.00000000000E+00 0. -1.
         11   -1    0    0    0    0 -0.00000000000E+00 -0.00000000000E+00 -0.18250000000E+03  0.18250000000E+03  0.00000000000E+00 0.  1.
         25    2    1    2    0    0  0.38621026908E+02  0.57573170717E+02  0.27146184032E+02  0.14549443774E+03  0.12500184959E+03 0.  0.
        -11    1    1    2    0    0  0.17303826942E+02  0.39718843794E+02  0.62380435125E+02  0.75949507342E+02  0.00000000000E+00 0. -1.
         11    1    1    2    0    0 -0.55924853850E+02 -0.97292014511E+02 -0.89526619156E+02  0.14355605492E+03  0.00000000000E+00 0.  1.
        -15    1    3    3    0    0  0.14791108732E+02  0.62518320790E+02 -0.38872466480E+02  0.75110210432E+02  0.17770000000E+01 0. -1.
         15    1    3    3    0    0  0.23829918176E+02 -0.49451500734E+01  0.66018650511E+02  0.70384227309E+02  0.17770000000E+01 0. -1.
</event>
<event>
 7    1  0.3091307E-006  0.1885436E+03  0.7546771E-02  0.1063743E+00
        -11   -1    0    0    0    0  0.00000000000E+00  0.00000000000E+00  0.18250000000E+03  0.18250000000E+03  0.00000000000E+00 0.  1.
         11   -1    0    0    0    0 -0.00000000000E+00 -0.00000000000E+00 -0.18250000000E+03  0.18250000000E+03  0.00000000000E+00 0. -1.
         25    2    1    2    0    0  0.74198970977E+02  0.47384167152E+02  0.10778409820E+03  0.18706416692E+03  0.12499937652E+03 0.  0.
        -11    1    1    2    0    0  0.66315084004E+01 -0.31152411050E+02  0.10692101309E+02  0.33597182149E+02  0.00000000000E+00 0.  1.
         11    1    1    2    0    0 -0.80830479378E+02 -0.16231756102E+02 -0.11847619951E+03  0.14433865093E+03  0.00000000000E+00 0. -1.
        -15    1    3    3    0    0  0.47734248936E+02  0.24901236597E+02  0.13340692261E+03  0.14387214753E+03  0.17770000000E+01 0. -1.
         15    1    3    3    0    0  0.26464722041E+02  0.22482930556E+02 -0.25622824410E+02  0.43192019388E+02  0.17770000000E+01 0. -1.
</event>
<event>
 7    1  0.3091307E-006  0.1599126E+03  0.7546771E-02  0.1088007E+00
        -11   -1    0    0    0    0  0.00000000000E+00  0.00000000000E+00  0.18250000000E+03  0.18250000000E+03  0.00000000000E+00 0.  1.
         11   -1    0    0    0    0 -0.00000000000E+00 -0.00000000000E+00 -0.18250000000E+03  0.18250000000E+03  0.00000000000E+00 0.  1.
         25    2    1    2    0    0  0.57896175434E+01 -0.59370763016E+02  0.39193306947E+02  0.14395042190E+03  0.12500880563E+03 0.  0.
        -11    1    1    2    0    0 -0.10293384561E+02  0.23176939123E+02  0.86515933705E+02  0.90156148197E+02  0.00000000000E+00 0.  1.
         11    1    1    2    0    0  0.45037670175E+01  0.36193823894E+02 -0.12570924065E+03  0.13089342990E+03  0.00000000000E+00 0.  1.
        -15    1    3    3    0    0  0.13006727967E+02  0.69982595722E+01 -0.38632762491E+02  0.41398051598E+02  0.17770000000E+01 0. -1.
         15    1    3    3    0    0 -0.72171104235E+01 -0.66369022589E+02  0.77826069438E+02  0.10255237031E+03  0.17770000000E+01 0. -1.
</event>
<event>
 7    1  0.3091307E-006  0.1874082E+03  0.7546771E-02  0.1064614E+00
        -11   -1    0    0    0    0  0.00000000000E+00  0.00000000000E+00  0.18250000000E+03  0.18250000000E+03  0.00000000000E+00 0.  1.
         11   -1    0    0    0    0 -0.00000000000E+00 -0.00000000000E+00 -0.18250000000E+03  0.18250000000E+03  0.00000000000E+00 0. -1.
         25    2    1    2    0    0 -0.48311001543E+01 -0.42072373150E+02  0.12034041753E+03  0.17860431511E+03  0.12499704466E+03 0.  0.
        -11    1    1    2    0    0 -0.48269902823E+01  0.21616889684E+02  0.28360047283E+02  0.35984469382E+02  0.00000000000E+00 0.  1.
         11    1    1    2    0    0  0.96580904366E+01  0.20455483466E+02 -0.14870046481E+03  0.15041121551E+03  0.00000000000E+00 0. -1.
        -15    1    3    3    0    0 -0.28290948271E+02  0.36147600350E+02  0.22503715154E+02  0.51152729056E+02  0.17770000000E+01 0. -1.
         15    1    3    3    0    0  0.23459848117E+02 -0.78219973499E+02  0.97836702375E+02  0.12745158606E+03  0.17770000000E+01 0. -1.
</event>
<event>
 7    1  0.3091307E-006  0.1511644E+03  0.7546771E-02  0.1096556E+00
        -11   -1    0    0    0    0  0.00000000000E+00  0.00000000000E+00  0.18250000000E+03  0.18250000000E+03  0.00000000000E+00 0.  1.
         11   -1    0    0    0    0 -0.00000000000E+00 -0.00000000000E+00 -0.18250000000E+03  0.18250000000E+03  0.00000000000E+00 0. -1.
         25    2    1    2    0    0  0.48875567335E+02 -0.44312658947E+02  0.22407837825E+02  0.14310932256E+03  0.12500293670E+03 0.  0.
        -11    1    1    2    0    0 -0.44327451246E+02  0.70735680056E+02  0.80246490017E+02  0.11579273953E+03  0.00000000000E+00 0.  1.
         11    1    1    2    0    0 -0.45481160897E+01 -0.26423021109E+02 -0.10265432784E+03  0.10609793791E+03  0.00000000000E+00 0. -1.
        -15    1    3    3    0    0  0.59487362704E+02 -0.38368559541E+02 -0.38756188632E+02  0.80722317664E+02  0.17770000000E+01 0. -1.
         15    1    3    3    0    0 -0.10611795369E+02 -0.59440994050E+01  0.61164026458E+02  0.62387004898E+02  0.17770000000E+01 0. -1.
</event>
<event>
 7    1  0.3091307E-006  0.1688740E+03  0.7546771E-02  0.1079850E+00
        -11   -1    0    0    0    0  0.00000000000E+00  0.00000000000E+00  0.18250000000E+03  0.18250000000E+03  0.00000000000E+00 0.  1.
         11   -1    0    0    0    0 -0.00000000000E+00 -0.00000000000E+00 -0.18250000000E+03  0.18250000000E+03  0.00000000000E+00 0. -1.
         25    2    1    2    0    0 -0.61482943914E+02  0.22243808875E+02  0.56600785108E+02  0.15199857757E+03  0.12499991713E+03 0.  0.
        -11    1    1    2    0    0  0.13123187665E+02  0.35984571584E+01  0.71960387284E+02  0.73235676323E+02  0.00000000000E+00 0.  1.
         11    1    1    2    0    0  0.48359756250E+02 -0.25842266033E+02 -0.12856117239E+03  0.13976574611E+03  0.00000000000E+00 0. -1.
        -15    1    3    3    0    0 -0.24252698901E+02 -0.24393903955E+02  0.80601608667E+02  0.87652912118E+02  0.17770000000E+01 0. -1.
         15    1    3    3    0    0 -0.37230245013E+02  0.46637712830E+02 -0.24000823559E+02  0.64345665450E+02  0.17770000000E+01 0. -1.
</event>
<event>
 7    1  0.3091307E-006  0.1668564E+03  0.7546771E-02  0.1081637E+00
        -11   -1    0    0    0    0  0.00000000000E+00  0.00000000000E+00  0.18250000000E+03  0.18250000000E+03  0.00000000000E+00 0. -1.
         11   -1    0    0    0    0 -0.00000000000E+00 -0.00000000000E+00 -0.18250000000E+03  0.18250000000E+03  0.00000000000E+00 0. -1.
         25    2    1    2    0    0  0.36227984195E+02  0.61472826161E+02  0.62110314361E+02  0.15675894312E+03  0.12499719958E+03 0.  0.
        -11    1    1    2    0    0 -0.39877410187E+02 -0.20965053782E+02  0.62565729562E+02  0.77098714898E+02  0.00000000000E+00 0. -1.
         11    1    1    2    0    0  0.36494259916E+01 -0.40507772379E+02 -0.12467604392E+03  0.13114234198E+03  0.00000000000E+00 0. -1.
        -15    1    3    3    0    0  0.79567541958E+02  0.17114727019E+02  0.28872823009E+02  0.86375374105E+02  0.17770000000E+01 0. -1.
         15    1    3    3    0    0 -0.43339557763E+02  0.44358099142E+02  0.33237491352E+02  0.70383569012E+02  0.17770000000E+01 0. -1.
</event>
<event>
 7    1  0.3091307E-006  0.1513020E+03  0.7546771E-02  0.1096416E+00
        -11   -1    0    0    0    0  0.00000000000E+00  0.00000000000E+00  0.18250000000E+03  0.18250000000E+03  0.00000000000E+00 0. -1.
         11   -1    0    0    0    0 -0.00000000000E+00 -0.00000000000E+00 -0.18250000000E+03  0.18250000000E+03  0.00000000000E+00 0.  1.
         25    2    1    2    0    0  0.78607559095E+02 -0.91575543291E+00  0.39966897326E+02  0.15298784397E+03  0.12501176170E+03 0.  0.
        -11    1    1    2    0    0 -0.82150603357E+02 -0.16554087871E+02  0.64678927705E+02  0.10585897764E+03  0.00000000000E+00 0. -1.
         11    1    1    2    0    0  0.35430442621E+01  0.17469843304E+02 -0.10464582503E+03  0.10615317840E+03  0.00000000000E+00 0.  1.
        -15    1    3    3    0    0 -0.26078701995E+02  0.21321120568E+02  0.30597672490E+02  0.45541894678E+02  0.17770000000E+01 0. -1.
         15    1    3    3    0    0  0.10468626109E+03 -0.22236876001E+02  0.93692248360E+01  0.10744594929E+03  0.17770000000E+01 0. -1.
</event>
<event>
 7    1  0.3091307E-006  0.1519513E+03  0.7546771E-02  0.1095761E+00
        -11   -1    0    0    0    0  0.00000000000E+00  0.00000000000E+00  0.18250000000E+03  0.18250000000E+03  0.00000000000E+00 0. -1.
         11   -1    0    0    0    0 -0.00000000000E+00 -0.00000000000E+00 -0.18250000000E+03  0.18250000000E+03  0.00000000000E+00 0. -1.
         25    2    1    2    0    0  0.39234188407E+02  0.59069456635E+02 -0.81649820505E+01  0.14394439626E+03  0.12499920014E+03 0.  0.
        -11    1    1    2    0    0 -0.31077178475E+02 -0.29417784785E+02  0.10822405559E+03  0.11637715967E+03  0.00000000000E+00 0. -1.
         11    1    1    2    0    0 -0.81570099317E+01 -0.29651671850E+02 -0.10005907354E+03  0.10467844407E+03  0.00000000000E+00 0. -1.
        -15    1    3    3    0    0  0.14455284431E+02  0.41647657500E+02 -0.65559238680E+02  0.79023124011E+02  0.17770000000E+01 0. -1.
         15    1    3    3    0    0  0.24778903976E+02  0.17421799135E+02  0.57394256629E+02  0.64921272249E+02  0.17770000000E+01 0. -1.
</event>
<event>
 7    1  0.3091307E-006  0.1712631E+03  0.7546771E-02  0.1077769E+00
        -11   -1    0    0    0    0  0.00000000000E+00  0.00000000000E+00  0.18250000000E+03  0.18250000000E+03  0.00000000000E+00 0. -1.
         11   -1    0    0    0    0 -0.00000000000E+00 -0.00000000000E+00 -0.18250000000E+03  0.18250000000E+03  0.00000000000E+00 0.  1.
         25    2    1    2    0    0 -0.13717679592E+03  0.12798890040E+02 -0.38204248994E+02  0.18990952754E+03  0.12499911632E+03 0.  0.
        -11    1    1    2    0    0  0.33190541233E+02 -0.31858594722E+02  0.50902193888E+02  0.68612064737E+02  0.00000000000E+00 0. -1.
         11    1    1    2    0    0  0.10398625469E+03  0.19059704681E+02 -0.12697944894E+02  0.10647840773E+03  0.00000000000E+00 0.  1.
        -15    1    3    3    0    0 -0.81632824616E+02  0.50134380876E+02 -0.67116833133E+02  0.11698376477E+03  0.17770000000E+01 0.  1.
         15    1    3    3    0    0 -0.55543971309E+02 -0.37335490836E+02  0.28912584139E+02  0.72925762768E+02  0.17770000000E+01 0.  1.
</event>
<event>
 7    1  0.3091307E-006  0.1762556E+03  0.7546771E-02  0.1073537E+00
        -11   -1    0    0    0    0  0.00000000000E+00  0.00000000000E+00  0.18250000000E+03  0.18250000000E+03  0.00000000000E+00 0.  1.
         11   -1    0    0    0    0 -0.00000000000E+00 -0.00000000000E+00 -0.18250000000E+03  0.18250000000E+03  0.00000000000E+00 0. -1.
         25    2    1    2    0    0  0.30908041430E+02  0.50676555081E+01  0.93988525116E+02  0.15949761677E+03  0.12499863497E+03 0.  0.
        -11    1    1    2    0    0 -0.59599740322E+01  0.38768334384E+02  0.43786130215E+02  0.58785459432E+02  0.00000000000E+00 0.  1.
         11    1    1    2    0    0 -0.24948067398E+02 -0.43835989893E+02 -0.13777465533E+03  0.14671692380E+03  0.00000000000E+00 0. -1.
        -15    1    3    3    0    0  0.34504215745E+02  0.48655540478E+02  0.98840141181E+02  0.11545749764E+03  0.17770000000E+01 0.  1.
         15    1    3    3    0    0 -0.35961743155E+01 -0.43587884970E+02 -0.48516160643E+01  0.44040119133E+02  0.17770000000E+01 0.  1.
</event>
<event>
 7    1  0.3091307E-006  0.1540407E+03  0.7546771E-02  0.1093676E+00
        -11   -1    0    0    0    0  0.00000000000E+00  0.00000000000E+00  0.18250000000E+03  0.18250000000E+03  0.00000000000E+00 0.  1.
         11   -1    0    0    0    0 -0.00000000000E+00 -0.00000000000E+00 -0.18250000000E+03  0.18250000000E+03  0.00000000000E+00 0. -1.
         25    2    1    2    0    0 -0.20957311796E+02  0.43991373342E+01 -0.37714086712E+02  0.13231603485E+03  0.12500647749E+03 0.  0.
        -11    1    1    2    0    0 -0.15489491790E+02  0.12719188609E+02  0.13024141466E+03  0.13177453550E+03  0.00000000000E+00 0.  1.
         11    1    1    2    0    0  0.36446803585E+02 -0.17118325943E+02 -0.92527327948E+02  0.10090942965E+03  0.00000000000E+00 0. -1.
        -15    1    3    3    0    0  0.18161432800E+02  0.50073706995E+02  0.11578551151E+02  0.54538375015E+02  0.17770000000E+01 0.  1.
         15    1    3    3    0    0 -0.39118744596E+02 -0.45674569661E+02 -0.49292637864E+02  0.77777659832E+02  0.17770000000E+01 0.  1.
</event>
<event>
 7    1  0.3091307E-006  0.1765944E+03  0.7546771E-02  0.1073255E+00
        -11   -1    0    0    0    0  0.00000000000E+00  0.00000000000E+00  0.18250000000E+03  0.18250000000E+03  0.00000000000E+00 0.  1.
         11   -1    0    0    0    0 -0.00000000000E+00 -0.00000000000E+00 -0.18250000000E+03  0.18250000000E+03  0.00000000000E+00 0. -1.
         25    2    1    2    0    0  0.76460292339E+02 -0.31166063366E+01  0.10910274251E+03  0.18271051599E+03  0.12499533868E+03 0.  0.
        -11    1    1    2    0    0  0.14068315895E+02  0.44371804707E+02 -0.34780877831E+02  0.58107521267E+02  0.00000000000E+00 0.  1.
         11    1    1    2    0    0 -0.90528608234E+02 -0.41255198370E+02 -0.74321864675E+02  0.12418196274E+03  0.00000000000E+00 0. -1.
        -15    1    3    3    0    0  0.83614334417E+02  0.27936155548E+02  0.12006476456E+03  0.14896473114E+03  0.17770000000E+01 0.  1.
         15    1    3    3    0    0 -0.71540420780E+01 -0.31052761884E+02 -0.10962022052E+02  0.33745784850E+02  0.17770000000E+01 0.  1.
</event>
<event>
 7    1  0.3091307E-006  0.1744491E+03  0.7546771E-02  0.1075050E+00
        -11   -1    0    0    0    0  0.00000000000E+00  0.00000000000E+00  0.18250000000E+03  0.18250000000E+03  0.00000000000E+00 0.  1.
         11   -1    0    0    0    0 -0.00000000000E+00 -0.00000000000E+00 -0.18250000000E+03  0.18250000000E+03  0.00000000000E+00 0.  1.
         25    2    1    2    0    0  0.12094903967E+03 -0.11237316371E+02  0.52057173721E+02  0.18189591866E+03  0.12498491274E+03 0.  0.
        -11    1    1    2    0    0 -0.12021319261E+03 -0.90026427000E+01  0.69179399031E+01  0.12074815587E+03  0.00000000000E+00 0.  1.
         11    1    1    2    0    0 -0.73584705754E+00  0.20239959071E+02 -0.58975113624E+02  0.62355925469E+02  0.00000000000E+00 0.  1.
        -15    1    3    3    0    0  0.30611075101E+02 -0.83760105984E+01  0.80968827279E+02  0.86984505472E+02  0.17770000000E+01 0.  1.
         15    1    3    3    0    0  0.90337964569E+02 -0.28613057724E+01 -0.28911653558E+02  0.94911413189E+02  0.17770000000E+01 0.  1.
</event>
<event>
 7    1  0.3091307E-006  0.1528019E+03  0.7546771E-02  0.1094908E+00
        -11   -1    0    0    0    0  0.00000000000E+00  0.00000000000E+00  0.18250000000E+03  0.18250000000E+03  0.00000000000E+00 0.  1.
         11   -1    0    0    0    0 -0.00000000000E+00 -0.00000000000E+00 -0.18250000000E+03  0.18250000000E+03  0.00000000000E+00 0.  1.
         25    2    1    2    0    0 -0.41713886166E+01  0.11408347245E+02 -0.29612241575E+02  0.12903060649E+03  0.12499784674E+03 0.  0.
        -11    1    1    2    0    0 -0.26035925110E+02 -0.55279145540E+02  0.11793737387E+03  0.13282649390E+03  0.00000000000E+00 0.  1.
         11    1    1    2    0    0  0.30207313726E+02  0.43870798296E+02 -0.88325132293E+02  0.10314289961E+03  0.00000000000E+00 0.  1.
        -15    1    3    3    0    0 -0.10526083992E+02 -0.42453453550E+02  0.26338262067E+02  0.51087727883E+02  0.17770000000E+01 0. -1.
         15    1    3    3    0    0  0.63546953756E+01  0.53861800794E+02 -0.55950503641E+02  0.77942878603E+02  0.17770000000E+01 0. -1.
</event>
<event>
 7    1  0.3091307E-006  0.1579285E+03  0.7546771E-02  0.1089892E+00
        -11   -1    0    0    0    0  0.00000000000E+00  0.00000000000E+00  0.18250000000E+03  0.18250000000E+03  0.00000000000E+00 0.  1.
         11   -1    0    0    0    0 -0.00000000000E+00 -0.00000000000E+00 -0.18250000000E+03  0.18250000000E+03  0.00000000000E+00 0.  1.
         25    2    1    2    0    0 -0.90144198475E+02  0.48630650774E+01  0.30960657264E+02  0.15726824920E+03  0.12500045594E+03 0.  0.
        -11    1    1    2    0    0  0.94563252899E+02 -0.11257854154E+02  0.62525676623E+02  0.11392281736E+03  0.00000000000E+00 0.  1.
         11    1    1    2    0    0 -0.44190544240E+01  0.63947890762E+01 -0.93486333887E+02  0.93808933439E+02  0.00000000000E+00 0.  1.
        -15    1    3    3    0    0 -0.10654584926E+03 -0.14043442800E+02  0.56531628998E+02  0.12144224589E+03  0.17770000000E+01 0.  1.
         15    1    3    3    0    0  0.16401650785E+02  0.18906507878E+02 -0.25570971734E+02  0.35826003308E+02  0.17770000000E+01 0.  1.
</event>
<event>
 7    1  0.3091307E-006  0.1798569E+03  0.7546771E-02  0.1070578E+00
        -11   -1    0    0    0    0  0.00000000000E+00  0.00000000000E+00  0.18250000000E+03  0.18250000000E+03  0.00000000000E+00 0.  1.
         11   -1    0    0    0    0 -0.00000000000E+00 -0.00000000000E+00 -0.18250000000E+03  0.18250000000E+03  0.00000000000E+00 0.  1.
         25    2    1    2    0    0 -0.19750597881E+02  0.38849707533E+02  0.98205706560E+02  0.16482914823E+03  0.12499960565E+03 0.  0.
        -11    1    1    2    0    0  0.13388151985E+02 -0.13115174680E+02  0.48027238644E+02  0.51554496140E+02  0.00000000000E+00 0.  1.
         11    1    1    2    0    0  0.63624458966E+01 -0.25734532853E+02 -0.14623294520E+03  0.14861635563E+03  0.00000000000E+00 0.  1.
        -15    1    3    3    0    0 -0.62471279974E+02  0.51061859473E+02  0.36012748458E+02  0.88374487806E+02  0.17770000000E+01 0. -1.
         15    1    3    3    0    0  0.42720682093E+02 -0.12212151940E+02  0.62192958101E+02  0.76454660420E+02  0.17770000000E+01 0. -1.
</event>
<event>
 7    1  0.3091307E-006  0.1723056E+03  0.7546771E-02  0.1076872E+00
        -11   -1    0    0    0    0  0.00000000000E+00  0.00000000000E+00  0.18250000000E+03  0.18250000000E+03  0.00000000000E+00 0. -1.
         11   -1    0    0    0    0 -0.00000000000E+00 -0.00000000000E+00 -0.18250000000E+03  0.18250000000E+03  0.00000000000E+00 0.  1.
         25    2    1    2    0    0  0.60367267247E+02 -0.21545473891E+02 -0.68009989639E+02  0.15606498588E+03  0.12499002651E+03 0.  0.
        -11    1    1    2    0    0 -0.44797039419E+02  0.26204332274E+02  0.13256692944E+03  0.14236373328E+03  0.00000000000E+00 0. -1.
         11    1    1    2    0    0 -0.15570227828E+02 -0.46588583835E+01 -0.64556939804E+02  0.66571280842E+02  0.00000000000E+00 0.  1.
        -15    1    3    3    0    0  0.42228584747E+02 -0.73290526488E+02 -0.50244446821E+02  0.98399272395E+02  0.17770000000E+01 0.  1.
         15    1    3    3    0    0  0.18138682501E+02  0.51745052597E+02 -0.17765542818E+02  0.57665713485E+02  0.17770000000E+01 0.  1.
</event>
<event>
 7    1  0.3091307E-006  0.1722973E+03  0.7546771E-02  0.1076879E+00
        -11   -1    0    0    0    0  0.00000000000E+00  0.00000000000E+00  0.18250000000E+03  0.18250000000E+03  0.00000000000E+00 0. -1.
         11   -1    0    0    0    0 -0.00000000000E+00 -0.00000000000E+00 -0.18250000000E+03  0.18250000000E+03  0.00000000000E+00 0. -1.
         25    2    1    2    0    0  0.55301502924E+02 -0.60928479273E+02  0.23187042380E+02  0.15143817794E+03  0.12500138795E+03 0.  0.
        -11    1    1    2    0    0  0.43051009075E+02 -0.24957507117E+02  0.44259447496E+02  0.66597036244E+02  0.00000000000E+00 0. -1.
         11    1    1    2    0    0 -0.98352512000E+02  0.85885986389E+02 -0.67446489876E+02  0.14696478582E+03  0.00000000000E+00 0. -1.
        -15    1    3    3    0    0  0.63112565946E+02 -0.62798195072E+01 -0.33957006740E+02  0.71964353322E+02  0.17770000000E+01 0.  1.
         15    1    3    3    0    0 -0.78110630219E+01 -0.54648659766E+02  0.57144049120E+02  0.79473824613E+02  0.17770000000E+01 0.  1.
</event>
<event>
 7    1  0.3091307E-006  0.1703329E+03  0.7546771E-02  0.1078575E+00
        -11   -1    0    0    0    0  0.00000000000E+00  0.00000000000E+00  0.18250000000E+03  0.18250000000E+03  0.00000000000E+00 0. -1.
         11   -1    0    0    0    0 -0.00000000000E+00 -0.00000000000E+00 -0.18250000000E+03  0.18250000000E+03  0.00000000000E+00 0. -1.
         25    2    1    2    0    0 -0.15626612961E+02 -0.38865371451E+01  0.85329844852E+02  0.15219975058E+03  0.12499714177E+03 0.  0.
        -11    1    1    2    0    0  0.42526010360E+02  0.15179424538E+02  0.54033216001E+02  0.70416368252E+02  0.00000000000E+00 0. -1.
         11    1    1    2    0    0 -0.26899397398E+02 -0.11292887393E+02 -0.13936306085E+03  0.14238388117E+03  0.00000000000E+00 0. -1.
        -15    1    3    3    0    0  0.30304751380E+02  0.32934472809E+01 -0.20375841728E+02  0.36709091603E+02  0.17770000000E+01 0. -1.
         15    1    3    3    0    0 -0.45931364342E+02 -0.71799844260E+01  0.10570568658E+03  0.11549065898E+03  0.17770000000E+01 0. -1.
</event>
<event>
 7    1  0.3091307E-006  0.1892274E+03  0.7546771E-02  0.1063222E+00
        -11   -1    0    0    0    0  0.00000000000E+00  0.00000000000E+00  0.18250000000E+03  0.18250000000E+03  0.00000000000E+00 0. -1.
         11   -1    0    0    0    0 -0.00000000000E+00 -0.00000000000E+00 -0.18250000000E+03  0.18250000000E+03  0.00000000000E+00 0.  1.
         25    2    1    2    0    0 -0.23042823578E+02  0.77202994676E+02 -0.10150943903E+03  0.18005548161E+03  0.12499814454E+03 0.  0.
        -11    1    1    2    0    0  0.10755226925E+02 -0.77536761601E+02  0.13121805936E+03  0.15279333562E+03  0.00000000000E+00 0. -1.
         11    1    1    2    0    0  0.12287596653E+02  0.33376692538E+00 -0.29708620330E+02  0.32151182774E+02  0.00000000000E+00 0.  1.
        -15    1    3    3    0    0  0.39399938855E+02 -0.81191299534E+01 -0.13476990099E+02  0.42462482783E+02  0.17770000000E+01 0.  1.
         15    1    3    3    0    0 -0.62442762433E+02  0.85322124629E+02 -0.88032448934E+02  0.13759299883E+03  0.17770000000E+01 0.  1.
</event>
<event>
 7    1  0.3091307E-006  0.1561795E+03  0.7546771E-02  0.1091580E+00
        -11   -1    0    0    0    0  0.00000000000E+00  0.00000000000E+00  0.18250000000E+03  0.18250000000E+03  0.00000000000E+00 0.  1.
         11   -1    0    0    0    0 -0.00000000000E+00 -0.00000000000E+00 -0.18250000000E+03  0.18250000000E+03  0.00000000000E+00 0. -1.
         25    2    1    2    0    0  0.55014623433E+02  0.57345255702E+02  0.26235803423E+02  0.15042703056E+03  0.12499954799E+03 0.  0.
        -11    1    1    2    0    0 -0.25301065518E+02 -0.37589937713E+02  0.85779629045E+02  0.97011814191E+02  0.00000000000E+00 0.  1.
         11    1    1    2    0    0 -0.29713557916E+02 -0.19755317989E+02 -0.11201543247E+03  0.11756115525E+03  0.00000000000E+00 0. -1.
        -15    1    3    3    0    0 -0.33089277286E+02 -0.12086796340E+02  0.27314905690E+00  0.35273548964E+02  0.17770000000E+01 0. -1.
         15    1    3    3    0    0  0.88103900720E+02  0.69432052042E+02  0.25962654366E+02  0.11515348160E+03  0.17770000000E+01 0. -1.
</event>
<event>
 7    1  0.3091307E-006  0.1494887E+03  0.7546771E-02  0.1098266E+00
        -11   -1    0    0    0    0  0.00000000000E+00  0.00000000000E+00  0.18250000000E+03  0.18250000000E+03  0.00000000000E+00 0.  1.
         11   -1    0    0    0    0 -0.00000000000E+00 -0.00000000000E+00 -0.18250000000E+03  0.18250000000E+03  0.00000000000E+00 0.  1.
         25    2    1    2    0    0 -0.51619932823E+00  0.23670840874E+01 -0.25646416437E+02  0.12762134279E+03  0.12499439551E+03 0.  0.
        -11    1    1    2    0    0 -0.53240256171E+02  0.46411885576E+02  0.10708820821E+03  0.12828278270E+03  0.00000000000E+00 0.  1.
         11    1    1    2    0    0  0.53756455499E+02 -0.48778969663E+02 -0.81441791771E+02  0.10909587451E+03  0.00000000000E+00 0.  1.
        -15    1    3    3    0    0  0.34772249040E+02  0.52656310203E+02 -0.77029114024E+01  0.63594723685E+02  0.17770000000E+01 0.  1.
         15    1    3    3    0    0 -0.35288448368E+02 -0.50289226115E+02 -0.17943505035E+02  0.64026619101E+02  0.17770000000E+01 0.  1.
</event>
<event>
 7    1  0.3091307E-006  0.1764549E+03  0.7546771E-02  0.1073371E+00
        -11   -1    0    0    0    0  0.00000000000E+00  0.00000000000E+00  0.18250000000E+03  0.18250000000E+03  0.00000000000E+00 0.  1.
         11   -1    0    0    0    0 -0.00000000000E+00 -0.00000000000E+00 -0.18250000000E+03  0.18250000000E+03  0.00000000000E+00 0.  1.
         25    2    1    2    0    0 -0.30681228444E+02  0.40183370982E+02  0.87561822547E+02  0.16077283291E+03  0.12499915980E+03 0.  0.
        -11    1    1    2    0    0  0.99444160215E+01 -0.17097378007E+02  0.54936735686E+02  0.58388840309E+02  0.00000000000E+00 0.  1.
         11    1    1    2    0    0  0.20736812422E+02 -0.23085992976E+02 -0.14249855823E+03  0.14583832679E+03  0.00000000000E+00 0.  1.
        -15    1    3    3    0    0 -0.65706448078E+02 -0.39402732128E+01  0.80450057313E+02  0.10396264965E+03  0.17770000000E+01 0.  1.
         15    1    3    3    0    0  0.35025219634E+02  0.44123644195E+02  0.71117652340E+01  0.56810183253E+02  0.17770000000E+01 0.  1.
</event>
<event>
 7    1  0.3091307E-006  0.1800494E+03  0.7546771E-02  0.1070422E+00
        -11   -1    0    0    0    0  0.00000000000E+00  0.00000000000E+00  0.18250000000E+03  0.18250000000E+03  0.00000000000E+00 0. -1.
         11   -1    0    0    0    0 -0.00000000000E+00 -0.00000000000E+00 -0.18250000000E+03  0.18250000000E+03  0.00000000000E+00 0. -1.
         25    2    1    2    0    0 -0.11369516706E+03 -0.60439860380E+02 -0.27699218132E+02  0.18156447260E+03  0.12497537073E+03 0.  0.
        -11    1    1    2    0    0 -0.14973871984E+02  0.31320081612E+02  0.37558079221E+02  0.51144634803E+02  0.00000000000E+00 0. -1.
         11    1    1    2    0    0  0.12866903904E+03  0.29119778769E+02 -0.98588610888E+01  0.13229089260E+03  0.00000000000E+00 0. -1.
        -15    1    3    3    0    0 -0.25916798148E+02  0.38112414119E+02  0.24080060433E+01  0.46186499741E+02  0.17770000000E+01 0. -1.
         15    1    3    3    0    0 -0.87778368909E+02 -0.98552274500E+02 -0.30107224175E+02  0.13537797285E+03  0.17770000000E+01 0. -1.
</event>
<event>
 7    1  0.3091307E-006  0.1883698E+03  0.7546771E-02  0.1063876E+00
        -11   -1    0    0    0    0  0.00000000000E+00  0.00000000000E+00  0.18250000000E+03  0.18250000000E+03  0.00000000000E+00 0. -1.
         11   -1    0    0    0    0 -0.00000000000E+00 -0.00000000000E+00 -0.18250000000E+03  0.18250000000E+03  0.00000000000E+00 0. -1.
         25    2    1    2    0    0 -0.77703144595E+02  0.26417451647E+02 -0.11636024844E+03  0.18947479647E+03  0.12500132259E+03 0.  0.
        -11    1    1    2    0    0  0.53715476181E+02 -0.71713203442E+01  0.13077623186E+03  0.14155989205E+03  0.00000000000E+00 0. -1.
         11    1    1    2    0    0  0.23987668415E+02 -0.19246131303E+02 -0.14415983419E+02  0.33965311481E+02  0.00000000000E+00 0. -1.
        -15    1    3    3    0    0  0.79741093435E+01  0.52828419116E+02 -0.18077114350E+02  0.56430205372E+02  0.17770000000E+01 0. -1.
         15    1    3    3    0    0 -0.85677253939E+02 -0.26410967469E+02 -0.98283134091E+02  0.13304459110E+03  0.17770000000E+01 0. -1.
</event>
<event>
 7    1  0.3091307E-006  0.1663436E+03  0.7546771E-02  0.1082096E+00
        -11   -1    0    0    0    0  0.00000000000E+00  0.00000000000E+00  0.18250000000E+03  0.18250000000E+03  0.00000000000E+00 0. -1.
         11   -1    0    0    0    0 -0.00000000000E+00 -0.00000000000E+00 -0.18250000000E+03  0.18250000000E+03  0.00000000000E+00 0. -1.
         25    2    1    2    0    0 -0.56050459837E+02 -0.64250998913E+02 -0.43396418312E+02  0.15740754701E+03  0.12499616724E+03 0.  0.
        -11    1    1    2    0    0  0.10532495084E+03  0.12215074706E+02  0.74379404488E+02  0.12951775604E+03  0.00000000000E+00 0. -1.
         11    1    1    2    0    0 -0.49274490998E+02  0.52035924207E+02 -0.30982986177E+02  0.78074696949E+02  0.00000000000E+00 0. -1.
        -15    1    3    3    0    0 -0.48268810282E+02 -0.71478016791E+02 -0.80974376237E+02  0.11831733713E+03  0.17770000000E+01 0. -1.
         15    1    3    3    0    0 -0.77816495553E+01  0.72270178787E+01  0.37577957925E+02  0.39090209875E+02  0.17770000000E+01 0. -1.
</event>
<event>
 7    1  0.3091307E-006  0.1537754E+03  0.7546771E-02  0.1093939E+00
        -11   -1    0    0    0    0  0.00000000000E+00  0.00000000000E+00  0.18250000000E+03  0.18250000000E+03  0.00000000000E+00 0. -1.
         11   -1    0    0    0    0 -0.00000000000E+00 -0.00000000000E+00 -0.18250000000E+03  0.18250000000E+03  0.00000000000E+00 0. -1.
         25    2    1    2    0    0  0.48417542431E+02  0.78992158422E+02 -0.20627110287E+02  0.15695447002E+03  0.12500083389E+03 0.  0.
        -11    1    1    2    0    0 -0.12602246005E+02 -0.29703296566E+02  0.10166293264E+03  0.10666046271E+03  0.00000000000E+00 0. -1.
         11    1    1    2    0    0 -0.35815296427E+02 -0.49288861856E+02 -0.81035822356E+02  0.10138506727E+03  0.00000000000E+00 0. -1.
        -15    1    3    3    0    0  0.25571931465E+02  0.18611877432E+02  0.51297369027E+02  0.60290160544E+02  0.17770000000E+01 0. -1.
         15    1    3    3    0    0  0.22845610967E+02  0.60380280990E+02 -0.71924479314E+02  0.96664309476E+02  0.17770000000E+01 0. -1.
</event>
<event>
 7    1  0.3091307E-006  0.1577120E+03  0.7546771E-02  0.1090100E+00
        -11   -1    0    0    0    0  0.00000000000E+00  0.00000000000E+00  0.18250000000E+03  0.18250000000E+03  0.00000000000E+00 0.  1.
         11   -1    0    0    0    0 -0.00000000000E+00 -0.00000000000E+00 -0.18250000000E+03  0.18250000000E+03  0.00000000000E+00 0. -1.
         25    2    1    2    0    0  0.11815582576E+03 -0.41901802937E+01 -0.88147913978E+01  0.17228357556E+03  0.12500229234E+03 0.  0.
        -11    1    1    2    0    0 -0.59248437864E+02 -0.38707647270E+02  0.68521516994E+02  0.98508160259E+02  0.00000000000E+00 0.  1.
         11    1    1    2    0    0 -0.58907387894E+02  0.42897827563E+02 -0.59706725597E+02  0.94208264179E+02  0.00000000000E+00 0. -1.
        -15    1    3    3    0    0  0.59783418851E+02 -0.15804383651E+02  0.56585215304E+02  0.83838416207E+02  0.17770000000E+01 0.  1.
         15    1    3    3    0    0  0.58372406907E+02  0.11614203358E+02 -0.65400006702E+02  0.88445159355E+02  0.17770000000E+01 0.  1.
</event>
<event>
 7    1  0.3091307E-006  0.1874214E+03  0.7546771E-02  0.1064603E+00
        -11   -1    0    0    0    0  0.00000000000E+00  0.00000000000E+00  0.18250000000E+03  0.18250000000E+03  0.00000000000E+00 0.  1.
         11   -1    0    0    0    0 -0.00000000000E+00 -0.00000000000E+00 -0.18250000000E+03  0.18250000000E+03  0.00000000000E+00 0. -1.
         25    2    1    2    0    0  0.11153806633E+03 -0.26152534596E+01 -0.87244079232E+02  0.18891384720E+03  0.12501732884E+03 0.  0.
        -11    1    1    2    0    0 -0.86110092382E+02  0.14916558994E+02  0.10951838134E+03  0.14011326702E+03  0.00000000000E+00 0.  1.
         11    1    1    2    0    0 -0.25427973950E+02 -0.12301305534E+02 -0.22274302113E+02  0.35972885784E+02  0.00000000000E+00 0. -1.
        -15    1    3    3    0    0  0.58746757232E+02 -0.13460159378E+02  0.24309349218E+02  0.65011226447E+02  0.17770000000E+01 0.  1.
         15    1    3    3    0    0  0.52791309101E+02  0.10844905918E+02 -0.11155342845E+03  0.12390262075E+03  0.17770000000E+01 0.  1.
</event>
<event>
 7    1  0.3091307E-006  0.1746927E+03  0.7546771E-02  0.1074845E+00
        -11   -1    0    0    0    0  0.00000000000E+00  0.00000000000E+00  0.18250000000E+03  0.18250000000E+03  0.00000000000E+00 0. -1.
         11   -1    0    0    0    0 -0.00000000000E+00 -0.00000000000E+00 -0.18250000000E+03  0.18250000000E+03  0.00000000000E+00 0.  1.
         25    2    1    2    0    0  0.12243510690E+03  0.80696552791E+01 -0.14012038391E+02  0.17571690071E+03  0.12499846895E+03 0.  0.
        -11    1    1    2    0    0 -0.35218171932E+01 -0.25663370028E+02  0.56203682798E+02  0.61885908877E+02  0.00000000000E+00 0. -1.
         11    1    1    2    0    0 -0.11891328970E+03  0.17593714749E+02 -0.42191644407E+02  0.12739719041E+03  0.00000000000E+00 0.  1.
        -15    1    3    3    0    0  0.81737512716E+02  0.28374129031E+02 -0.64356507287E+02  0.10784725283E+03  0.17770000000E+01 0. -1.
         15    1    3    3    0    0  0.40697594181E+02 -0.20304473752E+02  0.50344468896E+02  0.67869647884E+02  0.17770000000E+01 0. -1.
</event>
<event>
 7    1  0.3091307E-006  0.1653149E+03  0.7546771E-02  0.1083022E+00
        -11   -1    0    0    0    0  0.00000000000E+00  0.00000000000E+00  0.18250000000E+03  0.18250000000E+03  0.00000000000E+00 0.  1.
         11   -1    0    0    0    0 -0.00000000000E+00 -0.00000000000E+00 -0.18250000000E+03  0.18250000000E+03  0.00000000000E+00 0. -1.
         25    2    1    2    0    0  0.76084835569E+02 -0.13289253404E+02  0.14744832676E+02  0.14767173850E+03  0.12499610314E+03 0.  0.
        -11    1    1    2    0    0  0.29295879538E+02  0.13340081865E+02  0.73268312122E+02  0.80027819558E+02  0.00000000000E+00 0.  1.
         11    1    1    2    0    0 -0.10538071511E+03 -0.50828460630E-01 -0.88013144798E+02  0.13730044194E+03  0.00000000000E+00 0. -1.
        -15    1    3    3    0    0  0.26670065745E+02 -0.63379820609E+02  0.30977640895E+02  0.75439154500E+02  0.17770000000E+01 0. -1.
         15    1    3    3    0    0  0.49414769824E+02  0.50090567205E+02 -0.16232808219E+02  0.72232584000E+02  0.17770000000E+01 0. -1.
</event>
<event>
 7    1  0.3091307E-006  0.1560718E+03  0.7546771E-02  0.1091684E+00
        -11   -1    0    0    0    0  0.00000000000E+00  0.00000000000E+00  0.18250000000E+03  0.18250000000E+03  0.00000000000E+00 0. -1.
         11   -1    0    0    0    0 -0.00000000000E+00 -0.00000000000E+00 -0.18250000000E+03  0.18250000000E+03  0.00000000000E+00 0.  1.
         25    2    1    2    0    0 -0.24282775497E+02 -0.14111253661E+02  0.52040202138E+02  0.13828253163E+03  0.12500038100E+03 0.  0.
        -11    1    1    2    0    0  0.65283682784E+02  0.13214564478E+02  0.70803078066E+02  0.97209360741E+02  0.00000000000E+00 0. -1.
         11    1    1    2    0    0 -0.41000907287E+02  0.89668918285E+00 -0.12284328020E+03  0.12950810763E+03  0.00000000000E+00 0.  1.
        -15    1    3    3    0    0  0.29565399228E+02 -0.12394187117E+00  0.73018472476E+02  0.78797101754E+02  0.17770000000E+01 0.  1.
         15    1    3    3    0    0 -0.53848174725E+02 -0.13987311790E+02 -0.20978270338E+02  0.59485429878E+02  0.17770000000E+01 0.  1.
</event>
<event>
 7    1  0.3091307E-006  0.1841188E+03  0.7546771E-02  0.1067174E+00
        -11   -1    0    0    0    0  0.00000000000E+00  0.00000000000E+00  0.18250000000E+03  0.18250000000E+03  0.00000000000E+00 0. -1.
         11   -1    0    0    0    0 -0.00000000000E+00 -0.00000000000E+00 -0.18250000000E+03  0.18250000000E+03  0.00000000000E+00 0.  1.
         25    2    1    2    0    0  0.33698292189E+02  0.74057417234E+02 -0.11101031886E+03  0.18591743938E+03  0.12498770910E+03 0.  0.
        -11    1    1    2    0    0 -0.61815632840E+02 -0.41889729644E+02  0.11397261486E+03  0.13625593143E+03  0.00000000000E+00 0. -1.
         11    1    1    2    0    0  0.28117340651E+02 -0.32167687589E+02 -0.29622959959E+01  0.42826629189E+02  0.00000000000E+00 0.  1.
        -15    1    3    3    0    0 -0.29154567462E+02  0.72681897342E+02 -0.90663251050E+02  0.11981498164E+03  0.17770000000E+01 0. -1.
         15    1    3    3    0    0  0.62852859652E+02  0.13755198915E+01 -0.20347067813E+02  0.66102457738E+02  0.17770000000E+01 0. -1.
</event>
<event>
 7    1  0.3091307E-006  0.1677428E+03  0.7546771E-02  0.1080849E+00
        -11   -1    0    0    0    0  0.00000000000E+00  0.00000000000E+00  0.18250000000E+03  0.18250000000E+03  0.00000000000E+00 0. -1.
         11   -1    0    0    0    0 -0.00000000000E+00 -0.00000000000E+00 -0.18250000000E+03  0.18250000000E+03  0.00000000000E+00 0. -1.
         25    2    1    2    0    0 -0.38622439737E+02 -0.30848687788E+02 -0.51104222873E+02  0.14379824311E+03  0.12499183468E+03 0.  0.
        -11    1    1    2    0    0  0.67790276201E+02  0.72172703525E+02  0.10702171783E+03  0.14580147040E+03  0.00000000000E+00 0. -1.
         11    1    1    2    0    0 -0.29167836464E+02 -0.41324015737E+02 -0.55917494959E+02  0.75400286493E+02  0.00000000000E+00 0. -1.
        -15    1    3    3    0    0 -0.59800675971E+02 -0.11523136747E+02  0.22373724511E+02  0.64904890452E+02  0.17770000000E+01 0.  1.
         15    1    3    3    0    0  0.21178236234E+02 -0.19325551041E+02 -0.73477947384E+02  0.78893352660E+02  0.17770000000E+01 0.  1.
</event>
<event>
 7    1  0.3091307E-006  0.1759044E+03  0.7546771E-02  0.1073830E+00
        -11   -1    0    0    0    0  0.00000000000E+00  0.00000000000E+00  0.18250000000E+03  0.18250000000E+03  0.00000000000E+00 0.  1.
         11   -1    0    0    0    0 -0.00000000000E+00 -0.00000000000E+00 -0.18250000000E+03  0.18250000000E+03  0.00000000000E+00 0. -1.
         25    2    1    2    0    0  0.49675233423E+02 -0.54437910458E+02 -0.55743896490E+02  0.15544567988E+03  0.12499944994E+03 0.  0.
        -11    1    1    2    0    0 -0.66915561024E+02  0.86360595907E+02  0.10288357422E+03  0.15006956612E+03  0.00000000000E+00 0.  1.
         11    1    1    2    0    0  0.17240327602E+02 -0.31922685449E+02 -0.47139677729E+02  0.59484754000E+02  0.00000000000E+00 0. -1.
        -15    1    3    3    0    0  0.52027550691E+01 -0.86752302084E+02 -0.18086766290E+02  0.88788059000E+02  0.17770000000E+01 0.  1.
         15    1    3    3    0    0  0.44472478354E+02  0.32314391625E+02 -0.37657130200E+02  0.66657620877E+02  0.17770000000E+01 0.  1.
</event>
<event>
 7    1  0.3091307E-006  0.1705103E+03  0.7546771E-02  0.1078420E+00
        -11   -1    0    0    0    0  0.00000000000E+00  0.00000000000E+00  0.18250000000E+03  0.18250000000E+03  0.00000000000E+00 0.  1.
         11   -1    0    0    0    0 -0.00000000000E+00 -0.00000000000E+00 -0.18250000000E+03  0.18250000000E+03  0.00000000000E+00 0.  1.
         25    2    1    2    0    0 -0.30463026932E+02  0.52359356070E+02  0.95065535141E+02  0.16832013104E+03  0.12499884945E+03 0.  0.
        -11    1    1    2    0    0 -0.37686089529E+01 -0.64890881575E+02  0.26178876651E+02  0.70073978820E+02  0.00000000000E+00 0.  1.
         11    1    1    2    0    0  0.34231635885E+02  0.12531525505E+02 -0.12124441179E+03  0.12660589014E+03  0.00000000000E+00 0.  1.
        -15    1    3    3    0    0 -0.78413261750E+02  0.41731691144E+02  0.70260812798E+02  0.11326920680E+03  0.17770000000E+01 0.  1.
         15    1    3    3    0    0  0.47950234818E+02  0.10627664926E+02  0.24804722343E+02  0.55050924247E+02  0.17770000000E+01 0.  1.
</event>
<event>
 7    1  0.3091307E-006  0.1659942E+03  0.7546771E-02  0.1082410E+00
        -11   -1    0    0    0    0  0.00000000000E+00  0.00000000000E+00  0.18250000000E+03  0.18250000000E+03  0.00000000000E+00 0. -1.
         11   -1    0    0    0    0 -0.00000000000E+00 -0.00000000000E+00 -0.18250000000E+03  0.18250000000E+03  0.00000000000E+00 0. -1.
         25    2    1    2    0    0  0.10729352061E+02 -0.43230013154E+02  0.79159319132E+02  0.15452303478E+03  0.12500886945E+03 0.  0.
        -11    1    1    2    0    0 -0.59507765810E+02  0.29351196079E+02  0.42413687262E+02  0.78750160445E+02  0.00000000000E+00 0. -1.
         11    1    1    2    0    0  0.48778413749E+02  0.13878817075E+02 -0.12157300639E+03  0.13172680477E+03  0.00000000000E+00 0. -1.
        -15    1    3    3    0    0  0.46172690254E+02  0.15950948507E+02  0.69316276522E+02  0.84818948375E+02  0.17770000000E+01 0. -1.
         15    1    3    3    0    0 -0.35443338193E+02 -0.59180961661E+02  0.98430426093E+01  0.69704086409E+02  0.17770000000E+01 0. -1.
</event>
<event>
 7    1  0.3091307E-006  0.1639429E+03  0.7546771E-02  0.1084268E+00
        -11   -1    0    0    0    0  0.00000000000E+00  0.00000000000E+00  0.18250000000E+03  0.18250000000E+03  0.00000000000E+00 0. -1.
         11   -1    0    0    0    0 -0.00000000000E+00 -0.00000000000E+00 -0.18250000000E+03  0.18250000000E+03  0.00000000000E+00 0. -1.
         25    2    1    2    0    0 -0.56538070850E+02 -0.85860909532E+02  0.20568721986E+02  0.16314075776E+03  0.12499274089E+03 0.  0.
        -11    1    1    2    0    0  0.41312654989E+02  0.94280543520E+02  0.60194554854E+02  0.11924320015E+03  0.00000000000E+00 0. -1.
         11    1    1    2    0    0  0.15225415861E+02 -0.84196339877E+01 -0.80763276840E+02  0.82616042090E+02  0.00000000000E+00 0. -1.
        -15    1    3    3    0    0 -0.77013122459E+02 -0.96183061652E+01 -0.10391500999E+02  0.78324158893E+02  0.17770000000E+01 0.  1.
         15    1    3    3    0    0  0.20475051609E+02 -0.76242603367E+02  0.30960222984E+02  0.84816598864E+02  0.17770000000E+01 0.  1.
</event>
<event>
 7    1  0.3091307E-006  0.1566881E+03  0.7546771E-02  0.1091086E+00
        -11   -1    0    0    0    0  0.00000000000E+00  0.00000000000E+00  0.18250000000E+03  0.18250000000E+03  0.00000000000E+00 0. -1.
         11   -1    0    0    0    0 -0.00000000000E+00 -0.00000000000E+00 -0.18250000000E+03  0.18250000000E+03  0.00000000000E+00 0. -1.
         25    2    1    2    0    0 -0.59832952236E+02  0.32687541663E+02  0.89370977451E+01  0.14267660792E+03  0.12501314002E+03 0.  0.
        -11    1    1    2    0    0  0.78887147361E+02 -0.53100505521E+02  0.83010985580E+02  0.12622863951E+03  0.00000000000E+00 0. -1.
         11    1    1    2    0    0 -0.19054195126E+02  0.20412963858E+02 -0.91948083325E+02  0.96094752575E+02  0.00000000000E+00 0. -1.
        -15    1    3    3    0    0  0.53057489107E+01  0.58773747097E+02  0.34019168035E+02  0.68139312016E+02  0.17770000000E+01 0. -1.
         15    1    3    3    0    0 -0.65138701146E+02 -0.26086205433E+02 -0.25082070289E+02  0.74537295899E+02  0.17770000000E+01 0. -1.
</event>
<event>
 7    1  0.3091307E-006  0.1873113E+03  0.7546771E-02  0.1064688E+00
        -11   -1    0    0    0    0  0.00000000000E+00  0.00000000000E+00  0.18250000000E+03  0.18250000000E+03  0.00000000000E+00 0.  1.
         11   -1    0    0    0    0 -0.00000000000E+00 -0.00000000000E+00 -0.18250000000E+03  0.18250000000E+03  0.00000000000E+00 0. -1.
         25    2    1    2    0    0  0.79456690948E+02  0.25599718824E+02  0.10897602975E+03  0.18565924673E+03  0.12499947799E+03 0.  0.
        -11    1    1    2    0    0 -0.13437561287E+02  0.33419804161E+02  0.34980588713E+01  0.36189608720E+02  0.00000000000E+00 0.  1.
         11    1    1    2    0    0 -0.66019129661E+02 -0.59019522985E+02 -0.11247408862E+03  0.14315114455E+03  0.00000000000E+00 0. -1.
        -15    1    3    3    0    0  0.56679094124E+02  0.54566106705E+02  0.12314217376E+03  0.14614079649E+03  0.17770000000E+01 0. -1.
         15    1    3    3    0    0  0.22777596823E+02 -0.28966387881E+02 -0.14166144018E+02  0.39518450238E+02  0.17770000000E+01 0. -1.
</event>
<event>
 7    1  0.3091307E-006  0.1442321E+03  0.7546771E-02  0.1103795E+00
        -11   -1    0    0    0    0  0.00000000000E+00  0.00000000000E+00  0.18250000000E+03  0.18250000000E+03  0.00000000000E+00 0.  1.
         11   -1    0    0    0    0 -0.00000000000E+00 -0.00000000000E+00 -0.18250000000E+03  0.18250000000E+03  0.00000000000E+00 0. -1.
         25    2    1    2    0    0 -0.79934564367E+01  0.22556948523E+02 -0.11343494707E+01  0.12727406157E+03  0.12499875490E+03 0.  0.
        -11    1    1    2    0    0  0.35868439939E+02  0.16082577294E+01  0.11371832700E+03  0.11925178980E+03  0.00000000000E+00 0.  1.
         11    1    1    2    0    0 -0.27874983502E+02 -0.24165206252E+02 -0.11258397752E+03  0.11847414863E+03  0.00000000000E+00 0. -1.
        -15    1    3    3    0    0  0.11758685911E+02  0.53879584689E+02  0.42769311809E+02  0.69811518406E+02  0.17770000000E+01 0. -1.
         15    1    3    3    0    0 -0.19752142347E+02 -0.31322636167E+02 -0.43903661279E+02  0.57462543161E+02  0.17770000000E+01 0. -1.
</event>
<event>
 7    1  0.3091307E-006  0.1493007E+03  0.7546771E-02  0.1098459E+00
        -11   -1    0    0    0    0  0.00000000000E+00  0.00000000000E+00  0.18250000000E+03  0.18250000000E+03  0.00000000000E+00 0.  1.
         11   -1    0    0    0    0 -0.00000000000E+00 -0.00000000000E+00 -0.18250000000E+03  0.18250000000E+03  0.00000000000E+00 0. -1.
         25    2    1    2    0    0 -0.51977402773E+02  0.33342063014E+02  0.18503462658E+01  0.13943628393E+03  0.12500283969E+03 0.  0.
        -11    1    1    2    0    0  0.95472040334E+01 -0.25630433544E+02  0.10596788312E+03  0.10944067106E+03  0.00000000000E+00 0.  1.
         11    1    1    2    0    0  0.42430198740E+02 -0.77116294702E+01 -0.10781822939E+03  0.11612304501E+03  0.00000000000E+00 0. -1.
        -15    1    3    3    0    0 -0.22152574263E+02 -0.39174399842E+02  0.32171189368E+02  0.55349013576E+02  0.17770000000E+01 0.  1.
         15    1    3    3    0    0 -0.29824828511E+02  0.72516462856E+02 -0.30320843103E+02  0.84087270358E+02  0.17770000000E+01 0.  1.
</event>
<event>
 7    1  0.3091307E-006  0.1594267E+03  0.7546771E-02  0.1088466E+00
        -11   -1    0    0    0    0  0.00000000000E+00  0.00000000000E+00  0.18250000000E+03  0.18250000000E+03  0.00000000000E+00 0.  1.
         11   -1    0    0    0    0 -0.00000000000E+00 -0.00000000000E+00 -0.18250000000E+03  0.18250000000E+03  0.00000000000E+00 0.  1.
         25    2    1    2    0    0  0.53418163972E+02 -0.44085820440E+02  0.49562908251E+02  0.15125981712E+03  0.12500396232E+03 0.  0.
        -11    1    1    2    0    0 -0.41257089163E+02  0.36871700024E+02  0.72308931378E+02  0.91050816722E+02  0.00000000000E+00 0.  1.
         11    1    1    2    0    0 -0.12161074809E+02  0.72141204163E+01 -0.12187183963E+03  0.12268936616E+03  0.00000000000E+00 0.  1.
        -15    1    3    3    0    0  0.88346160529E+02 -0.43619891044E+02  0.10933324288E+02  0.99148546555E+02  0.17770000000E+01 0.  1.
         15    1    3    3    0    0 -0.34927996557E+02 -0.46592939631E+00  0.38629583963E+02  0.52111270564E+02  0.17770000000E+01 0.  1.
</event>
<event>
 7    1  0.3091307E-006  0.1973907E+03  0.7546771E-02  0.1057183E+00
        -11   -1    0    0    0    0  0.00000000000E+00  0.00000000000E+00  0.18250000000E+03  0.18250000000E+03  0.00000000000E+00 0.  1.
         11   -1    0    0    0    0 -0.00000000000E+00 -0.00000000000E+00 -0.18250000000E+03  0.18250000000E+03  0.00000000000E+00 0. -1.
         25    2    1    2    0    0  0.36399010417E+02 -0.39110268209E+02  0.13634224743E+03  0.19253141594E+03  0.12499854659E+03 0.  0.
        -11    1    1    2    0    0 -0.48358735080E+01  0.11159870126E+01  0.13664984506E+02  0.14538325253E+02  0.00000000000E+00 0.  1.
         11    1    1    2    0    0 -0.31563136909E+02  0.37994281196E+02 -0.15000723194E+03  0.15793025881E+03  0.00000000000E+00 0. -1.
        -15    1    3    3    0    0  0.65392076543E+02 -0.39952264718E+02  0.14342338017E+03  0.16262143413E+03  0.17770000000E+01 0.  1.
         15    1    3    3    0    0 -0.28993066126E+02  0.84199650926E+00 -0.70811327435E+01  0.29909981803E+02  0.17770000000E+01 0.  1.
</event>
<event>
 7    1  0.3091307E-006  0.1571222E+03  0.7546771E-02  0.1090667E+00
        -11   -1    0    0    0    0  0.00000000000E+00  0.00000000000E+00  0.18250000000E+03  0.18250000000E+03  0.00000000000E+00 0. -1.
         11   -1    0    0    0    0 -0.00000000000E+00 -0.00000000000E+00 -0.18250000000E+03  0.18250000000E+03  0.00000000000E+00 0. -1.
         25    2    1    2    0    0 -0.76214287863E+01 -0.70801475390E+02 -0.42175991719E+02  0.14991529442E+03  0.12499938452E+03 0.  0.
        -11    1    1    2    0    0  0.22427584511E+02  0.13553134717E+02  0.11689612678E+03  0.11979728070E+03  0.00000000000E+00 0. -1.
         11    1    1    2    0    0 -0.14806155724E+02  0.57248340673E+02 -0.74720135056E+02  0.95287424878E+02  0.00000000000E+00 0. -1.
        -15    1    3    3    0    0 -0.43887086663E+02  0.18313789630E+02 -0.15702046029E+02  0.50111707663E+02  0.17770000000E+01 0.  1.
         15    1    3    3    0    0  0.36265657877E+02 -0.89115265020E+02 -0.26473945690E+02  0.99803586760E+02  0.17770000000E+01 0.  1.
</event>
<event>
 7    1  0.3091307E-006  0.1717411E+03  0.7546771E-02  0.1077357E+00
        -11   -1    0    0    0    0  0.00000000000E+00  0.00000000000E+00  0.18250000000E+03  0.18250000000E+03  0.00000000000E+00 0. -1.
         11   -1    0    0    0    0 -0.00000000000E+00 -0.00000000000E+00 -0.18250000000E+03  0.18250000000E+03  0.00000000000E+00 0.  1.
         25    2    1    2    0    0 -0.14735128808E+02 -0.43853715607E+01  0.10418322820E+03  0.16344462428E+03  0.12499457854E+03 0.  0.
        -11    1    1    2    0    0  0.62785501568E+02 -0.16660522686E+02  0.18989801383E+02  0.67677210196E+02  0.00000000000E+00 0. -1.
         11    1    1    2    0    0 -0.48050372761E+02  0.21045894246E+02 -0.12317302958E+03  0.13387816552E+03  0.00000000000E+00 0.  1.
        -15    1    3    3    0    0  0.22802547850E+02 -0.18655775634E+02 -0.18168269108E+02  0.34658878867E+02  0.17770000000E+01 0.  1.
         15    1    3    3    0    0 -0.37537676658E+02  0.14270404073E+02  0.12235149730E+03  0.12878574542E+03  0.17770000000E+01 0.  1.
</event>
<event>
 7    1  0.3091307E-006  0.1763556E+03  0.7546771E-02  0.1073454E+00
        -11   -1    0    0    0    0  0.00000000000E+00  0.00000000000E+00  0.18250000000E+03  0.18250000000E+03  0.00000000000E+00 0. -1.
         11   -1    0    0    0    0 -0.00000000000E+00 -0.00000000000E+00 -0.18250000000E+03  0.18250000000E+03  0.00000000000E+00 0.  1.
         25    2    1    2    0    0 -0.10636272619E+02 -0.72276640156E+01 -0.91873167702E+02  0.15566064568E+03  0.12499675295E+03 0.  0.
        -11    1    1    2    0    0  0.78573279209E+01  0.16693610086E+02  0.14962130294E+03  0.15075459698E+03  0.00000000000E+00 0. -1.
         11    1    1    2    0    0  0.27789446977E+01 -0.94659460703E+01 -0.57748135234E+02  0.58584757332E+02  0.00000000000E+00 0.  1.
        -15    1    3    3    0    0 -0.13593631903E+01  0.26641547461E+00 -0.12261662176E+03  0.12263732101E+03  0.17770000000E+01 0.  1.
         15    1    3    3    0    0 -0.92769094283E+01 -0.74940794902E+01  0.30743454055E+02  0.33023324669E+02  0.17770000000E+01 0. -1.
</event>
<event>
 7    1  0.3091307E-006  0.1720830E+03  0.7546771E-02  0.1077063E+00
        -11   -1    0    0    0    0  0.00000000000E+00  0.00000000000E+00  0.18250000000E+03  0.18250000000E+03  0.00000000000E+00 0. -1.
         11   -1    0    0    0    0 -0.00000000000E+00 -0.00000000000E+00 -0.18250000000E+03  0.18250000000E+03  0.00000000000E+00 0. -1.
         25    2    1    2    0    0 -0.39380584885E+02  0.77822128365E+02  0.72184346515E+02  0.16863905889E+03  0.12498575188E+03 0.  0.
        -11    1    1    2    0    0 -0.46305795890E+02 -0.44605503815E+02  0.18854372083E+02  0.67002724201E+02  0.00000000000E+00 0. -1.
         11    1    1    2    0    0  0.85686380776E+02 -0.33216624550E+02 -0.91038718599E+02  0.12935821691E+03  0.00000000000E+00 0. -1.
        -15    1    3    3    0    0 -0.82582864518E+02  0.43790802516E+02  0.63290876518E+02  0.11290020672E+03  0.17770000000E+01 0.  1.
         15    1    3    3    0    0  0.43202279633E+02  0.34031325849E+02  0.88934699976E+01  0.55738852178E+02  0.17770000000E+01 0.  1.
</event>
<event>
 7    1  0.3091307E-006  0.1919097E+03  0.7546771E-02  0.1061202E+00
        -11   -1    0    0    0    0  0.00000000000E+00  0.00000000000E+00  0.18250000000E+03  0.18250000000E+03  0.00000000000E+00 0. -1.
         11   -1    0    0    0    0 -0.00000000000E+00 -0.00000000000E+00 -0.18250000000E+03  0.18250000000E+03  0.00000000000E+00 0. -1.
         25    2    1    2    0    0 -0.19291963911E+02 -0.32753046615E+02  0.12896983848E+03  0.18359330622E+03  0.12501336296E+03 0.  0.
        -11    1    1    2    0    0  0.14545429978E+02 -0.89682072785E+01  0.20189140332E+02  0.26449946358E+02  0.00000000000E+00 0. -1.
         11    1    1    2    0    0  0.47465339333E+01  0.41721253894E+02 -0.14915897881E+03  0.15495674742E+03  0.00000000000E+00 0. -1.
        -15    1    3    3    0    0 -0.43235720767E+02 -0.17823976562E+02  0.14411248682E+03  0.15152091696E+03  0.17770000000E+01 0.  1.
         15    1    3    3    0    0  0.23943756856E+02 -0.14929070054E+02 -0.15142648344E+02  0.32072389261E+02  0.17770000000E+01 0.  1.
</event>
<event>
 7    1  0.3091307E-006  0.1487077E+03  0.7546771E-02  0.1099072E+00
        -11   -1    0    0    0    0  0.00000000000E+00  0.00000000000E+00  0.18250000000E+03  0.18250000000E+03  0.00000000000E+00 0. -1.
         11   -1    0    0    0    0 -0.00000000000E+00 -0.00000000000E+00 -0.18250000000E+03  0.18250000000E+03  0.00000000000E+00 0. -1.
         25    2    1    2    0    0 -0.25271004235E+01  0.49802860427E+02 -0.63126216567E+01  0.13472838717E+03  0.12500071189E+03 0.  0.
        -11    1    1    2    0    0 -0.67635013754E+01 -0.32561834224E+02  0.11506250055E+03  0.11977227154E+03  0.00000000000E+00 0. -1.
         11    1    1    2    0    0  0.92906017989E+01 -0.17241026203E+02 -0.10874987889E+03  0.11049934129E+03  0.00000000000E+00 0. -1.
        -15    1    3    3    0    0  0.50444121624E+02  0.50014188747E+01  0.27316284217E+02  0.57610421883E+02  0.17770000000E+01 0.  1.
         15    1    3    3    0    0 -0.52971222047E+02  0.44801441552E+02 -0.33628905873E+02  0.77117965284E+02  0.17770000000E+01 0.  1.
</event>
<event>
 7    1  0.3091307E-006  0.1680205E+03  0.7546771E-02  0.1080603E+00
        -11   -1    0    0    0    0  0.00000000000E+00  0.00000000000E+00  0.18250000000E+03  0.18250000000E+03  0.00000000000E+00 0. -1.
         11   -1    0    0    0    0 -0.00000000000E+00 -0.00000000000E+00 -0.18250000000E+03  0.18250000000E+03  0.00000000000E+00 0. -1.
         25    2    1    2    0    0  0.15415332213E+02 -0.23742656292E+02  0.68765680888E+02  0.14545060428E+03  0.12500325284E+03 0.  0.
        -11    1    1    2    0    0  0.23990870210E+02  0.11878990351E+02  0.69928926140E+02  0.74878080746E+02  0.00000000000E+00 0. -1.
         11    1    1    2    0    0 -0.39406202423E+02  0.11863665940E+02 -0.13869460703E+03  0.14467131498E+03  0.00000000000E+00 0. -1.
        -15    1    3    3    0    0 -0.53391780659E+02  0.25864073652E+01  0.20091523608E+02  0.57133167205E+02  0.17770000000E+01 0.  1.
         15    1    3    3    0    0  0.68807112872E+02 -0.26329063657E+02  0.48674157280E+02  0.88317437071E+02  0.17770000000E+01 0.  1.
</event>
<event>
 7    1  0.3091307E-006  0.1664043E+03  0.7546771E-02  0.1082042E+00
        -11   -1    0    0    0    0  0.00000000000E+00  0.00000000000E+00  0.18250000000E+03  0.18250000000E+03  0.00000000000E+00 0. -1.
         11   -1    0    0    0    0 -0.00000000000E+00 -0.00000000000E+00 -0.18250000000E+03  0.18250000000E+03  0.00000000000E+00 0.  1.
         25    2    1    2    0    0  0.38380395387E+02 -0.12121420551E+02  0.85159630191E+02  0.15651499980E+03  0.12499919585E+03 0.  0.
        -11    1    1    2    0    0  0.80515235015E+01  0.75102318997E+02  0.19309464060E+02  0.77961790331E+02  0.00000000000E+00 0. -1.
         11    1    1    2    0    0 -0.46431918888E+02 -0.62980898446E+02 -0.10446909425E+03  0.13052320987E+03  0.00000000000E+00 0.  1.
        -15    1    3    3    0    0  0.26278488071E+02  0.56070341708E+02  0.43111562091E+02  0.75473218227E+02  0.17770000000E+01 0.  1.
         15    1    3    3    0    0  0.12101907316E+02 -0.68191762259E+02  0.42048068100E+02  0.81041781574E+02  0.17770000000E+01 0.  1.
</event>
<event>
 7    1  0.3091307E-006  0.1638519E+03  0.7546771E-02  0.1084351E+00
        -11   -1    0    0    0    0  0.00000000000E+00  0.00000000000E+00  0.18250000000E+03  0.18250000000E+03  0.00000000000E+00 0. -1.
         11   -1    0    0    0    0 -0.00000000000E+00 -0.00000000000E+00 -0.18250000000E+03  0.18250000000E+03  0.00000000000E+00 0. -1.
         25    2    1    2    0    0 -0.38385808532E+02 -0.24503208353E+02  0.46659437691E+02  0.14098078611E+03  0.12499840563E+03 0.  0.
        -11    1    1    2    0    0 -0.91740786580E+01 -0.10630794798E+02  0.81592926760E+02  0.82792410368E+02  0.00000000000E+00 0. -1.
         11    1    1    2    0    0  0.47559887190E+02  0.35134003151E+02 -0.12825236445E+03  0.14122680353E+03  0.00000000000E+00 0. -1.
        -15    1    3    3    0    0  0.57164677846E+01  0.11695324517E+02  0.75771828319E+02  0.76902446744E+02  0.17770000000E+01 0.  1.
         15    1    3    3    0    0 -0.44102276316E+02 -0.36198532870E+02 -0.29112390628E+02  0.64078339361E+02  0.17770000000E+01 0.  1.
</event>
<event>
 7    1  0.3091307E-006  0.1787291E+03  0.7546771E-02  0.1071497E+00
        -11   -1    0    0    0    0  0.00000000000E+00  0.00000000000E+00  0.18250000000E+03  0.18250000000E+03  0.00000000000E+00 0. -1.
         11   -1    0    0    0    0 -0.00000000000E+00 -0.00000000000E+00 -0.18250000000E+03  0.18250000000E+03  0.00000000000E+00 0.  1.
         25    2    1    2    0    0  0.34688787052E+02  0.86668373816E+02  0.78832745911E+02  0.17479833953E+03  0.12500055483E+03 0.  0.
        -11    1    1    2    0    0 -0.52317220309E+01 -0.32330822547E+02  0.42724168984E+02  0.53833146084E+02  0.00000000000E+00 0. -1.
         11    1    1    2    0    0 -0.29457065021E+02 -0.54337551269E+02 -0.12155691489E+03  0.13636851439E+03  0.00000000000E+00 0.  1.
        -15    1    3    3    0    0  0.57602115766E+02  0.17509584763E+02 -0.87471086459E+01  0.60862623489E+02  0.17770000000E+01 0.  1.
         15    1    3    3    0    0 -0.22913328714E+02  0.69158789054E+02  0.87579854557E+02  0.11393571604E+03  0.17770000000E+01 0.  1.
</event>
<event>
 7    1  0.3091307E-006  0.1446671E+03  0.7546771E-02  0.1103328E+00
        -11   -1    0    0    0    0  0.00000000000E+00  0.00000000000E+00  0.18250000000E+03  0.18250000000E+03  0.00000000000E+00 0. -1.
         11   -1    0    0    0    0 -0.00000000000E+00 -0.00000000000E+00 -0.18250000000E+03  0.18250000000E+03  0.00000000000E+00 0.  1.
         25    2    1    2    0    0  0.13680383997E+02  0.24504107382E+02 -0.15473590843E+02  0.12904161497E+03  0.12499880878E+03 0.  0.
        -11    1    1    2    0    0  0.57108539311E+02  0.14214472211E+02  0.10193069916E+03  0.11770005911E+03  0.00000000000E+00 0. -1.
         11    1    1    2    0    0 -0.70788923308E+02 -0.38718579593E+02 -0.86457108321E+02  0.11825832591E+03  0.00000000000E+00 0.  1.
        -15    1    3    3    0    0 -0.21544523447E+02  0.16861928611E+02  0.48430208473E+02  0.55651899777E+02  0.17770000000E+01 0.  1.
         15    1    3    3    0    0  0.35224907444E+02  0.76421787707E+01 -0.63903799316E+02  0.73389715198E+02  0.17770000000E+01 0.  1.
</event>
<event>
 7    1  0.3091307E-006  0.1625852E+03  0.7546771E-02  0.1085514E+00
        -11   -1    0    0    0    0  0.00000000000E+00  0.00000000000E+00  0.18250000000E+03  0.18250000000E+03  0.00000000000E+00 0.  1.
         11   -1    0    0    0    0 -0.00000000000E+00 -0.00000000000E+00 -0.18250000000E+03  0.18250000000E+03  0.00000000000E+00 0.  1.
         25    2    1    2    0    0  0.45228719293E+01  0.27951109954E+02  0.62432376331E+02  0.14256117713E+03  0.12499666673E+03 0.  0.
        -11    1    1    2    0    0  0.57950659655E+02 -0.18954543760E+02  0.59465791764E+02  0.85168856243E+02  0.00000000000E+00 0.  1.
         11    1    1    2    0    0 -0.62473531585E+02 -0.89965661941E+01 -0.12189816810E+03  0.13726996662E+03  0.00000000000E+00 0.  1.
        -15    1    3    3    0    0 -0.51519794025E+02  0.17157043367E+01  0.62006326663E+02  0.80654665661E+02  0.17770000000E+01 0.  1.
         15    1    3    3    0    0  0.56042665955E+02  0.26235405617E+02  0.42604966847E+00  0.61906511471E+02  0.17770000000E+01 0.  1.
</event>
<event>
 7    1  0.3091307E-006  0.1668682E+03  0.7546771E-02  0.1081627E+00
        -11   -1    0    0    0    0  0.00000000000E+00  0.00000000000E+00  0.18250000000E+03  0.18250000000E+03  0.00000000000E+00 0.  1.
         11   -1    0    0    0    0 -0.00000000000E+00 -0.00000000000E+00 -0.18250000000E+03  0.18250000000E+03  0.00000000000E+00 0.  1.
         25    2    1    2    0    0 -0.26996427643E+02  0.44229012592E+02 -0.75870221766E+02  0.15513703783E+03  0.12500478909E+03 0.  0.
        -11    1    1    2    0    0  0.31726549309E+02  0.12009443719E+02  0.12837363654E+03  0.13278023659E+03  0.00000000000E+00 0.  1.
         11    1    1    2    0    0 -0.47301216664E+01 -0.56238456310E+02 -0.52503414779E+02  0.77082725578E+02  0.00000000000E+00 0.  1.
        -15    1    3    3    0    0  0.98839762983E+01 -0.40818184366E+02 -0.17209470988E+02  0.45421809553E+02  0.17770000000E+01 0.  1.
         15    1    3    3    0    0 -0.36880403941E+02  0.85047196957E+02 -0.58660750778E+02  0.10971522828E+03  0.17770000000E+01 0.  1.
</event>
<event>
 7    1  0.3091307E-006  0.1528997E+03  0.7546771E-02  0.1094810E+00
        -11   -1    0    0    0    0  0.00000000000E+00  0.00000000000E+00  0.18250000000E+03  0.18250000000E+03  0.00000000000E+00 0.  1.
         11   -1    0    0    0    0 -0.00000000000E+00 -0.00000000000E+00 -0.18250000000E+03  0.18250000000E+03  0.00000000000E+00 0. -1.
         25    2    1    2    0    0  0.15029942624E+01  0.77689745404E+02  0.67572360756E+01  0.14733952266E+03  0.12500127666E+03 0.  0.
        -11    1    1    2    0    0  0.61071819253E+02 -0.30616059160E+02  0.77042951526E+02  0.10296954193E+03  0.00000000000E+00 0.  1.
         11    1    1    2    0    0 -0.62574813516E+02 -0.47073686245E+02 -0.83800187601E+02  0.11469093541E+03  0.00000000000E+00 0. -1.
        -15    1    3    3    0    0 -0.26800040122E+02  0.19014288608E+02 -0.50709714488E+02  0.60451784045E+02  0.17770000000E+01 0.  1.
         15    1    3    3    0    0  0.28303034384E+02  0.58675456796E+02  0.57466950564E+02  0.86887738615E+02  0.17770000000E+01 0.  1.
</event>
<event>
 7    1  0.3091307E-006  0.1463097E+03  0.7546771E-02  0.1101579E+00
        -11   -1    0    0    0    0  0.00000000000E+00  0.00000000000E+00  0.18250000000E+03  0.18250000000E+03  0.00000000000E+00 0.  1.
         11   -1    0    0    0    0 -0.00000000000E+00 -0.00000000000E+00 -0.18250000000E+03  0.18250000000E+03  0.00000000000E+00 0. -1.
         25    2    1    2    0    0  0.46312690926E+01 -0.14840172063E+01  0.88170769096E+01  0.12540545376E+03  0.12500054411E+03 0.  0.
        -11    1    1    2    0    0  0.46626688395E+02 -0.11205617871E+02  0.10427973131E+03  0.11477750784E+03  0.00000000000E+00 0.  1.
         11    1    1    2    0    0 -0.51257957488E+02  0.12689635077E+02 -0.11309680822E+03  0.12481703840E+03  0.00000000000E+00 0. -1.
        -15    1    3    3    0    0 -0.23661025543E+02  0.28292835573E+02 -0.44661902274E+02  0.57949736136E+02  0.17770000000E+01 0. -1.
         15    1    3    3    0    0  0.28292294636E+02 -0.29776852779E+02  0.53478979183E+02  0.67455717628E+02  0.17770000000E+01 0. -1.
</event>
<event>
 7    1  0.3091307E-006  0.1677962E+03  0.7546771E-02  0.1080801E+00
        -11   -1    0    0    0    0  0.00000000000E+00  0.00000000000E+00  0.18250000000E+03  0.18250000000E+03  0.00000000000E+00 0.  1.
         11   -1    0    0    0    0 -0.00000000000E+00 -0.00000000000E+00 -0.18250000000E+03  0.18250000000E+03  0.00000000000E+00 0.  1.
         25    2    1    2    0    0 -0.86620829898E+02 -0.40100406419E+02 -0.18331947882E+02  0.15833791792E+03  0.12499450056E+03 0.  0.
        -11    1    1    2    0    0  0.98446126473E+02  0.10111273109E+02  0.86383058380E+02  0.13136175409E+03  0.00000000000E+00 0.  1.
         11    1    1    2    0    0 -0.11825296575E+02  0.29989133311E+02 -0.68051110499E+02  0.75300327993E+02  0.00000000000E+00 0.  1.
        -15    1    3    3    0    0  0.66015173162E+01 -0.37481431082E+02  0.34276241426E+02  0.51248962547E+02  0.17770000000E+01 0.  1.
         15    1    3    3    0    0 -0.93222347214E+02 -0.26189753368E+01 -0.52608189307E+02  0.10708895537E+03  0.17770000000E+01 0.  1.
</event>
<event>
 7    1  0.3091307E-006  0.1743817E+03  0.7546771E-02  0.1075107E+00
        -11   -1    0    0    0    0  0.00000000000E+00  0.00000000000E+00  0.18250000000E+03  0.18250000000E+03  0.00000000000E+00 0.  1.
         11   -1    0    0    0    0 -0.00000000000E+00 -0.00000000000E+00 -0.18250000000E+03  0.18250000000E+03  0.00000000000E+00 0. -1.
         25    2    1    2    0    0  0.70909317262E+02  0.13705905824E+02  0.80206897380E+02  0.16514539770E+03  0.12499549138E+03 0.  0.
        -11    1    1    2    0    0 -0.34253757349E+02  0.22826057952E+02  0.47027876590E+02  0.62497759885E+02  0.00000000000E+00 0.  1.
         11    1    1    2    0    0 -0.36655559913E+02 -0.36531963776E+02 -0.12723477397E+03  0.13735684241E+03  0.00000000000E+00 0. -1.
        -15    1    3    3    0    0 -0.29097311924E+02 -0.17494436602E+02  0.41028915484E+02  0.53284505328E+02  0.17770000000E+01 0. -1.
         15    1    3    3    0    0  0.10000662919E+03  0.31200342426E+02  0.39177981896E+02  0.11186089238E+03  0.17770000000E+01 0. -1.
</event>
<event>
 7    1  0.3091307E-006  0.1816891E+03  0.7546771E-02  0.1069102E+00
        -11   -1    0    0    0    0  0.00000000000E+00  0.00000000000E+00  0.18250000000E+03  0.18250000000E+03  0.00000000000E+00 0.  1.
         11   -1    0    0    0    0 -0.00000000000E+00 -0.00000000000E+00 -0.18250000000E+03  0.18250000000E+03  0.00000000000E+00 0. -1.
         25    2    1    2    0    0  0.79824210346E+02 -0.23238722709E+02 -0.75829083721E+02  0.16818496856E+03  0.12499676365E+03 0.  0.
        -11    1    1    2    0    0 -0.78069912854E+02  0.31784788154E+02  0.12285221681E+03  0.14898943327E+03  0.00000000000E+00 0.  1.
         11    1    1    2    0    0 -0.17542974922E+01 -0.85460654451E+01 -0.47023133091E+02  0.47825598166E+02  0.00000000000E+00 0. -1.
        -15    1    3    3    0    0  0.49859075997E+02  0.22565969004E+02  0.19599506061E+02  0.58158823778E+02  0.17770000000E+01 0.  1.
         15    1    3    3    0    0  0.29965134349E+02 -0.45804691713E+02 -0.95428589782E+02  0.11002614479E+03  0.17770000000E+01 0.  1.
</event>
<event>
 7    1  0.3091307E-006  0.1622704E+03  0.7546771E-02  0.1085805E+00
        -11   -1    0    0    0    0  0.00000000000E+00  0.00000000000E+00  0.18250000000E+03  0.18250000000E+03  0.00000000000E+00 0.  1.
         11   -1    0    0    0    0 -0.00000000000E+00 -0.00000000000E+00 -0.18250000000E+03  0.18250000000E+03  0.00000000000E+00 0.  1.
         25    2    1    2    0    0  0.39605560501E+02 -0.16805979822E+02  0.48890444179E+02  0.14094881553E+03  0.12500100674E+03 0.  0.
        -11    1    1    2    0    0 -0.14418811315E+02 -0.17054425391E+02  0.82802776676E+02  0.85761619449E+02  0.00000000000E+00 0.  1.
         11    1    1    2    0    0 -0.25186749185E+02  0.33860405213E+02 -0.13169322086E+03  0.13828956503E+03  0.00000000000E+00 0.  1.
        -15    1    3    3    0    0 -0.28332947962E+02  0.32249504222E+02 -0.17889597821E+01  0.43001681000E+02  0.17770000000E+01 0.  1.
         15    1    3    3    0    0  0.67938508462E+02 -0.49055484044E+02  0.50679403962E+02  0.97947134525E+02  0.17770000000E+01 0.  1.
</event>
<event>
 7    1  0.3091307E-006  0.1579777E+03  0.7546771E-02  0.1089845E+00
        -11   -1    0    0    0    0  0.00000000000E+00  0.00000000000E+00  0.18250000000E+03  0.18250000000E+03  0.00000000000E+00 0.  1.
         11   -1    0    0    0    0 -0.00000000000E+00 -0.00000000000E+00 -0.18250000000E+03  0.18250000000E+03  0.00000000000E+00 0.  1.
         25    2    1    2    0    0  0.22232645528E+01  0.87877415684E+02  0.29378849509E+02  0.15561423810E+03  0.12500116482E+03 0.  0.
        -11    1    1    2    0    0  0.21956668020E+01 -0.96424978131E+02  0.63844972383E+02  0.11566666702E+03  0.00000000000E+00 0.  1.
         11    1    1    2    0    0 -0.44189313549E+01  0.85475624464E+01 -0.93223821892E+02  0.93719094886E+02  0.00000000000E+00 0.  1.
        -15    1    3    3    0    0 -0.23797625833E+01  0.10523852980E+03  0.59180145618E+02  0.12077358482E+03  0.17770000000E+01 0. -1.
         15    1    3    3    0    0  0.46030271361E+01 -0.17361114118E+02 -0.29801296109E+02  0.34840653280E+02  0.17770000000E+01 0. -1.
</event>
<event>
 7    1  0.3091307E-006  0.1716800E+03  0.7546771E-02  0.1077409E+00
        -11   -1    0    0    0    0  0.00000000000E+00  0.00000000000E+00  0.18250000000E+03  0.18250000000E+03  0.00000000000E+00 0.  1.
         11   -1    0    0    0    0 -0.00000000000E+00 -0.00000000000E+00 -0.18250000000E+03  0.18250000000E+03  0.00000000000E+00 0. -1.
         25    2    1    2    0    0  0.10952892013E+02 -0.65953643124E+02  0.80590441056E+02  0.16306240210E+03  0.12499871561E+03 0.  0.
        -11    1    1    2    0    0 -0.97486760484E+01  0.42942604360E+02  0.51553205148E+02  0.67799977249E+02  0.00000000000E+00 0.  1.
         11    1    1    2    0    0 -0.12042159645E+01  0.23011038764E+02 -0.13214364620E+03  0.13413762065E+03  0.00000000000E+00 0. -1.
        -15    1    3    3    0    0  0.28583586231E+02  0.20328730088E+02 -0.10193617602E+02  0.36569744840E+02  0.17770000000E+01 0.  1.
         15    1    3    3    0    0 -0.17630694218E+02 -0.86282373212E+02  0.90784058659E+02  0.12649265726E+03  0.17770000000E+01 0.  1.
</event>
<event>
 7    1  0.3091307E-006  0.1633615E+03  0.7546771E-02  0.1084800E+00
        -11   -1    0    0    0    0  0.00000000000E+00  0.00000000000E+00  0.18250000000E+03  0.18250000000E+03  0.00000000000E+00 0.  1.
         11   -1    0    0    0    0 -0.00000000000E+00 -0.00000000000E+00 -0.18250000000E+03  0.18250000000E+03  0.00000000000E+00 0. -1.
         25    2    1    2    0    0 -0.72896627077E+02  0.14475894659E+02  0.34944934673E+02  0.14956177903E+03  0.12499643004E+03 0.  0.
        -11    1    1    2    0    0  0.17014216226E+02  0.15875753474E+02  0.80413331189E+02  0.83712764469E+02  0.00000000000E+00 0.  1.
         11    1    1    2    0    0  0.55882410851E+02 -0.30351648133E+02 -0.11535826586E+03  0.13172545650E+03  0.00000000000E+00 0. -1.
        -15    1    3    3    0    0  0.15901735373E+02  0.40441794009E+01  0.55416506042E+02  0.57821859585E+02  0.17770000000E+01 0. -1.
         15    1    3    3    0    0 -0.88798362451E+02  0.10431715258E+02 -0.20471571369E+02  0.91739919449E+02  0.17770000000E+01 0. -1.
</event>
<event>
 7    1  0.3091307E-006  0.1468025E+03  0.7546771E-02  0.1101060E+00
        -11   -1    0    0    0    0  0.00000000000E+00  0.00000000000E+00  0.18250000000E+03  0.18250000000E+03  0.00000000000E+00 0.  1.
         11   -1    0    0    0    0 -0.00000000000E+00 -0.00000000000E+00 -0.18250000000E+03  0.18250000000E+03  0.00000000000E+00 0. -1.
         25    2    1    2    0    0  0.41345951703E+02 -0.21491838835E+02  0.16239821714E+02  0.13438937933E+03  0.12500154642E+03 0.  0.
        -11    1    1    2    0    0 -0.64330838941E+02  0.19983444185E+02  0.95307201678E+02  0.11671014340E+03  0.00000000000E+00 0.  1.
         11    1    1    2    0    0  0.22984887238E+02  0.15083946502E+01 -0.11154702339E+03  0.11390047727E+03  0.00000000000E+00 0. -1.
        -15    1    3    3    0    0  0.62848597060E+02 -0.22985418205E+02 -0.37308904323E+02  0.76638030202E+02  0.17770000000E+01 0. -1.
         15    1    3    3    0    0 -0.21502645357E+02  0.14935793695E+01  0.53548726036E+02  0.57751349125E+02  0.17770000000E+01 0. -1.
</event>
<event>
 7    1  0.3091307E-006  0.1677790E+03  0.7546771E-02  0.1080817E+00
        -11   -1    0    0    0    0  0.00000000000E+00  0.00000000000E+00  0.18250000000E+03  0.18250000000E+03  0.00000000000E+00 0. -1.
         11   -1    0    0    0    0 -0.00000000000E+00 -0.00000000000E+00 -0.18250000000E+03  0.18250000000E+03  0.00000000000E+00 0.  1.
         25    2    1    2    0    0  0.74310022423E+02 -0.36568790796E+01  0.60857682826E+02  0.15768812207E+03  0.12500613620E+03 0.  0.
        -11    1    1    2    0    0 -0.35921912685E+02 -0.19746986406E+02  0.63216168311E+02  0.75343289144E+02  0.00000000000E+00 0. -1.
         11    1    1    2    0    0 -0.38388109738E+02  0.23403865486E+02 -0.12407385114E+03  0.13196858878E+03  0.00000000000E+00 0.  1.
        -15    1    3    3    0    0  0.15216839173E+02 -0.10844172065E+02  0.89610632046E+02  0.91555291310E+02  0.17770000000E+01 0.  1.
         15    1    3    3    0    0  0.59093183250E+02  0.71872929853E+01 -0.28752949219E+02  0.66132830764E+02  0.17770000000E+01 0.  1.
</event>
<event>
 7    1  0.3091307E-006  0.1575217E+03  0.7546771E-02  0.1090282E+00
        -11   -1    0    0    0    0  0.00000000000E+00  0.00000000000E+00  0.18250000000E+03  0.18250000000E+03  0.00000000000E+00 0. -1.
         11   -1    0    0    0    0 -0.00000000000E+00 -0.00000000000E+00 -0.18250000000E+03  0.18250000000E+03  0.00000000000E+00 0.  1.
         25    2    1    2    0    0 -0.71540539998E+02 -0.16356086006E+02  0.36197431754E+02  0.14940531428E+03  0.12500449374E+03 0.  0.
        -11    1    1    2    0    0  0.19675576139E+02  0.72164889168E+02  0.57849911825E+02  0.94559567593E+02  0.00000000000E+00 0. -1.
         11    1    1    2    0    0  0.51864963858E+02 -0.55808803163E+02 -0.94047343580E+02  0.12103511813E+03  0.00000000000E+00 0.  1.
        -15    1    3    3    0    0 -0.53866939819E+02  0.10996945472E+02 -0.39006841890E+02  0.67433459487E+02  0.17770000000E+01 0.  1.
         15    1    3    3    0    0 -0.17673600179E+02 -0.27353031478E+02  0.75204273644E+02  0.81971854790E+02  0.17770000000E+01 0.  1.
</event>
<event>
 7    1  0.3091307E-006  0.1731667E+03  0.7546771E-02  0.1076137E+00
        -11   -1    0    0    0    0  0.00000000000E+00  0.00000000000E+00  0.18250000000E+03  0.18250000000E+03  0.00000000000E+00 0. -1.
         11   -1    0    0    0    0 -0.00000000000E+00 -0.00000000000E+00 -0.18250000000E+03  0.18250000000E+03  0.00000000000E+00 0.  1.
         25    2    1    2    0    0 -0.23247111690E+02  0.92785286065E+02 -0.69616128730E+02  0.17210315498E+03  0.12499421211E+03 0.  0.
        -11    1    1    2    0    0  0.26465720419E+02 -0.47434228585E+02  0.11591287920E+03  0.12800873393E+03  0.00000000000E+00 0. -1.
         11    1    1    2    0    0 -0.32186087292E+01 -0.45351057480E+02 -0.46296750469E+02  0.64888111089E+02  0.00000000000E+00 0.  1.
        -15    1    3    3    0    0 -0.62490529752E+02  0.92774502717E+02 -0.28940139403E+02  0.11555459342E+03  0.17770000000E+01 0.  1.
         15    1    3    3    0    0  0.39243418062E+02  0.10783347686E-01 -0.40675989326E+02  0.56548561557E+02  0.17770000000E+01 0.  1.
</event>
<event>
 7    1  0.3091307E-006  0.1646536E+03  0.7546771E-02  0.1083621E+00
        -11   -1    0    0    0    0  0.00000000000E+00  0.00000000000E+00  0.18250000000E+03  0.18250000000E+03  0.00000000000E+00 0.  1.
         11   -1    0    0    0    0 -0.00000000000E+00 -0.00000000000E+00 -0.18250000000E+03  0.18250000000E+03  0.00000000000E+00 0. -1.
         25    2    1    2    0    0 -0.51460330079E+02  0.83564897292E+01  0.45200186838E+02  0.14277866274E+03  0.12499877260E+03 0.  0.
        -11    1    1    2    0    0 -0.13752602586E+02 -0.76457694146E+01  0.79743486930E+02  0.81281089901E+02  0.00000000000E+00 0.  1.
         11    1    1    2    0    0  0.65212932664E+02 -0.71072031460E+00 -0.12494367377E+03  0.14094024736E+03  0.00000000000E+00 0. -1.
        -15    1    3    3    0    0 -0.79169998334E+02  0.43671710637E+02  0.32466123373E+02  0.96084930359E+02  0.17770000000E+01 0. -1.
         15    1    3    3    0    0  0.27709668256E+02 -0.35315220908E+02  0.12734063465E+02  0.46693732384E+02  0.17770000000E+01 0. -1.
</event>
<event>
 7    1  0.3091307E-006  0.1501801E+03  0.7546771E-02  0.1097557E+00
        -11   -1    0    0    0    0  0.00000000000E+00  0.00000000000E+00  0.18250000000E+03  0.18250000000E+03  0.00000000000E+00 0. -1.
         11   -1    0    0    0    0 -0.00000000000E+00 -0.00000000000E+00 -0.18250000000E+03  0.18250000000E+03  0.00000000000E+00 0.  1.
         25    2    1    2    0    0  0.82660929581E+01  0.53528646116E+02 -0.33206619522E+02  0.14021767727E+03  0.12499869275E+03 0.  0.
        -11    1    1    2    0    0  0.74315122844E+01  0.13990565878E+02  0.11584298532E+03  0.11692117240E+03  0.00000000000E+00 0. -1.
         11    1    1    2    0    0 -0.15697605243E+02 -0.67519211994E+02 -0.82636365797E+02  0.10786115033E+03  0.00000000000E+00 0.  1.
        -15    1    3    3    0    0 -0.34380109316E+02  0.23084196996E+02 -0.66320453543E+02  0.78207623379E+02  0.17770000000E+01 0. -1.
         15    1    3    3    0    0  0.42646202274E+02  0.30444449120E+02  0.33113834021E+02  0.62010053888E+02  0.17770000000E+01 0. -1.
</event>
<event>
 7    1  0.3091307E-006  0.1745458E+03  0.7546771E-02  0.1074969E+00
        -11   -1    0    0    0    0  0.00000000000E+00  0.00000000000E+00  0.18250000000E+03  0.18250000000E+03  0.00000000000E+00 0. -1.
         11   -1    0    0    0    0 -0.00000000000E+00 -0.00000000000E+00 -0.18250000000E+03  0.18250000000E+03  0.00000000000E+00 0. -1.
         25    2    1    2    0    0 -0.42455106452E+02 -0.11495775579E+03  0.24265021102E+02  0.17672145123E+03  0.12499583351E+03 0.  0.
        -11    1    1    2    0    0  0.30507581171E+01  0.26276115886E+02  0.56265949281E+02  0.62173936980E+02  0.00000000000E+00 0. -1.
         11    1    1    2    0    0  0.39404348335E+02  0.88681639906E+02 -0.80530970383E+02  0.12610461179E+03  0.00000000000E+00 0. -1.
        -15    1    3    3    0    0 -0.81821810398E+02 -0.80865592001E+02  0.40769266462E+02  0.12206286677E+03  0.17770000000E+01 0. -1.
         15    1    3    3    0    0  0.39366703947E+02 -0.34092163791E+02 -0.16504245359E+02  0.54658584462E+02  0.17770000000E+01 0. -1.
</event>
<event>
 7    1  0.3091307E-006  0.1864211E+03  0.7546771E-02  0.1065376E+00
        -11   -1    0    0    0    0  0.00000000000E+00  0.00000000000E+00  0.18250000000E+03  0.18250000000E+03  0.00000000000E+00 0. -1.
         11   -1    0    0    0    0 -0.00000000000E+00 -0.00000000000E+00 -0.18250000000E+03  0.18250000000E+03  0.00000000000E+00 0. -1.
         25    2    1    2    0    0 -0.18207758207E+02  0.26802813330E+02 -0.11565288105E+03  0.17334616646E+03  0.12499356491E+03 0.  0.
        -11    1    1    2    0    0  0.66355646815E+01 -0.23118070375E+02  0.15171087388E+03  0.15360555052E+03  0.00000000000E+00 0. -1.
         11    1    1    2    0    0  0.11572193526E+02 -0.36847429547E+01 -0.36057992836E+02  0.38048283022E+02  0.00000000000E+00 0. -1.
        -15    1    3    3    0    0  0.41690703887E+02  0.12920445335E+02 -0.10110382412E+03  0.11013715849E+03  0.17770000000E+01 0. -1.
         15    1    3    3    0    0 -0.59898462094E+02  0.13882367995E+02 -0.14549056925E+02  0.63209007971E+02  0.17770000000E+01 0. -1.
</event>
<event>
 7    1  0.3091307E-006  0.1580656E+03  0.7546771E-02  0.1089761E+00
        -11   -1    0    0    0    0  0.00000000000E+00  0.00000000000E+00  0.18250000000E+03  0.18250000000E+03  0.00000000000E+00 0.  1.
         11   -1    0    0    0    0 -0.00000000000E+00 -0.00000000000E+00 -0.18250000000E+03  0.18250000000E+03  0.00000000000E+00 0. -1.
         25    2    1    2    0    0 -0.19898438088E+02  0.41988183747E+02 -0.21806374231E+02  0.13513052057E+03  0.12500313684E+03 0.  0.
        -11    1    1    2    0    0  0.55081252174E+02 -0.68020326407E+02  0.10449761963E+03  0.13631016710E+03  0.00000000000E+00 0.  1.
         11    1    1    2    0    0 -0.35182814086E+02  0.26032142660E+02 -0.82691245399E+02  0.93559312333E+02  0.00000000000E+00 0. -1.
        -15    1    3    3    0    0 -0.41452365575E+02  0.29542898719E+02  0.42383375092E+02  0.66261524957E+02  0.17770000000E+01 0. -1.
         15    1    3    3    0    0  0.21553927487E+02  0.12445285028E+02 -0.64189749324E+02  0.68868995613E+02  0.17770000000E+01 0. -1.
</event>
<event>
 7    1  0.3091307E-006  0.1695270E+03  0.7546771E-02  0.1079277E+00
        -11   -1    0    0    0    0  0.00000000000E+00  0.00000000000E+00  0.18250000000E+03  0.18250000000E+03  0.00000000000E+00 0. -1.
         11   -1    0    0    0    0 -0.00000000000E+00 -0.00000000000E+00 -0.18250000000E+03  0.18250000000E+03  0.00000000000E+00 0.  1.
         25    2    1    2    0    0  0.12837555129E+03 -0.71474350260E+01  0.26035171387E+02  0.18120282972E+03  0.12500106942E+03 0.  0.
        -11    1    1    2    0    0 -0.49231433837E+02 -0.14374600839E+01  0.52488661755E+02  0.71978191016E+02  0.00000000000E+00 0. -1.
         11    1    1    2    0    0 -0.79144117452E+02  0.85848951099E+01 -0.78523833142E+02  0.11181897926E+03  0.00000000000E+00 0.  1.
        -15    1    3    3    0    0  0.44930605563E+02 -0.49885817288E+02 -0.28242266532E+02  0.72856965560E+02  0.17770000000E+01 0. -1.
         15    1    3    3    0    0  0.83444945726E+02  0.42738382262E+02  0.54277437919E+02  0.10834586416E+03  0.17770000000E+01 0. -1.
</event>
<event>
 7    1  0.3091307E-006  0.1897511E+03  0.7546771E-02  0.1062825E+00
        -11   -1    0    0    0    0  0.00000000000E+00  0.00000000000E+00  0.18250000000E+03  0.18250000000E+03  0.00000000000E+00 0. -1.
         11   -1    0    0    0    0 -0.00000000000E+00 -0.00000000000E+00 -0.18250000000E+03  0.18250000000E+03  0.00000000000E+00 0. -1.
         25    2    1    2    0    0 -0.34278264604E+02 -0.18272639239E+02  0.12843850956E+03  0.18338565512E+03  0.12499983598E+03 0.  0.
        -11    1    1    2    0    0  0.94394747891E+01 -0.26479491494E+02  0.13167098065E+02  0.31042545410E+02  0.00000000000E+00 0. -1.
         11    1    1    2    0    0  0.24838789815E+02  0.44752130733E+02 -0.14160560763E+03  0.15057179947E+03  0.00000000000E+00 0. -1.
        -15    1    3    3    0    0 -0.38188296597E+02 -0.57459143308E+02  0.12627611725E+03  0.14390522806E+03  0.17770000000E+01 0. -1.
         15    1    3    3    0    0  0.39100319923E+01  0.39186504068E+02  0.21623923176E+01  0.39480427060E+02  0.17770000000E+01 0. -1.
</event>
<event>
 7    1  0.3091307E-006  0.1476917E+03  0.7546771E-02  0.1100128E+00
        -11   -1    0    0    0    0  0.00000000000E+00  0.00000000000E+00  0.18250000000E+03  0.18250000000E+03  0.00000000000E+00 0. -1.
         11   -1    0    0    0    0 -0.00000000000E+00 -0.00000000000E+00 -0.18250000000E+03  0.18250000000E+03  0.00000000000E+00 0. -1.
         25    2    1    2    0    0 -0.24221828425E+02  0.74678093985E+01 -0.33513728342E+02  0.13183098852E+03  0.12495508952E+03 0.  0.
        -11    1    1    2    0    0 -0.58411247137E+02  0.22129314471E+02  0.10351446238E+03  0.12090005903E+03  0.00000000000E+00 0. -1.
         11    1    1    2    0    0  0.82633075563E+02 -0.29597123869E+02 -0.70000734043E+02  0.11226895245E+03  0.00000000000E+00 0. -1.
        -15    1    3    3    0    0 -0.42084011884E+02 -0.27199029534E+02 -0.64707762971E+02  0.81860268639E+02  0.17770000000E+01 0. -1.
         15    1    3    3    0    0  0.17862183459E+02  0.34666838932E+02  0.31194034630E+02  0.49970719876E+02  0.17770000000E+01 0. -1.
</event>
<event>
 7    1  0.3091307E-006  0.1554221E+03  0.7546771E-02  0.1092318E+00
        -11   -1    0    0    0    0  0.00000000000E+00  0.00000000000E+00  0.18250000000E+03  0.18250000000E+03  0.00000000000E+00 0. -1.
         11   -1    0    0    0    0 -0.00000000000E+00 -0.00000000000E+00 -0.18250000000E+03  0.18250000000E+03  0.00000000000E+00 0. -1.
         25    2    1    2    0    0 -0.87975076671E+02  0.30653311233E+02  0.19462407146E+01  0.15591073946E+03  0.12500052488E+03 0.  0.
        -11    1    1    2    0    0  0.69952559576E+02  0.11781259080E+02  0.84978218211E+02  0.11069533065E+03  0.00000000000E+00 0. -1.
         11    1    1    2    0    0  0.18022517095E+02 -0.42434570314E+02 -0.86924458926E+02  0.98393929893E+02  0.00000000000E+00 0. -1.
        -15    1    3    3    0    0  0.52668176320E+01  0.46439031135E+02 -0.30589845219E+02  0.55885770463E+02  0.17770000000E+01 0.  1.
         15    1    3    3    0    0 -0.93241894303E+02 -0.15785719901E+02  0.32536085933E+02  0.10002496900E+03  0.17770000000E+01 0.  1.
</event>
<event>
 7    1  0.3091307E-006  0.1814243E+03  0.7546771E-02  0.1069314E+00
        -11   -1    0    0    0    0  0.00000000000E+00  0.00000000000E+00  0.18250000000E+03  0.18250000000E+03  0.00000000000E+00 0.  1.
         11   -1    0    0    0    0 -0.00000000000E+00 -0.00000000000E+00 -0.18250000000E+03  0.18250000000E+03  0.00000000000E+00 0. -1.
         25    2    1    2    0    0 -0.82872149353E+02  0.27693265417E+02  0.82535539222E+02  0.17340955568E+03  0.12499619466E+03 0.  0.
        -11    1    1    2    0    0  0.17281392334E+02 -0.11323088530E+02  0.43730812779E+02  0.48365719691E+02  0.00000000000E+00 0.  1.
         11    1    1    2    0    0  0.65590757019E+02 -0.16370176886E+02 -0.12626635200E+03  0.14322472463E+03  0.00000000000E+00 0. -1.
        -15    1    3    3    0    0 -0.86562917880E+02  0.51438806090E+02  0.10132001100E+03  0.14285654301E+03  0.17770000000E+01 0.  1.
         15    1    3    3    0    0  0.36907685270E+01 -0.23745540673E+02 -0.18784471775E+02  0.30553012668E+02  0.17770000000E+01 0.  1.
</event>
<event>
 7    1  0.3091307E-006  0.1615892E+03  0.7546771E-02  0.1086437E+00
        -11   -1    0    0    0    0  0.00000000000E+00  0.00000000000E+00  0.18250000000E+03  0.18250000000E+03  0.00000000000E+00 0. -1.
         11   -1    0    0    0    0 -0.00000000000E+00 -0.00000000000E+00 -0.18250000000E+03  0.18250000000E+03  0.00000000000E+00 0. -1.
         25    2    1    2    0    0 -0.17480313071E+02  0.81161814503E+02 -0.17623752856E+02  0.15109246287E+03  0.12500213675E+03 0.  0.
        -11    1    1    2    0    0  0.46672040167E+02 -0.65519065524E+02  0.98110781680E+02  0.12687297885E+03  0.00000000000E+00 0. -1.
         11    1    1    2    0    0 -0.29191727097E+02 -0.15642748979E+02 -0.80487028824E+02  0.87034558283E+02  0.00000000000E+00 0. -1.
        -15    1    3    3    0    0 -0.25960011309E+02  0.66376884923E+02  0.46235014215E+02  0.84974392070E+02  0.17770000000E+01 0. -1.
         15    1    3    3    0    0  0.84796982381E+01  0.14784929580E+02 -0.63858767071E+02  0.66118070796E+02  0.17770000000E+01 0. -1.
</event>
<event>
 7    1  0.3091307E-006  0.1545297E+03  0.7546771E-02  0.1093194E+00
        -11   -1    0    0    0    0  0.00000000000E+00  0.00000000000E+00  0.18250000000E+03  0.18250000000E+03  0.00000000000E+00 0.  1.
         11   -1    0    0    0    0 -0.00000000000E+00 -0.00000000000E+00 -0.18250000000E+03  0.18250000000E+03  0.00000000000E+00 0. -1.
         25    2    1    2    0    0  0.29750474115E+02  0.12476706045E+01  0.38698102104E+02  0.13420820160E+03  0.12501060307E+03 0.  0.
        -11    1    1    2    0    0 -0.38222267307E+02  0.23114888003E+02  0.89498485272E+02  0.10002608975E+03  0.00000000000E+00 0.  1.
         11    1    1    2    0    0  0.84717931921E+01 -0.24362558608E+02 -0.12819658738E+03  0.13076570864E+03  0.00000000000E+00 0. -1.
        -15    1    3    3    0    0  0.32256106118E+01  0.44515895270E+02  0.63544458604E+02  0.77673196431E+02  0.17770000000E+01 0.  1.
         15    1    3    3    0    0  0.26524863503E+02 -0.43268224666E+02 -0.24846356500E+02  0.56535005173E+02  0.17770000000E+01 0.  1.
</event>
<event>
 7    1  0.3091307E-006  0.1592637E+03  0.7546771E-02  0.1088620E+00
        -11   -1    0    0    0    0  0.00000000000E+00  0.00000000000E+00  0.18250000000E+03  0.18250000000E+03  0.00000000000E+00 0. -1.
         11   -1    0    0    0    0 -0.00000000000E+00 -0.00000000000E+00 -0.18250000000E+03  0.18250000000E+03  0.00000000000E+00 0. -1.
         25    2    1    2    0    0 -0.25698657516E+01 -0.83469619348E+02 -0.43803014497E+00  0.15031840932E+03  0.12498660227E+03 0.  0.
        -11    1    1    2    0    0  0.11069212971E+02  0.82118218240E+02  0.91368031371E+02  0.12334523258E+03  0.00000000000E+00 0. -1.
         11    1    1    2    0    0 -0.84993472195E+01  0.13514011081E+01 -0.90930001226E+02  0.91336358101E+02  0.00000000000E+00 0. -1.
        -15    1    3    3    0    0 -0.20764643753E+02 -0.10537668121E+03 -0.27618523313E+02  0.11091147791E+03  0.17770000000E+01 0. -1.
         15    1    3    3    0    0  0.18194778001E+02  0.21907061859E+02  0.27180493168E+02  0.39406931416E+02  0.17770000000E+01 0. -1.
</event>
<event>
 7    1  0.3091307E-006  0.1474781E+03  0.7546771E-02  0.1100351E+00
        -11   -1    0    0    0    0  0.00000000000E+00  0.00000000000E+00  0.18250000000E+03  0.18250000000E+03  0.00000000000E+00 0. -1.
         11   -1    0    0    0    0 -0.00000000000E+00 -0.00000000000E+00 -0.18250000000E+03  0.18250000000E+03  0.00000000000E+00 0.  1.
         25    2    1    2    0    0 -0.14183464550E+02  0.44443567443E+01 -0.10224273006E+02  0.12629411897E+03  0.12499898302E+03 0.  0.
        -11    1    1    2    0    0  0.39198438219E+02  0.59587360426E+01  0.11961254420E+03  0.12601263756E+03  0.00000000000E+00 0. -1.
         11    1    1    2    0    0 -0.25014973669E+02 -0.10403092787E+02 -0.10938827120E+03  0.11269324347E+03  0.00000000000E+00 0.  1.
        -15    1    3    3    0    0  0.97603663446E+01  0.27685630992E+02 -0.59723270335E+02  0.66571658107E+02  0.17770000000E+01 0.  1.
         15    1    3    3    0    0 -0.23943830894E+02 -0.23241274248E+02  0.49498997328E+02  0.59722460867E+02  0.17770000000E+01 0.  1.
</event>
<event>
 7    1  0.3091307E-006  0.1523358E+03  0.7546771E-02  0.1095375E+00
        -11   -1    0    0    0    0  0.00000000000E+00  0.00000000000E+00  0.18250000000E+03  0.18250000000E+03  0.00000000000E+00 0. -1.
         11   -1    0    0    0    0 -0.00000000000E+00 -0.00000000000E+00 -0.18250000000E+03  0.18250000000E+03  0.00000000000E+00 0. -1.
         25    2    1    2    0    0 -0.66096011826E+02 -0.28723604743E+02 -0.10185692915E+02  0.14462899322E+03  0.12498027481E+03 0.  0.
        -11    1    1    2    0    0  0.50808802670E+02 -0.13809660774E+02  0.10381499868E+03  0.11640358719E+03  0.00000000000E+00 0. -1.
         11    1    1    2    0    0  0.15287209156E+02  0.42533265518E+02 -0.93629305763E+02  0.10396741959E+03  0.00000000000E+00 0. -1.
        -15    1    3    3    0    0  0.11791048913E+02 -0.17943820698E+02  0.44088094086E+02  0.49070635871E+02  0.17770000000E+01 0.  1.
         15    1    3    3    0    0 -0.77887060739E+02 -0.10779784045E+02 -0.54273787001E+02  0.95558357348E+02  0.17770000000E+01 0.  1.
</event>
<event>
 7    1  0.3091307E-006  0.1802260E+03  0.7546771E-02  0.1070279E+00
        -11   -1    0    0    0    0  0.00000000000E+00  0.00000000000E+00  0.18250000000E+03  0.18250000000E+03  0.00000000000E+00 0.  1.
         11   -1    0    0    0    0 -0.00000000000E+00 -0.00000000000E+00 -0.18250000000E+03  0.18250000000E+03  0.00000000000E+00 0.  1.
         25    2    1    2    0    0  0.25720185676E+02  0.15590299900E+01 -0.10878958331E+03  0.16769842282E+03  0.12499451610E+03 0.  0.
        -11    1    1    2    0    0  0.79584690180E+01 -0.95757007483E+01  0.14596937571E+03  0.14649945365E+03  0.00000000000E+00 0.  1.
         11    1    1    2    0    0 -0.33678654694E+02  0.80166707583E+01 -0.37179792403E+02  0.50802123530E+02  0.00000000000E+00 0.  1.
        -15    1    3    3    0    0  0.67861987665E+02  0.29644906919E+01 -0.22392045914E+02  0.71544384994E+02  0.17770000000E+01 0.  1.
         15    1    3    3    0    0 -0.42141801989E+02 -0.14054607019E+01 -0.86397537392E+02  0.96154037830E+02  0.17770000000E+01 0.  1.
</event>
<event>
 7    1  0.3091307E-006  0.1692592E+03  0.7546771E-02  0.1079512E+00
        -11   -1    0    0    0    0  0.00000000000E+00  0.00000000000E+00  0.18250000000E+03  0.18250000000E+03  0.00000000000E+00 0. -1.
         11   -1    0    0    0    0 -0.00000000000E+00 -0.00000000000E+00 -0.18250000000E+03  0.18250000000E+03  0.00000000000E+00 0. -1.
         25    2    1    2    0    0 -0.21110158079E+02  0.38144174976E+02  0.71514423503E+02  0.15046714409E+03  0.12500172728E+03 0.  0.
        -11    1    1    2    0    0 -0.37231023980E+02 -0.24329157920E+02  0.57249465179E+02  0.72495229740E+02  0.00000000000E+00 0. -1.
         11    1    1    2    0    0  0.58341182058E+02 -0.13815017057E+02 -0.12876388868E+03  0.14203762617E+03  0.00000000000E+00 0. -1.
        -15    1    3    3    0    0  0.36324464839E+02 -0.23588817118E+02  0.61865901054E+01  0.43787334527E+02  0.17770000000E+01 0.  1.
         15    1    3    3    0    0 -0.57434622918E+02  0.61732992094E+02  0.65327833397E+02  0.10667980956E+03  0.17770000000E+01 0.  1.
</event>
<event>
 7    1  0.3091307E-006  0.1531973E+03  0.7546771E-02  0.1094513E+00
        -11   -1    0    0    0    0  0.00000000000E+00  0.00000000000E+00  0.18250000000E+03  0.18250000000E+03  0.00000000000E+00 0. -1.
         11   -1    0    0    0    0 -0.00000000000E+00 -0.00000000000E+00 -0.18250000000E+03  0.18250000000E+03  0.00000000000E+00 0. -1.
         25    2    1    2    0    0 -0.11209376475E+02  0.20316955780E+02  0.21793417197E+02  0.12898896419E+03  0.12499908415E+03 0.  0.
        -11    1    1    2    0    0 -0.48812227329E+02  0.46068671211E+02  0.77374874437E+02  0.10242962071E+03  0.00000000000E+00 0. -1.
         11    1    1    2    0    0  0.60021603805E+02 -0.66385626991E+02 -0.99168291634E+02  0.13358141510E+03  0.00000000000E+00 0. -1.
        -15    1    3    3    0    0 -0.14843973875E+02  0.39919898525E+02  0.67078689684E+02  0.79477356507E+02  0.17770000000E+01 0.  1.
         15    1    3    3    0    0  0.36345973992E+01 -0.19602942745E+02 -0.45285272487E+02  0.49511607687E+02  0.17770000000E+01 0.  1.
</event>
<event>
 7    1  0.3091307E-006  0.1615355E+03  0.7546771E-02  0.1086487E+00
        -11   -1    0    0    0    0  0.00000000000E+00  0.00000000000E+00  0.18250000000E+03  0.18250000000E+03  0.00000000000E+00 0.  1.
         11   -1    0    0    0    0 -0.00000000000E+00 -0.00000000000E+00 -0.18250000000E+03  0.18250000000E+03  0.00000000000E+00 0. -1.
         25    2    1    2    0    0  0.32795544181E+02  0.83932104976E+02 -0.51516515507E+02  0.16247440428E+03  0.12499533877E+03 0.  0.
        -11    1    1    2    0    0 -0.23462097923E+02  0.27704165443E+02  0.79205017884E+02  0.87128787893E+02  0.00000000000E+00 0.  1.
         11    1    1    2    0    0 -0.93334462583E+01 -0.11163627042E+03 -0.27688502376E+02  0.11539680782E+03  0.00000000000E+00 0. -1.
        -15    1    3    3    0    0  0.44522217900E+02  0.35122136853E+02  0.31909694531E+02  0.65093615032E+02  0.17770000000E+01 0.  1.
         15    1    3    3    0    0 -0.11726673719E+02  0.48809968123E+02 -0.83426210038E+02  0.97380789251E+02  0.17770000000E+01 0.  1.
</event>
<event>
 7    1  0.3091307E-006  0.1883929E+03  0.7546771E-02  0.1063858E+00
        -11   -1    0    0    0    0  0.00000000000E+00  0.00000000000E+00  0.18250000000E+03  0.18250000000E+03  0.00000000000E+00 0. -1.
         11   -1    0    0    0    0 -0.00000000000E+00 -0.00000000000E+00 -0.18250000000E+03  0.18250000000E+03  0.00000000000E+00 0.  1.
         25    2    1    2    0    0 -0.33206078471E+02  0.60163066798E+02  0.12893890267E+03  0.19227800239E+03  0.12499340514E+03 0.  0.
        -11    1    1    2    0    0 -0.22799825490E+02 -0.24056169903E+02 -0.71671747341E+01  0.33910171725E+02  0.00000000000E+00 0. -1.
         11    1    1    2    0    0  0.56005903961E+02 -0.36106896895E+02 -0.12177172793E+03  0.13881182589E+03  0.00000000000E+00 0.  1.
        -15    1    3    3    0    0 -0.53976082268E+02 -0.14353988663E+02  0.21496375372E+02  0.59872417110E+02  0.17770000000E+01 0. -1.
         15    1    3    3    0    0  0.20770003797E+02  0.74517055461E+02  0.10744252730E+03  0.13240558528E+03  0.17770000000E+01 0. -1.
</event>
<event>
 7    1  0.3091307E-006  0.1461196E+03  0.7546771E-02  0.1101780E+00
        -11   -1    0    0    0    0  0.00000000000E+00  0.00000000000E+00  0.18250000000E+03  0.18250000000E+03  0.00000000000E+00 0. -1.
         11   -1    0    0    0    0 -0.00000000000E+00 -0.00000000000E+00 -0.18250000000E+03  0.18250000000E+03  0.00000000000E+00 0. -1.
         25    2    1    2    0    0 -0.48590840398E+01 -0.22523503500E+01 -0.82542759807E+01  0.12539459760E+03  0.12500795277E+03 0.  0.
        -11    1    1    2    0    0  0.53467663442E+02  0.63196384434E+02  0.92968432945E+02  0.12448173988E+03  0.00000000000E+00 0. -1.
         11    1    1    2    0    0 -0.48608579402E+02 -0.60944034084E+02 -0.84714156965E+02  0.11512366252E+03  0.00000000000E+00 0. -1.
        -15    1    3    3    0    0  0.13835842149E+02 -0.30177123583E+02 -0.57103406804E+02  0.66076063088E+02  0.17770000000E+01 0. -1.
         15    1    3    3    0    0 -0.18694926188E+02  0.27924773233E+02  0.48849130823E+02  0.59318534510E+02  0.17770000000E+01 0. -1.
</event>
<event>
 7    1  0.3091307E-006  0.1646405E+03  0.7546771E-02  0.1083632E+00
        -11   -1    0    0    0    0  0.00000000000E+00  0.00000000000E+00  0.18250000000E+03  0.18250000000E+03  0.00000000000E+00 0.  1.
         11   -1    0    0    0    0 -0.00000000000E+00 -0.00000000000E+00 -0.18250000000E+03  0.18250000000E+03  0.00000000000E+00 0.  1.
         25    2    1    2    0    0  0.90243102178E+02  0.45971257933E+02 -0.95804410054E+00  0.16088446489E+03  0.12500287655E+03 0.  0.
        -11    1    1    2    0    0  0.10678063460E+02 -0.38936603345E+02  0.70577051771E+02  0.81309288252E+02  0.00000000000E+00 0.  1.
         11    1    1    2    0    0 -0.10092116564E+03 -0.70346545877E+01 -0.69619007671E+02  0.12280624686E+03  0.00000000000E+00 0.  1.
        -15    1    3    3    0    0  0.11617332752E+03  0.59290098898E+02 -0.85137578446E+01  0.13071801581E+03  0.17770000000E+01 0. -1.
         15    1    3    3    0    0 -0.25930225343E+02 -0.13318840965E+02  0.75557137440E+01  0.30166449081E+02  0.17770000000E+01 0. -1.
</event>
<event>
 7    1  0.3091307E-006  0.1605047E+03  0.7546771E-02  0.1087450E+00
        -11   -1    0    0    0    0  0.00000000000E+00  0.00000000000E+00  0.18250000000E+03  0.18250000000E+03  0.00000000000E+00 0. -1.
         11   -1    0    0    0    0 -0.00000000000E+00 -0.00000000000E+00 -0.18250000000E+03  0.18250000000E+03  0.00000000000E+00 0.  1.
         25    2    1    2    0    0 -0.81727632862E+02 -0.70283810537E+02  0.34431127763E+02  0.16860950564E+03  0.12499777133E+03 0.  0.
        -11    1    1    2    0    0  0.85017128756E+02  0.42307804512E+02  0.50044567730E+02  0.10734207592E+03  0.00000000000E+00 0. -1.
         11    1    1    2    0    0 -0.32894958941E+01  0.27976006025E+02 -0.84475695493E+02  0.89048418433E+02  0.00000000000E+00 0.  1.
        -15    1    3    3    0    0 -0.61569190627E+02 -0.77681861379E+02 -0.27628320098E+02  0.10291607563E+03  0.17770000000E+01 0. -1.
         15    1    3    3    0    0 -0.20158442235E+02  0.73980508426E+01  0.62059447860E+02  0.65693430017E+02  0.17770000000E+01 0. -1.
</event>
<event>
 7    1  0.3091307E-006  0.1575895E+03  0.7546771E-02  0.1090217E+00
        -11   -1    0    0    0    0  0.00000000000E+00  0.00000000000E+00  0.18250000000E+03  0.18250000000E+03  0.00000000000E+00 0.  1.
         11   -1    0    0    0    0 -0.00000000000E+00 -0.00000000000E+00 -0.18250000000E+03  0.18250000000E+03  0.00000000000E+00 0. -1.
         25    2    1    2    0    0 -0.42400772860E+01  0.29180126323E+02 -0.56053774609E+02  0.14014578889E+03  0.12501743265E+03 0.  0.
        -11    1    1    2    0    0  0.40277485210E+02  0.29830415872E+02  0.12039086540E+03  0.13040740009E+03  0.00000000000E+00 0.  1.
         11    1    1    2    0    0 -0.36037407924E+02 -0.59010542196E+02 -0.64337090795E+02  0.94446811022E+02  0.00000000000E+00 0. -1.
        -15    1    3    3    0    0 -0.16674812999E+02 -0.28807159785E+02  0.23586618984E+02  0.40833664635E+02  0.17770000000E+01 0.  1.
         15    1    3    3    0    0  0.12434735713E+02  0.57987286109E+02 -0.79640393594E+02  0.99312124251E+02  0.17770000000E+01 0. -1.
</event>
<event>
 7    1  0.3091307E-006  0.1632538E+03  0.7546771E-02  0.1084899E+00
        -11   -1    0    0    0    0  0.00000000000E+00  0.00000000000E+00  0.18250000000E+03  0.18250000000E+03  0.00000000000E+00 0.  1.
         11   -1    0    0    0    0 -0.00000000000E+00 -0.00000000000E+00 -0.18250000000E+03  0.18250000000E+03  0.00000000000E+00 0. -1.
         25    2    1    2    0    0 -0.89921389168E+02  0.29874849826E+02  0.51345089370E+02  0.16504605558E+03  0.12500207749E+03 0.  0.
        -11    1    1    2    0    0  0.54833501299E+02 -0.23389529603E+02  0.59066093768E+02  0.83920119117E+02  0.00000000000E+00 0.  1.
         11    1    1    2    0    0  0.35087887870E+02 -0.64853202229E+01 -0.11041118314E+03  0.11603382531E+03  0.00000000000E+00 0. -1.
        -15    1    3    3    0    0 -0.92658529990E+02 -0.20060141262E+02  0.62771655553E+02  0.11371653757E+03  0.17770000000E+01 0.  1.
         15    1    3    3    0    0  0.27371408215E+01  0.49934991088E+02 -0.11426566183E+02  0.51329518004E+02  0.17770000000E+01 0.  1.
</event>
<event>
 7    1  0.3091307E-006  0.1636077E+03  0.7546771E-02  0.1084574E+00
        -11   -1    0    0    0    0  0.00000000000E+00  0.00000000000E+00  0.18250000000E+03  0.18250000000E+03  0.00000000000E+00 0.  1.
         11   -1    0    0    0    0 -0.00000000000E+00 -0.00000000000E+00 -0.18250000000E+03  0.18250000000E+03  0.00000000000E+00 0. -1.
         25    2    1    2    0    0 -0.56005262261E+02 -0.30341601391E+02 -0.56193649547E+02  0.15113589169E+03  0.12500851704E+03 0.  0.
        -11    1    1    2    0    0  0.63018282839E+01  0.55253774156E+02  0.11817178075E+03  0.13060345464E+03  0.00000000000E+00 0.  1.
         11    1    1    2    0    0  0.49703433977E+02 -0.24912172765E+02 -0.61978131208E+02  0.83260653666E+02  0.00000000000E+00 0. -1.
        -15    1    3    3    0    0 -0.96161109571E+02 -0.16151407218E+02 -0.42295648120E+02  0.10630101847E+03  0.17770000000E+01 0.  1.
         15    1    3    3    0    0  0.40155847311E+02 -0.14190194173E+02 -0.13898001427E+02  0.44834873219E+02  0.17770000000E+01 0.  1.
</event>
<event>
 7    1  0.3091307E-006  0.1613227E+03  0.7546771E-02  0.1086685E+00
        -11   -1    0    0    0    0  0.00000000000E+00  0.00000000000E+00  0.18250000000E+03  0.18250000000E+03  0.00000000000E+00 0. -1.
         11   -1    0    0    0    0 -0.00000000000E+00 -0.00000000000E+00 -0.18250000000E+03  0.18250000000E+03  0.00000000000E+00 0. -1.
         25    2    1    2    0    0  0.76272154017E+02 -0.39855903284E+01  0.13474764255E+02  0.14709403519E+03  0.12498703736E+03 0.  0.
        -11    1    1    2    0    0  0.68524289501E+01  0.76300479969E+01  0.86914897037E+02  0.87517842420E+02  0.00000000000E+00 0. -1.
         11    1    1    2    0    0 -0.83124582967E+02 -0.36444576686E+01 -0.10038966129E+03  0.13038812239E+03  0.00000000000E+00 0. -1.
        -15    1    3    3    0    0  0.79498345001E+02 -0.14077967891E+01  0.60454731854E+02  0.99899454865E+02  0.17770000000E+01 0.  1.
         15    1    3    3    0    0 -0.32261909838E+01 -0.25777935393E+01 -0.46979967599E+02  0.47194580329E+02  0.17770000000E+01 0.  1.
</event>
<event>
 7    1  0.3091307E-006  0.1546923E+03  0.7546771E-02  0.1093034E+00
        -11   -1    0    0    0    0  0.00000000000E+00  0.00000000000E+00  0.18250000000E+03  0.18250000000E+03  0.00000000000E+00 0.  1.
         11   -1    0    0    0    0 -0.00000000000E+00 -0.00000000000E+00 -0.18250000000E+03  0.18250000000E+03  0.00000000000E+00 0.  1.
         25    2    1    2    0    0 -0.31663608045E+02 -0.59409349799E+02 -0.10008126366E+02  0.14229614843E+03  0.12496390017E+03 0.  0.
        -11    1    1    2    0    0 -0.31821114389E+02 -0.36825505018E+01  0.94400626008E+02  0.99687625560E+02  0.00000000000E+00 0.  1.
         11    1    1    2    0    0  0.63484722433E+02  0.63091900301E+02 -0.84392499642E+02  0.12301622601E+03  0.00000000000E+00 0.  1.
        -15    1    3    3    0    0  0.42484335587E+02 -0.38387843050E+02  0.18352592851E+02  0.60154140819E+02  0.17770000000E+01 0. -1.
         15    1    3    3    0    0 -0.74147943631E+02 -0.21021506749E+02 -0.28360719217E+02  0.82142007610E+02  0.17770000000E+01 0. -1.
</event>
<event>
 7    1  0.3091307E-006  0.1511111E+03  0.7546771E-02  0.1096610E+00
        -11   -1    0    0    0    0  0.00000000000E+00  0.00000000000E+00  0.18250000000E+03  0.18250000000E+03  0.00000000000E+00 0. -1.
         11   -1    0    0    0    0 -0.00000000000E+00 -0.00000000000E+00 -0.18250000000E+03  0.18250000000E+03  0.00000000000E+00 0. -1.
         25    2    1    2    0    0  0.34197556090E+02 -0.50291726003E+02  0.34065155672E+02  0.14316342857E+03  0.12504639899E+03 0.  0.
        -11    1    1    2    0    0 -0.16851821463E+02  0.69441335226E+02  0.78611850768E+02  0.10623514487E+03  0.00000000000E+00 0. -1.
         11    1    1    2    0    0 -0.17345734627E+02 -0.19149609223E+02 -0.11267700644E+03  0.11560142656E+03  0.00000000000E+00 0. -1.
        -15    1    3    3    0    0  0.47553568623E+02 -0.75038463008E+02 -0.11493305710E+02  0.89595572572E+02  0.17770000000E+01 0. -1.
         15    1    3    3    0    0 -0.13356012533E+02  0.24746737006E+02  0.45558461382E+02  0.53567855994E+02  0.17770000000E+01 0.  1.
</event>
<event>
 7    1  0.3091307E-006  0.1769269E+03  0.7546771E-02  0.1072980E+00
        -11   -1    0    0    0    0  0.00000000000E+00  0.00000000000E+00  0.18250000000E+03  0.18250000000E+03  0.00000000000E+00 0.  1.
         11   -1    0    0    0    0 -0.00000000000E+00 -0.00000000000E+00 -0.18250000000E+03  0.18250000000E+03  0.00000000000E+00 0.  1.
         25    2    1    2    0    0  0.83111345334E+02  0.81739632335E+02 -0.56732441375E+02  0.18009131470E+03  0.12500179402E+03 0.  0.
        -11    1    1    2    0    0 -0.37221665502E+02 -0.80796533932E+02  0.91281864481E+02  0.12745944869E+03  0.00000000000E+00 0.  1.
         11    1    1    2    0    0 -0.45889679831E+02 -0.94309840280E+00 -0.34549423106E+02  0.57449236606E+02  0.00000000000E+00 0.  1.
        -15    1    3    3    0    0  0.97915973246E+02  0.88879148361E+02 -0.12463872463E+02  0.13283654119E+03  0.17770000000E+01 0. -1.
         15    1    3    3    0    0 -0.14804627912E+02 -0.71395160261E+01 -0.44268568912E+02  0.47254773508E+02  0.17770000000E+01 0. -1.
</event>
<event>
 7    1  0.3091307E-006  0.1622289E+03  0.7546771E-02  0.1085843E+00
        -11   -1    0    0    0    0  0.00000000000E+00  0.00000000000E+00  0.18250000000E+03  0.18250000000E+03  0.00000000000E+00 0.  1.
         11   -1    0    0    0    0 -0.00000000000E+00 -0.00000000000E+00 -0.18250000000E+03  0.18250000000E+03  0.00000000000E+00 0. -1.
         25    2    1    2    0    0  0.78826839693E+02 -0.11460846577E+02  0.63621149085E+02  0.16130766844E+03  0.12500996611E+03 0.  0.
        -11    1    1    2    0    0 -0.60607544680E+02 -0.49151192765E+02  0.35785722687E+02  0.85847144219E+02  0.00000000000E+00 0.  1.
         11    1    1    2    0    0 -0.18219295013E+02  0.60612039343E+02 -0.99406871772E+02  0.11784518734E+03  0.00000000000E+00 0. -1.
        -15    1    3    3    0    0 -0.18476941284E+02 -0.42127852539E+02  0.16360350744E+02  0.48856648721E+02  0.17770000000E+01 0. -1.
         15    1    3    3    0    0  0.97303780977E+02  0.30667005962E+02  0.47260798341E+02  0.11245101972E+03  0.17770000000E+01 0. -1.
</event>
<event>
 7    1  0.3091307E-006  0.1654732E+03  0.7546771E-02  0.1082879E+00
        -11   -1    0    0    0    0  0.00000000000E+00  0.00000000000E+00  0.18250000000E+03  0.18250000000E+03  0.00000000000E+00 0. -1.
         11   -1    0    0    0    0 -0.00000000000E+00 -0.00000000000E+00 -0.18250000000E+03  0.18250000000E+03  0.00000000000E+00 0. -1.
         25    2    1    2    0    0 -0.29793939807E+01 -0.91056587799E+02  0.30664056006E+02  0.15768563918E+03  0.12499718997E+03 0.  0.
        -11    1    1    2    0    0  0.58288483827E+02  0.12205534811E+02  0.53010896611E+02  0.79728775147E+02  0.00000000000E+00 0. -1.
         11    1    1    2    0    0 -0.55309089847E+02  0.78851052989E+02 -0.83674952617E+02  0.12758558568E+03  0.00000000000E+00 0. -1.
        -15    1    3    3    0    0 -0.35974208360E+01 -0.26036974364E+02 -0.48519772761E+02  0.55210429707E+02  0.17770000000E+01 0.  1.
         15    1    3    3    0    0  0.61802685529E+00 -0.65019613436E+02  0.79183828767E+02  0.10247520947E+03  0.17770000000E+01 0.  1.
</event>
<event>
 7    1  0.3091307E-006  0.1539086E+03  0.7546771E-02  0.1093807E+00
        -11   -1    0    0    0    0  0.00000000000E+00  0.00000000000E+00  0.18250000000E+03  0.18250000000E+03  0.00000000000E+00 0. -1.
         11   -1    0    0    0    0 -0.00000000000E+00 -0.00000000000E+00 -0.18250000000E+03  0.18250000000E+03  0.00000000000E+00 0.  1.
         25    2    1    2    0    0 -0.42897717210E+02  0.58929782729E+02  0.59722089959E+01  0.14480548891E+03  0.12498011404E+03 0.  0.
        -11    1    1    2    0    0  0.18687548818E+02 -0.74523896015E+02  0.90965097686E+02  0.11907008254E+03  0.00000000000E+00 0. -1.
         11    1    1    2    0    0  0.24210168392E+02  0.15594113287E+02 -0.96937306682E+02  0.10112442855E+03  0.00000000000E+00 0.  1.
        -15    1    3    3    0    0  0.22459000252E+02  0.43650546123E+02 -0.40070850061E+02  0.63392488694E+02  0.17770000000E+01 0. -1.
         15    1    3    3    0    0 -0.65356717462E+02  0.15279236606E+02  0.46043059057E+02  0.81413000221E+02  0.17770000000E+01 0. -1.
</event>
<event>
 7    1  0.3091307E-006  0.1801036E+03  0.7546771E-02  0.1070379E+00
        -11   -1    0    0    0    0  0.00000000000E+00  0.00000000000E+00  0.18250000000E+03  0.18250000000E+03  0.00000000000E+00 0. -1.
         11   -1    0    0    0    0 -0.00000000000E+00 -0.00000000000E+00 -0.18250000000E+03  0.18250000000E+03  0.00000000000E+00 0. -1.
         25    2    1    2    0    0  0.18691311400E+02 -0.29896759048E+02  0.98201556730E+02  0.16282484279E+03  0.12500080945E+03 0.  0.
        -11    1    1    2    0    0 -0.14129265624E+02 -0.46834291190E+01  0.48837570803E+02  0.51055645891E+02  0.00000000000E+00 0. -1.
         11    1    1    2    0    0 -0.45620457762E+01  0.34580188167E+02 -0.14703912753E+03  0.15111951132E+03  0.00000000000E+00 0. -1.
        -15    1    3    3    0    0 -0.57719728965E+01 -0.52631526297E+02 -0.60678860059E+01  0.53323261351E+02  0.17770000000E+01 0.  1.
         15    1    3    3    0    0  0.24463284297E+02  0.22734767249E+02  0.10426944274E+03  0.10950158144E+03  0.17770000000E+01 0.  1.
</event>
<event>
 7    1  0.3091307E-006  0.1727014E+03  0.7546771E-02  0.1076533E+00
        -11   -1    0    0    0    0  0.00000000000E+00  0.00000000000E+00  0.18250000000E+03  0.18250000000E+03  0.00000000000E+00 0.  1.
         11   -1    0    0    0    0 -0.00000000000E+00 -0.00000000000E+00 -0.18250000000E+03  0.18250000000E+03  0.00000000000E+00 0.  1.
         25    2    1    2    0    0 -0.60621609528E+02  0.32466768156E+02  0.64354767504E+02  0.15651565847E+03  0.12500617852E+03 0.  0.
        -11    1    1    2    0    0 -0.21237720195E+02 -0.33530241343E+02  0.52494632824E+02  0.65810366348E+02  0.00000000000E+00 0.  1.
         11    1    1    2    0    0  0.81859329723E+02  0.10634731868E+01 -0.11684940033E+03  0.14267397518E+03  0.00000000000E+00 0.  1.
        -15    1    3    3    0    0 -0.96149423150E+02  0.20570579747E+02  0.23611977067E+02  0.10113626211E+03  0.17770000000E+01 0.  1.
         15    1    3    3    0    0  0.35527813622E+02  0.11896188409E+02  0.40742790437E+02  0.55379396359E+02  0.17770000000E+01 0.  1.
</event>
<event>
 7    1  0.3091307E-006  0.1521930E+03  0.7546771E-02  0.1095518E+00
        -11   -1    0    0    0    0  0.00000000000E+00  0.00000000000E+00  0.18250000000E+03  0.18250000000E+03  0.00000000000E+00 0.  1.
         11   -1    0    0    0    0 -0.00000000000E+00 -0.00000000000E+00 -0.18250000000E+03  0.18250000000E+03  0.00000000000E+00 0. -1.
         25    2    1    2    0    0 -0.43584689301E+02  0.15215436919E+02 -0.14557273303E+02  0.13404220334E+03  0.12499705360E+03 0.  0.
        -11    1    1    2    0    0  0.59902670140E+02  0.27544232017E+02  0.10821351948E+03  0.12671693023E+03  0.00000000000E+00 0.  1.
         11    1    1    2    0    0 -0.16317980839E+02 -0.42759668936E+02 -0.93656246181E+02  0.10424086643E+03  0.00000000000E+00 0. -1.
        -15    1    3    3    0    0  0.28634802977E+01  0.45208316993E+02 -0.50662045060E+02  0.67983762645E+02  0.17770000000E+01 0.  1.
         15    1    3    3    0    0 -0.46448169599E+02 -0.29992880074E+02  0.36104771757E+02  0.66058440693E+02  0.17770000000E+01 0.  1.
</event>
<event>
 7    1  0.3091307E-006  0.1543078E+03  0.7546771E-02  0.1093412E+00
        -11   -1    0    0    0    0  0.00000000000E+00  0.00000000000E+00  0.18250000000E+03  0.18250000000E+03  0.00000000000E+00 0.  1.
         11   -1    0    0    0    0 -0.00000000000E+00 -0.00000000000E+00 -0.18250000000E+03  0.18250000000E+03  0.00000000000E+00 0. -1.
         25    2    1    2    0    0  0.38235006224E+02  0.12049502930E+02  0.35668390763E+02  0.13603231129E+03  0.12500179756E+03 0.  0.
        -11    1    1    2    0    0 -0.34673941482E+02 -0.16756181031E+02  0.92743021162E+02  0.10042071397E+03  0.00000000000E+00 0.  1.
         11    1    1    2    0    0 -0.35610647415E+01  0.47066781016E+01 -0.12841141192E+03  0.12854697473E+03  0.00000000000E+00 0. -1.
        -15    1    3    3    0    0  0.37344272900E+02  0.20669592571E+02 -0.40788647097E+02  0.59065203263E+02  0.17770000000E+01 0.  1.
         15    1    3    3    0    0  0.89073332384E+00 -0.86200896414E+01  0.76457037859E+02  0.76967108030E+02  0.17770000000E+01 0.  1.
</event>
<event>
 7    1  0.3091307E-006  0.1620394E+03  0.7546771E-02  0.1086019E+00
        -11   -1    0    0    0    0  0.00000000000E+00  0.00000000000E+00  0.18250000000E+03  0.18250000000E+03  0.00000000000E+00 0.  1.
         11   -1    0    0    0    0 -0.00000000000E+00 -0.00000000000E+00 -0.18250000000E+03  0.18250000000E+03  0.00000000000E+00 0.  1.
         25    2    1    2    0    0 -0.46683075096E+01 -0.31456491786E+02  0.60674060119E+02  0.14254045262E+03  0.12500054036E+03 0.  0.
        -11    1    1    2    0    0 -0.35849233774E+02  0.36573072588E+02  0.69328732245E+02  0.86192982982E+02  0.00000000000E+00 0.  1.
         11    1    1    2    0    0  0.40517541284E+02 -0.51165808025E+01 -0.13000279236E+03  0.13626656440E+03  0.00000000000E+00 0.  1.
        -15    1    3    3    0    0 -0.41339265088E+02 -0.35564466587E+01 -0.22652180900E+02  0.47306048021E+02  0.17770000000E+01 0. -1.
         15    1    3    3    0    0  0.36670957578E+02 -0.27900045127E+02  0.83326241019E+02  0.95234404598E+02  0.17770000000E+01 0. -1.
</event>
<event>
 7    1  0.3091307E-006  0.1659789E+03  0.7546771E-02  0.1082423E+00
        -11   -1    0    0    0    0  0.00000000000E+00  0.00000000000E+00  0.18250000000E+03  0.18250000000E+03  0.00000000000E+00 0. -1.
         11   -1    0    0    0    0 -0.00000000000E+00 -0.00000000000E+00 -0.18250000000E+03  0.18250000000E+03  0.00000000000E+00 0.  1.
         25    2    1    2    0    0 -0.25532119903E+02 -0.42493057941E+02 -0.66335333450E+02  0.14994290056E+03  0.12499979137E+03 0.  0.
        -11    1    1    2    0    0  0.17882824959E+01  0.11755580359E+03  0.68929380177E+02  0.13628581865E+03  0.00000000000E+00 0. -1.
         11    1    1    2    0    0  0.23743837407E+02 -0.75062745653E+02 -0.25940467268E+01  0.78771280796E+02  0.00000000000E+00 0.  1.
        -15    1    3    3    0    0  0.58781395942E+01  0.42806018392E+02 -0.26201947027E+02  0.50562906292E+02  0.17770000000E+01 0.  1.
         15    1    3    3    0    0 -0.31410259497E+02 -0.85299076334E+02 -0.40133386423E+02  0.99379994264E+02  0.17770000000E+01 0.  1.
</event>
<event>
 7    1  0.3091307E-006  0.1549195E+03  0.7546771E-02  0.1092810E+00
        -11   -1    0    0    0    0  0.00000000000E+00  0.00000000000E+00  0.18250000000E+03  0.18250000000E+03  0.00000000000E+00 0.  1.
         11   -1    0    0    0    0 -0.00000000000E+00 -0.00000000000E+00 -0.18250000000E+03  0.18250000000E+03  0.00000000000E+00 0.  1.
         25    2    1    2    0    0 -0.26386853457E+02 -0.34671906297E+02 -0.43432184206E+02  0.13931992531E+03  0.12500111936E+03 0.  0.
        -11    1    1    2    0    0 -0.19158188883E+02  0.76570149099E+00  0.12490800309E+03  0.12637100829E+03  0.00000000000E+00 0.  1.
         11    1    1    2    0    0  0.45545042339E+02  0.33906204806E+02 -0.81475818885E+02  0.99309066399E+02  0.00000000000E+00 0.  1.
        -15    1    3    3    0    0  0.12180908030E+02  0.93555952008E+01 -0.72369052910E+02  0.74002292060E+02  0.17770000000E+01 0. -1.
         15    1    3    3    0    0 -0.38567761487E+02 -0.44027501497E+02  0.28936868704E+02  0.65317633252E+02  0.17770000000E+01 0. -1.
</event>
<event>
 7    1  0.3091307E-006  0.1603501E+03  0.7546771E-02  0.1087595E+00
        -11   -1    0    0    0    0  0.00000000000E+00  0.00000000000E+00  0.18250000000E+03  0.18250000000E+03  0.00000000000E+00 0. -1.
         11   -1    0    0    0    0 -0.00000000000E+00 -0.00000000000E+00 -0.18250000000E+03  0.18250000000E+03  0.00000000000E+00 0. -1.
         25    2    1    2    0    0 -0.66957580584E+02 -0.71991416016E+02  0.24490791560E+01  0.15905315488E+03  0.12500330600E+03 0.  0.
        -11    1    1    2    0    0  0.23718604089E+02  0.90287296337E+01  0.85659799624E+02  0.89340312348E+02  0.00000000000E+00 0. -1.
         11    1    1    2    0    0  0.43238976495E+02  0.62962686382E+02 -0.88108878780E+02  0.11660653277E+03  0.00000000000E+00 0. -1.
        -15    1    3    3    0    0 -0.17957051637E+02 -0.48543325464E+02  0.60427031386E+02  0.79583252017E+02  0.17770000000E+01 0.  1.
         15    1    3    3    0    0 -0.49000528946E+02 -0.23448090552E+02 -0.57977952230E+02  0.79469902865E+02  0.17770000000E+01 0.  1.
</event>
<event>
 7    1  0.3091307E-006  0.1799886E+03  0.7546771E-02  0.1070472E+00
        -11   -1    0    0    0    0  0.00000000000E+00  0.00000000000E+00  0.18250000000E+03  0.18250000000E+03  0.00000000000E+00 0.  1.
         11   -1    0    0    0    0 -0.00000000000E+00 -0.00000000000E+00 -0.18250000000E+03  0.18250000000E+03  0.00000000000E+00 0.  1.
         25    2    1    2    0    0  0.27015195934E+02 -0.18348817906E+02  0.11776556590E+03  0.17482682383E+03  0.12501675843E+03 0.  0.
        -11    1    1    2    0    0  0.50178061860E+02  0.10356992430E+02 -0.26022708344E+01  0.51301822557E+02  0.00000000000E+00 0.  1.
         11    1    1    2    0    0 -0.77193257794E+02  0.79918254761E+01 -0.11516329507E+03  0.13887135361E+03  0.00000000000E+00 0.  1.
        -15    1    3    3    0    0  0.52362681146E+02 -0.32549199538E+02  0.12950253705E+03  0.14344115727E+03  0.17770000000E+01 0.  1.
         15    1    3    3    0    0 -0.25347485212E+02  0.14200381633E+02 -0.11736971142E+02  0.31385666564E+02  0.17770000000E+01 0.  1.
</event>
<event>
 7    1  0.3091307E-006  0.1707249E+03  0.7546771E-02  0.1078234E+00
        -11   -1    0    0    0    0  0.00000000000E+00  0.00000000000E+00  0.18250000000E+03  0.18250000000E+03  0.00000000000E+00 0. -1.
         11   -1    0    0    0    0 -0.00000000000E+00 -0.00000000000E+00 -0.18250000000E+03  0.18250000000E+03  0.00000000000E+00 0.  1.
         25    2    1    2    0    0  0.31161075485E+02  0.47602413330E+02 -0.67986225214E+02  0.15324677572E+03  0.12500178026E+03 0.  0.
        -11    1    1    2    0    0 -0.47537613397E+02 -0.24525892567E+02  0.13164008036E+03  0.14209312035E+03  0.00000000000E+00 0. -1.
         11    1    1    2    0    0  0.16376537912E+02 -0.23076520763E+02 -0.63653855149E+02  0.69660103932E+02  0.00000000000E+00 0.  1.
        -15    1    3    3    0    0  0.57691048798E+01  0.65990188218E+02 -0.92236062766E+02  0.11357216435E+03  0.17770000000E+01 0.  1.
         15    1    3    3    0    0  0.25391970605E+02 -0.18387774888E+02  0.24249837552E+02  0.39674611363E+02  0.17770000000E+01 0.  1.
</event>
<event>
 7    1  0.3091307E-006  0.1560073E+03  0.7546771E-02  0.1091747E+00
        -11   -1    0    0    0    0  0.00000000000E+00  0.00000000000E+00  0.18250000000E+03  0.18250000000E+03  0.00000000000E+00 0.  1.
         11   -1    0    0    0    0 -0.00000000000E+00 -0.00000000000E+00 -0.18250000000E+03  0.18250000000E+03  0.00000000000E+00 0.  1.
         25    2    1    2    0    0  0.97375252173E+01 -0.35662498863E+02  0.24433416214E+02  0.13262120295E+03  0.12499903368E+03 0.  0.
        -11    1    1    2    0    0  0.25412736030E+01 -0.31662875950E+02  0.91996203991E+02  0.97325728015E+02  0.00000000000E+00 0.  1.
         11    1    1    2    0    0 -0.12278798820E+02  0.67325374813E+02 -0.11642962021E+03  0.13505306903E+03  0.00000000000E+00 0.  1.
        -15    1    3    3    0    0  0.55496067706E+01 -0.79383430684E+02  0.35710650070E+02  0.87240675490E+02  0.17770000000E+01 0.  1.
         15    1    3    3    0    0  0.41879184467E+01  0.43720931821E+02 -0.11277233856E+02  0.45380527461E+02  0.17770000000E+01 0.  1.
</event>
<event>
 7    1  0.3091307E-006  0.1651286E+03  0.7546771E-02  0.1083190E+00
        -11   -1    0    0    0    0  0.00000000000E+00  0.00000000000E+00  0.18250000000E+03  0.18250000000E+03  0.00000000000E+00 0. -1.
         11   -1    0    0    0    0 -0.00000000000E+00 -0.00000000000E+00 -0.18250000000E+03  0.18250000000E+03  0.00000000000E+00 0.  1.
         25    2    1    2    0    0 -0.17132373345E+02  0.13899990949E+02  0.68645989639E+02  0.14430398008E+03  0.12499855522E+03 0.  0.
        -11    1    1    2    0    0  0.36172085836E+02 -0.14182067718E+02  0.70369238877E+02  0.80382713432E+02  0.00000000000E+00 0. -1.
         11    1    1    2    0    0 -0.19039712491E+02  0.28207676932E+00 -0.13901522852E+03  0.14031330649E+03  0.00000000000E+00 0.  1.
        -15    1    3    3    0    0 -0.62373364128E+02 -0.90326032628E+01  0.69110871194E+02  0.93549423945E+02  0.17770000000E+01 0. -1.
         15    1    3    3    0    0  0.45240990783E+02  0.22932594212E+02 -0.46488155469E+00  0.50754556132E+02  0.17770000000E+01 0. -1.
</event>
<event>
 7    1  0.3091307E-006  0.1826054E+03  0.7546771E-02  0.1068371E+00
        -11   -1    0    0    0    0  0.00000000000E+00  0.00000000000E+00  0.18250000000E+03  0.18250000000E+03  0.00000000000E+00 0.  1.
         11   -1    0    0    0    0 -0.00000000000E+00 -0.00000000000E+00 -0.18250000000E+03  0.18250000000E+03  0.00000000000E+00 0. -1.
         25    2    1    2    0    0 -0.18774313035E+02 -0.60288213465E+02  0.91892737109E+02  0.16749920560E+03  0.12499826092E+03 0.  0.
        -11    1    1    2    0    0  0.16005813134E+02 -0.11642349124E+02  0.41470111995E+02  0.45951066757E+02  0.00000000000E+00 0.  1.
         11    1    1    2    0    0  0.27684999009E+01  0.71930562589E+02 -0.13336284910E+03  0.15154972764E+03  0.00000000000E+00 0. -1.
        -15    1    3    3    0    0 -0.65617116565E+02 -0.38146228836E+01  0.34010952667E+02  0.74027427109E+02  0.17770000000E+01 0. -1.
         15    1    3    3    0    0  0.46842803531E+02 -0.56473590581E+02  0.57881784442E+02  0.93471778495E+02  0.17770000000E+01 0. -1.
</event>
<event>
 7    1  0.3091307E-006  0.1446095E+03  0.7546771E-02  0.1103389E+00
        -11   -1    0    0    0    0  0.00000000000E+00  0.00000000000E+00  0.18250000000E+03  0.18250000000E+03  0.00000000000E+00 0.  1.
         11   -1    0    0    0    0 -0.00000000000E+00 -0.00000000000E+00 -0.18250000000E+03  0.18250000000E+03  0.00000000000E+00 0. -1.
         25    2    1    2    0    0 -0.84783533269E+01  0.14553580127E+02 -0.35513971943E+00  0.12613028724E+03  0.12500013626E+03 0.  0.
        -11    1    1    2    0    0  0.38068117862E+02 -0.11552980797E+02  0.11434283659E+03  0.12106583846E+03  0.00000000000E+00 0.  1.
         11    1    1    2    0    0 -0.29589764535E+02 -0.30005993301E+01 -0.11398769687E+03  0.11780387430E+03  0.00000000000E+00 0. -1.
        -15    1    3    3    0    0 -0.57162609861E+02 -0.15314218643E+02  0.24166540103E+02  0.63947389691E+02  0.17770000000E+01 0. -1.
         15    1    3    3    0    0  0.48684256534E+02  0.29867798770E+02 -0.24521679823E+02  0.62182897552E+02  0.17770000000E+01 0. -1.
</event>
<event>
 7    1  0.3091307E-006  0.1692694E+03  0.7546771E-02  0.1079503E+00
        -11   -1    0    0    0    0  0.00000000000E+00  0.00000000000E+00  0.18250000000E+03  0.18250000000E+03  0.00000000000E+00 0.  1.
         11   -1    0    0    0    0 -0.00000000000E+00 -0.00000000000E+00 -0.18250000000E+03  0.18250000000E+03  0.00000000000E+00 0.  1.
         25    2    1    2    0    0  0.74791526814E+02 -0.50721144755E+02  0.25233788641E+02  0.15629941118E+03  0.12500541923E+03 0.  0.
        -11    1    1    2    0    0 -0.86153733265E+01 -0.23168405346E+02  0.68133458962E+02  0.72478740979E+02  0.00000000000E+00 0.  1.
         11    1    1    2    0    0 -0.66176153488E+02  0.73889550101E+02 -0.93367247603E+02  0.13622184784E+03  0.00000000000E+00 0.  1.
        -15    1    3    3    0    0  0.79401769316E+02 -0.31498695611E+02  0.67970740110E+02  0.10917869772E+03  0.17770000000E+01 0.  1.
         15    1    3    3    0    0 -0.46102425021E+01 -0.19222449143E+02 -0.42736951469E+02  0.47120713459E+02  0.17770000000E+01 0.  1.
</event>
<event>
 7    1  0.3091307E-006  0.1951355E+03  0.7546771E-02  0.1058819E+00
        -11   -1    0    0    0    0  0.00000000000E+00  0.00000000000E+00  0.18250000000E+03  0.18250000000E+03  0.00000000000E+00 0. -1.
         11   -1    0    0    0    0 -0.00000000000E+00 -0.00000000000E+00 -0.18250000000E+03  0.18250000000E+03  0.00000000000E+00 0. -1.
         25    2    1    2    0    0 -0.27671715456E+02 -0.65220760827E+02 -0.13226885941E+03  0.19528405172E+03  0.12498535198E+03 0.  0.
        -11    1    1    2    0    0  0.16130170636E+02  0.79722981410E+02  0.12633541601E+03  0.15025502823E+03  0.00000000000E+00 0. -1.
         11    1    1    2    0    0  0.11541544820E+02 -0.14502220584E+02  0.59334434022E+01  0.19460920053E+02  0.00000000000E+00 0. -1.
        -15    1    3    3    0    0  0.43803484852E+02 -0.40784705750E+02 -0.26943909319E+02  0.65660258046E+02  0.17770000000E+01 0. -1.
         15    1    3    3    0    0 -0.71475200308E+02 -0.24436055077E+02 -0.10532495009E+03  0.12962379368E+03  0.17770000000E+01 0. -1.
</event>
<event>
 7    1  0.3091307E-006  0.1660302E+03  0.7546771E-02  0.1082377E+00
        -11   -1    0    0    0    0  0.00000000000E+00  0.00000000000E+00  0.18250000000E+03  0.18250000000E+03  0.00000000000E+00 0. -1.
         11   -1    0    0    0    0 -0.00000000000E+00 -0.00000000000E+00 -0.18250000000E+03  0.18250000000E+03  0.00000000000E+00 0.  1.
         25    2    1    2    0    0  0.15264637348E+02 -0.10351023635E+03  0.24996052431E+02  0.16492226693E+03  0.12500869293E+03 0.  0.
        -11    1    1    2    0    0 -0.10365990900E+02  0.30429918489E+02  0.71814661822E+02  0.78681505827E+02  0.00000000000E+00 0. -1.
         11    1    1    2    0    0 -0.48986464477E+01  0.73080317859E+02 -0.96810714253E+02  0.12139622725E+03  0.00000000000E+00 0.  1.
        -15    1    3    3    0    0 -0.63455771389E-02  0.45489349873E+01 -0.38393388680E+02  0.38702750201E+02  0.17770000000E+01 0. -1.
         15    1    3    3    0    0  0.15270982925E+02 -0.10805917134E+03  0.63389441111E+02  0.12621951673E+03  0.17770000000E+01 0. -1.
</event>
<event>
 7    1  0.3091307E-006  0.1640581E+03  0.7546771E-02  0.1084163E+00
        -11   -1    0    0    0    0  0.00000000000E+00  0.00000000000E+00  0.18250000000E+03  0.18250000000E+03  0.00000000000E+00 0. -1.
         11   -1    0    0    0    0 -0.00000000000E+00 -0.00000000000E+00 -0.18250000000E+03  0.18250000000E+03  0.00000000000E+00 0. -1.
         25    2    1    2    0    0  0.37878835908E+02 -0.55254722623E+02  0.41774231632E+02  0.14790256108E+03  0.12506874335E+03 0.  0.
        -11    1    1    2    0    0 -0.23924991415E+02 -0.28555934991E+01  0.78866851719E+02  0.82465386244E+02  0.00000000000E+00 0. -1.
         11    1    1    2    0    0 -0.13953844493E+02  0.58110316123E+02 -0.12064108335E+03  0.13463205268E+03  0.00000000000E+00 0. -1.
        -15    1    3    3    0    0  0.18117904829E+01  0.39024397459E+02  0.22511237642E+02  0.45123161801E+02  0.17770000000E+01 0.  1.
         15    1    3    3    0    0  0.36067045426E+02 -0.94279120082E+02  0.19262993991E+02  0.10277939928E+03  0.17770000000E+01 0.  1.
</event>
<event>
 7    1  0.3091307E-006  0.1882967E+03  0.7546771E-02  0.1063932E+00
        -11   -1    0    0    0    0  0.00000000000E+00  0.00000000000E+00  0.18250000000E+03  0.18250000000E+03  0.00000000000E+00 0.  1.
         11   -1    0    0    0    0 -0.00000000000E+00 -0.00000000000E+00 -0.18250000000E+03  0.18250000000E+03  0.00000000000E+00 0. -1.
         25    2    1    2    0    0 -0.45059852657E+02  0.47668339831E+02  0.12764654922E+03  0.19031875130E+03  0.12499969850E+03 0.  0.
        -11    1    1    2    0    0  0.12788623040E+02 -0.30578377681E+02  0.80903919423E+01  0.34118037790E+02  0.00000000000E+00 0.  1.
         11    1    1    2    0    0  0.32271229617E+02 -0.17089962150E+02 -0.13573694116E+03  0.14056321091E+03  0.00000000000E+00 0. -1.
        -15    1    3    3    0    0 -0.63948203257E+02 -0.96949280691E+01  0.21501127517E+02  0.68182259742E+02  0.17770000000E+01 0.  1.
         15    1    3    3    0    0  0.18888350600E+02  0.57363267900E+02  0.10614542170E+03  0.12213649155E+03  0.17770000000E+01 0.  1.
</event>
<event>
 7    1  0.3091307E-006  0.1522352E+03  0.7546771E-02  0.1095476E+00
        -11   -1    0    0    0    0  0.00000000000E+00  0.00000000000E+00  0.18250000000E+03  0.18250000000E+03  0.00000000000E+00 0. -1.
         11   -1    0    0    0    0 -0.00000000000E+00 -0.00000000000E+00 -0.18250000000E+03  0.18250000000E+03  0.00000000000E+00 0. -1.
         25    2    1    2    0    0 -0.33302594777E+01  0.83059303119E+02  0.30002920400E+02  0.15307961104E+03  0.12499301429E+03 0.  0.
        -11    1    1    2    0    0  0.23936081446E+02 -0.76616895538E+02  0.71895961974E+02  0.10775951942E+03  0.00000000000E+00 0. -1.
         11    1    1    2    0    0 -0.20605821968E+02 -0.64424075804E+01 -0.10189888237E+03  0.10416086954E+03  0.00000000000E+00 0. -1.
        -15    1    3    3    0    0  0.34743015702E+02  0.90675495664E+02  0.50146091818E+02  0.10930192545E+03  0.17770000000E+01 0. -1.
         15    1    3    3    0    0 -0.38073275179E+02 -0.76161925449E+01 -0.20143171418E+02  0.43777685589E+02  0.17770000000E+01 0. -1.
</event>
<event>
 7    1  0.3091307E-006  0.1615840E+03  0.7546771E-02  0.1086442E+00
        -11   -1    0    0    0    0  0.00000000000E+00  0.00000000000E+00  0.18250000000E+03  0.18250000000E+03  0.00000000000E+00 0. -1.
         11   -1    0    0    0    0 -0.00000000000E+00 -0.00000000000E+00 -0.18250000000E+03  0.18250000000E+03  0.00000000000E+00 0. -1.
         25    2    1    2    0    0  0.37364513262E+02 -0.92206498396E+02 -0.21353452072E+02  0.16117890373E+03  0.12499809556E+03 0.  0.
        -11    1    1    2    0    0 -0.16606538553E+02  0.59309281212E+02  0.99218447720E+02  0.11678042785E+03  0.00000000000E+00 0. -1.
         11    1    1    2    0    0 -0.20757974709E+02  0.32897217184E+02 -0.77864995648E+02  0.87040668424E+02  0.00000000000E+00 0. -1.
        -15    1    3    3    0    0 -0.16370359398E+02 -0.25151936115E+02 -0.59871553142E+02  0.66995292087E+02  0.17770000000E+01 0. -1.
         15    1    3    3    0    0  0.53734872661E+02 -0.67054562281E+02  0.38518101070E+02  0.94183611640E+02  0.17770000000E+01 0. -1.
</event>
<event>
 7    1  0.3091307E-006  0.1482280E+03  0.7546771E-02  0.1099569E+00
        -11   -1    0    0    0    0  0.00000000000E+00  0.00000000000E+00  0.18250000000E+03  0.18250000000E+03  0.00000000000E+00 0.  1.
         11   -1    0    0    0    0 -0.00000000000E+00 -0.00000000000E+00 -0.18250000000E+03  0.18250000000E+03  0.00000000000E+00 0. -1.
         25    2    1    2    0    0  0.49090670074E+02 -0.34144306154E+02 -0.11731802009E+02  0.13906249275E+03  0.12500005673E+03 0.  0.
        -11    1    1    2    0    0  0.11403727314E+02  0.45530994959E+02  0.10452673051E+03  0.11458164726E+03  0.00000000000E+00 0.  1.
         11    1    1    2    0    0 -0.60494397388E+02 -0.11386688805E+02 -0.92794928500E+02  0.11135585998E+03  0.00000000000E+00 0. -1.
        -15    1    3    3    0    0  0.28194390648E+02 -0.38031540740E+02 -0.65718728423E+02  0.81015003237E+02  0.17770000000E+01 0. -1.
         15    1    3    3    0    0  0.20896279426E+02  0.38872345860E+01  0.53986926414E+02  0.58047489516E+02  0.17770000000E+01 0. -1.
</event>
<event>
 7    1  0.3091307E-006  0.1610063E+03  0.7546771E-02  0.1086980E+00
        -11   -1    0    0    0    0  0.00000000000E+00  0.00000000000E+00  0.18250000000E+03  0.18250000000E+03  0.00000000000E+00 0. -1.
         11   -1    0    0    0    0 -0.00000000000E+00 -0.00000000000E+00 -0.18250000000E+03  0.18250000000E+03  0.00000000000E+00 0. -1.
         25    2    1    2    0    0 -0.97417499598E+02  0.19737856600E+02  0.50190924327E+02  0.16740594834E+03  0.12500348172E+03 0.  0.
        -11    1    1    2    0    0  0.63239125634E+02 -0.30505169151E+02  0.53250656604E+02  0.88121420692E+02  0.00000000000E+00 0. -1.
         11    1    1    2    0    0  0.34178373964E+02  0.10767312551E+02 -0.10344158093E+03  0.10947263097E+03  0.00000000000E+00 0. -1.
        -15    1    3    3    0    0 -0.91490198616E+02 -0.24577043418E+01  0.85489632834E+02  0.12525227265E+03  0.17770000000E+01 0. -1.
         15    1    3    3    0    0 -0.59273009815E+01  0.22195560942E+02 -0.35298708507E+02  0.42153675684E+02  0.17770000000E+01 0. -1.
</event>
<event>
 7    1  0.3091307E-006  0.1663804E+03  0.7546771E-02  0.1082063E+00
        -11   -1    0    0    0    0  0.00000000000E+00  0.00000000000E+00  0.18250000000E+03  0.18250000000E+03  0.00000000000E+00 0. -1.
         11   -1    0    0    0    0 -0.00000000000E+00 -0.00000000000E+00 -0.18250000000E+03  0.18250000000E+03  0.00000000000E+00 0. -1.
         25    2    1    2    0    0  0.14524729878E+02  0.20574227602E+01 -0.67217948976E+02  0.14268248630E+03  0.12499935386E+03 0.  0.
        -11    1    1    2    0    0 -0.24483166787E+02 -0.31932612427E+02  0.13858659166E+03  0.14430994623E+03  0.00000000000E+00 0. -1.
         11    1    1    2    0    0  0.99584369090E+01  0.29875189667E+02 -0.71368642689E+02  0.78007567470E+02  0.00000000000E+00 0. -1.
        -15    1    3    3    0    0 -0.12091650262E+02  0.56332026676E+01  0.34727684638E+02  0.37243936253E+02  0.17770000000E+01 0.  1.
         15    1    3    3    0    0  0.26616380139E+02 -0.35757799075E+01 -0.10194563361E+03  0.10543855004E+03  0.17770000000E+01 0.  1.
</event>
<event>
 7    1  0.3091307E-006  0.1488088E+03  0.7546771E-02  0.1098967E+00
        -11   -1    0    0    0    0  0.00000000000E+00  0.00000000000E+00  0.18250000000E+03  0.18250000000E+03  0.00000000000E+00 0.  1.
         11   -1    0    0    0    0 -0.00000000000E+00 -0.00000000000E+00 -0.18250000000E+03  0.18250000000E+03  0.00000000000E+00 0. -1.
         25    2    1    2    0    0 -0.42868864281E+01  0.23598072998E+02 -0.13061382402E+02  0.12795205702E+03  0.12500353092E+03 0.  0.
        -11    1    1    2    0    0 -0.39419252427E+02 -0.43117706207E+02  0.11245725926E+03  0.12672667127E+03  0.00000000000E+00 0.  1.
         11    1    1    2    0    0  0.43706138855E+02  0.19519633209E+02 -0.99395876860E+02  0.11032127171E+03  0.00000000000E+00 0. -1.
        -15    1    3    3    0    0 -0.62098572846E+02  0.12058079345E+02 -0.24524756773E+02  0.67869370491E+02  0.17770000000E+01 0.  1.
         15    1    3    3    0    0  0.57811686418E+02  0.11539993653E+02  0.11463374372E+02  0.60082686533E+02  0.17770000000E+01 0.  1.
</event>
<event>
 7    1  0.3091307E-006  0.1807237E+03  0.7546771E-02  0.1069878E+00
        -11   -1    0    0    0    0  0.00000000000E+00  0.00000000000E+00  0.18250000000E+03  0.18250000000E+03  0.00000000000E+00 0. -1.
         11   -1    0    0    0    0 -0.00000000000E+00 -0.00000000000E+00 -0.18250000000E+03  0.18250000000E+03  0.00000000000E+00 0.  1.
         25    2    1    2    0    0  0.66452170958E+02 -0.38599479580E+01  0.87437152133E+02  0.16643724262E+03  0.12500123974E+03 0.  0.
        -11    1    1    2    0    0 -0.29396080125E+01 -0.21986462506E+02  0.44583379397E+02  0.49796822662E+02  0.00000000000E+00 0. -1.
         11    1    1    2    0    0 -0.63512562945E+02  0.25846410464E+02 -0.13202053153E+03  0.14876593471E+03  0.00000000000E+00 0.  1.
        -15    1    3    3    0    0  0.41188496828E+02 -0.63422113725E+02  0.58070996795E+02  0.95363804339E+02  0.17770000000E+01 0.  1.
         15    1    3    3    0    0  0.25263674130E+02  0.59562165767E+02  0.29366155338E+02  0.71073438285E+02  0.17770000000E+01 0.  1.
</event>
<event>
 7    1  0.3091307E-006  0.1824242E+03  0.7546771E-02  0.1068515E+00
        -11   -1    0    0    0    0  0.00000000000E+00  0.00000000000E+00  0.18250000000E+03  0.18250000000E+03  0.00000000000E+00 0.  1.
         11   -1    0    0    0    0 -0.00000000000E+00 -0.00000000000E+00 -0.18250000000E+03  0.18250000000E+03  0.00000000000E+00 0. -1.
         25    2    1    2    0    0  0.31503374653E+02  0.76768379511E+02  0.10719493528E+03  0.18439249632E+03  0.12499596730E+03 0.  0.
        -11    1    1    2    0    0 -0.41105353739E+02 -0.17135674582E+02  0.12741122585E+02  0.46320812322E+02  0.00000000000E+00 0.  1.
         11    1    1    2    0    0  0.96019790861E+01 -0.59632704929E+02 -0.11993605787E+03  0.13428669136E+03  0.00000000000E+00 0. -1.
        -15    1    3    3    0    0  0.78514353233E+02  0.59395788069E+02  0.82663550228E+02  0.12856431686E+03  0.17770000000E+01 0.  1.
         15    1    3    3    0    0 -0.47010978580E+02  0.17372591442E+02  0.24531385052E+02  0.55828179462E+02  0.17770000000E+01 0.  1.
</event>
<event>
 7    1  0.3091307E-006  0.1772826E+03  0.7546771E-02  0.1072685E+00
        -11   -1    0    0    0    0  0.00000000000E+00  0.00000000000E+00  0.18250000000E+03  0.18250000000E+03  0.00000000000E+00 0.  1.
         11   -1    0    0    0    0 -0.00000000000E+00 -0.00000000000E+00 -0.18250000000E+03  0.18250000000E+03  0.00000000000E+00 0.  1.
         25    2    1    2    0    0  0.47160482293E+02 -0.53282906249E+02 -0.73574718429E+02  0.16155501635E+03  0.12499441959E+03 0.  0.
        -11    1    1    2    0    0 -0.28155891623E+02  0.78480163276E+02  0.12071770403E+03  0.14671282946E+03  0.00000000000E+00 0.  1.
         11    1    1    2    0    0 -0.19004590671E+02 -0.25197257027E+02 -0.47142985599E+02  0.56732154193E+02  0.00000000000E+00 0.  1.
        -15    1    3    3    0    0 -0.41849170441E+02 -0.24687461415E+02 -0.13674263198E+02  0.50507098716E+02  0.17770000000E+01 0. -1.
         15    1    3    3    0    0  0.89009652735E+02 -0.28595444834E+02 -0.59900455232E+02  0.11104791764E+03  0.17770000000E+01 0. -1.
</event>
<event>
 7    1  0.3091307E-006  0.1866653E+03  0.7546771E-02  0.1065187E+00
        -11   -1    0    0    0    0  0.00000000000E+00  0.00000000000E+00  0.18250000000E+03  0.18250000000E+03  0.00000000000E+00 0. -1.
         11   -1    0    0    0    0 -0.00000000000E+00 -0.00000000000E+00 -0.18250000000E+03  0.18250000000E+03  0.00000000000E+00 0. -1.
         25    2    1    2    0    0 -0.77167479322E+02  0.79124807240E+02 -0.46479789314E+02  0.17320686430E+03  0.12499876815E+03 0.  0.
        -11    1    1    2    0    0  0.85566809918E+02 -0.11003483385E+03  0.66061038472E+02  0.15425110834E+03  0.00000000000E+00 0. -1.
         11    1    1    2    0    0 -0.83993305954E+01  0.30910026615E+02 -0.19581249158E+02  0.37542027361E+02  0.00000000000E+00 0. -1.
        -15    1    3    3    0    0 -0.81203474423E+02 -0.44256830437E+01 -0.35757684886E+02  0.88855842161E+02  0.17770000000E+01 0. -1.
         15    1    3    3    0    0  0.40359951007E+01  0.83550490283E+02 -0.10722104428E+02  0.84351022136E+02  0.17770000000E+01 0. -1.
</event>
<event>
 7    1  0.3091307E-006  0.1690206E+03  0.7546771E-02  0.1079721E+00
        -11   -1    0    0    0    0  0.00000000000E+00  0.00000000000E+00  0.18250000000E+03  0.18250000000E+03  0.00000000000E+00 0.  1.
         11   -1    0    0    0    0 -0.00000000000E+00 -0.00000000000E+00 -0.18250000000E+03  0.18250000000E+03  0.00000000000E+00 0. -1.
         25    2    1    2    0    0  0.38644174473E+02  0.19883324553E+02 -0.61395762677E+02  0.14588738930E+03  0.12499988747E+03 0.  0.
        -11    1    1    2    0    0 -0.59803625705E+02 -0.24784674274E+02  0.13104100963E+03  0.14615915959E+03  0.00000000000E+00 0.  1.
         11    1    1    2    0    0  0.21159451233E+02  0.49013497211E+01 -0.69645246955E+02  0.72953451110E+02  0.00000000000E+00 0. -1.
        -15    1    3    3    0    0  0.21662102390E+02 -0.20005993744E+02 -0.89460834992E+02  0.94211916402E+02  0.17770000000E+01 0.  1.
         15    1    3    3    0    0  0.16982072083E+02  0.39889318296E+02  0.28065072315E+02  0.51675472899E+02  0.17770000000E+01 0.  1.
</event>
<event>
 7    1  0.3091307E-006  0.1860136E+03  0.7546771E-02  0.1065692E+00
        -11   -1    0    0    0    0  0.00000000000E+00  0.00000000000E+00  0.18250000000E+03  0.18250000000E+03  0.00000000000E+00 0. -1.
         11   -1    0    0    0    0 -0.00000000000E+00 -0.00000000000E+00 -0.18250000000E+03  0.18250000000E+03  0.00000000000E+00 0.  1.
         25    2    1    2    0    0 -0.73611132047E+02 -0.29872398450E+02 -0.89773921978E+02  0.17319475225E+03  0.12500442468E+03 0.  0.
        -11    1    1    2    0    0  0.86504778594E+02  0.18569051968E+02  0.12469914444E+03  0.15289788434E+03  0.00000000000E+00 0. -1.
         11    1    1    2    0    0 -0.12893646547E+02  0.11303346483E+02 -0.34925222465E+02  0.38907363406E+02  0.00000000000E+00 0.  1.
        -15    1    3    3    0    0 -0.34773971170E+02  0.48663422268E+02 -0.44413032488E+02  0.74518674985E+02  0.17770000000E+01 0.  1.
         15    1    3    3    0    0 -0.38837160877E+02 -0.78535820719E+02 -0.45360889490E+02  0.98676077269E+02  0.17770000000E+01 0.  1.
</event>
<event>
 7    1  0.3091307E-006  0.1512810E+03  0.7546771E-02  0.1096438E+00
        -11   -1    0    0    0    0  0.00000000000E+00  0.00000000000E+00  0.18250000000E+03  0.18250000000E+03  0.00000000000E+00 0. -1.
         11   -1    0    0    0    0 -0.00000000000E+00 -0.00000000000E+00 -0.18250000000E+03  0.18250000000E+03  0.00000000000E+00 0.  1.
         25    2    1    2    0    0  0.60388818258E+02  0.31118407695E+02  0.29270663508E+01  0.14228211508E+03  0.12498187023E+03 0.  0.
        -11    1    1    2    0    0 -0.12644857543E+00 -0.43815016723E+02  0.96375903920E+02  0.10586825084E+03  0.00000000000E+00 0. -1.
         11    1    1    2    0    0 -0.60262369683E+02  0.12696609028E+02 -0.99302970271E+02  0.11684963408E+03  0.00000000000E+00 0.  1.
        -15    1    3    3    0    0  0.18716389416E+02 -0.39627185937E+02  0.32930539050E+02  0.54847016593E+02  0.17770000000E+01 0. -1.
         15    1    3    3    0    0  0.41672428842E+02  0.70745593632E+02 -0.30003472699E+02  0.87435098484E+02  0.17770000000E+01 0. -1.
</event>
<event>
 7    1  0.3091307E-006  0.1784402E+03  0.7546771E-02  0.1071733E+00
        -11   -1    0    0    0    0  0.00000000000E+00  0.00000000000E+00  0.18250000000E+03  0.18250000000E+03  0.00000000000E+00 0.  1.
         11   -1    0    0    0    0 -0.00000000000E+00 -0.00000000000E+00 -0.18250000000E+03  0.18250000000E+03  0.00000000000E+00 0.  1.
         25    2    1    2    0    0 -0.76089048561E+02  0.58303088736E+01 -0.11151075606E+03  0.18406940056E+03  0.12499343860E+03 0.  0.
        -11    1    1    2    0    0  0.36535082978E+02 -0.43153240586E+02  0.11318457323E+03  0.12652178500E+03  0.00000000000E+00 0.  1.
         11    1    1    2    0    0  0.39553965583E+02  0.37322931712E+02 -0.16738171676E+01  0.54408814441E+02  0.00000000000E+00 0.  1.
        -15    1    3    3    0    0 -0.78664519791E+02  0.44405534317E+02 -0.11379381087E+03  0.14530019708E+03  0.17770000000E+01 0. -1.
         15    1    3    3    0    0  0.25754712294E+01 -0.38575225443E+02  0.22830548039E+01  0.38769203478E+02  0.17770000000E+01 0. -1.
</event>
<event>
 7    1  0.3091307E-006  0.1642893E+03  0.7546771E-02  0.1083952E+00
        -11   -1    0    0    0    0  0.00000000000E+00  0.00000000000E+00  0.18250000000E+03  0.18250000000E+03  0.00000000000E+00 0.  1.
         11   -1    0    0    0    0 -0.00000000000E+00 -0.00000000000E+00 -0.18250000000E+03  0.18250000000E+03  0.00000000000E+00 0.  1.
         25    2    1    2    0    0  0.64278314573E+02 -0.15537988448E+02 -0.16718157063E+02  0.14239925979E+03  0.12499968641E+03 0.  0.
        -11    1    1    2    0    0 -0.11088107272E+03  0.20909007494E+02  0.83936649350E+02  0.14063129092E+03  0.00000000000E+00 0.  1.
         11    1    1    2    0    0  0.46602758144E+02 -0.53710190452E+01 -0.67218492288E+02  0.81969449294E+02  0.00000000000E+00 0.  1.
        -15    1    3    3    0    0  0.93577911379E+02 -0.64186448398E+01 -0.41820706401E+02  0.10271394118E+03  0.17770000000E+01 0.  1.
         15    1    3    3    0    0 -0.29299596806E+02 -0.91193436086E+01  0.25102549338E+02  0.39685318609E+02  0.17770000000E+01 0.  1.
</event>
<event>
 7    1  0.3091307E-006  0.1549574E+03  0.7546771E-02  0.1092773E+00
        -11   -1    0    0    0    0  0.00000000000E+00  0.00000000000E+00  0.18250000000E+03  0.18250000000E+03  0.00000000000E+00 0.  1.
         11   -1    0    0    0    0 -0.00000000000E+00 -0.00000000000E+00 -0.18250000000E+03  0.18250000000E+03  0.00000000000E+00 0.  1.
         25    2    1    2    0    0 -0.45554200258E+02  0.65114276103E+02  0.46338430255E+02  0.15519889976E+03  0.12499757700E+03 0.  0.
        -11    1    1    2    0    0  0.56965756969E+02 -0.79772369125E+02  0.51144207649E+02  0.11056427234E+03  0.00000000000E+00 0.  1.
         11    1    1    2    0    0 -0.11411556711E+02  0.14658093022E+02 -0.97482637904E+02  0.99236827893E+02  0.00000000000E+00 0.  1.
        -15    1    3    3    0    0 -0.10352061668E+02  0.98260069167E+02  0.22907696010E+02  0.10144026143E+03  0.17770000000E+01 0. -1.
         15    1    3    3    0    0 -0.35202138591E+02 -0.33145793064E+02  0.23430734245E+02  0.53758638333E+02  0.17770000000E+01 0. -1.
</event>
<event>
 7    1  0.3091307E-006  0.1577409E+03  0.7546771E-02  0.1090072E+00
        -11   -1    0    0    0    0  0.00000000000E+00  0.00000000000E+00  0.18250000000E+03  0.18250000000E+03  0.00000000000E+00 0.  1.
         11   -1    0    0    0    0 -0.00000000000E+00 -0.00000000000E+00 -0.18250000000E+03  0.18250000000E+03  0.00000000000E+00 0. -1.
         25    2    1    2    0    0  0.58238408265E+02 -0.38600801299E+02  0.46655494560E+02  0.15061232126E+03  0.12500240831E+03 0.  0.
        -11    1    1    2    0    0 -0.71612171404E+02 -0.53678425475E+02  0.29249311368E+02  0.94155183979E+02  0.00000000000E+00 0.  1.
         11    1    1    2    0    0  0.13373763139E+02  0.92279226774E+02 -0.75904805927E+02  0.12023249477E+03  0.00000000000E+00 0. -1.
        -15    1    3    3    0    0  0.84356737517E+02 -0.34546786215E+02  0.70280271962E+02  0.11511739208E+03  0.17770000000E+01 0.  1.
         15    1    3    3    0    0 -0.26118329252E+02 -0.40540150848E+01 -0.23624777402E+02  0.35494929180E+02  0.17770000000E+01 0.  1.
</event>
<event>
 7    1  0.3091307E-006  0.1595388E+03  0.7546771E-02  0.1088360E+00
        -11   -1    0    0    0    0  0.00000000000E+00  0.00000000000E+00  0.18250000000E+03  0.18250000000E+03  0.00000000000E+00 0.  1.
         11   -1    0    0    0    0 -0.00000000000E+00 -0.00000000000E+00 -0.18250000000E+03  0.18250000000E+03  0.00000000000E+00 0. -1.
         25    2    1    2    0    0  0.95180314955E+01  0.73612341359E+02 -0.73689987966E+02  0.16298611184E+03  0.12499955441E+03 0.  0.
        -11    1    1    2    0    0  0.30918659778E+02  0.69327203952E+00  0.10678624902E+03  0.11117439961E+03  0.00000000000E+00 0.  1.
         11    1    1    2    0    0 -0.40436691274E+02 -0.74305613399E+02 -0.33096261058E+02  0.90839488548E+02  0.00000000000E+00 0. -1.
        -15    1    3    3    0    0 -0.51031947954E+01 -0.47464957119E+01 -0.82460978839E+02  0.82774045321E+02  0.17770000000E+01 0.  1.
         15    1    3    3    0    0  0.14621226291E+02  0.78358837071E+02  0.87709908729E+01  0.80212066519E+02  0.17770000000E+01 0.  1.
</event>
<event>
 7    1  0.3091307E-006  0.1781151E+03  0.7546771E-02  0.1072000E+00
        -11   -1    0    0    0    0  0.00000000000E+00  0.00000000000E+00  0.18250000000E+03  0.18250000000E+03  0.00000000000E+00 0.  1.
         11   -1    0    0    0    0 -0.00000000000E+00 -0.00000000000E+00 -0.18250000000E+03  0.18250000000E+03  0.00000000000E+00 0.  1.
         25    2    1    2    0    0 -0.84989390812E+02  0.30990727196E+02  0.68226147990E+02  0.16870784681E+03  0.12499563425E+03 0.  0.
        -11    1    1    2    0    0 -0.33400479540E+02 -0.43073148964E+02  0.78212345391E+01  0.55064143550E+02  0.00000000000E+00 0.  1.
         11    1    1    2    0    0  0.11838987035E+03  0.12082421768E+02 -0.76047382529E+02  0.14122800964E+03  0.00000000000E+00 0.  1.
        -15    1    3    3    0    0 -0.36842018166E+02  0.73679684982E+02  0.12053638710E+02  0.83273514498E+02  0.17770000000E+01 0.  1.
         15    1    3    3    0    0 -0.48147372645E+02 -0.42688957786E+02  0.56172509280E+02  0.85434332310E+02  0.17770000000E+01 0.  1.
</event>
<event>
 7    1  0.3091307E-006  0.1550812E+03  0.7546771E-02  0.1092652E+00
        -11   -1    0    0    0    0  0.00000000000E+00  0.00000000000E+00  0.18250000000E+03  0.18250000000E+03  0.00000000000E+00 0. -1.
         11   -1    0    0    0    0 -0.00000000000E+00 -0.00000000000E+00 -0.18250000000E+03  0.18250000000E+03  0.00000000000E+00 0. -1.
         25    2    1    2    0    0  0.22146499506E+02  0.35758584385E+01  0.41669686559E+02  0.13365773407E+03  0.12499909157E+03 0.  0.
        -11    1    1    2    0    0 -0.33773352846E+02 -0.34346482763E+02  0.86505933084E+02  0.99013113775E+02  0.00000000000E+00 0. -1.
         11    1    1    2    0    0  0.11626853340E+02  0.30770624325E+02 -0.12817561964E+03  0.13232915216E+03  0.00000000000E+00 0. -1.
        -15    1    3    3    0    0  0.10874668579E+02  0.26889918481E+01  0.86575992001E+02  0.87315801628E+02  0.17770000000E+01 0.  1.
         15    1    3    3    0    0  0.11271830926E+02  0.88686659036E+00 -0.44906305442E+02  0.46341932440E+02  0.17770000000E+01 0.  1.
</event>
<event>
 7    1  0.3091307E-006  0.1672949E+03  0.7546771E-02  0.1081247E+00
        -11   -1    0    0    0    0  0.00000000000E+00  0.00000000000E+00  0.18250000000E+03  0.18250000000E+03  0.00000000000E+00 0.  1.
         11   -1    0    0    0    0 -0.00000000000E+00 -0.00000000000E+00 -0.18250000000E+03  0.18250000000E+03  0.00000000000E+00 0.  1.
         25    2    1    2    0    0 -0.85929719395E+02 -0.34246643268E+01 -0.69435405222E+01  0.15188194242E+03  0.12499706667E+03 0.  0.
        -11    1    1    2    0    0 -0.37114390918E+02 -0.23577007004E+01  0.66579195084E+02  0.76261562952E+02  0.00000000000E+00 0.  1.
         11    1    1    2    0    0  0.12304411031E+03  0.57823650272E+01 -0.59635654562E+02  0.13685649463E+03  0.00000000000E+00 0.  1.
        -15    1    3    3    0    0 -0.32732524061E+02  0.48992349367E+02  0.32595977223E+02  0.67359660688E+02  0.17770000000E+01 0.  1.
         15    1    3    3    0    0 -0.53197195334E+02 -0.52417013694E+02 -0.39539517745E+02  0.84522281728E+02  0.17770000000E+01 0.  1.
</event>
<event>
 7    1  0.3091307E-006  0.1538623E+03  0.7546771E-02  0.1093853E+00
        -11   -1    0    0    0    0  0.00000000000E+00  0.00000000000E+00  0.18250000000E+03  0.18250000000E+03  0.00000000000E+00 0. -1.
         11   -1    0    0    0    0 -0.00000000000E+00 -0.00000000000E+00 -0.18250000000E+03  0.18250000000E+03  0.00000000000E+00 0. -1.
         25    2    1    2    0    0  0.60947165590E+02 -0.55512454042E+02  0.60885943930E+01  0.14985570276E+03  0.12499388433E+03 0.  0.
        -11    1    1    2    0    0 -0.15774557047E+02  0.77803728669E+02  0.81708124155E+02  0.11392310739E+03  0.00000000000E+00 0. -1.
         11    1    1    2    0    0 -0.45172608543E+02 -0.22291274627E+02 -0.87796718548E+02  0.10122118985E+03  0.00000000000E+00 0. -1.
        -15    1    3    3    0    0  0.56801832548E+01 -0.46339963037E+02 -0.51471371575E+02  0.69513426595E+02  0.17770000000E+01 0.  1.
         15    1    3    3    0    0  0.55266982336E+02 -0.91724910047E+01  0.57559965968E+02  0.80342276162E+02  0.17770000000E+01 0.  1.
</event>
<event>
 7    1  0.3091307E-006  0.1808936E+03  0.7546771E-02  0.1069741E+00
        -11   -1    0    0    0    0  0.00000000000E+00  0.00000000000E+00  0.18250000000E+03  0.18250000000E+03  0.00000000000E+00 0.  1.
         11   -1    0    0    0    0 -0.00000000000E+00 -0.00000000000E+00 -0.18250000000E+03  0.18250000000E+03  0.00000000000E+00 0. -1.
         25    2    1    2    0    0 -0.10964446521E+03  0.23147637615E+02 -0.46932004556E+01  0.16793404500E+03  0.12498838130E+03 0.  0.
        -11    1    1    2    0    0 -0.22622131646E+02  0.41812458207E+02  0.13577439156E+02  0.49440766130E+02  0.00000000000E+00 0.  1.
         11    1    1    2    0    0  0.13226659685E+03 -0.64960095822E+02 -0.88842387002E+01  0.14762518887E+03  0.00000000000E+00 0. -1.
        -15    1    3    3    0    0 -0.98538933361E+02  0.59120083529E+02  0.27720813484E+02  0.11822312335E+03  0.17770000000E+01 0.  1.
         15    1    3    3    0    0 -0.11105531848E+02 -0.35972445914E+02 -0.32414013940E+02  0.49710921651E+02  0.17770000000E+01 0.  1.
</event>
<event>
 7    1  0.3091307E-006  0.1869994E+03  0.7546771E-02  0.1064929E+00
        -11   -1    0    0    0    0  0.00000000000E+00  0.00000000000E+00  0.18250000000E+03  0.18250000000E+03  0.00000000000E+00 0. -1.
         11   -1    0    0    0    0 -0.00000000000E+00 -0.00000000000E+00 -0.18250000000E+03  0.18250000000E+03  0.00000000000E+00 0. -1.
         25    2    1    2    0    0  0.66312827063E+02 -0.16208660608E+02 -0.10799155968E+03  0.17874736761E+03  0.12501333030E+03 0.  0.
        -11    1    1    2    0    0 -0.52382111556E+02  0.40093316919E+01  0.13985643626E+03  0.14939806931E+03  0.00000000000E+00 0. -1.
         11    1    1    2    0    0 -0.13930715507E+02  0.12199328916E+02 -0.31864876575E+02  0.36854563078E+02  0.00000000000E+00 0. -1.
        -15    1    3    3    0    0  0.24173041158E+02 -0.34711607013E+01  0.27176417744E+02  0.36580053114E+02  0.17770000000E+01 0.  1.
         15    1    3    3    0    0  0.42139785905E+02 -0.12737499907E+02 -0.13516797743E+03  0.14216731449E+03  0.17770000000E+01 0. -1.
</event>
<event>
 7    1  0.3091307E-006  0.1536366E+03  0.7546771E-02  0.1094077E+00
        -11   -1    0    0    0    0  0.00000000000E+00  0.00000000000E+00  0.18250000000E+03  0.18250000000E+03  0.00000000000E+00 0.  1.
         11   -1    0    0    0    0 -0.00000000000E+00 -0.00000000000E+00 -0.18250000000E+03  0.18250000000E+03  0.00000000000E+00 0.  1.
         25    2    1    2    0    0  0.90203693614E+01  0.85066570529E+01  0.37188563856E+02  0.13100007508E+03  0.12499720041E+03 0.  0.
        -11    1    1    2    0    0 -0.53034332218E+02  0.21931398397E+02  0.83878745957E+02  0.10163301950E+03  0.00000000000E+00 0.  1.
         11    1    1    2    0    0  0.44013962857E+02 -0.30438055450E+02 -0.12106730981E+03  0.13236690542E+03  0.00000000000E+00 0.  1.
        -15    1    3    3    0    0 -0.20667396867E+02 -0.41605271118E+02 -0.18839077080E+02  0.50161822458E+02  0.17770000000E+01 0.  1.
         15    1    3    3    0    0  0.29687766229E+02  0.50111928171E+02  0.56027640935E+02  0.80838252619E+02  0.17770000000E+01 0.  1.
</event>
<event>
 7    1  0.3091307E-006  0.1884566E+03  0.7546771E-02  0.1063810E+00
        -11   -1    0    0    0    0  0.00000000000E+00  0.00000000000E+00  0.18250000000E+03  0.18250000000E+03  0.00000000000E+00 0.  1.
         11   -1    0    0    0    0 -0.00000000000E+00 -0.00000000000E+00 -0.18250000000E+03  0.18250000000E+03  0.00000000000E+00 0. -1.
         25    2    1    2    0    0 -0.74771432464E+02 -0.40611280149E+02 -0.89916449816E+02  0.17592724954E+03  0.12500154397E+03 0.  0.
        -11    1    1    2    0    0  0.86936879492E+02  0.42769249602E+02  0.12135839838E+03  0.15529034286E+03  0.00000000000E+00 0.  1.
         11    1    1    2    0    0 -0.12165447028E+02 -0.21579694525E+01 -0.31441948567E+02  0.33782407599E+02  0.00000000000E+00 0. -1.
        -15    1    3    3    0    0  0.28960507515E+02 -0.15454493855E+02  0.47871452797E+01  0.33220879952E+02  0.17770000000E+01 0. -1.
         15    1    3    3    0    0 -0.10373193998E+03 -0.25156786295E+02 -0.94703595096E+02  0.14270636959E+03  0.17770000000E+01 0. -1.
</event>
<event>
 7    1  0.3091307E-006  0.1511283E+03  0.7546771E-02  0.1096592E+00
        -11   -1    0    0    0    0  0.00000000000E+00  0.00000000000E+00  0.18250000000E+03  0.18250000000E+03  0.00000000000E+00 0. -1.
         11   -1    0    0    0    0 -0.00000000000E+00 -0.00000000000E+00 -0.18250000000E+03  0.18250000000E+03  0.00000000000E+00 0.  1.
         25    2    1    2    0    0 -0.10959542468E+02  0.14684761201E+02 -0.27802693892E+02  0.12934775487E+03  0.12498839194E+03 0.  0.
        -11    1    1    2    0    0  0.20971697368E+02  0.27002463060E+02  0.12490853650E+03  0.12950323391E+03  0.00000000000E+00 0. -1.
         11    1    1    2    0    0 -0.10012154900E+02 -0.41687224261E+02 -0.97105842612E+02  0.10614901121E+03  0.00000000000E+00 0.  1.
        -15    1    3    3    0    0 -0.41304106135E+02  0.32323528396E+02 -0.61370530539E+02  0.80748618683E+02  0.17770000000E+01 0. -1.
         15    1    3    3    0    0  0.30344563668E+02 -0.17638767195E+02  0.33567836647E+02  0.48599136191E+02  0.17770000000E+01 0. -1.
</event>
<event>
 7    1  0.3091307E-006  0.1442272E+03  0.7546771E-02  0.1103800E+00
        -11   -1    0    0    0    0  0.00000000000E+00  0.00000000000E+00  0.18250000000E+03  0.18250000000E+03  0.00000000000E+00 0.  1.
         11   -1    0    0    0    0 -0.00000000000E+00 -0.00000000000E+00 -0.18250000000E+03  0.18250000000E+03  0.00000000000E+00 0. -1.
         25    2    1    2    0    0  0.15674269488E+02 -0.16984586311E+02  0.57816073199E+01  0.12724911873E+03  0.12499900935E+03 0.  0.
        -11    1    1    2    0    0 -0.46593612297E+02  0.16168510182E+02  0.10859300261E+03  0.11926787348E+03  0.00000000000E+00 0.  1.
         11    1    1    2    0    0  0.30919342809E+02  0.81607612887E+00 -0.11437460993E+03  0.11848300780E+03  0.00000000000E+00 0. -1.
        -15    1    3    3    0    0  0.53336952926E+02 -0.35121464762E+02  0.38096327261E+02  0.74383033780E+02  0.17770000000E+01 0. -1.
         15    1    3    3    0    0 -0.37662683438E+02  0.18136878452E+02 -0.32314719941E+02  0.52866084947E+02  0.17770000000E+01 0. -1.
</event>
<event>
 7    1  0.3091307E-006  0.1785768E+03  0.7546771E-02  0.1071621E+00
        -11   -1    0    0    0    0  0.00000000000E+00  0.00000000000E+00  0.18250000000E+03  0.18250000000E+03  0.00000000000E+00 0.  1.
         11   -1    0    0    0    0 -0.00000000000E+00 -0.00000000000E+00 -0.18250000000E+03  0.18250000000E+03  0.00000000000E+00 0.  1.
         25    2    1    2    0    0 -0.71540628328E+02 -0.25561024117E+02 -0.77152472684E+02  0.16537573303E+03  0.12500080631E+03 0.  0.
        -11    1    1    2    0    0  0.61860942387E+02  0.20077834694E+02  0.13013733998E+03  0.14548409843E+03  0.00000000000E+00 0.  1.
         11    1    1    2    0    0  0.96796859409E+01  0.54831894239E+01 -0.52984867300E+02  0.54140168535E+02  0.00000000000E+00 0.  1.
        -15    1    3    3    0    0  0.21600299106E+02  0.19788837621E+02  0.89243210462E+01  0.30675271002E+02  0.17770000000E+01 0. -1.
         15    1    3    3    0    0 -0.93140927435E+02 -0.45349861739E+02 -0.86076793731E+02  0.13470046203E+03  0.17770000000E+01 0. -1.
</event>
<event>
 7    1  0.3091307E-006  0.1769033E+03  0.7546771E-02  0.1072999E+00
        -11   -1    0    0    0    0  0.00000000000E+00  0.00000000000E+00  0.18250000000E+03  0.18250000000E+03  0.00000000000E+00 0. -1.
         11   -1    0    0    0    0 -0.00000000000E+00 -0.00000000000E+00 -0.18250000000E+03  0.18250000000E+03  0.00000000000E+00 0. -1.
         25    2    1    2    0    0 -0.10186669282E+03 -0.28015428229E+02  0.55341239137E+02  0.17276589128E+03  0.12499485236E+03 0.  0.
        -11    1    1    2    0    0  0.23700386210E+02  0.55340060369E+01  0.52085006779E+02  0.57490707601E+02  0.00000000000E+00 0. -1.
         11    1    1    2    0    0  0.78166306608E+02  0.22481422192E+02 -0.10742624592E+03  0.13474340112E+03  0.00000000000E+00 0. -1.
        -15    1    3    3    0    0  0.69157697621E+01  0.12162770923E+02 -0.27046324783E+02  0.30502824151E+02  0.17770000000E+01 0. -1.
         15    1    3    3    0    0 -0.10878246258E+03 -0.40178199153E+02  0.82387563921E+02  0.14226306713E+03  0.17770000000E+01 0. -1.
</event>
<event>
 7    1  0.3091307E-006  0.1850527E+03  0.7546771E-02  0.1066441E+00
        -11   -1    0    0    0    0  0.00000000000E+00  0.00000000000E+00  0.18250000000E+03  0.18250000000E+03  0.00000000000E+00 0.  1.
         11   -1    0    0    0    0 -0.00000000000E+00 -0.00000000000E+00 -0.18250000000E+03  0.18250000000E+03  0.00000000000E+00 0. -1.
         25    2    1    2    0    0 -0.19967483740E+02  0.26838881188E+02  0.10921288180E+03  0.16932446413E+03  0.12499717858E+03 0.  0.
        -11    1    1    2    0    0 -0.11925782797E+02  0.12911249197E+02  0.36931224282E+02  0.40900366479E+02  0.00000000000E+00 0.  1.
         11    1    1    2    0    0  0.31893266537E+02 -0.39750130385E+02 -0.14614410608E+03  0.15477516939E+03  0.00000000000E+00 0. -1.
        -15    1    3    3    0    0 -0.19029015017E+02 -0.27473768866E+02 -0.12738900784E+02  0.35809896822E+02  0.17770000000E+01 0. -1.
         15    1    3    3    0    0 -0.93846872367E+00  0.54312650055E+02  0.12195178259E+03  0.13351456731E+03  0.17770000000E+01 0. -1.
</event>
<event>
 7    1  0.3091307E-006  0.1837164E+03  0.7546771E-02  0.1067491E+00
        -11   -1    0    0    0    0  0.00000000000E+00  0.00000000000E+00  0.18250000000E+03  0.18250000000E+03  0.00000000000E+00 0.  1.
         11   -1    0    0    0    0 -0.00000000000E+00 -0.00000000000E+00 -0.18250000000E+03  0.18250000000E+03  0.00000000000E+00 0.  1.
         25    2    1    2    0    0  0.40581419521E+02 -0.26345920635E+02  0.12968604160E+03  0.18650707143E+03  0.12500183664E+03 0.  0.
        -11    1    1    2    0    0 -0.40242345953E+02 -0.16841843023E+02 -0.19666013156E+01  0.43668771507E+02  0.00000000000E+00 0.  1.
         11    1    1    2    0    0 -0.33907356824E+00  0.43187763659E+02 -0.12771944028E+03  0.13482415706E+03  0.00000000000E+00 0.  1.
        -15    1    3    3    0    0 -0.30036369016E+02  0.29746396982E+02  0.55045672661E+02  0.69427771135E+02  0.17770000000E+01 0.  1.
         15    1    3    3    0    0  0.70617788537E+02 -0.56092317617E+02  0.74640368938E+02  0.11707930030E+03  0.17770000000E+01 0.  1.
</event>
<event>
 7    1  0.3091307E-006  0.1909415E+03  0.7546771E-02  0.1061927E+00
        -11   -1    0    0    0    0  0.00000000000E+00  0.00000000000E+00  0.18250000000E+03  0.18250000000E+03  0.00000000000E+00 0. -1.
         11   -1    0    0    0    0 -0.00000000000E+00 -0.00000000000E+00 -0.18250000000E+03  0.18250000000E+03  0.00000000000E+00 0. -1.
         25    2    1    2    0    0 -0.57598760452E+02 -0.55460381031E+00 -0.14191818636E+03  0.19769331317E+03  0.12499579858E+03 0.  0.
        -11    1    1    2    0    0  0.70322619156E+02  0.11905428926E+02  0.11907338788E+03  0.13880015023E+03  0.00000000000E+00 0. -1.
         11    1    1    2    0    0 -0.12723858705E+02 -0.11350825116E+02  0.22844798482E+02  0.28506536599E+02  0.00000000000E+00 0. -1.
        -15    1    3    3    0    0 -0.15641992427E+02  0.55920180787E+02 -0.29733243782E+02  0.65260723726E+02  0.17770000000E+01 0.  1.
         15    1    3    3    0    0 -0.41956768024E+02 -0.56474784598E+02 -0.11218494258E+03  0.13243258945E+03  0.17770000000E+01 0.  1.
</event>
<event>
 7    1  0.3091307E-006  0.1786060E+03  0.7546771E-02  0.1071597E+00
        -11   -1    0    0    0    0  0.00000000000E+00  0.00000000000E+00  0.18250000000E+03  0.18250000000E+03  0.00000000000E+00 0.  1.
         11   -1    0    0    0    0 -0.00000000000E+00 -0.00000000000E+00 -0.18250000000E+03  0.18250000000E+03  0.00000000000E+00 0.  1.
         25    2    1    2    0    0  0.42598396690E+02 -0.63987441154E+01 -0.12497569550E+03  0.18192297274E+03  0.12498590409E+03 0.  0.
        -11    1    1    2    0    0 -0.11790596479E+02 -0.37977786465E+02  0.12272628236E+03  0.12900802616E+03  0.00000000000E+00 0.  1.
         11    1    1    2    0    0 -0.30807800210E+02  0.44376530581E+02  0.22494131312E+01  0.54069001097E+02  0.00000000000E+00 0.  1.
        -15    1    3    3    0    0 -0.31578950372E+02 -0.14158217400E+02 -0.95700588015E+02  0.10178136127E+03  0.17770000000E+01 0. -1.
         15    1    3    3    0    0  0.74177347062E+02  0.77594732845E+01 -0.29275107481E+02  0.80141611475E+02  0.17770000000E+01 0. -1.
</event>
<event>
 7    1  0.3091307E-006  0.1469096E+03  0.7546771E-02  0.1100947E+00
        -11   -1    0    0    0    0  0.00000000000E+00  0.00000000000E+00  0.18250000000E+03  0.18250000000E+03  0.00000000000E+00 0. -1.
         11   -1    0    0    0    0 -0.00000000000E+00 -0.00000000000E+00 -0.18250000000E+03  0.18250000000E+03  0.00000000000E+00 0.  1.
         25    2    1    2    0    0  0.56831362442E+02  0.17573187356E+01  0.63216310148E+01  0.13746385599E+03  0.12499382688E+03 0.  0.
        -11    1    1    2    0    0 -0.40576282288E+02  0.88186638273E+01  0.10584857195E+03  0.11370190720E+03  0.00000000000E+00 0. -1.
         11    1    1    2    0    0 -0.16255080154E+02 -0.10575982563E+02 -0.11217020296E+03  0.11383423681E+03  0.00000000000E+00 0.  1.
        -15    1    3    3    0    0  0.73919247030E+01 -0.56797101584E+02 -0.12233163075E+02  0.58594874409E+02  0.17770000000E+01 0. -1.
         15    1    3    3    0    0  0.49439437739E+02  0.58554420320E+02  0.18554794090E+02  0.78868981581E+02  0.17770000000E+01 0. -1.
</event>
<event>
 7    1  0.3091307E-006  0.1667163E+03  0.7546771E-02  0.1081762E+00
        -11   -1    0    0    0    0  0.00000000000E+00  0.00000000000E+00  0.18250000000E+03  0.18250000000E+03  0.00000000000E+00 0.  1.
         11   -1    0    0    0    0 -0.00000000000E+00 -0.00000000000E+00 -0.18250000000E+03  0.18250000000E+03  0.00000000000E+00 0. -1.
         25    2    1    2    0    0 -0.25111921011E+02  0.20159576998E+02 -0.59946105376E+02  0.14230274372E+03  0.12497807087E+03 0.  0.
        -11    1    1    2    0    0  0.51295908258E+02 -0.46354657453E+02  0.12785145230E+03  0.14534792164E+03  0.00000000000E+00 0.  1.
         11    1    1    2    0    0 -0.26183987247E+02  0.26195080456E+02 -0.67905346922E+02  0.77349334637E+02  0.00000000000E+00 0. -1.
        -15    1    3    3    0    0  0.44201571527E+02  0.51525983341E+01  0.66141668705E+01  0.45024805690E+02  0.17770000000E+01 0. -1.
         15    1    3    3    0    0 -0.69313492538E+02  0.15006978664E+02 -0.66560272247E+02  0.97277938028E+02  0.17770000000E+01 0. -1.
</event>
<event>
 7    1  0.3091307E-006  0.1624591E+03  0.7546771E-02  0.1085630E+00
        -11   -1    0    0    0    0  0.00000000000E+00  0.00000000000E+00  0.18250000000E+03  0.18250000000E+03  0.00000000000E+00 0. -1.
         11   -1    0    0    0    0 -0.00000000000E+00 -0.00000000000E+00 -0.18250000000E+03  0.18250000000E+03  0.00000000000E+00 0. -1.
         25    2    1    2    0    0  0.75491553428E+02 -0.24058795870E+02  0.20332901760E+02  0.14938753395E+03  0.12500163242E+03 0.  0.
        -11    1    1    2    0    0  0.82793330051E+01  0.31160831140E+02  0.79089803751E+02  0.85409260679E+02  0.00000000000E+00 0. -1.
         11    1    1    2    0    0 -0.83770886433E+02 -0.71020352697E+01 -0.99422705511E+02  0.13020320538E+03  0.00000000000E+00 0. -1.
        -15    1    3    3    0    0  0.40698040504E+02 -0.60263798046E+02 -0.29616794134E+02  0.78538958992E+02  0.17770000000E+01 0. -1.
         15    1    3    3    0    0  0.34793512925E+02  0.36205002175E+02  0.49949695894E+02  0.70848574954E+02  0.17770000000E+01 0. -1.
</event>
<event>
 7    1  0.3091307E-006  0.1486388E+03  0.7546771E-02  0.1099143E+00
        -11   -1    0    0    0    0  0.00000000000E+00  0.00000000000E+00  0.18250000000E+03  0.18250000000E+03  0.00000000000E+00 0.  1.
         11   -1    0    0    0    0 -0.00000000000E+00 -0.00000000000E+00 -0.18250000000E+03  0.18250000000E+03  0.00000000000E+00 0.  1.
         25    2    1    2    0    0 -0.17668343605E+02 -0.40541406196E+02 -0.10459148533E+02  0.13300435830E+03  0.12499995822E+03 0.  0.
        -11    1    1    2    0    0 -0.37484439426E+02  0.45161280644E+02  0.10624021182E+03  0.12137383192E+03  0.00000000000E+00 0.  1.
         11    1    1    2    0    0  0.55152783030E+02 -0.46198744476E+01 -0.95781063282E+02  0.11062180978E+03  0.00000000000E+00 0.  1.
        -15    1    3    3    0    0  0.47936335782E+01 -0.81930060841E+02 -0.20962208612E+02  0.84723584150E+02  0.17770000000E+01 0. -1.
         15    1    3    3    0    0 -0.22461977183E+02  0.41388654645E+02  0.10503060079E+02  0.48280774148E+02  0.17770000000E+01 0. -1.
</event>
<event>
 7    1  0.3091307E-006  0.1640223E+03  0.7546771E-02  0.1084195E+00
        -11   -1    0    0    0    0  0.00000000000E+00  0.00000000000E+00  0.18250000000E+03  0.18250000000E+03  0.00000000000E+00 0.  1.
         11   -1    0    0    0    0 -0.00000000000E+00 -0.00000000000E+00 -0.18250000000E+03  0.18250000000E+03  0.00000000000E+00 0. -1.
         25    2    1    2    0    0 -0.43198922320E+02 -0.24604045354E+02  0.54161138246E+02  0.14501834278E+03  0.12500153963E+03 0.  0.
        -11    1    1    2    0    0 -0.20792875133E+02  0.45167680618E+02  0.65799195631E+02  0.82474221272E+02  0.00000000000E+00 0.  1.
         11    1    1    2    0    0  0.63991797453E+02 -0.20563635264E+02 -0.11996033388E+03  0.13750743595E+03  0.00000000000E+00 0. -1.
        -15    1    3    3    0    0  0.12818715530E+02 -0.58194663276E+01  0.79463587375E+02  0.80720537063E+02  0.17770000000E+01 0.  1.
         15    1    3    3    0    0 -0.56017637850E+02 -0.18784579027E+02 -0.25302449129E+02  0.64297805720E+02  0.17770000000E+01 0.  1.
</event>
<event>
 7    1  0.3091307E-006  0.1562795E+03  0.7546771E-02  0.1091482E+00
        -11   -1    0    0    0    0  0.00000000000E+00  0.00000000000E+00  0.18250000000E+03  0.18250000000E+03  0.00000000000E+00 0.  1.
         11   -1    0    0    0    0 -0.00000000000E+00 -0.00000000000E+00 -0.18250000000E+03  0.18250000000E+03  0.00000000000E+00 0.  1.
         25    2    1    2    0    0  0.53045350753E+02  0.68128901806E+02  0.14603003303E+02  0.15261173959E+03  0.12498695475E+03 0.  0.
        -11    1    1    2    0    0 -0.92086818829E+01 -0.38790696700E+02  0.88227804139E+02  0.96817681214E+02  0.00000000000E+00 0.  1.
         11    1    1    2    0    0 -0.43836668870E+02 -0.29338205106E+02 -0.10283080744E+03  0.11557057919E+03  0.00000000000E+00 0.  1.
        -15    1    3    3    0    0 -0.77402047423E+01 -0.32700990799E+02  0.84833133801E+01  0.34704321108E+02  0.17770000000E+01 0. -1.
         15    1    3    3    0    0  0.60785555496E+02  0.10082989260E+03  0.61196899225E+01  0.11790741848E+03  0.17770000000E+01 0. -1.
</event>
<event>
 7    1  0.3091307E-006  0.1562889E+03  0.7546771E-02  0.1091473E+00
        -11   -1    0    0    0    0  0.00000000000E+00  0.00000000000E+00  0.18250000000E+03  0.18250000000E+03  0.00000000000E+00 0.  1.
         11   -1    0    0    0    0 -0.00000000000E+00 -0.00000000000E+00 -0.18250000000E+03  0.18250000000E+03  0.00000000000E+00 0. -1.
         25    2    1    2    0    0 -0.30108684555E+02  0.52437978205E+02 -0.16351073282E+02  0.13980983380E+03  0.12499263013E+03 0.  0.
        -11    1    1    2    0    0  0.27850624555E+02 -0.53954263574E+02  0.11311864598E+03  0.12838437566E+03  0.00000000000E+00 0.  1.
         11    1    1    2    0    0  0.22580600004E+01  0.15162853686E+01 -0.96767572694E+02  0.96805790536E+02  0.00000000000E+00 0. -1.
        -15    1    3    3    0    0  0.23638341095E+02  0.23701065130E+02  0.43133097305E+02  0.54627222794E+02  0.17770000000E+01 0. -1.
         15    1    3    3    0    0 -0.53747025650E+02  0.28736913076E+02 -0.59484170587E+02  0.85182611011E+02  0.17770000000E+01 0.  1.
</event>
<event>
 7    1  0.3091307E-006  0.1720053E+03  0.7546771E-02  0.1077130E+00
        -11   -1    0    0    0    0  0.00000000000E+00  0.00000000000E+00  0.18250000000E+03  0.18250000000E+03  0.00000000000E+00 0.  1.
         11   -1    0    0    0    0 -0.00000000000E+00 -0.00000000000E+00 -0.18250000000E+03  0.18250000000E+03  0.00000000000E+00 0.  1.
         25    2    1    2    0    0 -0.16926667021E+02  0.74838402290E+02  0.58416010088E+02  0.15787432297E+03  0.12499829240E+03 0.  0.
        -11    1    1    2    0    0 -0.28916243166E+02 -0.13979308656E+02  0.58987692473E+02  0.67164857274E+02  0.00000000000E+00 0.  1.
         11    1    1    2    0    0  0.45842910186E+02 -0.60859093634E+02 -0.11740370256E+03  0.13996081976E+03  0.00000000000E+00 0.  1.
        -15    1    3    3    0    0  0.33594265470E+02  0.87981521737E+02  0.33201540984E+02  0.99874035125E+02  0.17770000000E+01 0.  1.
         15    1    3    3    0    0 -0.50520932490E+02 -0.13143119446E+02  0.25214469105E+02  0.58000287842E+02  0.17770000000E+01 0.  1.
</event>
<event>
 7    1  0.3091307E-006  0.1770624E+03  0.7546771E-02  0.1072867E+00
        -11   -1    0    0    0    0  0.00000000000E+00  0.00000000000E+00  0.18250000000E+03  0.18250000000E+03  0.00000000000E+00 0.  1.
         11   -1    0    0    0    0 -0.00000000000E+00 -0.00000000000E+00 -0.18250000000E+03  0.18250000000E+03  0.00000000000E+00 0.  1.
         25    2    1    2    0    0 -0.40663386913E+02 -0.46382493282E+01 -0.90737497866E+02  0.15977898440E+03  0.12498402276E+03 0.  0.
        -11    1    1    2    0    0  0.28823699298E+02  0.23878352009E+02  0.14324788492E+03  0.14805721147E+03  0.00000000000E+00 0.  1.
         11    1    1    2    0    0  0.11839687614E+02 -0.19240102680E+02 -0.52510387051E+02  0.57163804126E+02  0.00000000000E+00 0.  1.
        -15    1    3    3    0    0  0.31605589565E+02  0.29076753027E+02 -0.61058045593E+02  0.74670030930E+02  0.17770000000E+01 0. -1.
         15    1    3    3    0    0 -0.72268976477E+02 -0.33715002356E+02 -0.29679452272E+02  0.85108953472E+02  0.17770000000E+01 0. -1.
</event>
<event>
 7    1  0.3091307E-006  0.1680609E+03  0.7546771E-02  0.1080567E+00
        -11   -1    0    0    0    0  0.00000000000E+00  0.00000000000E+00  0.18250000000E+03  0.18250000000E+03  0.00000000000E+00 0.  1.
         11   -1    0    0    0    0 -0.00000000000E+00 -0.00000000000E+00 -0.18250000000E+03  0.18250000000E+03  0.00000000000E+00 0. -1.
         25    2    1    2    0    0 -0.19334665711E+02  0.31288645521E+02  0.67632342570E+02  0.14680425673E+03  0.12499818956E+03 0.  0.
        -11    1    1    2    0    0 -0.20420661678E+02 -0.18456141715E+02  0.69547371134E+02  0.74796185879E+02  0.00000000000E+00 0.  1.
         11    1    1    2    0    0  0.39755327389E+02 -0.12832503806E+02 -0.13717971370E+03  0.14339955740E+03  0.00000000000E+00 0. -1.
        -15    1    3    3    0    0  0.45234923397E+02 -0.53099199485E+01  0.55104902959E+02  0.71512947106E+02  0.17770000000E+01 0. -1.
         15    1    3    3    0    0 -0.64569589108E+02  0.36598565469E+02  0.12527439610E+02  0.75291309620E+02  0.17770000000E+01 0. -1.
</event>
<event>
 7    1  0.3091307E-006  0.1676540E+03  0.7546771E-02  0.1080927E+00
        -11   -1    0    0    0    0  0.00000000000E+00  0.00000000000E+00  0.18250000000E+03  0.18250000000E+03  0.00000000000E+00 0. -1.
         11   -1    0    0    0    0 -0.00000000000E+00 -0.00000000000E+00 -0.18250000000E+03  0.18250000000E+03  0.00000000000E+00 0.  1.
         25    2    1    2    0    0 -0.32016000271E+02  0.63189077556E+02 -0.60558404818E+02  0.15591608210E+03  0.12499848187E+03 0.  0.
        -11    1    1    2    0    0  0.25748911994E+02 -0.29114472511E+02  0.12772515015E+03  0.13350795093E+03  0.00000000000E+00 0. -1.
         11    1    1    2    0    0  0.62670882767E+01 -0.34074605044E+02 -0.67166745336E+02  0.75575966970E+02  0.00000000000E+00 0.  1.
        -15    1    3    3    0    0  0.39258448341E+01  0.67699241415E+02  0.17315343269E+02  0.70011273288E+02  0.17770000000E+01 0. -1.
         15    1    3    3    0    0 -0.35941845105E+02 -0.45101638596E+01 -0.77873748087E+02  0.85904808816E+02  0.17770000000E+01 0. -1.
</event>
<event>
 7    1  0.3091307E-006  0.1623454E+03  0.7546771E-02  0.1085735E+00
        -11   -1    0    0    0    0  0.00000000000E+00  0.00000000000E+00  0.18250000000E+03  0.18250000000E+03  0.00000000000E+00 0. -1.
         11   -1    0    0    0    0 -0.00000000000E+00 -0.00000000000E+00 -0.18250000000E+03  0.18250000000E+03  0.00000000000E+00 0. -1.
         25    2    1    2    0    0 -0.97736267384E+01  0.32891079749E+01  0.69679881142E+02  0.14349829373E+03  0.12502052814E+03 0.  0.
        -11    1    1    2    0    0  0.66328038748E+02 -0.61669760862E+01  0.53819472336E+02  0.85638635678E+02  0.00000000000E+00 0. -1.
         11    1    1    2    0    0 -0.56554412010E+02  0.28778681112E+01 -0.12349935348E+03  0.13586307060E+03  0.00000000000E+00 0. -1.
        -15    1    3    3    0    0  0.49949615118E+02 -0.51273425724E+01 -0.13973282499E+01  0.50262948059E+02  0.17770000000E+01 0.  1.
         15    1    3    3    0    0 -0.59723241857E+02  0.84164505474E+01  0.71077209392E+02  0.93235345667E+02  0.17770000000E+01 0.  1.
</event>
<event>
 7    1  0.3091307E-006  0.1664823E+03  0.7546771E-02  0.1081972E+00
        -11   -1    0    0    0    0  0.00000000000E+00  0.00000000000E+00  0.18250000000E+03  0.18250000000E+03  0.00000000000E+00 0.  1.
         11   -1    0    0    0    0 -0.00000000000E+00 -0.00000000000E+00 -0.18250000000E+03  0.18250000000E+03  0.00000000000E+00 0. -1.
         25    2    1    2    0    0  0.36103661908E+02  0.41027552294E+02  0.61752624179E+02  0.14973241805E+03  0.12497870208E+03 0.  0.
        -11    1    1    2    0    0  0.62204532447E+01 -0.35533363411E+02  0.68926417659E+02  0.77795661867E+02  0.00000000000E+00 0.  1.
         11    1    1    2    0    0 -0.42324115153E+02 -0.54941888827E+01 -0.13067904184E+03  0.13747192008E+03  0.00000000000E+00 0. -1.
        -15    1    3    3    0    0  0.78107937137E+01  0.84195818892E+02  0.34538901463E+02  0.91356651978E+02  0.17770000000E+01 0. -1.
         15    1    3    3    0    0  0.28292868195E+02 -0.43168266598E+02  0.27213722716E+02  0.58375766075E+02  0.17770000000E+01 0. -1.
</event>
<event>
 7    1  0.3091307E-006  0.1669287E+03  0.7546771E-02  0.1081573E+00
        -11   -1    0    0    0    0  0.00000000000E+00  0.00000000000E+00  0.18250000000E+03  0.18250000000E+03  0.00000000000E+00 0.  1.
         11   -1    0    0    0    0 -0.00000000000E+00 -0.00000000000E+00 -0.18250000000E+03  0.18250000000E+03  0.00000000000E+00 0. -1.
         25    2    1    2    0    0 -0.44994030241E+02  0.35334231677E+02  0.56811156597E+02  0.14872249986E+03  0.12497161184E+03 0.  0.
        -11    1    1    2    0    0 -0.25631219770E+02 -0.35431441494E+02  0.63302701252E+02  0.76938796839E+02  0.00000000000E+00 0.  1.
         11    1    1    2    0    0  0.70625250011E+02  0.97209816310E-01 -0.12011385785E+03  0.13933870330E+03  0.00000000000E+00 0. -1.
        -15    1    3    3    0    0 -0.54763942931E+02  0.14531957476E+02 -0.26287761382E+02  0.62485769267E+02  0.17770000000E+01 0. -1.
         15    1    3    3    0    0  0.97699126904E+01  0.20802274201E+02  0.83098917979E+02  0.86236730597E+02  0.17770000000E+01 0. -1.
</event>
<event>
 7    1  0.3091307E-006  0.1479616E+03  0.7546771E-02  0.1099846E+00
        -11   -1    0    0    0    0  0.00000000000E+00  0.00000000000E+00  0.18250000000E+03  0.18250000000E+03  0.00000000000E+00 0.  1.
         11   -1    0    0    0    0 -0.00000000000E+00 -0.00000000000E+00 -0.18250000000E+03  0.18250000000E+03  0.00000000000E+00 0. -1.
         25    2    1    2    0    0  0.62926138133E+02  0.95946475999E+00 -0.13924090232E+02  0.14064141827E+03  0.12500203522E+03 0.  0.
        -11    1    1    2    0    0 -0.10269297122E+02 -0.61288832989E+02  0.92978121054E+02  0.11183340515E+03  0.00000000000E+00 0.  1.
         11    1    1    2    0    0 -0.52656841010E+02  0.60329368229E+02 -0.79054030822E+02  0.11252517658E+03  0.00000000000E+00 0. -1.
        -15    1    3    3    0    0  0.43025045669E+02  0.45730088283E+02 -0.49577210651E+02  0.80021578803E+02  0.17770000000E+01 0. -1.
         15    1    3    3    0    0  0.19901092464E+02 -0.44770623523E+02  0.35653120419E+02  0.60619839463E+02  0.17770000000E+01 0. -1.
</event>
<event>
 7    1  0.3091307E-006  0.1514723E+03  0.7546771E-02  0.1096244E+00
        -11   -1    0    0    0    0  0.00000000000E+00  0.00000000000E+00  0.18250000000E+03  0.18250000000E+03  0.00000000000E+00 0. -1.
         11   -1    0    0    0    0 -0.00000000000E+00 -0.00000000000E+00 -0.18250000000E+03  0.18250000000E+03  0.00000000000E+00 0.  1.
         25    2    1    2    0    0  0.44842768380E+02 -0.31278195265E+02  0.65331014631E+02  0.15127469808E+03  0.12500677354E+03 0.  0.
        -11    1    1    2    0    0 -0.88593022670E+02  0.55609851508E+02  0.27589557015E+02  0.10817746025E+03  0.00000000000E+00 0. -1.
         11    1    1    2    0    0  0.43750254290E+02 -0.24331656243E+02 -0.92920571646E+02  0.10554784167E+03  0.00000000000E+00 0.  1.
        -15    1    3    3    0    0 -0.91832185109E+01 -0.45043059023E+02  0.81160400099E+02  0.93291891082E+02  0.17770000000E+01 0. -1.
         15    1    3    3    0    0  0.54025986891E+02  0.13764863758E+02 -0.15829385468E+02  0.57982806996E+02  0.17770000000E+01 0. -1.
</event>
<event>
 7    1  0.3091307E-006  0.1783081E+03  0.7546771E-02  0.1071841E+00
        -11   -1    0    0    0    0  0.00000000000E+00  0.00000000000E+00  0.18250000000E+03  0.18250000000E+03  0.00000000000E+00 0.  1.
         11   -1    0    0    0    0 -0.00000000000E+00 -0.00000000000E+00 -0.18250000000E+03  0.18250000000E+03  0.00000000000E+00 0.  1.
         25    2    1    2    0    0 -0.20796350564E+02  0.59145254767E+02  0.95201188442E+02  0.16917145163E+03  0.12500025764E+03 0.  0.
        -11    1    1    2    0    0  0.15610659376E+02 -0.30175373390E+02  0.42844839969E+02  0.54680217239E+02  0.00000000000E+00 0.  1.
         11    1    1    2    0    0  0.51856911881E+01 -0.28969881377E+02 -0.13804602841E+03  0.14114833113E+03  0.00000000000E+00 0.  1.
        -15    1    3    3    0    0 -0.29617050659E+02  0.96738662681E+02  0.68808529937E+02  0.12236547744E+03  0.17770000000E+01 0. -1.
         15    1    3    3    0    0  0.88207000948E+01 -0.37593407913E+02  0.26392658505E+02  0.46805974198E+02  0.17770000000E+01 0. -1.
</event>
<event>
 7    1  0.3091307E-006  0.1502735E+03  0.7546771E-02  0.1097462E+00
        -11   -1    0    0    0    0  0.00000000000E+00  0.00000000000E+00  0.18250000000E+03  0.18250000000E+03  0.00000000000E+00 0.  1.
         11   -1    0    0    0    0 -0.00000000000E+00 -0.00000000000E+00 -0.18250000000E+03  0.18250000000E+03  0.00000000000E+00 0. -1.
         25    2    1    2    0    0 -0.39467108970E+02  0.94180031049E+01 -0.25487617220E+02  0.13387450189E+03  0.12500564848E+03 0.  0.
        -11    1    1    2    0    0 -0.82822640511E+01 -0.21309679041E+02  0.12128921618E+03  0.12342516875E+03  0.00000000000E+00 0.  1.
         11    1    1    2    0    0  0.47749373021E+02  0.11891675936E+02 -0.95801598962E+02  0.10770032936E+03  0.00000000000E+00 0. -1.
        -15    1    3    3    0    0  0.38805215092E+02  0.28187181138E+01  0.19265843203E+02  0.43452506642E+02  0.17770000000E+01 0.  1.
         15    1    3    3    0    0 -0.78272324062E+02  0.65992849912E+01 -0.44753460423E+02  0.90421995251E+02  0.17770000000E+01 0.  1.
</event>
<event>
 7    1  0.3091307E-006  0.1541564E+03  0.7546771E-02  0.1093562E+00
        -11   -1    0    0    0    0  0.00000000000E+00  0.00000000000E+00  0.18250000000E+03  0.18250000000E+03  0.00000000000E+00 0.  1.
         11   -1    0    0    0    0 -0.00000000000E+00 -0.00000000000E+00 -0.18250000000E+03  0.18250000000E+03  0.00000000000E+00 0. -1.
         25    2    1    2    0    0  0.25693752675E+02 -0.53753615727E+02 -0.52074717781E+02  0.14793858273E+03  0.12499771158E+03 0.  0.
        -11    1    1    2    0    0 -0.61101334791E+01 -0.23314568927E+02  0.11384658472E+03  0.11636987457E+03  0.00000000000E+00 0.  1.
         11    1    1    2    0    0 -0.19583619196E+02  0.77068184654E+02 -0.61771866934E+02  0.10069154270E+03  0.00000000000E+00 0. -1.
        -15    1    3    3    0    0 -0.99699223421E+01 -0.27089761405E+02 -0.86768493368E+02  0.91461378160E+02  0.17770000000E+01 0. -1.
         15    1    3    3    0    0  0.35663675017E+02 -0.26663854322E+02  0.34693775587E+02  0.56477204574E+02  0.17770000000E+01 0. -1.
</event>
<event>
 7    1  0.3091307E-006  0.1461418E+03  0.7546771E-02  0.1101757E+00
        -11   -1    0    0    0    0  0.00000000000E+00  0.00000000000E+00  0.18250000000E+03  0.18250000000E+03  0.00000000000E+00 0. -1.
         11   -1    0    0    0    0 -0.00000000000E+00 -0.00000000000E+00 -0.18250000000E+03  0.18250000000E+03  0.00000000000E+00 0. -1.
         25    2    1    2    0    0 -0.61222897063E+01  0.13539183279E+02 -0.76795501996E+01  0.12611315957E+03  0.12499904644E+03 0.  0.
        -11    1    1    2    0    0  0.95261488570E+02  0.52834926711E+00  0.79084089505E+02  0.12381164554E+03  0.00000000000E+00 0. -1.
         11    1    1    2    0    0 -0.89139198863E+02 -0.14067532546E+02 -0.71404539306E+02  0.11507519489E+03  0.00000000000E+00 0. -1.
        -15    1    3    3    0    0  0.25290014159E+02 -0.31043733741E+02 -0.44803768713E+02  0.60115169805E+02  0.17770000000E+01 0. -1.
         15    1    3    3    0    0 -0.31412303865E+02  0.44582917020E+02  0.37124218514E+02  0.65997989768E+02  0.17770000000E+01 0. -1.
</event>
<event>
 7    1  0.3091307E-006  0.1648624E+03  0.7546771E-02  0.1083431E+00
        -11   -1    0    0    0    0  0.00000000000E+00  0.00000000000E+00  0.18250000000E+03  0.18250000000E+03  0.00000000000E+00 0.  1.
         11   -1    0    0    0    0 -0.00000000000E+00 -0.00000000000E+00 -0.18250000000E+03  0.18250000000E+03  0.00000000000E+00 0. -1.
         25    2    1    2    0    0 -0.48067504041E+01  0.35248090967E+01 -0.71327670545E+02  0.14402497646E+03  0.12498011094E+03 0.  0.
        -11    1    1    2    0    0 -0.30442299601E+02  0.37329890662E+02  0.13156394142E+03  0.14010469308E+03  0.00000000000E+00 0.  1.
         11    1    1    2    0    0  0.35249050005E+02 -0.40854699759E+02 -0.60236270877E+02  0.80870330454E+02  0.00000000000E+00 0. -1.
        -15    1    3    3    0    0 -0.25375229725E+02 -0.54777386499E+02 -0.50611856373E+02  0.78798363497E+02  0.17770000000E+01 0. -1.
         15    1    3    3    0    0  0.20568479321E+02  0.58302195596E+02 -0.20715814172E+02  0.65226612964E+02  0.17770000000E+01 0. -1.
</event>
<event>
 7    1  0.3091307E-006  0.1869736E+03  0.7546771E-02  0.1064949E+00
        -11   -1    0    0    0    0  0.00000000000E+00  0.00000000000E+00  0.18250000000E+03  0.18250000000E+03  0.00000000000E+00 0.  1.
         11   -1    0    0    0    0 -0.00000000000E+00 -0.00000000000E+00 -0.18250000000E+03  0.18250000000E+03  0.00000000000E+00 0. -1.
         25    2    1    2    0    0 -0.43563301397E+02 -0.52311858073E+02 -0.10130502170E+03  0.17471156401E+03  0.12500852552E+03 0.  0.
        -11    1    1    2    0    0  0.51569937460E+02  0.46316231852E+02  0.13682818449E+03  0.15338384482E+03  0.00000000000E+00 0.  1.
         11    1    1    2    0    0 -0.80066360632E+01  0.59956262216E+01 -0.35523162786E+02  0.36904591167E+02  0.00000000000E+00 0. -1.
        -15    1    3    3    0    0 -0.85980748988E+02 -0.18253536323E+02 -0.62500767650E+02  0.10786743934E+03  0.17770000000E+01 0.  1.
         15    1    3    3    0    0  0.42417447591E+02 -0.34058321751E+02 -0.38804254053E+02  0.66844124665E+02  0.17770000000E+01 0.  1.
</event>
<event>
 7    1  0.3091307E-006  0.1696972E+03  0.7546771E-02  0.1079129E+00
        -11   -1    0    0    0    0  0.00000000000E+00  0.00000000000E+00  0.18250000000E+03  0.18250000000E+03  0.00000000000E+00 0.  1.
         11   -1    0    0    0    0 -0.00000000000E+00 -0.00000000000E+00 -0.18250000000E+03  0.18250000000E+03  0.00000000000E+00 0.  1.
         25    2    1    2    0    0  0.21149346784E+02 -0.54281991151E+02  0.48830566334E+02  0.14629838503E+03  0.12499985529E+03 0.  0.
        -11    1    1    2    0    0  0.25492559018E+02 -0.41412782452E+02  0.52617467880E+02  0.71648356868E+02  0.00000000000E+00 0.  1.
         11    1    1    2    0    0 -0.46641905803E+02  0.95694773603E+02 -0.10144803421E+03  0.14705325810E+03  0.00000000000E+00 0.  1.
        -15    1    3    3    0    0  0.43373217721E+01  0.52215871774E+01  0.77713093915E+02  0.78029225471E+02  0.17770000000E+01 0. -1.
         15    1    3    3    0    0  0.16812025012E+02 -0.59503578328E+02 -0.28882527580E+02  0.68269159562E+02  0.17770000000E+01 0. -1.
</event>
<event>
 7    1  0.3091307E-006  0.1663384E+03  0.7546771E-02  0.1082101E+00
        -11   -1    0    0    0    0  0.00000000000E+00  0.00000000000E+00  0.18250000000E+03  0.18250000000E+03  0.00000000000E+00 0.  1.
         11   -1    0    0    0    0 -0.00000000000E+00 -0.00000000000E+00 -0.18250000000E+03  0.18250000000E+03  0.00000000000E+00 0.  1.
         25    2    1    2    0    0  0.51061774942E+01 -0.75135558065E+02 -0.74912028971E+02  0.16403814439E+03  0.12500110238E+03 0.  0.
        -11    1    1    2    0    0  0.22792603534E+02  0.17401482647E+02  0.11947997144E+03  0.12287301554E+03  0.00000000000E+00 0.  1.
         11    1    1    2    0    0 -0.27898781028E+02  0.57734075418E+02 -0.44567942465E+02  0.78088840065E+02  0.00000000000E+00 0.  1.
        -15    1    3    3    0    0  0.63790956059E+02 -0.45932260239E+02 -0.53319493094E+02  0.95000971987E+02  0.17770000000E+01 0. -1.
         15    1    3    3    0    0 -0.58684778565E+02 -0.29203297827E+02 -0.21592535877E+02  0.69037172406E+02  0.17770000000E+01 0. -1.
</event>
<event>
 7    1  0.3091307E-006  0.1536458E+03  0.7546771E-02  0.1094068E+00
        -11   -1    0    0    0    0  0.00000000000E+00  0.00000000000E+00  0.18250000000E+03  0.18250000000E+03  0.00000000000E+00 0. -1.
         11   -1    0    0    0    0 -0.00000000000E+00 -0.00000000000E+00 -0.18250000000E+03  0.18250000000E+03  0.00000000000E+00 0. -1.
         25    2    1    2    0    0 -0.76691557452E+02 -0.48240809132E+00  0.54876026945E+01  0.14675382855E+03  0.12499897883E+03 0.  0.
        -11    1    1    2    0    0  0.23723301687E+02  0.30355177020E+02  0.94031819543E+02  0.10161798513E+03  0.00000000000E+00 0. -1.
         11    1    1    2    0    0  0.52968255765E+02 -0.29872768929E+02 -0.99519422238E+02  0.11662818632E+03  0.00000000000E+00 0. -1.
        -15    1    3    3    0    0 -0.30091746340E+02  0.56645161625E+02 -0.22324319577E+02  0.67939094098E+02  0.17770000000E+01 0.  1.
         15    1    3    3    0    0 -0.46599811112E+02 -0.57127569716E+02  0.27811922271E+02  0.78814734452E+02  0.17770000000E+01 0.  1.
</event>
<event>
 7    1  0.3091307E-006  0.1922787E+03  0.7546771E-02  0.1060927E+00
        -11   -1    0    0    0    0  0.00000000000E+00  0.00000000000E+00  0.18250000000E+03  0.18250000000E+03  0.00000000000E+00 0.  1.
         11   -1    0    0    0    0 -0.00000000000E+00 -0.00000000000E+00 -0.18250000000E+03  0.18250000000E+03  0.00000000000E+00 0. -1.
         25    2    1    2    0    0  0.30723847891E+02 -0.29084301245E+02  0.13054905279E+03  0.18567446638E+03  0.12506838479E+03 0.  0.
        -11    1    1    2    0    0 -0.15875513386E+02  0.26026503707E+01  0.20044595427E+02  0.25701975022E+02  0.00000000000E+00 0.  1.
         11    1    1    2    0    0 -0.14848334505E+02  0.26481650874E+02 -0.15059364822E+03  0.15362355859E+03  0.00000000000E+00 0. -1.
        -15    1    3    3    0    0  0.18296766687E+02 -0.23416940632E+02  0.15488013805E+03  0.15771537551E+03  0.17770000000E+01 0.  1.
         15    1    3    3    0    0  0.12427081204E+02 -0.56673606128E+01 -0.24331085260E+02  0.27959090874E+02  0.17770000000E+01 0. -1.
</event>
<event>
 7    1  0.3091307E-006  0.1738185E+03  0.7546771E-02  0.1075583E+00
        -11   -1    0    0    0    0  0.00000000000E+00  0.00000000000E+00  0.18250000000E+03  0.18250000000E+03  0.00000000000E+00 0. -1.
         11   -1    0    0    0    0 -0.00000000000E+00 -0.00000000000E+00 -0.18250000000E+03  0.18250000000E+03  0.00000000000E+00 0.  1.
         25    2    1    2    0    0  0.79454175301E+01 -0.19754089401E+02 -0.85473509367E+02  0.15291766902E+03  0.12499895595E+03 0.  0.
        -11    1    1    2    0    0 -0.26006738992E+02  0.10670375463E+02  0.14578610243E+03  0.14847152942E+03  0.00000000000E+00 0. -1.
         11    1    1    2    0    0  0.18061321462E+02  0.90837139383E+01 -0.60312593068E+02  0.63610801555E+02  0.00000000000E+00 0.  1.
        -15    1    3    3    0    0  0.37001120191E+02 -0.61189253852E+02 -0.29323110256E+02  0.77305951947E+02  0.17770000000E+01 0. -1.
         15    1    3    3    0    0 -0.29055702661E+02  0.41435164450E+02 -0.56150399111E+02  0.75611717078E+02  0.17770000000E+01 0. -1.
</event>
<event>
 7    1  0.3091307E-006  0.1546892E+03  0.7546771E-02  0.1093037E+00
        -11   -1    0    0    0    0  0.00000000000E+00  0.00000000000E+00  0.18250000000E+03  0.18250000000E+03  0.00000000000E+00 0.  1.
         11   -1    0    0    0    0 -0.00000000000E+00 -0.00000000000E+00 -0.18250000000E+03  0.18250000000E+03  0.00000000000E+00 0. -1.
         25    2    1    2    0    0 -0.71587884406E+00  0.24823111777E+02 -0.27188695605E+02  0.13031286970E+03  0.12500207791E+03 0.  0.
        -11    1    1    2    0    0 -0.16180107239E+02 -0.67633003186E+02  0.11566249355E+03  0.13495862849E+03  0.00000000000E+00 0.  1.
         11    1    1    2    0    0  0.16895986084E+02  0.42809891409E+02 -0.88473797948E+02  0.99728501801E+02  0.00000000000E+00 0. -1.
        -15    1    3    3    0    0  0.19924675161E+02 -0.26377266827E+02  0.34293238031E+02  0.47664838080E+02  0.17770000000E+01 0.  1.
         15    1    3    3    0    0 -0.20640554005E+02  0.51200378603E+02 -0.61481933636E+02  0.82648031624E+02  0.17770000000E+01 0.  1.
</event>
<event>
 7    1  0.3091307E-006  0.1654760E+03  0.7546771E-02  0.1082876E+00
        -11   -1    0    0    0    0  0.00000000000E+00  0.00000000000E+00  0.18250000000E+03  0.18250000000E+03  0.00000000000E+00 0. -1.
         11   -1    0    0    0    0 -0.00000000000E+00 -0.00000000000E+00 -0.18250000000E+03  0.18250000000E+03  0.00000000000E+00 0.  1.
         25    2    1    2    0    0  0.65548340488E+02  0.26610642704E+02  0.46413244261E+02  0.15093895321E+03  0.12499466832E+03 0.  0.
        -11    1    1    2    0    0 -0.62491205053E+01 -0.28702080961E+02  0.74112249398E+02  0.79721304991E+02  0.00000000000E+00 0. -1.
         11    1    1    2    0    0 -0.59299219983E+02  0.20914382568E+01 -0.12052549366E+03  0.13433974180E+03  0.00000000000E+00 0.  1.
        -15    1    3    3    0    0  0.41383857027E+01 -0.41784731847E+02  0.41203023315E+02  0.58855219913E+02  0.17770000000E+01 0. -1.
         15    1    3    3    0    0  0.61409954785E+02  0.68395374551E+02  0.52102209461E+01  0.92083733297E+02  0.17770000000E+01 0. -1.
</event>
<event>
 7    1  0.3091307E-006  0.1540629E+03  0.7546771E-02  0.1093654E+00
        -11   -1    0    0    0    0  0.00000000000E+00  0.00000000000E+00  0.18250000000E+03  0.18250000000E+03  0.00000000000E+00 0. -1.
         11   -1    0    0    0    0 -0.00000000000E+00 -0.00000000000E+00 -0.18250000000E+03  0.18250000000E+03  0.00000000000E+00 0.  1.
         25    2    1    2    0    0  0.25488589096E+02  0.47324398070E+02  0.27134966312E+02  0.13874900414E+03  0.12500285168E+03 0.  0.
        -11    1    1    2    0    0 -0.60052818123E+02  0.63239767366E+01  0.80793601861E+02  0.10086594940E+03  0.00000000000E+00 0. -1.
         11    1    1    2    0    0  0.34564229026E+02 -0.53648374806E+02 -0.10792856817E+03  0.12538504646E+03  0.00000000000E+00 0.  1.
        -15    1    3    3    0    0 -0.23387419790E+02  0.75631537080E+02  0.20899651831E+02  0.81896605431E+02  0.17770000000E+01 0. -1.
         15    1    3    3    0    0  0.48876008886E+02 -0.28307139010E+02  0.62353144814E+01  0.56852398712E+02  0.17770000000E+01 0. -1.
</event>
<event>
 7    1  0.3091307E-006  0.1663860E+03  0.7546771E-02  0.1082058E+00
        -11   -1    0    0    0    0  0.00000000000E+00  0.00000000000E+00  0.18250000000E+03  0.18250000000E+03  0.00000000000E+00 0.  1.
         11   -1    0    0    0    0 -0.00000000000E+00 -0.00000000000E+00 -0.18250000000E+03  0.18250000000E+03  0.00000000000E+00 0. -1.
         25    2    1    2    0    0  0.56008399781E+02  0.67008042512E+02 -0.23366169766E+02  0.15426659869E+03  0.12500074789E+03 0.  0.
        -11    1    1    2    0    0  0.40333899347E+02  0.14126164432E+02  0.65248083927E+02  0.77997976988E+02  0.00000000000E+00 0.  1.
         11    1    1    2    0    0 -0.96342299127E+02 -0.81134206944E+02 -0.41881914161E+02  0.13273542433E+03  0.00000000000E+00 0. -1.
        -15    1    3    3    0    0  0.61178217499E+02  0.70712061772E+02 -0.63855993742E+02  0.11324184581E+03  0.17770000000E+01 0.  1.
         15    1    3    3    0    0 -0.51698177186E+01 -0.37040192600E+01  0.40489823976E+02  0.41024752876E+02  0.17770000000E+01 0.  1.
</event>
<event>
 7    1  0.3091307E-006  0.1660946E+03  0.7546771E-02  0.1082319E+00
        -11   -1    0    0    0    0  0.00000000000E+00  0.00000000000E+00  0.18250000000E+03  0.18250000000E+03  0.00000000000E+00 0.  1.
         11   -1    0    0    0    0 -0.00000000000E+00 -0.00000000000E+00 -0.18250000000E+03  0.18250000000E+03  0.00000000000E+00 0.  1.
         25    2    1    2    0    0  0.84273107002E+02 -0.83874167561E+02  0.53344871677E+02  0.18057481750E+03  0.12499902733E+03 0.  0.
        -11    1    1    2    0    0 -0.59759492785E+02  0.84767022967E+02  0.21277616517E+02  0.10587436954E+03  0.00000000000E+00 0.  1.
         11    1    1    2    0    0 -0.24513614217E+02 -0.89285540628E+00 -0.74622488195E+02  0.78550812963E+02  0.00000000000E+00 0.  1.
        -15    1    3    3    0    0  0.11733471425E+03 -0.67205026512E+02  0.45552320993E+02  0.14269590896E+03  0.17770000000E+01 0. -1.
         15    1    3    3    0    0 -0.33061607247E+02 -0.16669141049E+02  0.77925506846E+01  0.37878908541E+02  0.17770000000E+01 0. -1.
</event>
<event>
 7    1  0.3091307E-006  0.1478128E+03  0.7546771E-02  0.1100001E+00
        -11   -1    0    0    0    0  0.00000000000E+00  0.00000000000E+00  0.18250000000E+03  0.18250000000E+03  0.00000000000E+00 0.  1.
         11   -1    0    0    0    0 -0.00000000000E+00 -0.00000000000E+00 -0.18250000000E+03  0.18250000000E+03  0.00000000000E+00 0. -1.
         25    2    1    2    0    0  0.41664179812E+02 -0.12010956266E+02  0.11635398968E+02  0.13281771239E+03  0.12499998106E+03 0.  0.
        -11    1    1    2    0    0 -0.21654007716E+02  0.33168093902E+02  0.10486534123E+03  0.11209709316E+03  0.00000000000E+00 0.  1.
         11    1    1    2    0    0 -0.20010172096E+02 -0.21157137636E+02 -0.11650074020E+03  0.12008519445E+03  0.00000000000E+00 0. -1.
        -15    1    3    3    0    0  0.48036317191E+02 -0.50730697074E+02 -0.29573099913E+02  0.75886872135E+02  0.17770000000E+01 0.  1.
         15    1    3    3    0    0 -0.63721373793E+01  0.38719740808E+02  0.41208498881E+02  0.56930840255E+02  0.17770000000E+01 0.  1.
</event>
<event>
 7    1  0.3091307E-006  0.1513694E+03  0.7546771E-02  0.1096348E+00
        -11   -1    0    0    0    0  0.00000000000E+00  0.00000000000E+00  0.18250000000E+03  0.18250000000E+03  0.00000000000E+00 0. -1.
         11   -1    0    0    0    0 -0.00000000000E+00 -0.00000000000E+00 -0.18250000000E+03  0.18250000000E+03  0.00000000000E+00 0.  1.
         25    2    1    2    0    0 -0.47731423800E+02  0.32201690072E+02  0.60357964755E+01  0.13775993587E+03  0.12500452564E+03 0.  0.
        -11    1    1    2    0    0  0.15395758106E+02  0.68868066236E+01  0.10437698750E+03  0.10573085166E+03  0.00000000000E+00 0. -1.
         11    1    1    2    0    0  0.32335665693E+02 -0.39088496695E+02 -0.11041278398E+03  0.12150921247E+03  0.00000000000E+00 0.  1.
        -15    1    3    3    0    0 -0.59109022803E+02  0.57955664626E+02  0.41357803077E+02  0.92554639232E+02  0.17770000000E+01 0.  1.
         15    1    3    3    0    0  0.11377599003E+02 -0.25753974554E+02 -0.35322006602E+02  0.45205296634E+02  0.17770000000E+01 0.  1.
</event>
<event>
 7    1  0.3091307E-006  0.1575468E+03  0.7546771E-02  0.1090258E+00
        -11   -1    0    0    0    0  0.00000000000E+00  0.00000000000E+00  0.18250000000E+03  0.18250000000E+03  0.00000000000E+00 0.  1.
         11   -1    0    0    0    0 -0.00000000000E+00 -0.00000000000E+00 -0.18250000000E+03  0.18250000000E+03  0.00000000000E+00 0.  1.
         25    2    1    2    0    0  0.31310466354E+02 -0.85029312797E+02  0.48061821695E+02  0.16169429107E+03  0.12499910288E+03 0.  0.
        -11    1    1    2    0    0 -0.28642261536E+02  0.67765809386E+02  0.59323703675E+02  0.94508655082E+02  0.00000000000E+00 0.  1.
         11    1    1    2    0    0 -0.26682048175E+01  0.17263503411E+02 -0.10738552537E+03  0.10879705385E+03  0.00000000000E+00 0.  1.
        -15    1    3    3    0    0 -0.22010429274E+02 -0.18973089923E+02 -0.33205441866E+02  0.44161026218E+02  0.17770000000E+01 0.  1.
         15    1    3    3    0    0  0.53320895628E+02 -0.66056222874E+02  0.81267263562E+02  0.11753326485E+03  0.17770000000E+01 0.  1.
</event>
<event>
 7    1  0.3091307E-006  0.1942754E+03  0.7546771E-02  0.1059450E+00
        -11   -1    0    0    0    0  0.00000000000E+00  0.00000000000E+00  0.18250000000E+03  0.18250000000E+03  0.00000000000E+00 0. -1.
         11   -1    0    0    0    0 -0.00000000000E+00 -0.00000000000E+00 -0.18250000000E+03  0.18250000000E+03  0.00000000000E+00 0.  1.
         25    2    1    2    0    0  0.34566796571E+02 -0.33199249449E+02 -0.13732359629E+03  0.19181509671E+03  0.12505281939E+03 0.  0.
        -11    1    1    2    0    0 -0.55439216748E+02  0.28679312620E+02  0.13837653525E+03  0.15180275107E+03  0.00000000000E+00 0. -1.
         11    1    1    2    0    0  0.20872420177E+02  0.45199368285E+01 -0.10529389567E+01  0.21382152217E+02  0.00000000000E+00 0.  1.
        -15    1    3    3    0    0  0.33434402808E+02 -0.67101616022E+02 -0.32690635321E+02  0.81806610555E+02  0.17770000000E+01 0. -1.
         15    1    3    3    0    0  0.11323937628E+01  0.33902366573E+02 -0.10463296097E+03  0.11000848615E+03  0.17770000000E+01 0. -1.
</event>
<event>
 7    1  0.3091307E-006  0.1623580E+03  0.7546771E-02  0.1085724E+00
        -11   -1    0    0    0    0  0.00000000000E+00  0.00000000000E+00  0.18250000000E+03  0.18250000000E+03  0.00000000000E+00 0. -1.
         11   -1    0    0    0    0 -0.00000000000E+00 -0.00000000000E+00 -0.18250000000E+03  0.18250000000E+03  0.00000000000E+00 0.  1.
         25    2    1    2    0    0 -0.75687141879E+02  0.93944987110E+02 -0.59118580833E+02  0.18352248235E+03  0.12502516098E+03 0.  0.
        -11    1    1    2    0    0  0.19146709707E+02 -0.19719699903E+02  0.81087375044E+02  0.85619071756E+02  0.00000000000E+00 0. -1.
         11    1    1    2    0    0  0.56540432172E+02 -0.74225287206E+02 -0.21968794210E+02  0.95858445899E+02  0.00000000000E+00 0.  1.
        -15    1    3    3    0    0 -0.10388040040E+03  0.97395721672E+02 -0.36083131331E+02  0.14690886387E+03  0.17770000000E+01 0. -1.
         15    1    3    3    0    0  0.28193258523E+02 -0.34507345620E+01 -0.23035449503E+02  0.36613618477E+02  0.17770000000E+01 0. -1.
</event>
<event>
 7    1  0.3091307E-006  0.1576876E+03  0.7546771E-02  0.1090123E+00
        -11   -1    0    0    0    0  0.00000000000E+00  0.00000000000E+00  0.18250000000E+03  0.18250000000E+03  0.00000000000E+00 0. -1.
         11   -1    0    0    0    0 -0.00000000000E+00 -0.00000000000E+00 -0.18250000000E+03  0.18250000000E+03  0.00000000000E+00 0.  1.
         25    2    1    2    0    0  0.88767503749E+02 -0.12557894779E+02 -0.34625457246E+02  0.15767501116E+03  0.12500046564E+03 0.  0.
        -11    1    1    2    0    0 -0.34132912247E+02 -0.13158705035E+02  0.10699275984E+03  0.11307368339E+03  0.00000000000E+00 0. -1.
         11    1    1    2    0    0 -0.54634591502E+02  0.25716599814E+02 -0.72367302595E+02  0.94251305453E+02  0.00000000000E+00 0.  1.
        -15    1    3    3    0    0  0.10675406947E+02  0.38508625663E+01  0.44096581403E+02  0.45568187109E+02  0.17770000000E+01 0.  1.
         15    1    3    3    0    0  0.78092096802E+02 -0.16408757345E+02 -0.78722038648E+02  0.11210682405E+03  0.17770000000E+01 0.  1.
</event>
<event>
 7    1  0.3091307E-006  0.1900189E+03  0.7546771E-02  0.1062622E+00
        -11   -1    0    0    0    0  0.00000000000E+00  0.00000000000E+00  0.18250000000E+03  0.18250000000E+03  0.00000000000E+00 0.  1.
         11   -1    0    0    0    0 -0.00000000000E+00 -0.00000000000E+00 -0.18250000000E+03  0.18250000000E+03  0.00000000000E+00 0. -1.
         25    2    1    2    0    0  0.11104335787E+03  0.40218959356E+02 -0.79192345551E+02  0.18932262177E+03  0.12499374185E+03 0.  0.
        -11    1    1    2    0    0 -0.99783747519E+02 -0.24354175608E+02  0.10264243700E+03  0.14520809899E+03  0.00000000000E+00 0.  1.
         11    1    1    2    0    0 -0.11259610355E+02 -0.15864783748E+02 -0.23450091446E+02  0.30469279242E+02  0.00000000000E+00 0. -1.
        -15    1    3    3    0    0  0.10466355306E+03  0.78381945484E+02 -0.73958733221E+02  0.15023728121E+03  0.17770000000E+01 0. -1.
         15    1    3    3    0    0  0.63798048109E+01 -0.38162986127E+02 -0.52336123301E+01  0.39085340559E+02  0.17770000000E+01 0. -1.
</event>
<event>
 7    1  0.3091307E-006  0.1814569E+03  0.7546771E-02  0.1069288E+00
        -11   -1    0    0    0    0  0.00000000000E+00  0.00000000000E+00  0.18250000000E+03  0.18250000000E+03  0.00000000000E+00 0.  1.
         11   -1    0    0    0    0 -0.00000000000E+00 -0.00000000000E+00 -0.18250000000E+03  0.18250000000E+03  0.00000000000E+00 0.  1.
         25    2    1    2    0    0 -0.45561988225E+02 -0.27137750760E+02  0.10276958507E+03  0.17029020099E+03  0.12499925059E+03 0.  0.
        -11    1    1    2    0    0  0.20932543955E+02  0.14605985627E+02  0.41006797542E+02  0.48301797660E+02  0.00000000000E+00 0.  1.
         11    1    1    2    0    0  0.24629444270E+02  0.12531765133E+02 -0.14377638261E+03  0.14640800135E+03  0.00000000000E+00 0.  1.
        -15    1    3    3    0    0  0.33171526957E+02 -0.40961039661E+02  0.59006721206E+02  0.79139799388E+02  0.17770000000E+01 0.  1.
         15    1    3    3    0    0 -0.78733515182E+02  0.13823288901E+02  0.43762863865E+02  0.91150401599E+02  0.17770000000E+01 0.  1.
</event>
<event>
 7    1  0.3091307E-006  0.1845499E+03  0.7546771E-02  0.1066835E+00
        -11   -1    0    0    0    0  0.00000000000E+00  0.00000000000E+00  0.18250000000E+03  0.18250000000E+03  0.00000000000E+00 0.  1.
         11   -1    0    0    0    0 -0.00000000000E+00 -0.00000000000E+00 -0.18250000000E+03  0.18250000000E+03  0.00000000000E+00 0.  1.
         25    2    1    2    0    0 -0.67930555144E+02 -0.46330157082E+02  0.11324221523E+03  0.18764059207E+03  0.12499659477E+03 0.  0.
        -11    1    1    2    0    0  0.36964933171E+02  0.13562558233E+02  0.14449774518E+02  0.41942165583E+02  0.00000000000E+00 0.  1.
         11    1    1    2    0    0  0.30965621973E+02  0.32767598849E+02 -0.12769198975E+03  0.13541724235E+03  0.00000000000E+00 0.  1.
        -15    1    3    3    0    0 -0.22681303377E+02  0.36247969021E+02  0.33708378942E+01  0.42928743961E+02  0.17770000000E+01 0.  1.
         15    1    3    3    0    0 -0.45249251768E+02 -0.82578126102E+02  0.10987137734E+03  0.14471184811E+03  0.17770000000E+01 0.  1.
</event>
<event>
 7    1  0.3091307E-006  0.1782218E+03  0.7546771E-02  0.1071912E+00
        -11   -1    0    0    0    0  0.00000000000E+00  0.00000000000E+00  0.18250000000E+03  0.18250000000E+03  0.00000000000E+00 0. -1.
         11   -1    0    0    0    0 -0.00000000000E+00 -0.00000000000E+00 -0.18250000000E+03  0.18250000000E+03  0.00000000000E+00 0.  1.
         25    2    1    2    0    0  0.60397005972E+02 -0.31942667150E+02 -0.80986378470E+02  0.16386632094E+03  0.12500098130E+03 0.  0.
        -11    1    1    2    0    0 -0.66678661657E+02  0.80260591663E+01  0.12995085428E+03  0.14627947934E+03  0.00000000000E+00 0. -1.
         11    1    1    2    0    0  0.62816556845E+01  0.23916607983E+02 -0.48964475815E+02  0.54854199724E+02  0.00000000000E+00 0.  1.
        -15    1    3    3    0    0  0.40597765962E+02  0.32804640685E+02 -0.80712852920E+02  0.96135557454E+02  0.17770000000E+01 0. -1.
         15    1    3    3    0    0  0.19799240010E+02 -0.64747307835E+02 -0.27352554985E+00  0.67730763484E+02  0.17770000000E+01 0. -1.
</event>
<event>
 7    1  0.3091307E-006  0.1729838E+03  0.7546771E-02  0.1076293E+00
        -11   -1    0    0    0    0  0.00000000000E+00  0.00000000000E+00  0.18250000000E+03  0.18250000000E+03  0.00000000000E+00 0.  1.
         11   -1    0    0    0    0 -0.00000000000E+00 -0.00000000000E+00 -0.18250000000E+03  0.18250000000E+03  0.00000000000E+00 0. -1.
         25    2    1    2    0    0 -0.79672533102E+02 -0.66020744999E+02 -0.50774190023E+02  0.17008419055E+03  0.12507662532E+03 0.  0.
        -11    1    1    2    0    0  0.86772187649E+02  0.18070018551E+02  0.94552285496E+02  0.12959966363E+03  0.00000000000E+00 0.  1.
         11    1    1    2    0    0 -0.70996545463E+01  0.47950726448E+02 -0.43778095473E+02  0.65316145820E+02  0.00000000000E+00 0. -1.
        -15    1    3    3    0    0 -0.92028710693E+02 -0.30280277282E+02  0.11115324101E+02  0.97534029666E+02  0.17770000000E+01 0.  1.
         15    1    3    3    0    0  0.12356177590E+02 -0.35740467717E+02 -0.61889514124E+02  0.72550160887E+02  0.17770000000E+01 0. -1.
</event>
<event>
 7    1  0.3091307E-006  0.1574240E+03  0.7546771E-02  0.1090376E+00
        -11   -1    0    0    0    0  0.00000000000E+00  0.00000000000E+00  0.18250000000E+03  0.18250000000E+03  0.00000000000E+00 0. -1.
         11   -1    0    0    0    0 -0.00000000000E+00 -0.00000000000E+00 -0.18250000000E+03  0.18250000000E+03  0.00000000000E+00 0. -1.
         25    2    1    2    0    0  0.56454161071E+02 -0.22731623118E+02  0.74741866987E+02  0.15785301281E+03  0.12500971155E+03 0.  0.
        -11    1    1    2    0    0 -0.10868499147E+03  0.28377808035E+02  0.41021706934E+01  0.11240353715E+03  0.00000000000E+00 0. -1.
         11    1    1    2    0    0  0.52230830396E+02 -0.56461849168E+01 -0.78844037680E+02  0.94743450041E+02  0.00000000000E+00 0. -1.
        -15    1    3    3    0    0  0.15435079512E+02 -0.34592635520E+02  0.10086965997E+03  0.10776241527E+03  0.17770000000E+01 0.  1.
         15    1    3    3    0    0  0.41019081559E+02  0.11861012402E+02 -0.26127792986E+02  0.50090597546E+02  0.17770000000E+01 0.  1.
</event>
<event>
 7    1  0.3091307E-006  0.1612598E+03  0.7546771E-02  0.1086744E+00
        -11   -1    0    0    0    0  0.00000000000E+00  0.00000000000E+00  0.18250000000E+03  0.18250000000E+03  0.00000000000E+00 0.  1.
         11   -1    0    0    0    0 -0.00000000000E+00 -0.00000000000E+00 -0.18250000000E+03  0.18250000000E+03  0.00000000000E+00 0.  1.
         25    2    1    2    0    0 -0.81130106288E+02  0.72110001442E+02  0.70907901231E+02  0.18010002650E+03  0.12500457045E+03 0.  0.
        -11    1    1    2    0    0  0.33749235379E+02 -0.79727994455E+02  0.13676288864E+02  0.87650469854E+02  0.00000000000E+00 0.  1.
         11    1    1    2    0    0  0.47380870909E+02  0.76179930131E+01 -0.84584190095E+02  0.97249503647E+02  0.00000000000E+00 0.  1.
        -15    1    3    3    0    0 -0.43992563898E+02 -0.28988812607E+02  0.30788445085E+01  0.52804677323E+02  0.17770000000E+01 0. -1.
         15    1    3    3    0    0 -0.37137542390E+02  0.10109881405E+03  0.67829056723E+02  0.12729534918E+03  0.17770000000E+01 0. -1.
</event>
<event>
 7    1  0.3091307E-006  0.1639370E+03  0.7546771E-02  0.1084273E+00
        -11   -1    0    0    0    0  0.00000000000E+00  0.00000000000E+00  0.18250000000E+03  0.18250000000E+03  0.00000000000E+00 0.  1.
         11   -1    0    0    0    0 -0.00000000000E+00 -0.00000000000E+00 -0.18250000000E+03  0.18250000000E+03  0.00000000000E+00 0. -1.
         25    2    1    2    0    0 -0.39098632526E+02  0.13175329891E+03  0.44574467526E+02  0.19105116151E+03  0.12500411322E+03 0.  0.
        -11    1    1    2    0    0 -0.22582161307E+02 -0.87705087834E+02 -0.11648178052E+02  0.91311644893E+02  0.00000000000E+00 0.  1.
         11    1    1    2    0    0  0.61680793833E+02 -0.44048211075E+02 -0.32926289474E+02  0.82637193595E+02  0.00000000000E+00 0. -1.
        -15    1    3    3    0    0 -0.10433393562E+02  0.23440831480E+02  0.71347493565E+02  0.75841616865E+02  0.17770000000E+01 0. -1.
         15    1    3    3    0    0 -0.28665238964E+02  0.10831246743E+03 -0.26773026039E+02  0.11520954465E+03  0.17770000000E+01 0. -1.
</event>
<event>
 7    1  0.3091307E-006  0.1775352E+03  0.7546771E-02  0.1072477E+00
        -11   -1    0    0    0    0  0.00000000000E+00  0.00000000000E+00  0.18250000000E+03  0.18250000000E+03  0.00000000000E+00 0.  1.
         11   -1    0    0    0    0 -0.00000000000E+00 -0.00000000000E+00 -0.18250000000E+03  0.18250000000E+03  0.00000000000E+00 0.  1.
         25    2    1    2    0    0  0.41495676621E+02 -0.28641490419E+02 -0.10132850195E+03  0.16862581146E+03  0.12499989132E+03 0.  0.
        -11    1    1    2    0    0 -0.97323681816E+02  0.32126220265E+02  0.95583141217E+02  0.14014324798E+03  0.00000000000E+00 0.  1.
         11    1    1    2    0    0  0.55828005195E+02 -0.34847298458E+01  0.57453607301E+01  0.56230940558E+02  0.00000000000E+00 0.  1.
        -15    1    3    3    0    0 -0.78591483716E+01  0.44218011862E+02 -0.21609539967E+02  0.49871121230E+02  0.17770000000E+01 0. -1.
         15    1    3    3    0    0  0.49354824993E+02 -0.72859502281E+02 -0.79718961980E+02  0.11875469023E+03  0.17770000000E+01 0. -1.
</event>
<event>
 7    1  0.3091307E-006  0.1515756E+03  0.7546771E-02  0.1096140E+00
        -11   -1    0    0    0    0  0.00000000000E+00  0.00000000000E+00  0.18250000000E+03  0.18250000000E+03  0.00000000000E+00 0.  1.
         11   -1    0    0    0    0 -0.00000000000E+00 -0.00000000000E+00 -0.18250000000E+03  0.18250000000E+03  0.00000000000E+00 0. -1.
         25    2    1    2    0    0 -0.47197943612E+02  0.14531131489E+02  0.20835865160E+02  0.13601380878E+03  0.12500729274E+03 0.  0.
        -11    1    1    2    0    0  0.34442334114E+02  0.15969844494E+02  0.98285057837E+02  0.10536253085E+03  0.00000000000E+00 0.  1.
         11    1    1    2    0    0  0.12755609498E+02 -0.30500975982E+02 -0.11912092300E+03  0.12362366038E+03  0.00000000000E+00 0. -1.
        -15    1    3    3    0    0 -0.23035438869E+02  0.64636856964E+02  0.37105097148E+02  0.78028845214E+02  0.17770000000E+01 0.  1.
         15    1    3    3    0    0 -0.24162504743E+02 -0.50105725475E+02 -0.16269231988E+02  0.57984963563E+02  0.17770000000E+01 0.  1.
</event>
<event>
 7    1  0.3091307E-006  0.1788473E+03  0.7546771E-02  0.1071400E+00
        -11   -1    0    0    0    0  0.00000000000E+00  0.00000000000E+00  0.18250000000E+03  0.18250000000E+03  0.00000000000E+00 0.  1.
         11   -1    0    0    0    0 -0.00000000000E+00 -0.00000000000E+00 -0.18250000000E+03  0.18250000000E+03  0.00000000000E+00 0. -1.
         25    2    1    2    0    0  0.78142519678E+01  0.87640294410E+02  0.11276655504E+03  0.18995824680E+03  0.12500382336E+03 0.  0.
        -11    1    1    2    0    0 -0.99301165189E+01 -0.52554725144E+02  0.34796574507E+01  0.53597708580E+02  0.00000000000E+00 0.  1.
         11    1    1    2    0    0  0.21158645511E+01 -0.35085569266E+02 -0.11624621249E+03  0.12144404462E+03  0.00000000000E+00 0. -1.
        -15    1    3    3    0    0  0.41115181332E+02 -0.14171637935E+02  0.18641433819E+02  0.47349279208E+02  0.17770000000E+01 0.  1.
         15    1    3    3    0    0 -0.33300929364E+02  0.10181193234E+03  0.94125121225E+02  0.14260896760E+03  0.17770000000E+01 0.  1.
</event>
<event>
 7    1  0.3091307E-006  0.1653448E+03  0.7546771E-02  0.1082995E+00
        -11   -1    0    0    0    0  0.00000000000E+00  0.00000000000E+00  0.18250000000E+03  0.18250000000E+03  0.00000000000E+00 0.  1.
         11   -1    0    0    0    0 -0.00000000000E+00 -0.00000000000E+00 -0.18250000000E+03  0.18250000000E+03  0.00000000000E+00 0. -1.
         25    2    1    2    0    0  0.30169362801E+02  0.66624017665E+02 -0.49873468215E+02  0.15316771513E+03  0.12499614371E+03 0.  0.
        -11    1    1    2    0    0 -0.31354525225E+02 -0.34842396138E+02  0.12324868327E+03  0.13186105091E+03  0.00000000000E+00 0.  1.
         11    1    1    2    0    0  0.11851624235E+01 -0.31781621527E+02 -0.73375215054E+02  0.79971233960E+02  0.00000000000E+00 0. -1.
        -15    1    3    3    0    0 -0.31579089514E+02  0.56952496442E+02  0.10808473619E+02  0.66036403418E+02  0.17770000000E+01 0. -1.
         15    1    3    3    0    0  0.61748452315E+02  0.96715212229E+01 -0.60681941834E+02  0.87131311707E+02  0.17770000000E+01 0. -1.
</event>
<event>
 7    1  0.3091307E-006  0.1832085E+03  0.7546771E-02  0.1067892E+00
        -11   -1    0    0    0    0  0.00000000000E+00  0.00000000000E+00  0.18250000000E+03  0.18250000000E+03  0.00000000000E+00 0.  1.
         11   -1    0    0    0    0 -0.00000000000E+00 -0.00000000000E+00 -0.18250000000E+03  0.18250000000E+03  0.00000000000E+00 0. -1.
         25    2    1    2    0    0  0.89272993842E+02  0.56956615811E+02 -0.52530645981E+02  0.17203566980E+03  0.12499231737E+03 0.  0.
        -11    1    1    2    0    0 -0.97963819365E+02 -0.55649832217E+02  0.96365618367E+02  0.14825702727E+03  0.00000000000E+00 0.  1.
         11    1    1    2    0    0  0.86908255234E+01 -0.13067835940E+01 -0.43834972387E+02  0.44707302936E+02  0.00000000000E+00 0. -1.
        -15    1    3    3    0    0 -0.61054209397E+01  0.63904290968E+02 -0.39778941992E+02  0.75541753514E+02  0.17770000000E+01 0. -1.
         15    1    3    3    0    0  0.95378414781E+02 -0.69476751571E+01 -0.12751703988E+02  0.96493916285E+02  0.17770000000E+01 0. -1.
</event>
<event>
 7    1  0.3091307E-006  0.1731454E+03  0.7546771E-02  0.1076155E+00
        -11   -1    0    0    0    0  0.00000000000E+00  0.00000000000E+00  0.18250000000E+03  0.18250000000E+03  0.00000000000E+00 0.  1.
         11   -1    0    0    0    0 -0.00000000000E+00 -0.00000000000E+00 -0.18250000000E+03  0.18250000000E+03  0.00000000000E+00 0.  1.
         25    2    1    2    0    0 -0.48250715685E+01 -0.72979422993E+02 -0.66682560297E+02  0.15941077748E+03  0.12496381329E+03 0.  0.
        -11    1    1    2    0    0 -0.28822440914E+02  0.64686351251E+02  0.12156121302E+03  0.14068470296E+03  0.00000000000E+00 0.  1.
         11    1    1    2    0    0  0.33647512483E+02  0.82930717422E+01 -0.54878652718E+02  0.64904519560E+02  0.00000000000E+00 0.  1.
        -15    1    3    3    0    0 -0.32915147145E+02  0.22424561826E+02 -0.38016756076E+00  0.39869413602E+02  0.17770000000E+01 0. -1.
         15    1    3    3    0    0  0.28090075576E+02 -0.95403984819E+02 -0.66302392737E+02  0.11954136387E+03  0.17770000000E+01 0. -1.
</event>
<event>
 7    1  0.3091307E-006  0.1596787E+03  0.7546771E-02  0.1088227E+00
        -11   -1    0    0    0    0  0.00000000000E+00  0.00000000000E+00  0.18250000000E+03  0.18250000000E+03  0.00000000000E+00 0.  1.
         11   -1    0    0    0    0 -0.00000000000E+00 -0.00000000000E+00 -0.18250000000E+03  0.18250000000E+03  0.00000000000E+00 0. -1.
         25    2    1    2    0    0 -0.17024745996E+02  0.77312127130E+02  0.34035894018E+02  0.15182131603E+03  0.12499705174E+03 0.  0.
        -11    1    1    2    0    0 -0.16470618323E+02 -0.42064887981E+02  0.78509533143E+02  0.90578600470E+02  0.00000000000E+00 0.  1.
         11    1    1    2    0    0  0.33495364319E+02 -0.35247239149E+02 -0.11254542716E+03  0.12260008350E+03  0.00000000000E+00 0. -1.
        -15    1    3    3    0    0  0.82554661699E+01  0.75780152706E+02  0.72839917007E+02  0.10544949267E+03  0.17770000000E+01 0. -1.
         15    1    3    3    0    0 -0.25280212166E+02  0.15319744238E+01 -0.38804022990E+02  0.46371823363E+02  0.17770000000E+01 0. -1.
</event>
<event>
 7    1  0.3091307E-006  0.1806989E+03  0.7546771E-02  0.1069898E+00
        -11   -1    0    0    0    0  0.00000000000E+00  0.00000000000E+00  0.18250000000E+03  0.18250000000E+03  0.00000000000E+00 0. -1.
         11   -1    0    0    0    0 -0.00000000000E+00 -0.00000000000E+00 -0.18250000000E+03  0.18250000000E+03  0.00000000000E+00 0.  1.
         25    2    1    2    0    0 -0.85838767005E+02 -0.30262564833E+02  0.94426355883E+02  0.18118517885E+03  0.12501046196E+03 0.  0.
        -11    1    1    2    0    0  0.35488267381E+02 -0.32681383497E+02  0.12569894868E+02  0.49854710971E+02  0.00000000000E+00 0. -1.
         11    1    1    2    0    0  0.50350499624E+02  0.62943948330E+02 -0.10699625075E+03  0.13396011018E+03  0.00000000000E+00 0.  1.
        -15    1    3    3    0    0 -0.80313223800E+01  0.45181187709E+02  0.22868008074E+02  0.51302489064E+02  0.17770000000E+01 0.  1.
         15    1    3    3    0    0 -0.77807444625E+02 -0.75443752542E+02  0.71558347809E+02  0.12988268979E+03  0.17770000000E+01 0.  1.
</event>
<event>
 7    1  0.3091307E-006  0.1471118E+03  0.7546771E-02  0.1100735E+00
        -11   -1    0    0    0    0  0.00000000000E+00  0.00000000000E+00  0.18250000000E+03  0.18250000000E+03  0.00000000000E+00 0.  1.
         11   -1    0    0    0    0 -0.00000000000E+00 -0.00000000000E+00 -0.18250000000E+03  0.18250000000E+03  0.00000000000E+00 0.  1.
         25    2    1    2    0    0  0.40371883909E+02  0.46720415533E+01 -0.78840651696E+01  0.13167521236E+03  0.12499794432E+03 0.  0.
        -11    1    1    2    0    0 -0.13332048869E+02 -0.59166910347E+02  0.10352074875E+03  0.11997921582E+03  0.00000000000E+00 0.  1.
         11    1    1    2    0    0 -0.27039835039E+02  0.54494868794E+02 -0.95636683581E+02  0.11334557182E+03  0.00000000000E+00 0.  1.
        -15    1    3    3    0    0  0.68323792658E+01 -0.41704293929E+02 -0.46307496815E+02  0.62717394149E+02  0.17770000000E+01 0. -1.
         15    1    3    3    0    0  0.33539504643E+02  0.46376335482E+02  0.38423431645E+02  0.68957818214E+02  0.17770000000E+01 0. -1.
</event>
<event>
 7    1  0.3091307E-006  0.1908349E+03  0.7546771E-02  0.1062007E+00
        -11   -1    0    0    0    0  0.00000000000E+00  0.00000000000E+00  0.18250000000E+03  0.18250000000E+03  0.00000000000E+00 0. -1.
         11   -1    0    0    0    0 -0.00000000000E+00 -0.00000000000E+00 -0.18250000000E+03  0.18250000000E+03  0.00000000000E+00 0.  1.
         25    2    1    2    0    0 -0.49849102248E+02 -0.31046013774E+02  0.13371349173E+03  0.19223406321E+03  0.12500339684E+03 0.  0.
        -11    1    1    2    0    0 -0.24114880171E+02 -0.38396555298E+01 -0.15156287867E+02  0.28739928013E+02  0.00000000000E+00 0. -1.
         11    1    1    2    0    0  0.73963982420E+02  0.34885669304E+02 -0.11855720386E+03  0.14402600878E+03  0.00000000000E+00 0.  1.
        -15    1    3    3    0    0 -0.56641541083E+02 -0.60501947032E+02  0.36796611813E+02  0.90696737212E+02  0.17770000000E+01 0. -1.
         15    1    3    3    0    0  0.67924388346E+01  0.29455933258E+02  0.96916879912E+02  0.10153732600E+03  0.17770000000E+01 0. -1.
</event>
<event>
 7    1  0.3091307E-006  0.1726976E+03  0.7546771E-02  0.1076537E+00
        -11   -1    0    0    0    0  0.00000000000E+00  0.00000000000E+00  0.18250000000E+03  0.18250000000E+03  0.00000000000E+00 0.  1.
         11   -1    0    0    0    0 -0.00000000000E+00 -0.00000000000E+00 -0.18250000000E+03  0.18250000000E+03  0.00000000000E+00 0. -1.
         25    2    1    2    0    0  0.49203077139E+02  0.14529438088E+02  0.73305237315E+02  0.15372166875E+03  0.12499858501E+03 0.  0.
        -11    1    1    2    0    0 -0.52367336821E+01 -0.74553622068E+01  0.65177747154E+02  0.65811431601E+02  0.00000000000E+00 0.  1.
         11    1    1    2    0    0 -0.43966343457E+02 -0.70740758814E+01 -0.13848298447E+03  0.14546689965E+03  0.00000000000E+00 0. -1.
        -15    1    3    3    0    0  0.56810083774E+02  0.62692375526E+02  0.57978666168E+02  0.10257876499E+03  0.17770000000E+01 0.  1.
         15    1    3    3    0    0 -0.76070066348E+01 -0.48162937437E+02  0.15326571147E+02  0.51142903757E+02  0.17770000000E+01 0.  1.
</event>
<event>
 7    1  0.3091307E-006  0.1852540E+03  0.7546771E-02  0.1066284E+00
        -11   -1    0    0    0    0  0.00000000000E+00  0.00000000000E+00  0.18250000000E+03  0.18250000000E+03  0.00000000000E+00 0.  1.
         11   -1    0    0    0    0 -0.00000000000E+00 -0.00000000000E+00 -0.18250000000E+03  0.18250000000E+03  0.00000000000E+00 0. -1.
         25    2    1    2    0    0  0.31213027036E+02  0.19573116589E+02  0.13555593590E+03  0.18803573685E+03  0.12499866650E+03 0.  0.
        -11    1    1    2    0    0  0.14175242590E+02  0.33272043553E+02 -0.18192050742E+02  0.40483541036E+02  0.00000000000E+00 0.  1.
         11    1    1    2    0    0 -0.45388269625E+02 -0.52845160142E+02 -0.11736388516E+03  0.13648072211E+03  0.00000000000E+00 0. -1.
        -15    1    3    3    0    0 -0.12324467653E+02  0.54995456916E+02  0.20483921004E+02  0.59992845681E+02  0.17770000000E+01 0. -1.
         15    1    3    3    0    0  0.43537494688E+02 -0.35422340326E+02  0.11507201489E+03  0.12804289117E+03  0.17770000000E+01 0. -1.
</event>
<event>
 7    1  0.3091307E-006  0.1459065E+03  0.7546771E-02  0.1102006E+00
        -11   -1    0    0    0    0  0.00000000000E+00  0.00000000000E+00  0.18250000000E+03  0.18250000000E+03  0.00000000000E+00 0. -1.
         11   -1    0    0    0    0 -0.00000000000E+00 -0.00000000000E+00 -0.18250000000E+03  0.18250000000E+03  0.00000000000E+00 0. -1.
         25    2    1    2    0    0  0.37576023586E+02  0.26429874627E+02  0.58183935706E+01  0.13332569081E+03  0.12502555860E+03 0.  0.
        -11    1    1    2    0    0 -0.17880911148E+02 -0.41476245304E+02  0.10701229667E+03  0.11615350854E+03  0.00000000000E+00 0. -1.
         11    1    1    2    0    0 -0.19695112438E+02  0.15046370678E+02 -0.11283069024E+03  0.11552080066E+03  0.00000000000E+00 0. -1.
        -15    1    3    3    0    0  0.75537613702E+01 -0.39014762693E+02  0.37475313258E+02  0.54651329825E+02  0.17770000000E+01 0.  1.
         15    1    3    3    0    0  0.30022262216E+02  0.65444637320E+02 -0.31656919687E+02  0.78674360980E+02  0.17770000000E+01 0.  1.
</event>
<event>
 7    1  0.3091307E-006  0.1595266E+03  0.7546771E-02  0.1088371E+00
        -11   -1    0    0    0    0  0.00000000000E+00  0.00000000000E+00  0.18250000000E+03  0.18250000000E+03  0.00000000000E+00 0. -1.
         11   -1    0    0    0    0 -0.00000000000E+00 -0.00000000000E+00 -0.18250000000E+03  0.18250000000E+03  0.00000000000E+00 0.  1.
         25    2    1    2    0    0 -0.10103499954E+02 -0.30051722827E+02 -0.51995998864E+02  0.13905191737E+03  0.12500666010E+03 0.  0.
        -11    1    1    2    0    0  0.61171967604E+02 -0.10262031005E+01  0.12043025720E+03  0.13507964156E+03  0.00000000000E+00 0. -1.
         11    1    1    2    0    0 -0.51068467650E+02  0.31077925928E+02 -0.68434258340E+02  0.90868441071E+02  0.00000000000E+00 0.  1.
        -15    1    3    3    0    0  0.50117920861E+02 -0.23248731422E+02 -0.55486197533E+02  0.78321040275E+02  0.17770000000E+01 0. -1.
         15    1    3    3    0    0 -0.60221420815E+02 -0.68029914057E+01  0.34901986686E+01  0.60730877095E+02  0.17770000000E+01 0. -1.
</event>
<event>
 7    1  0.3091307E-006  0.1994910E+03  0.7546771E-02  0.1055681E+00
        -11   -1    0    0    0    0  0.00000000000E+00  0.00000000000E+00  0.18250000000E+03  0.18250000000E+03  0.00000000000E+00 0.  1.
         11   -1    0    0    0    0 -0.00000000000E+00 -0.00000000000E+00 -0.18250000000E+03  0.18250000000E+03  0.00000000000E+00 0. -1.
         25    2    1    2    0    0  0.16283196428E+02  0.48462746812E+02  0.14809003239E+03  0.20042544848E+03  0.12500368950E+03 0.  0.
        -11    1    1    2    0    0  0.84360701701E+01  0.28936844885E+01 -0.43013376037E+01  0.99016258773E+01  0.00000000000E+00 0.  1.
         11    1    1    2    0    0 -0.24719266598E+02 -0.51356431301E+02 -0.14378869479E+03  0.15467292564E+03  0.00000000000E+00 0. -1.
        -15    1    3    3    0    0  0.32614176060E+02  0.43172822703E+02  0.16656616236E+03  0.17514285961E+03  0.17770000000E+01 0.  1.
         15    1    3    3    0    0 -0.16330979632E+02  0.52899241090E+01 -0.18476129962E+02  0.25282588874E+02  0.17770000000E+01 0.  1.
</event>
<event>
 7    1  0.3091307E-006  0.1580663E+03  0.7546771E-02  0.1089760E+00
        -11   -1    0    0    0    0  0.00000000000E+00  0.00000000000E+00  0.18250000000E+03  0.18250000000E+03  0.00000000000E+00 0.  1.
         11   -1    0    0    0    0 -0.00000000000E+00 -0.00000000000E+00 -0.18250000000E+03  0.18250000000E+03  0.00000000000E+00 0. -1.
         25    2    1    2    0    0 -0.10532035346E+02  0.44687173742E+02 -0.41059041670E+02  0.13934863095E+03  0.12499731509E+03 0.  0.
        -11    1    1    2    0    0 -0.47026980470E+02 -0.45365918384E+02  0.11480606199E+03  0.13209858180E+03  0.00000000000E+00 0.  1.
         11    1    1    2    0    0  0.57559015815E+02  0.67874464154E+00 -0.73747020321E+02  0.93552787249E+02  0.00000000000E+00 0. -1.
        -15    1    3    3    0    0 -0.42490703027E+02 -0.29714150624E+02 -0.11582445500E+02  0.53157326530E+02  0.17770000000E+01 0. -1.
         15    1    3    3    0    0  0.31958667682E+02  0.74401324367E+02 -0.29476596170E+02  0.86191304424E+02  0.17770000000E+01 0. -1.
</event>
<event>
 7    1  0.3091307E-006  0.1853264E+03  0.7546771E-02  0.1066227E+00
        -11   -1    0    0    0    0  0.00000000000E+00  0.00000000000E+00  0.18250000000E+03  0.18250000000E+03  0.00000000000E+00 0. -1.
         11   -1    0    0    0    0 -0.00000000000E+00 -0.00000000000E+00 -0.18250000000E+03  0.18250000000E+03  0.00000000000E+00 0.  1.
         25    2    1    2    0    0 -0.69466580129E+02 -0.15460573261E+02  0.10012147722E+03  0.17525753062E+03  0.12500502693E+03 0.  0.
        -11    1    1    2    0    0  0.74674124529E+01 -0.27024414482E+02  0.29001562255E+02  0.40338218108E+02  0.00000000000E+00 0. -1.
         11    1    1    2    0    0  0.61999167676E+02  0.42484987743E+02 -0.12912303947E+03  0.14940425128E+03  0.00000000000E+00 0.  1.
        -15    1    3    3    0    0 -0.84708833765E+02 -0.28158857642E+02  0.18421701507E+02  0.91164821049E+02  0.17770000000E+01 0.  1.
         15    1    3    3    0    0  0.15242253636E+02  0.12698284381E+02  0.81699775712E+02  0.84092709568E+02  0.17770000000E+01 0.  1.
</event>
<event>
 7    1  0.3091307E-006  0.1603234E+03  0.7546771E-02  0.1087620E+00
        -11   -1    0    0    0    0  0.00000000000E+00  0.00000000000E+00  0.18250000000E+03  0.18250000000E+03  0.00000000000E+00 0. -1.
         11   -1    0    0    0    0 -0.00000000000E+00 -0.00000000000E+00 -0.18250000000E+03  0.18250000000E+03  0.00000000000E+00 0. -1.
         25    2    1    2    0    0  0.34423475665E+02  0.59426161682E+02  0.42387293791E+02  0.14885533390E+03  0.12507910851E+03 0.  0.
        -11    1    1    2    0    0 -0.36745844601E+02 -0.21856364408E+02  0.78578891119E+02  0.89457251747E+02  0.00000000000E+00 0. -1.
         11    1    1    2    0    0  0.23223689359E+01 -0.37569797274E+02 -0.12096618491E+03  0.12668741436E+03  0.00000000000E+00 0. -1.
        -15    1    3    3    0    0  0.30584140767E+02  0.79911303571E+01  0.79311755466E+02  0.85397658721E+02  0.17770000000E+01 0.  1.
         15    1    3    3    0    0  0.38393348985E+01  0.51435031325E+02 -0.36924461675E+02  0.63457675177E+02  0.17770000000E+01 0.  1.
</event>
<event>
 7    1  0.3091307E-006  0.1630690E+03  0.7546771E-02  0.1085068E+00
        -11   -1    0    0    0    0  0.00000000000E+00  0.00000000000E+00  0.18250000000E+03  0.18250000000E+03  0.00000000000E+00 0.  1.
         11   -1    0    0    0    0 -0.00000000000E+00 -0.00000000000E+00 -0.18250000000E+03  0.18250000000E+03  0.00000000000E+00 0. -1.
         25    2    1    2    0    0 -0.36098360216E+02 -0.32201911788E+02  0.44563517878E+02  0.14124752131E+03  0.12499960167E+03 0.  0.
        -11    1    1    2    0    0  0.14852476813E+02 -0.52717916529E+02  0.64037113351E+02  0.84264622926E+02  0.00000000000E+00 0.  1.
         11    1    1    2    0    0  0.21245883403E+02  0.84919828317E+02 -0.10860063123E+03  0.13948785577E+03  0.00000000000E+00 0. -1.
        -15    1    3    3    0    0  0.41503341121E+02 -0.20703720938E+02  0.42218619054E+02  0.62743453115E+02  0.17770000000E+01 0.  1.
         15    1    3    3    0    0 -0.77601701337E+02 -0.11498190850E+02  0.23448988240E+01  0.78504068192E+02  0.17770000000E+01 0.  1.
</event>
<event>
 7    1  0.3091307E-006  0.1655504E+03  0.7546771E-02  0.1082809E+00
        -11   -1    0    0    0    0  0.00000000000E+00  0.00000000000E+00  0.18250000000E+03  0.18250000000E+03  0.00000000000E+00 0.  1.
         11   -1    0    0    0    0 -0.00000000000E+00 -0.00000000000E+00 -0.18250000000E+03  0.18250000000E+03  0.00000000000E+00 0. -1.
         25    2    1    2    0    0 -0.92682646996E+01  0.66103078313E+00 -0.65966455822E+02  0.14164082824E+03  0.12499685292E+03 0.  0.
        -11    1    1    2    0    0  0.47191435491E+02  0.45988455472E+01  0.13573378503E+03  0.14377705437E+03  0.00000000000E+00 0.  1.
         11    1    1    2    0    0 -0.37923170791E+02 -0.52598763304E+01 -0.69767329212E+02  0.79582117384E+02  0.00000000000E+00 0. -1.
        -15    1    3    3    0    0  0.24618481850E+02 -0.54314598106E+02 -0.40949831002E+02  0.72361534009E+02  0.17770000000E+01 0.  1.
         15    1    3    3    0    0 -0.33886746550E+02  0.54975628889E+02 -0.25016624820E+02  0.69279294236E+02  0.17770000000E+01 0.  1.
</event>
<event>
 7    1  0.3091307E-006  0.1508090E+03  0.7546771E-02  0.1096916E+00
        -11   -1    0    0    0    0  0.00000000000E+00  0.00000000000E+00  0.18250000000E+03  0.18250000000E+03  0.00000000000E+00 0. -1.
         11   -1    0    0    0    0 -0.00000000000E+00 -0.00000000000E+00 -0.18250000000E+03  0.18250000000E+03  0.00000000000E+00 0. -1.
         25    2    1    2    0    0 -0.11668193499E+02  0.78419311341E+01 -0.34251948187E+02  0.13038470199E+03  0.12501732654E+03 0.  0.
        -11    1    1    2    0    0 -0.41425504251E+02  0.37475433248E+02  0.11501723920E+03  0.12786495146E+03  0.00000000000E+00 0. -1.
         11    1    1    2    0    0  0.53093697751E+02 -0.45317364383E+02 -0.80765291013E+02  0.10675034655E+03  0.00000000000E+00 0. -1.
        -15    1    3    3    0    0 -0.65222117588E+02  0.83507017190E+01  0.17946122535E+01  0.65803018199E+02  0.17770000000E+01 0.  1.
         15    1    3    3    0    0  0.53553924089E+02 -0.50877058489E+00 -0.36046560440E+02  0.64581683792E+02  0.17770000000E+01 0.  1.
</event>
<event>
 7    1  0.3091307E-006  0.1652159E+03  0.7546771E-02  0.1083111E+00
        -11   -1    0    0    0    0  0.00000000000E+00  0.00000000000E+00  0.18250000000E+03  0.18250000000E+03  0.00000000000E+00 0.  1.
         11   -1    0    0    0    0 -0.00000000000E+00 -0.00000000000E+00 -0.18250000000E+03  0.18250000000E+03  0.00000000000E+00 0. -1.
         25    2    1    2    0    0 -0.74321155705E+02 -0.16026285289E+02 -0.50996243821E+02  0.15495345607E+03  0.12501792135E+03 0.  0.
        -11    1    1    2    0    0  0.37499234438E+02  0.25293808399E+02  0.12167702113E+03  0.12981242929E+03  0.00000000000E+00 0.  1.
         11    1    1    2    0    0  0.36821921267E+02 -0.92675231096E+01 -0.70680777313E+02  0.80234114639E+02  0.00000000000E+00 0. -1.
        -15    1    3    3    0    0 -0.25702348598E+02 -0.68978659904E+02 -0.17811393157E+02  0.75756647898E+02  0.17770000000E+01 0.  1.
         15    1    3    3    0    0 -0.48618807107E+02  0.52952374615E+02 -0.33184850664E+02  0.79196808171E+02  0.17770000000E+01 0.  1.
</event>
<event>
 7    1  0.3091307E-006  0.1507170E+03  0.7546771E-02  0.1097010E+00
        -11   -1    0    0    0    0  0.00000000000E+00  0.00000000000E+00  0.18250000000E+03  0.18250000000E+03  0.00000000000E+00 0. -1.
         11   -1    0    0    0    0 -0.00000000000E+00 -0.00000000000E+00 -0.18250000000E+03  0.18250000000E+03  0.00000000000E+00 0. -1.
         25    2    1    2    0    0  0.23457671521E+02  0.64172230715E+02  0.24246183847E+02  0.14450088360E+03  0.12499716149E+03 0.  0.
        -11    1    1    2    0    0  0.61990845576E+01 -0.63971240799E+02  0.85417073877E+02  0.10689632738E+03  0.00000000000E+00 0. -1.
         11    1    1    2    0    0 -0.29656756079E+02 -0.20098991625E+00 -0.10966325772E+03  0.11360278902E+03  0.00000000000E+00 0. -1.
        -15    1    3    3    0    0  0.46923545140E+02  0.43013214004E+02  0.66261536499E+02  0.91900514774E+02  0.17770000000E+01 0. -1.
         15    1    3    3    0    0 -0.23465873618E+02  0.21159016711E+02 -0.42015352652E+02  0.52600368823E+02  0.17770000000E+01 0. -1.
</event>
<event>
 7    1  0.3091307E-006  0.1582992E+03  0.7546771E-02  0.1089538E+00
        -11   -1    0    0    0    0  0.00000000000E+00  0.00000000000E+00  0.18250000000E+03  0.18250000000E+03  0.00000000000E+00 0. -1.
         11   -1    0    0    0    0 -0.00000000000E+00 -0.00000000000E+00 -0.18250000000E+03  0.18250000000E+03  0.00000000000E+00 0.  1.
         25    2    1    2    0    0  0.63784526027E+01 -0.50986082869E+02  0.35622864011E+02  0.13976421420E+03  0.12499912731E+03 0.  0.
        -11    1    1    2    0    0 -0.95939231296E+01  0.14903964385E+02  0.91423485254E+02  0.93125856621E+02  0.00000000000E+00 0. -1.
         11    1    1    2    0    0  0.32154705269E+01  0.36082118484E+02 -0.12704634927E+03  0.13210992918E+03  0.00000000000E+00 0.  1.
        -15    1    3    3    0    0  0.52089329552E+01 -0.79690141791E+02  0.61693069762E+02  0.10092989779E+03  0.17770000000E+01 0. -1.
         15    1    3    3    0    0  0.11695196475E+01  0.28704058921E+02 -0.26070205751E+02  0.38834316418E+02  0.17770000000E+01 0. -1.
</event>
<event>
 7    1  0.3091307E-006  0.1440032E+03  0.7546771E-02  0.1104042E+00
        -11   -1    0    0    0    0  0.00000000000E+00  0.00000000000E+00  0.18250000000E+03  0.18250000000E+03  0.00000000000E+00 0.  1.
         11   -1    0    0    0    0 -0.00000000000E+00 -0.00000000000E+00 -0.18250000000E+03  0.18250000000E+03  0.00000000000E+00 0.  1.
         25    2    1    2    0    0  0.97184429628E+01  0.16688859250E+02  0.38926372308E+01  0.12653940039E+03  0.12499640423E+03 0.  0.
        -11    1    1    2    0    0  0.45320263246E+02 -0.64082262171E+02  0.90218053272E+02  0.11958160277E+03  0.00000000000E+00 0.  1.
         11    1    1    2    0    0 -0.55038706209E+02  0.47393402922E+02 -0.94110690503E+02  0.11887899684E+03  0.00000000000E+00 0.  1.
        -15    1    3    3    0    0  0.37667356517E+01 -0.45031039786E+02  0.34962045842E+02  0.57161921068E+02  0.17770000000E+01 0.  1.
         15    1    3    3    0    0  0.59517073111E+01  0.61719899035E+02 -0.31069408611E+02  0.69377479324E+02  0.17770000000E+01 0.  1.
</event>
<event>
 7    1  0.3091307E-006  0.1625822E+03  0.7546771E-02  0.1085517E+00
        -11   -1    0    0    0    0  0.00000000000E+00  0.00000000000E+00  0.18250000000E+03  0.18250000000E+03  0.00000000000E+00 0.  1.
         11   -1    0    0    0    0 -0.00000000000E+00 -0.00000000000E+00 -0.18250000000E+03  0.18250000000E+03  0.00000000000E+00 0.  1.
         25    2    1    2    0    0  0.77231574432E+02 -0.95418536049E+02  0.43064524165E+02  0.18041429737E+03  0.12500140936E+03 0.  0.
        -11    1    1    2    0    0 -0.50714996982E+02  0.53264595343E+02  0.42968414506E+02  0.85178710257E+02  0.00000000000E+00 0.  1.
         11    1    1    2    0    0 -0.26516577450E+02  0.42153940707E+02 -0.86032938671E+02  0.99406992376E+02  0.00000000000E+00 0.  1.
        -15    1    3    3    0    0  0.89450278895E+02 -0.11166877580E+03  0.58743732248E+02  0.15467789658E+03  0.17770000000E+01 0.  1.
         15    1    3    3    0    0 -0.12218704462E+02  0.16250239746E+02 -0.15679208082E+02  0.25736400790E+02  0.17770000000E+01 0.  1.
</event>
<event>
 7    1  0.3091307E-006  0.1468463E+03  0.7546771E-02  0.1101014E+00
        -11   -1    0    0    0    0  0.00000000000E+00  0.00000000000E+00  0.18250000000E+03  0.18250000000E+03  0.00000000000E+00 0.  1.
         11   -1    0    0    0    0 -0.00000000000E+00 -0.00000000000E+00 -0.18250000000E+03  0.18250000000E+03  0.00000000000E+00 0. -1.
         25    2    1    2    0    0  0.25727226699E+02  0.34401977392E+02 -0.44743015061E+01  0.13224629615E+03  0.12499470881E+03 0.  0.
        -11    1    1    2    0    0 -0.53417347435E+02  0.42037030361E+02  0.91287876654E+02  0.11381564634E+03  0.00000000000E+00 0.  1.
         11    1    1    2    0    0  0.27690120736E+02 -0.76439007753E+02 -0.86813575148E+02  0.11893805750E+03  0.00000000000E+00 0. -1.
        -15    1    3    3    0    0 -0.26943046248E+02  0.62940452033E+02 -0.17987201254E+02  0.70810489203E+02  0.17770000000E+01 0. -1.
         15    1    3    3    0    0  0.52670272947E+02 -0.28538474641E+02  0.13512899748E+02  0.61435806951E+02  0.17770000000E+01 0. -1.
</event>
<event>
 7    1  0.3091307E-006  0.1712960E+03  0.7546771E-02  0.1077740E+00
        -11   -1    0    0    0    0  0.00000000000E+00  0.00000000000E+00  0.18250000000E+03  0.18250000000E+03  0.00000000000E+00 0. -1.
         11   -1    0    0    0    0 -0.00000000000E+00 -0.00000000000E+00 -0.18250000000E+03  0.18250000000E+03  0.00000000000E+00 0.  1.
         25    2    1    2    0    0  0.20018286336E+02  0.63558046585E+02  0.12808075738E+03  0.19097076201E+03  0.12499917783E+03 0.  0.
        -11    1    1    2    0    0 -0.36454044476E+02 -0.52646103651E+02 -0.24461005675E+02  0.68548161077E+02  0.00000000000E+00 0. -1.
         11    1    1    2    0    0  0.16435758140E+02 -0.10911942933E+02 -0.10361975170E+03  0.10548107692E+03  0.00000000000E+00 0.  1.
        -15    1    3    3    0    0  0.22084940808E+01  0.54598334900E+02  0.15097001276E+03  0.16056449827E+03  0.17770000000E+01 0.  1.
         15    1    3    3    0    0  0.17809792255E+02  0.89597116846E+01 -0.22889255386E+02  0.30406263742E+02  0.17770000000E+01 0.  1.
</event>
<event>
 7    1  0.3091307E-006  0.1570094E+03  0.7546771E-02  0.1090776E+00
        -11   -1    0    0    0    0  0.00000000000E+00  0.00000000000E+00  0.18250000000E+03  0.18250000000E+03  0.00000000000E+00 0.  1.
         11   -1    0    0    0    0 -0.00000000000E+00 -0.00000000000E+00 -0.18250000000E+03  0.18250000000E+03  0.00000000000E+00 0. -1.
         25    2    1    2    0    0  0.78077795836E+01  0.13115147418E+02 -0.39309238235E+02  0.13192180892E+03  0.12500071577E+03 0.  0.
        -11    1    1    2    0    0 -0.22085830589E+02 -0.37035463327E+02  0.13065089543E+03  0.13758294202E+03  0.00000000000E+00 0.  1.
         11    1    1    2    0    0  0.14278051006E+02  0.23920315909E+02 -0.91341657199E+02  0.95495249063E+02  0.00000000000E+00 0. -1.
        -15    1    3    3    0    0  0.16115186761E+02  0.67366685932E+02 -0.11054630351E+02  0.70166460642E+02  0.17770000000E+01 0.  1.
         15    1    3    3    0    0 -0.83074071771E+01 -0.54251538514E+02 -0.28254607884E+02  0.61755348277E+02  0.17770000000E+01 0.  1.
</event>
<event>
 7    1  0.3091307E-006  0.1457453E+03  0.7546771E-02  0.1102177E+00
        -11   -1    0    0    0    0  0.00000000000E+00  0.00000000000E+00  0.18250000000E+03  0.18250000000E+03  0.00000000000E+00 0.  1.
         11   -1    0    0    0    0 -0.00000000000E+00 -0.00000000000E+00 -0.18250000000E+03  0.18250000000E+03  0.00000000000E+00 0. -1.
         25    2    1    2    0    0  0.24473369799E+02  0.43537640575E+01  0.20217555787E+00  0.12744414710E+03  0.12499627460E+03 0.  0.
        -11    1    1    2    0    0  0.12964118273E+02  0.14523951382E+02  0.11412985879E+03  0.11577840124E+03  0.00000000000E+00 0.  1.
         11    1    1    2    0    0 -0.37437488072E+02 -0.18877715439E+02 -0.11433203435E+03  0.12177745166E+03  0.00000000000E+00 0. -1.
        -15    1    3    3    0    0  0.42823394451E+01 -0.53652645479E+02 -0.27005118238E+02  0.60244327019E+02  0.17770000000E+01 0. -1.
         15    1    3    3    0    0  0.20191030354E+02  0.58006409536E+02  0.27207293796E+02  0.67199820080E+02  0.17770000000E+01 0. -1.
</event>
<event>
 7    1  0.3091307E-006  0.1826228E+03  0.7546771E-02  0.1068357E+00
        -11   -1    0    0    0    0  0.00000000000E+00  0.00000000000E+00  0.18250000000E+03  0.18250000000E+03  0.00000000000E+00 0.  1.
         11   -1    0    0    0    0 -0.00000000000E+00 -0.00000000000E+00 -0.18250000000E+03  0.18250000000E+03  0.00000000000E+00 0. -1.
         25    2    1    2    0    0  0.73388279282E+02 -0.50804581223E+02 -0.92252332595E+02  0.17917182101E+03  0.12500041426E+03 0.  0.
        -11    1    1    2    0    0 -0.44164309940E+02  0.40972402443E+02  0.12627694490E+03  0.13991101046E+03  0.00000000000E+00 0.  1.
         11    1    1    2    0    0 -0.29223969342E+02  0.98321787795E+01 -0.34024612303E+02  0.45917168533E+02  0.00000000000E+00 0. -1.
        -15    1    3    3    0    0  0.65838759595E+02 -0.89614248353E+02 -0.82323729479E+02  0.13836838489E+03  0.17770000000E+01 0. -1.
         15    1    3    3    0    0  0.75495196867E+01  0.38809667130E+02 -0.99286031167E+01  0.40803436119E+02  0.17770000000E+01 0. -1.
</event>
<event>
 7    1  0.3091307E-006  0.1801304E+03  0.7546771E-02  0.1070357E+00
        -11   -1    0    0    0    0  0.00000000000E+00  0.00000000000E+00  0.18250000000E+03  0.18250000000E+03  0.00000000000E+00 0.  1.
         11   -1    0    0    0    0 -0.00000000000E+00 -0.00000000000E+00 -0.18250000000E+03  0.18250000000E+03  0.00000000000E+00 0. -1.
         25    2    1    2    0    0 -0.48586140143E+02 -0.11257774919E+02 -0.92815331144E+02  0.16348374116E+03  0.12499958967E+03 0.  0.
        -11    1    1    2    0    0  0.45678644930E+02  0.48960357985E+01  0.14333368943E+03  0.15051596691E+03  0.00000000000E+00 0.  1.
         11    1    1    2    0    0  0.29074952138E+01  0.63617391206E+01 -0.50518358286E+02  0.51000291930E+02  0.00000000000E+00 0. -1.
        -15    1    3    3    0    0 -0.74657542186E+02  0.33134493272E+02 -0.45375024900E+02  0.93454234058E+02  0.17770000000E+01 0.  1.
         15    1    3    3    0    0  0.26071402043E+02 -0.44392268191E+02 -0.47440306244E+02  0.70029507103E+02  0.17770000000E+01 0.  1.
</event>
<event>
 7    1  0.3091307E-006  0.1450906E+03  0.7546771E-02  0.1102874E+00
        -11   -1    0    0    0    0  0.00000000000E+00  0.00000000000E+00  0.18250000000E+03  0.18250000000E+03  0.00000000000E+00 0. -1.
         11   -1    0    0    0    0 -0.00000000000E+00 -0.00000000000E+00 -0.18250000000E+03  0.18250000000E+03  0.00000000000E+00 0.  1.
         25    2    1    2    0    0  0.30237465252E+02 -0.10095125782E+02 -0.13835712265E+02  0.12973945457E+03  0.12499873307E+03 0.  0.
        -11    1    1    2    0    0 -0.48911940625E+01 -0.69726735044E+02  0.95459598207E+02  0.11831431126E+03  0.00000000000E+00 0. -1.
         11    1    1    2    0    0 -0.25346271189E+02  0.79821860826E+02 -0.81623885942E+02  0.11694623416E+03  0.00000000000E+00 0.  1.
        -15    1    3    3    0    0  0.37685661275E+02  0.45121032648E+02 -0.36877306302E+02  0.69420530839E+02  0.17770000000E+01 0.  1.
         15    1    3    3    0    0 -0.74481960227E+01 -0.55216158430E+02  0.23041594037E+02  0.60318923735E+02  0.17770000000E+01 0.  1.
</event>
<event>
 7    1  0.3091307E-006  0.1645223E+03  0.7546771E-02  0.1083740E+00
        -11   -1    0    0    0    0  0.00000000000E+00  0.00000000000E+00  0.18250000000E+03  0.18250000000E+03  0.00000000000E+00 0.  1.
         11   -1    0    0    0    0 -0.00000000000E+00 -0.00000000000E+00 -0.18250000000E+03  0.18250000000E+03  0.00000000000E+00 0. -1.
         25    2    1    2    0    0 -0.27580331089E+02  0.41313604376E+02 -0.49647514927E+02  0.14336821435E+03  0.12498832177E+03 0.  0.
        -11    1    1    2    0    0  0.23330271093E+02 -0.43834713358E+02  0.13101744946E+03  0.14011193992E+03  0.00000000000E+00 0.  1.
         11    1    1    2    0    0  0.42500599963E+01  0.25211089814E+01 -0.81369934538E+02  0.81519845726E+02  0.00000000000E+00 0. -1.
        -15    1    3    3    0    0 -0.97854256241E+00  0.42903881487E-01 -0.83613034956E+02  0.83637651389E+02  0.17770000000E+01 0. -1.
         15    1    3    3    0    0 -0.26601788527E+02  0.41270700495E+02  0.33965520029E+02  0.59730562964E+02  0.17770000000E+01 0.  1.
</event>
<event>
 7    1  0.3091307E-006  0.1637909E+03  0.7546771E-02  0.1084407E+00
        -11   -1    0    0    0    0  0.00000000000E+00  0.00000000000E+00  0.18250000000E+03  0.18250000000E+03  0.00000000000E+00 0.  1.
         11   -1    0    0    0    0 -0.00000000000E+00 -0.00000000000E+00 -0.18250000000E+03  0.18250000000E+03  0.00000000000E+00 0.  1.
         25    2    1    2    0    0 -0.46356129812E+02  0.25335108152E+02 -0.71973179807E+02  0.15361287957E+03  0.12500407866E+03 0.  0.
        -11    1    1    2    0    0 -0.18950230123E+02 -0.49021355340E+02  0.11723315867E+03  0.12847497030E+03  0.00000000000E+00 0.  1.
         11    1    1    2    0    0  0.65306359935E+02  0.23686247188E+02 -0.45259978862E+02  0.82912150138E+02  0.00000000000E+00 0.  1.
        -15    1    3    3    0    0 -0.72135968478E+02  0.36805796664E+02 -0.89211571320E+02  0.12049948881E+03  0.17770000000E+01 0. -1.
         15    1    3    3    0    0  0.25779838666E+02 -0.11470688512E+02  0.17238391513E+02  0.33113390758E+02  0.17770000000E+01 0. -1.
</event>
<event>
 7    1  0.3091307E-006  0.1693159E+03  0.7546771E-02  0.1079462E+00
        -11   -1    0    0    0    0  0.00000000000E+00  0.00000000000E+00  0.18250000000E+03  0.18250000000E+03  0.00000000000E+00 0. -1.
         11   -1    0    0    0    0 -0.00000000000E+00 -0.00000000000E+00 -0.18250000000E+03  0.18250000000E+03  0.00000000000E+00 0.  1.
         25    2    1    2    0    0  0.28916896948E+02  0.92629217843E+02 -0.17788108187E+02  0.15923819591E+03  0.12499610920E+03 0.  0.
        -11    1    1    2    0    0 -0.73542370354E+02 -0.83122021296E+02  0.73977247590E+02  0.13338059762E+03  0.00000000000E+00 0.  1.
         11    1    1    2    0    0  0.44625473406E+02 -0.95071965471E+01 -0.56189139403E+02  0.72381206468E+02  0.00000000000E+00 0. -1.
        -15    1    3    3    0    0 -0.16771206292E+02  0.68640412196E+02 -0.59868332215E+02  0.92629123272E+02  0.17770000000E+01 0. -1.
         15    1    3    3    0    0  0.45688103240E+02  0.23988805647E+02  0.42080224028E+02  0.66609072635E+02  0.17770000000E+01 0. -1.
</event>
<event>
 7    1  0.3091307E-006  0.1644685E+03  0.7546771E-02  0.1083789E+00
        -11   -1    0    0    0    0  0.00000000000E+00  0.00000000000E+00  0.18250000000E+03  0.18250000000E+03  0.00000000000E+00 0. -1.
         11   -1    0    0    0    0 -0.00000000000E+00 -0.00000000000E+00 -0.18250000000E+03  0.18250000000E+03  0.00000000000E+00 0. -1.
         25    2    1    2    0    0  0.96431813067E+02 -0.13172432226E+02  0.76136096647E+02  0.17576554971E+03  0.12499686280E+03 0.  0.
        -11    1    1    2    0    0 -0.76500641944E+02 -0.49590271197E+01  0.28041487497E+02  0.81628825723E+02  0.00000000000E+00 0. -1.
         11    1    1    2    0    0 -0.19931171123E+02  0.18131459346E+02 -0.10417758414E+03  0.10760562457E+03  0.00000000000E+00 0. -1.
        -15    1    3    3    0    0  0.86948983189E+02  0.46005666216E+02  0.49909785594E+02  0.11032130995E+03  0.17770000000E+01 0.  1.
         15    1    3    3    0    0  0.94828298783E+01 -0.59178098442E+02  0.26226311053E+02  0.65444239763E+02  0.17770000000E+01 0.  1.
</event>
<event>
 7    1  0.3091307E-006  0.1504754E+03  0.7546771E-02  0.1097256E+00
        -11   -1    0    0    0    0  0.00000000000E+00  0.00000000000E+00  0.18250000000E+03  0.18250000000E+03  0.00000000000E+00 0. -1.
         11   -1    0    0    0    0 -0.00000000000E+00 -0.00000000000E+00 -0.18250000000E+03  0.18250000000E+03  0.00000000000E+00 0. -1.
         25    2    1    2    0    0  0.48654931818E+02 -0.24616298980E+02  0.23058506829E+02  0.13832177019E+03  0.12501181066E+03 0.  0.
        -11    1    1    2    0    0 -0.51785841980E+02  0.16920458775E+01  0.94011221335E+02  0.10734405520E+03  0.00000000000E+00 0. -1.
         11    1    1    2    0    0  0.31309101625E+01  0.22924253103E+02 -0.11706972816E+03  0.11933417462E+03  0.00000000000E+00 0. -1.
        -15    1    3    3    0    0  0.10836111850E+02 -0.71318329370E+02 -0.42621840463E+01  0.72284502945E+02  0.17770000000E+01 0. -1.
         15    1    3    3    0    0  0.37818819968E+02  0.46702030389E+02  0.27320690875E+02  0.66037267245E+02  0.17770000000E+01 0. -1.
</event>
<event>
 7    1  0.3091307E-006  0.1517812E+03  0.7546771E-02  0.1095932E+00
        -11   -1    0    0    0    0  0.00000000000E+00  0.00000000000E+00  0.18250000000E+03  0.18250000000E+03  0.00000000000E+00 0.  1.
         11   -1    0    0    0    0 -0.00000000000E+00 -0.00000000000E+00 -0.18250000000E+03  0.18250000000E+03  0.00000000000E+00 0.  1.
         25    2    1    2    0    0  0.71138007851E+02  0.12235445292E+02 -0.10059892995E+02  0.14468850622E+03  0.12499296021E+03 0.  0.
        -11    1    1    2    0    0  0.95356822156E+00 -0.56801402781E+02  0.88279414716E+02  0.10497887270E+03  0.00000000000E+00 0.  1.
         11    1    1    2    0    0 -0.72091576073E+02  0.44565957489E+02 -0.78219521721E+02  0.11533262108E+03  0.00000000000E+00 0.  1.
        -15    1    3    3    0    0  0.50270480654E+02  0.67757595742E+02 -0.12439331816E+02  0.85300103816E+02  0.17770000000E+01 0. -1.
         15    1    3    3    0    0  0.20867527197E+02 -0.55522150450E+02  0.23794388206E+01  0.59388402403E+02  0.17770000000E+01 0. -1.
</event>
<event>
 7    1  0.3091307E-006  0.1512240E+03  0.7546771E-02  0.1096495E+00
        -11   -1    0    0    0    0  0.00000000000E+00  0.00000000000E+00  0.18250000000E+03  0.18250000000E+03  0.00000000000E+00 0.  1.
         11   -1    0    0    0    0 -0.00000000000E+00 -0.00000000000E+00 -0.18250000000E+03  0.18250000000E+03  0.00000000000E+00 0. -1.
         25    2    1    2    0    0  0.61462012454E+01  0.46232628970E+02  0.93478388854E+01  0.13374946572E+03  0.12500522276E+03 0.  0.
        -11    1    1    2    0    0 -0.33605676743E+02  0.79152843858E+01  0.10021236034E+03  0.10599297336E+03  0.00000000000E+00 0.  1.
         11    1    1    2    0    0  0.27459475497E+02 -0.54147913356E+02 -0.10956019922E+03  0.12525756093E+03  0.00000000000E+00 0. -1.
        -15    1    3    3    0    0 -0.36143218484E+02  0.73138374351E+02 -0.44796153842E+01  0.81723795360E+02  0.17770000000E+01 0. -1.
         15    1    3    3    0    0  0.42289419729E+02 -0.26905745381E+02  0.13827454270E+02  0.52025670357E+02  0.17770000000E+01 0. -1.
</event>
<event>
 7    1  0.3091307E-006  0.1807281E+03  0.7546771E-02  0.1069874E+00
        -11   -1    0    0    0    0  0.00000000000E+00  0.00000000000E+00  0.18250000000E+03  0.18250000000E+03  0.00000000000E+00 0.  1.
         11   -1    0    0    0    0 -0.00000000000E+00 -0.00000000000E+00 -0.18250000000E+03  0.18250000000E+03  0.00000000000E+00 0.  1.
         25    2    1    2    0    0  0.23831374616E+02  0.52417539877E+02  0.10695182232E+03  0.17429083891E+03  0.12499228507E+03 0.  0.
        -11    1    1    2    0    0 -0.19105562454E+00 -0.38707548124E+02  0.31301693326E+02  0.49780586468E+02  0.00000000000E+00 0.  1.
         11    1    1    2    0    0 -0.23640318992E+02 -0.13709991753E+02 -0.13825351565E+03  0.14092857462E+03  0.00000000000E+00 0.  1.
        -15    1    3    3    0    0  0.45398165842E+02  0.43553930560E+02  0.12812270527E+03  0.14274636130E+03  0.17770000000E+01 0. -1.
         15    1    3    3    0    0 -0.21566791226E+02  0.88636093165E+01 -0.21170882949E+02  0.31544477611E+02  0.17770000000E+01 0. -1.
</event>
<event>
 7    1  0.3091307E-006  0.1680759E+03  0.7546771E-02  0.1080554E+00
        -11   -1    0    0    0    0  0.00000000000E+00  0.00000000000E+00  0.18250000000E+03  0.18250000000E+03  0.00000000000E+00 0.  1.
         11   -1    0    0    0    0 -0.00000000000E+00 -0.00000000000E+00 -0.18250000000E+03  0.18250000000E+03  0.00000000000E+00 0. -1.
         25    2    1    2    0    0  0.91989504484E+02  0.35632831057E+02 -0.81831162893E+02  0.17901442076E+03  0.12497222106E+03 0.  0.
        -11    1    1    2    0    0 -0.74256183194E+01  0.34821417626E+02  0.65720508796E+02  0.74745275499E+02  0.00000000000E+00 0.  1.
         11    1    1    2    0    0 -0.84563886165E+02 -0.70454248683E+02  0.16110654097E+02  0.11124030374E+03  0.00000000000E+00 0. -1.
        -15    1    3    3    0    0  0.72122788856E+02 -0.15103364655E+02 -0.97560644831E+02  0.12227446767E+03  0.17770000000E+01 0. -1.
         15    1    3    3    0    0  0.19866715629E+02  0.50736195712E+02  0.15729481938E+02  0.56739953086E+02  0.17770000000E+01 0. -1.
</event>
<event>
 7    1  0.3091307E-006  0.1682936E+03  0.7546771E-02  0.1080361E+00
        -11   -1    0    0    0    0  0.00000000000E+00  0.00000000000E+00  0.18250000000E+03  0.18250000000E+03  0.00000000000E+00 0.  1.
         11   -1    0    0    0    0 -0.00000000000E+00 -0.00000000000E+00 -0.18250000000E+03  0.18250000000E+03  0.00000000000E+00 0.  1.
         25    2    1    2    0    0  0.27517487603E+02  0.10323783183E+02  0.67065712172E+02  0.14486778513E+03  0.12500029119E+03 0.  0.
        -11    1    1    2    0    0  0.27738861884E+02 -0.12630334154E+02  0.67817272141E+02  0.74351544706E+02  0.00000000000E+00 0.  1.
         11    1    1    2    0    0 -0.55256349487E+02  0.23065509718E+01 -0.13488298431E+03  0.14578067016E+03  0.00000000000E+00 0.  1.
        -15    1    3    3    0    0  0.25296965782E+02  0.62691234606E+02  0.62736012311E+02  0.92244741551E+02  0.17770000000E+01 0.  1.
         15    1    3    3    0    0  0.22205218209E+01 -0.52367451423E+02  0.43296998607E+01  0.52623043580E+02  0.17770000000E+01 0.  1.
</event>
<event>
 7    1  0.3091307E-006  0.1468573E+03  0.7546771E-02  0.1101002E+00
        -11   -1    0    0    0    0  0.00000000000E+00  0.00000000000E+00  0.18250000000E+03  0.18250000000E+03  0.00000000000E+00 0. -1.
         11   -1    0    0    0    0 -0.00000000000E+00 -0.00000000000E+00 -0.18250000000E+03  0.18250000000E+03  0.00000000000E+00 0. -1.
         25    2    1    2    0    0  0.30473277345E+01  0.18106108657E+02  0.41055987567E+02  0.13279865360E+03  0.12495107405E+03 0.  0.
        -11    1    1    2    0    0 -0.20993433276E+02 -0.10558022733E+03  0.36766286427E+02  0.11375266354E+03  0.00000000000E+00 0. -1.
         11    1    1    2    0    0  0.17946105541E+02  0.87474118676E+02 -0.77822273994E+02  0.11844868286E+03  0.00000000000E+00 0. -1.
        -15    1    3    3    0    0 -0.46443880575E+02 -0.90450902379E+01  0.57011788712E+02  0.74110387135E+02  0.17770000000E+01 0. -1.
         15    1    3    3    0    0  0.49491208309E+02  0.27151198895E+02 -0.15955801145E+02  0.58688266464E+02  0.17770000000E+01 0. -1.
</event>
<event>
 7    1  0.3091307E-006  0.1608043E+03  0.7546771E-02  0.1087169E+00
        -11   -1    0    0    0    0  0.00000000000E+00  0.00000000000E+00  0.18250000000E+03  0.18250000000E+03  0.00000000000E+00 0.  1.
         11   -1    0    0    0    0 -0.00000000000E+00 -0.00000000000E+00 -0.18250000000E+03  0.18250000000E+03  0.00000000000E+00 0. -1.
         25    2    1    2    0    0 -0.62383019128E+02  0.14695726511E+02  0.75123112654E+01  0.14066421220E+03  0.12498952084E+03 0.  0.
        -11    1    1    2    0    0 -0.37643914933E+02  0.20488462788E+02  0.77412471239E+02  0.88484643539E+02  0.00000000000E+00 0.  1.
         11    1    1    2    0    0  0.10002693406E+03 -0.35184189298E+02 -0.84924782504E+02  0.13585114426E+03  0.00000000000E+00 0. -1.
        -15    1    3    3    0    0  0.60403330477E+00 -0.16461672564E+02  0.53936171865E+02  0.56423575607E+02  0.17770000000E+01 0.  1.
         15    1    3    3    0    0 -0.62987052433E+02  0.31157399075E+02 -0.46423860599E+02  0.84240636591E+02  0.17770000000E+01 0.  1.
</event>
<event>
 7    1  0.3091307E-006  0.1665847E+03  0.7546771E-02  0.1081880E+00
        -11   -1    0    0    0    0  0.00000000000E+00  0.00000000000E+00  0.18250000000E+03  0.18250000000E+03  0.00000000000E+00 0. -1.
         11   -1    0    0    0    0 -0.00000000000E+00 -0.00000000000E+00 -0.18250000000E+03  0.18250000000E+03  0.00000000000E+00 0.  1.
         25    2    1    2    0    0 -0.89358183282E+02  0.10881503592E+02  0.67121433470E+01  0.15422001218E+03  0.12504186199E+03 0.  0.
        -11    1    1    2    0    0  0.11181187662E+03 -0.33082076409E+02  0.64233412958E+02  0.13312494460E+03  0.00000000000E+00 0. -1.
         11    1    1    2    0    0 -0.22453693340E+02  0.22200572817E+02 -0.70945556305E+02  0.77655043220E+02  0.00000000000E+00 0.  1.
        -15    1    3    3    0    0 -0.89190658513E+02  0.55737137863E+02  0.20686757950E+02  0.10720401945E+03  0.17770000000E+01 0. -1.
         15    1    3    3    0    0 -0.16752476903E+00 -0.44855634271E+02 -0.13974614603E+02  0.47015992733E+02  0.17770000000E+01 0. -1.
</event>
<event>
 7    1  0.3091307E-006  0.1476977E+03  0.7546771E-02  0.1100121E+00
        -11   -1    0    0    0    0  0.00000000000E+00  0.00000000000E+00  0.18250000000E+03  0.18250000000E+03  0.00000000000E+00 0.  1.
         11   -1    0    0    0    0 -0.00000000000E+00 -0.00000000000E+00 -0.18250000000E+03  0.18250000000E+03  0.00000000000E+00 0. -1.
         25    2    1    2    0    0  0.14774870735E+02  0.22124656559E+02 -0.74700605227E+01  0.12796397189E+03  0.12494470403E+03 0.  0.
        -11    1    1    2    0    0  0.52902976773E+02  0.44455458643E+02  0.88456777583E+02  0.11224800335E+03  0.00000000000E+00 0.  1.
         11    1    1    2    0    0 -0.67677847508E+02 -0.66580115202E+02 -0.80986717060E+02  0.12478802476E+03  0.00000000000E+00 0. -1.
        -15    1    3    3    0    0  0.67376772489E+02  0.13646225727E+02  0.14540895675E+02  0.70288294357E+02  0.17770000000E+01 0. -1.
         15    1    3    3    0    0 -0.52601901754E+02  0.84784308328E+01 -0.22010956198E+02  0.57675677536E+02  0.17770000000E+01 0. -1.
</event>
<event>
 7    1  0.3091307E-006  0.1480726E+03  0.7546771E-02  0.1099731E+00
        -11   -1    0    0    0    0  0.00000000000E+00  0.00000000000E+00  0.18250000000E+03  0.18250000000E+03  0.00000000000E+00 0.  1.
         11   -1    0    0    0    0 -0.00000000000E+00 -0.00000000000E+00 -0.18250000000E+03  0.18250000000E+03  0.00000000000E+00 0.  1.
         25    2    1    2    0    0  0.20957733079E+02 -0.19085663538E+02  0.23356463758E+02  0.13029596643E+03  0.12501210078E+03 0.  0.
        -11    1    1    2    0    0 -0.24185115231E+02  0.54275048252E+02  0.94519591151E+02  0.11164521384E+03  0.00000000000E+00 0.  1.
         11    1    1    2    0    0  0.32273821525E+01 -0.35189384713E+02 -0.11787605491E+03  0.12305881973E+03  0.00000000000E+00 0.  1.
        -15    1    3    3    0    0  0.10319291615E+02 -0.26668898207E+02  0.73268864443E+02  0.78671482360E+02  0.17770000000E+01 0. -1.
         15    1    3    3    0    0  0.10638441463E+02  0.75832346686E+01 -0.49912400685E+02  0.51624484074E+02  0.17770000000E+01 0. -1.
</event>
<event>
 7    1  0.3091307E-006  0.1745463E+03  0.7546771E-02  0.1074968E+00
        -11   -1    0    0    0    0  0.00000000000E+00  0.00000000000E+00  0.18250000000E+03  0.18250000000E+03  0.00000000000E+00 0. -1.
         11   -1    0    0    0    0 -0.00000000000E+00 -0.00000000000E+00 -0.18250000000E+03  0.18250000000E+03  0.00000000000E+00 0.  1.
         25    2    1    2    0    0 -0.79145185050E+02 -0.14382985550E+02  0.52600911175E+02  0.15768795200E+03  0.12501121454E+03 0.  0.
        -11    1    1    2    0    0 -0.11631887783E+02  0.85908033861E+01  0.60481253199E+02  0.62185888308E+02  0.00000000000E+00 0. -1.
         11    1    1    2    0    0  0.90777072833E+02  0.57921821644E+01 -0.11308216437E+03  0.14512615969E+03  0.00000000000E+00 0.  1.
        -15    1    3    3    0    0 -0.88358211777E+02 -0.54597543374E+02  0.21729035384E+02  0.10612904427E+03  0.17770000000E+01 0. -1.
         15    1    3    3    0    0  0.92130267268E+01  0.40214557824E+02  0.30871875791E+02  0.51558907730E+02  0.17770000000E+01 0. -1.
</event>
<event>
 7    1  0.3091307E-006  0.1632589E+03  0.7546771E-02  0.1084894E+00
        -11   -1    0    0    0    0  0.00000000000E+00  0.00000000000E+00  0.18250000000E+03  0.18250000000E+03  0.00000000000E+00 0. -1.
         11   -1    0    0    0    0 -0.00000000000E+00 -0.00000000000E+00 -0.18250000000E+03  0.18250000000E+03  0.00000000000E+00 0. -1.
         25    2    1    2    0    0 -0.84673277651E+02 -0.25227796029E+02 -0.32414645804E+02  0.15646111122E+03  0.12499345751E+03 0.  0.
        -11    1    1    2    0    0  0.59685282303E+02  0.30329268142E+01  0.10937364358E+03  0.12463597185E+03  0.00000000000E+00 0. -1.
         11    1    1    2    0    0  0.24987995347E+02  0.22194869214E+02 -0.76958997776E+02  0.83902916932E+02  0.00000000000E+00 0. -1.
        -15    1    3    3    0    0 -0.92147129238E+02  0.23590581716E+02  0.37712561531E+01  0.95210236185E+02  0.17770000000E+01 0.  1.
         15    1    3    3    0    0  0.74738515872E+01 -0.48818377744E+02 -0.36185901957E+02  0.61250875035E+02  0.17770000000E+01 0.  1.
</event>
<event>
 7    1  0.3091307E-006  0.1457080E+03  0.7546771E-02  0.1102217E+00
        -11   -1    0    0    0    0  0.00000000000E+00  0.00000000000E+00  0.18250000000E+03  0.18250000000E+03  0.00000000000E+00 0.  1.
         11   -1    0    0    0    0 -0.00000000000E+00 -0.00000000000E+00 -0.18250000000E+03  0.18250000000E+03  0.00000000000E+00 0.  1.
         25    2    1    2    0    0 -0.28574150665E+02 -0.30611481424E+02  0.17507044919E+01  0.13184115137E+03  0.12500191737E+03 0.  0.
        -11    1    1    2    0    0  0.46829799630E+02 -0.14570473920E+02  0.10495717556E+03  0.11585049653E+03  0.00000000000E+00 0.  1.
         11    1    1    2    0    0 -0.18255648966E+02  0.45181955344E+02 -0.10670788005E+03  0.11730835210E+03  0.00000000000E+00 0.  1.
        -15    1    3    3    0    0 -0.53226153664E+02  0.28841866623E+02  0.21858616736E+02  0.64388147658E+02  0.17770000000E+01 0. -1.
         15    1    3    3    0    0  0.24652002999E+02 -0.59453348047E+02 -0.20107912244E+02  0.67453003711E+02  0.17770000000E+01 0. -1.
</event>
<event>
 7    1  0.3091307E-006  0.1839165E+03  0.7546771E-02  0.1067333E+00
        -11   -1    0    0    0    0  0.00000000000E+00  0.00000000000E+00  0.18250000000E+03  0.18250000000E+03  0.00000000000E+00 0. -1.
         11   -1    0    0    0    0 -0.00000000000E+00 -0.00000000000E+00 -0.18250000000E+03  0.18250000000E+03  0.00000000000E+00 0.  1.
         25    2    1    2    0    0  0.15795288577E+02 -0.30699205799E+02 -0.13005098371E+03  0.18365300804E+03  0.12499294628E+03 0.  0.
        -11    1    1    2    0    0 -0.23169881848E+02 -0.11546636505E+02  0.13565020931E+03  0.13809832557E+03  0.00000000000E+00 0. -1.
         11    1    1    2    0    0  0.73745932704E+01  0.42245842304E+02 -0.55992255975E+01  0.43248666398E+02  0.00000000000E+00 0.  1.
        -15    1    3    3    0    0  0.48754673363E+02 -0.15849810395E+00 -0.30010742839E+01  0.48879519967E+02  0.17770000000E+01 0.  1.
         15    1    3    3    0    0 -0.32959384785E+02 -0.30540707695E+02 -0.12704990943E+03  0.13477348807E+03  0.17770000000E+01 0.  1.
</event>
<event>
 7    1  0.3091307E-006  0.1811902E+03  0.7546771E-02  0.1069502E+00
        -11   -1    0    0    0    0  0.00000000000E+00  0.00000000000E+00  0.18250000000E+03  0.18250000000E+03  0.00000000000E+00 0.  1.
         11   -1    0    0    0    0 -0.00000000000E+00 -0.00000000000E+00 -0.18250000000E+03  0.18250000000E+03  0.00000000000E+00 0. -1.
         25    2    1    2    0    0 -0.61961234418E+02 -0.95754795272E+02 -0.55769995910E+01  0.16930255581E+03  0.12499630831E+03 0.  0.
        -11    1    1    2    0    0  0.94441874156E+02  0.10878881041E+03 -0.28493353796E+02  0.14685415920E+03  0.00000000000E+00 0. -1.
         11    1    1    2    0    0 -0.32480639738E+02 -0.13034015139E+02  0.34070353387E+02  0.48843284987E+02  0.00000000000E+00 0.  1.
        -15    1    3    3    0    0 -0.95537844397E+02 -0.44150110709E+02  0.10106435170E+02  0.10574502233E+03  0.17770000000E+01 0. -1.
         15    1    3    3    0    0  0.33576609980E+02 -0.51604684563E+02 -0.15683434761E+02  0.63557533475E+02  0.17770000000E+01 0. -1.
</event>
<event>
 7    1  0.3091307E-006  0.1578830E+03  0.7546771E-02  0.1089936E+00
        -11   -1    0    0    0    0  0.00000000000E+00  0.00000000000E+00  0.18250000000E+03  0.18250000000E+03  0.00000000000E+00 0. -1.
         11   -1    0    0    0    0 -0.00000000000E+00 -0.00000000000E+00 -0.18250000000E+03  0.18250000000E+03  0.00000000000E+00 0. -1.
         25    2    1    2    0    0  0.51527320900E+02 -0.65621129631E+01  0.32481858227E+02  0.13920691302E+03  0.12500146957E+03 0.  0.
        -11    1    1    2    0    0 -0.11127138952E+02  0.54363311029E+01  0.93073178413E+02  0.93893468660E+02  0.00000000000E+00 0. -1.
         11    1    1    2    0    0 -0.40400181948E+02  0.11257818603E+01 -0.12555503664E+03  0.13189961832E+03  0.00000000000E+00 0. -1.
        -15    1    3    3    0    0  0.33628890642E+02 -0.58847581623E+02  0.46437892006E+02  0.82180141711E+02  0.17770000000E+01 0. -1.
         15    1    3    3    0    0  0.17898430258E+02  0.52285468660E+02 -0.13956033779E+02  0.57026771314E+02  0.17770000000E+01 0. -1.
</event>
<event>
 7    1  0.3091307E-006  0.1759199E+03  0.7546771E-02  0.1073817E+00
        -11   -1    0    0    0    0  0.00000000000E+00  0.00000000000E+00  0.18250000000E+03  0.18250000000E+03  0.00000000000E+00 0.  1.
         11   -1    0    0    0    0 -0.00000000000E+00 -0.00000000000E+00 -0.18250000000E+03  0.18250000000E+03  0.00000000000E+00 0. -1.
         25    2    1    2    0    0  0.33447241877E+02 -0.70660107662E+02 -0.10155690008E+03  0.17902668150E+03  0.12500071973E+03 0.  0.
        -11    1    1    2    0    0 -0.20160948976E+02  0.17115412789E+02  0.12372330818E+03  0.12651821294E+03  0.00000000000E+00 0.  1.
         11    1    1    2    0    0 -0.13286292902E+02  0.53544694873E+02 -0.22166408109E+02  0.59455105555E+02  0.00000000000E+00 0. -1.
        -15    1    3    3    0    0  0.76908080981E+02 -0.42549900316E+02 -0.90302821110E+02  0.12602818798E+03  0.17770000000E+01 0. -1.
         15    1    3    3    0    0 -0.43460839104E+02 -0.28110207346E+02 -0.11254078966E+02  0.52998493517E+02  0.17770000000E+01 0. -1.
</event>
<event>
 7    1  0.3091307E-006  0.1540358E+03  0.7546771E-02  0.1093681E+00
        -11   -1    0    0    0    0  0.00000000000E+00  0.00000000000E+00  0.18250000000E+03  0.18250000000E+03  0.00000000000E+00 0. -1.
         11   -1    0    0    0    0 -0.00000000000E+00 -0.00000000000E+00 -0.18250000000E+03  0.18250000000E+03  0.00000000000E+00 0. -1.
         25    2    1    2    0    0  0.87939047575E+01 -0.72319275572E+01 -0.35264286901E+02  0.13037410304E+03  0.12499681307E+03 0.  0.
        -11    1    1    2    0    0 -0.49160681501E+02 -0.25812611319E+02  0.12164305824E+03  0.13371648039E+03  0.00000000000E+00 0. -1.
         11    1    1    2    0    0  0.40366776743E+02  0.33044538876E+02 -0.86378771340E+02  0.10090941657E+03  0.00000000000E+00 0. -1.
        -15    1    3    3    0    0  0.27400796371E+02 -0.61897401074E+02 -0.20378472024E+02  0.70714438077E+02  0.17770000000E+01 0.  1.
         15    1    3    3    0    0 -0.18606891613E+02  0.54665473517E+02 -0.14885814877E+02  0.59659664966E+02  0.17770000000E+01 0.  1.
</event>
<event>
 7    1  0.3091307E-006  0.1572037E+03  0.7546771E-02  0.1090589E+00
        -11   -1    0    0    0    0  0.00000000000E+00  0.00000000000E+00  0.18250000000E+03  0.18250000000E+03  0.00000000000E+00 0. -1.
         11   -1    0    0    0    0 -0.00000000000E+00 -0.00000000000E+00 -0.18250000000E+03  0.18250000000E+03  0.00000000000E+00 0.  1.
         25    2    1    2    0    0 -0.56965208923E+02 -0.23323849395E+02 -0.19957801042E+02  0.14074248243E+03  0.12498438126E+03 0.  0.
        -11    1    1    2    0    0  0.70629884348E+02 -0.11245479855E+02  0.10751874579E+03  0.12913296278E+03  0.00000000000E+00 0. -1.
         11    1    1    2    0    0 -0.13664675425E+02  0.34569329250E+02 -0.87560944749E+02  0.95124554793E+02  0.00000000000E+00 0.  1.
        -15    1    3    3    0    0 -0.61948063911E+02 -0.63224102329E+02  0.12008791776E+02  0.89343262457E+02  0.17770000000E+01 0. -1.
         15    1    3    3    0    0  0.49828549880E+01  0.39900252934E+02 -0.31966592818E+02  0.51399219969E+02  0.17770000000E+01 0. -1.
</event>
<event>
 7    1  0.3091307E-006  0.1655602E+03  0.7546771E-02  0.1082800E+00
        -11   -1    0    0    0    0  0.00000000000E+00  0.00000000000E+00  0.18250000000E+03  0.18250000000E+03  0.00000000000E+00 0. -1.
         11   -1    0    0    0    0 -0.00000000000E+00 -0.00000000000E+00 -0.18250000000E+03  0.18250000000E+03  0.00000000000E+00 0. -1.
         25    2    1    2    0    0 -0.36929647169E+02 -0.88666575462E+02  0.14321925041E+02  0.15829365948E+03  0.12500481851E+03 0.  0.
        -11    1    1    2    0    0  0.39291586243E+02 -0.75182091624E+01  0.68783050945E+02  0.79570473894E+02  0.00000000000E+00 0. -1.
         11    1    1    2    0    0 -0.23619390739E+01  0.96184784624E+02 -0.83104975985E+02  0.12713586663E+03  0.00000000000E+00 0. -1.
        -15    1    3    3    0    0 -0.62405893024E+02 -0.10842947379E+03  0.78861290162E+01  0.12536664242E+03  0.17770000000E+01 0.  1.
         15    1    3    3    0    0  0.25476245854E+02  0.19762898329E+02  0.64357960246E+01  0.32927017063E+02  0.17770000000E+01 0.  1.
</event>
<event>
 7    1  0.3091307E-006  0.1470049E+03  0.7546771E-02  0.1100847E+00
        -11   -1    0    0    0    0  0.00000000000E+00  0.00000000000E+00  0.18250000000E+03  0.18250000000E+03  0.00000000000E+00 0. -1.
         11   -1    0    0    0    0 -0.00000000000E+00 -0.00000000000E+00 -0.18250000000E+03  0.18250000000E+03  0.00000000000E+00 0. -1.
         25    2    1    2    0    0 -0.75075734344E+01  0.37680295805E+01 -0.16562905536E+02  0.12637553089E+03  0.12500353300E+03 0.  0.
        -11    1    1    2    0    0 -0.24371747981E+02  0.43865075931E+02  0.11457567213E+03  0.12508281909E+03  0.00000000000E+00 0. -1.
         11    1    1    2    0    0  0.31879321415E+02 -0.47633105512E+02 -0.98012766596E+02  0.11354165002E+03  0.00000000000E+00 0. -1.
        -15    1    3    3    0    0  0.53336476722E+02  0.26883000027E+02 -0.13090753087E+02  0.61171897019E+02  0.17770000000E+01 0. -1.
         15    1    3    3    0    0 -0.60844050156E+02 -0.23114970447E+02 -0.34721524488E+01  0.65203633870E+02  0.17770000000E+01 0. -1.
</event>
<event>
 7    1  0.3091307E-006  0.1767931E+03  0.7546771E-02  0.1073090E+00
        -11   -1    0    0    0    0  0.00000000000E+00  0.00000000000E+00  0.18250000000E+03  0.18250000000E+03  0.00000000000E+00 0.  1.
         11   -1    0    0    0    0 -0.00000000000E+00 -0.00000000000E+00 -0.18250000000E+03  0.18250000000E+03  0.00000000000E+00 0.  1.
         25    2    1    2    0    0 -0.12723592706E+02 -0.68881039176E+02 -0.93590882569E+02  0.17114487474E+03  0.12499930992E+03 0.  0.
        -11    1    1    2    0    0  0.36405501449E+02  0.29000414159E+02  0.12793708255E+03  0.13614066861E+03  0.00000000000E+00 0.  1.
         11    1    1    2    0    0 -0.23681908743E+02  0.39880625018E+02 -0.34346199984E+02  0.57714456654E+02  0.00000000000E+00 0.  1.
        -15    1    3    3    0    0 -0.62130320331E+02 -0.24572217939E+02 -0.15430090446E+02  0.68594577184E+02  0.17770000000E+01 0.  1.
         15    1    3    3    0    0  0.49406727625E+02 -0.44308821237E+02 -0.78160792123E+02  0.10255029755E+03  0.17770000000E+01 0.  1.
</event>
<event>
 7    1  0.3091307E-006  0.1714710E+03  0.7546771E-02  0.1077589E+00
        -11   -1    0    0    0    0  0.00000000000E+00  0.00000000000E+00  0.18250000000E+03  0.18250000000E+03  0.00000000000E+00 0.  1.
         11   -1    0    0    0    0 -0.00000000000E+00 -0.00000000000E+00 -0.18250000000E+03  0.18250000000E+03  0.00000000000E+00 0.  1.
         25    2    1    2    0    0  0.10666214715E+03  0.75219139782E+01 -0.61027710489E+01  0.16460731046E+03  0.12499972007E+03 0.  0.
        -11    1    1    2    0    0 -0.10741388740E+03 -0.36495885282E+02  0.67846304494E+02  0.13218477175E+03  0.00000000000E+00 0.  1.
         11    1    1    2    0    0  0.75174024695E+00  0.28973971304E+02 -0.61743533445E+02  0.68207917787E+02  0.00000000000E+00 0.  1.
        -15    1    3    3    0    0  0.82079008811E+02 -0.35219525609E+02  0.39263741829E+02  0.97581646958E+02  0.17770000000E+01 0.  1.
         15    1    3    3    0    0  0.24583138342E+02  0.42741439587E+02 -0.45366512878E+02  0.67025663506E+02  0.17770000000E+01 0.  1.
</event>
<event>
 7    1  0.3091307E-006  0.1947104E+03  0.7546771E-02  0.1059130E+00
        -11   -1    0    0    0    0  0.00000000000E+00  0.00000000000E+00  0.18250000000E+03  0.18250000000E+03  0.00000000000E+00 0.  1.
         11   -1    0    0    0    0 -0.00000000000E+00 -0.00000000000E+00 -0.18250000000E+03  0.18250000000E+03  0.00000000000E+00 0. -1.
         25    2    1    2    0    0  0.21144477831E+02 -0.23063462267E+02  0.13574393535E+03  0.18717270486E+03  0.12501277226E+03 0.  0.
        -11    1    1    2    0    0  0.12273261883E+02 -0.50751781499E+01  0.15493335400E+02  0.20406710472E+02  0.00000000000E+00 0.  1.
         11    1    1    2    0    0 -0.33417739713E+02  0.28138640416E+02 -0.15123727075E+03  0.15742058466E+03  0.00000000000E+00 0. -1.
        -15    1    3    3    0    0  0.44463910079E+02  0.40132259339E+02  0.49490499521E+02  0.77718111216E+02  0.17770000000E+01 0.  1.
         15    1    3    3    0    0 -0.23319432249E+02 -0.63195721605E+02  0.86253435828E+02  0.10945459365E+03  0.17770000000E+01 0.  1.
</event>
<event>
 7    1  0.3091307E-006  0.1761859E+03  0.7546771E-02  0.1073595E+00
        -11   -1    0    0    0    0  0.00000000000E+00  0.00000000000E+00  0.18250000000E+03  0.18250000000E+03  0.00000000000E+00 0.  1.
         11   -1    0    0    0    0 -0.00000000000E+00 -0.00000000000E+00 -0.18250000000E+03  0.18250000000E+03  0.00000000000E+00 0. -1.
         25    2    1    2    0    0 -0.45295188952E+02 -0.18421719451E+02  0.84084535575E+02  0.15838587033E+03  0.12499944363E+03 0.  0.
        -11    1    1    2    0    0 -0.27284315642E+02  0.27828927172E+02  0.44195724823E+02  0.58924911203E+02  0.00000000000E+00 0.  1.
         11    1    1    2    0    0  0.72579504593E+02 -0.94072077216E+01 -0.12828026040E+03  0.14768921847E+03  0.00000000000E+00 0. -1.
        -15    1    3    3    0    0 -0.76987104551E+02  0.23435579114E+02  0.40402123559E+02  0.90065142828E+02  0.17770000000E+01 0.  1.
         15    1    3    3    0    0  0.31691915600E+02 -0.41857298565E+02  0.43682412016E+02  0.68320727500E+02  0.17770000000E+01 0.  1.
</event>
<event>
 7    1  0.3091307E-006  0.1738938E+03  0.7546771E-02  0.1075519E+00
        -11   -1    0    0    0    0  0.00000000000E+00  0.00000000000E+00  0.18250000000E+03  0.18250000000E+03  0.00000000000E+00 0.  1.
         11   -1    0    0    0    0 -0.00000000000E+00 -0.00000000000E+00 -0.18250000000E+03  0.18250000000E+03  0.00000000000E+00 0. -1.
         25    2    1    2    0    0 -0.93692752648E+02  0.10987216854E+02 -0.42176129834E+02  0.16218349675E+03  0.12500243941E+03 0.  0.
        -11    1    1    2    0    0  0.93354098415E+02  0.61836765227E+01  0.10327375179E+03  0.13935097185E+03  0.00000000000E+00 0.  1.
         11    1    1    2    0    0  0.33865423356E+00 -0.17170893377E+02 -0.61097621960E+02  0.63465531395E+02  0.00000000000E+00 0. -1.
        -15    1    3    3    0    0 -0.68286492886E+02 -0.53523848585E+02 -0.29638039462E+02  0.91702882126E+02  0.17770000000E+01 0. -1.
         15    1    3    3    0    0 -0.25406259762E+02  0.64511065439E+02 -0.12538090372E+02  0.70480614628E+02  0.17770000000E+01 0. -1.
</event>
<event>
 7    1  0.3091307E-006  0.1920366E+03  0.7546771E-02  0.1061107E+00
        -11   -1    0    0    0    0  0.00000000000E+00  0.00000000000E+00  0.18250000000E+03  0.18250000000E+03  0.00000000000E+00 0.  1.
         11   -1    0    0    0    0 -0.00000000000E+00 -0.00000000000E+00 -0.18250000000E+03  0.18250000000E+03  0.00000000000E+00 0. -1.
         25    2    1    2    0    0 -0.27048122512E+02 -0.51591812032E+02  0.12201474817E+03  0.18413599987E+03  0.12500060671E+03 0.  0.
        -11    1    1    2    0    0  0.53861677417E+01  0.71843070979E+01  0.24578878537E+02  0.26167658313E+02  0.00000000000E+00 0.  1.
         11    1    1    2    0    0  0.21661954770E+02  0.44407504934E+02 -0.14659362671E+03  0.15469634181E+03  0.00000000000E+00 0. -1.
        -15    1    3    3    0    0 -0.73973966226E+02 -0.44220971059E+02  0.56025379832E+02  0.10280876847E+03  0.17770000000E+01 0.  1.
         15    1    3    3    0    0  0.46925843713E+02 -0.73708409735E+01  0.65989368338E+02  0.81327231402E+02  0.17770000000E+01 0.  1.
</event>
<event>
 7    1  0.3091307E-006  0.1544230E+03  0.7546771E-02  0.1093299E+00
        -11   -1    0    0    0    0  0.00000000000E+00  0.00000000000E+00  0.18250000000E+03  0.18250000000E+03  0.00000000000E+00 0. -1.
         11   -1    0    0    0    0 -0.00000000000E+00 -0.00000000000E+00 -0.18250000000E+03  0.18250000000E+03  0.00000000000E+00 0.  1.
         25    2    1    2    0    0 -0.22611710643E+02  0.84946863131E+02  0.32627252560E+02  0.15626062948E+03  0.12500235078E+03 0.  0.
        -11    1    1    2    0    0 -0.73637074223E+01 -0.88101539514E+02  0.62944748183E+02  0.10852717068E+03  0.00000000000E+00 0. -1.
         11    1    1    2    0    0  0.29975418065E+02  0.31546763831E+01 -0.95572000743E+02  0.10021219984E+03  0.00000000000E+00 0.  1.
        -15    1    3    3    0    0 -0.61317780267E+02  0.90256980187E+02  0.40434462835E+02  0.11637996461E+03  0.17770000000E+01 0. -1.
         15    1    3    3    0    0  0.38706069625E+02 -0.53101170563E+01 -0.78072102750E+01  0.39880664867E+02  0.17770000000E+01 0. -1.
</event>
<event>
 7    1  0.3091307E-006  0.1565742E+03  0.7546771E-02  0.1091197E+00
        -11   -1    0    0    0    0  0.00000000000E+00  0.00000000000E+00  0.18250000000E+03  0.18250000000E+03  0.00000000000E+00 0.  1.
         11   -1    0    0    0    0 -0.00000000000E+00 -0.00000000000E+00 -0.18250000000E+03  0.18250000000E+03  0.00000000000E+00 0.  1.
         25    2    1    2    0    0  0.12148386416E+02 -0.47179814797E+02 -0.19604051730E+02  0.13557988120E+03  0.12499626845E+03 0.  0.
        -11    1    1    2    0    0  0.21801999105E+02  0.81693089911E+02  0.10283569539E+03  0.13313252176E+03  0.00000000000E+00 0.  1.
         11    1    1    2    0    0 -0.33950385521E+02 -0.34513275115E+02 -0.83231643660E+02  0.96287597034E+02  0.00000000000E+00 0.  1.
        -15    1    3    3    0    0 -0.14010690837E+02  0.39643158101E+02 -0.15312262073E+02  0.44782837569E+02  0.17770000000E+01 0. -1.
         15    1    3    3    0    0  0.26159077252E+02 -0.86822972897E+02 -0.42917896575E+01  0.90797043635E+02  0.17770000000E+01 0. -1.
</event>
<event>
 7    1  0.3091307E-006  0.1798783E+03  0.7546771E-02  0.1070561E+00
        -11   -1    0    0    0    0  0.00000000000E+00  0.00000000000E+00  0.18250000000E+03  0.18250000000E+03  0.00000000000E+00 0. -1.
         11   -1    0    0    0    0 -0.00000000000E+00 -0.00000000000E+00 -0.18250000000E+03  0.18250000000E+03  0.00000000000E+00 0.  1.
         25    2    1    2    0    0  0.68607966792E+02  0.31706432937E+02  0.81827629911E+02  0.16743145259E+03  0.12500071721E+03 0.  0.
        -11    1    1    2    0    0 -0.16643800258E+02  0.16794394599E+02  0.45764967279E+02  0.51512134561E+02  0.00000000000E+00 0. -1.
         11    1    1    2    0    0 -0.51964166534E+02 -0.48500827536E+02 -0.12759259719E+03  0.14605641284E+03  0.00000000000E+00 0.  1.
        -15    1    3    3    0    0  0.54721221557E+02  0.73476991149E+02  0.23978286921E+02  0.94717455042E+02  0.17770000000E+01 0. -1.
         15    1    3    3    0    0  0.13886745234E+02 -0.41770558212E+02  0.57849342991E+02  0.72713997552E+02  0.17770000000E+01 0. -1.
</event>
<event>
 7    1  0.3091307E-006  0.1850569E+03  0.7546771E-02  0.1066438E+00
        -11   -1    0    0    0    0  0.00000000000E+00  0.00000000000E+00  0.18250000000E+03  0.18250000000E+03  0.00000000000E+00 0. -1.
         11   -1    0    0    0    0 -0.00000000000E+00 -0.00000000000E+00 -0.18250000000E+03  0.18250000000E+03  0.00000000000E+00 0.  1.
         25    2    1    2    0    0  0.64735646284E+02  0.81231079860E+02 -0.91462602135E+02  0.18648942412E+03  0.12499482183E+03 0.  0.
        -11    1    1    2    0    0 -0.26553305607E+02 -0.83833110237E+02  0.10586054261E+03  0.13762093915E+03  0.00000000000E+00 0. -1.
         11    1    1    2    0    0 -0.38182340678E+02  0.26020303767E+01 -0.14397940478E+02  0.40889636727E+02  0.00000000000E+00 0.  1.
        -15    1    3    3    0    0 -0.88444619281E+01  0.27522310368E+02  0.25249170493E+02  0.38423696001E+02  0.17770000000E+01 0.  1.
         15    1    3    3    0    0  0.73580108212E+02  0.53708769492E+02 -0.11671177263E+03  0.14806572812E+03  0.17770000000E+01 0.  1.
</event>
<event>
 7    1  0.3091307E-006  0.1543440E+03  0.7546771E-02  0.1093377E+00
        -11   -1    0    0    0    0  0.00000000000E+00  0.00000000000E+00  0.18250000000E+03  0.18250000000E+03  0.00000000000E+00 0.  1.
         11   -1    0    0    0    0 -0.00000000000E+00 -0.00000000000E+00 -0.18250000000E+03  0.18250000000E+03  0.00000000000E+00 0.  1.
         25    2    1    2    0    0  0.25581952429E+01 -0.76021167249E+02 -0.11401362891E+02  0.14676998516E+03  0.12500270091E+03 0.  0.
        -11    1    1    2    0    0  0.24145985896E+02 -0.32050447110E-01  0.97407778990E+02  0.10035589205E+03  0.00000000000E+00 0.  1.
         11    1    1    2    0    0 -0.26704181139E+02  0.76053217696E+02 -0.86006416099E+02  0.11787412279E+03  0.00000000000E+00 0.  1.
        -15    1    3    3    0    0  0.33013004668E+02 -0.37784320046E+01 -0.49452740955E+02  0.59605925398E+02  0.17770000000E+01 0. -1.
         15    1    3    3    0    0 -0.30454809425E+02 -0.72242735245E+02  0.38051378064E+02  0.87164059763E+02  0.17770000000E+01 0. -1.
</event>
<event>
 7    1  0.3091307E-006  0.1546553E+03  0.7546771E-02  0.1093070E+00
        -11   -1    0    0    0    0  0.00000000000E+00  0.00000000000E+00  0.18250000000E+03  0.18250000000E+03  0.00000000000E+00 0.  1.
         11   -1    0    0    0    0 -0.00000000000E+00 -0.00000000000E+00 -0.18250000000E+03  0.18250000000E+03  0.00000000000E+00 0.  1.
         25    2    1    2    0    0  0.43958546214E+02 -0.92232205051E+01  0.20889597451E+02  0.13446127428E+03  0.12500414960E+03 0.  0.
        -11    1    1    2    0    0  0.11800404062E+02  0.21491335426E+02  0.96733245406E+02  0.99792022734E+02  0.00000000000E+00 0.  1.
         11    1    1    2    0    0 -0.55758950276E+02 -0.12268114920E+02 -0.11762284286E+03  0.13074670298E+03  0.00000000000E+00 0.  1.
        -15    1    3    3    0    0  0.75554796783E+02 -0.41840816010E+02  0.58169719685E+01  0.86580460228E+02  0.17770000000E+01 0. -1.
         15    1    3    3    0    0 -0.31596250570E+02  0.32617595505E+02  0.15072625482E+02  0.47880814054E+02  0.17770000000E+01 0. -1.
</event>
<event>
 7    1  0.3091307E-006  0.1542697E+03  0.7546771E-02  0.1093450E+00
        -11   -1    0    0    0    0  0.00000000000E+00  0.00000000000E+00  0.18250000000E+03  0.18250000000E+03  0.00000000000E+00 0.  1.
         11   -1    0    0    0    0 -0.00000000000E+00 -0.00000000000E+00 -0.18250000000E+03  0.18250000000E+03  0.00000000000E+00 0. -1.
         25    2    1    2    0    0  0.34657634796E+02 -0.33593295781E+01  0.35245963261E+02  0.13446030868E+03  0.12499943976E+03 0.  0.
        -11    1    1    2    0    0 -0.27502521122E+02  0.30255591934E+02  0.91793124113E+02  0.10048764673E+03  0.00000000000E+00 0.  1.
         11    1    1    2    0    0 -0.71551136737E+01 -0.26896262356E+02 -0.12703908737E+03  0.13005204459E+03  0.00000000000E+00 0. -1.
        -15    1    3    3    0    0  0.61353438327E+02  0.33273683574E+02 -0.98341077463E+01  0.70507090546E+02  0.17770000000E+01 0.  1.
         15    1    3    3    0    0 -0.26695803531E+02 -0.36633013152E+02  0.45080071007E+02  0.63953218135E+02  0.17770000000E+01 0.  1.
</event>
<event>
 7    1  0.3091307E-006  0.1572103E+03  0.7546771E-02  0.1090582E+00
        -11   -1    0    0    0    0  0.00000000000E+00  0.00000000000E+00  0.18250000000E+03  0.18250000000E+03  0.00000000000E+00 0.  1.
         11   -1    0    0    0    0 -0.00000000000E+00 -0.00000000000E+00 -0.18250000000E+03  0.18250000000E+03  0.00000000000E+00 0. -1.
         25    2    1    2    0    0  0.46800034776E+02 -0.17854679865E+02  0.37115699457E+02  0.13968253434E+03  0.12499840962E+03 0.  0.
        -11    1    1    2    0    0 -0.17717111202E+02  0.27082815313E+02  0.89450698087E+02  0.95125192787E+02  0.00000000000E+00 0.  1.
         11    1    1    2    0    0 -0.29082923574E+02 -0.92281354473E+01 -0.12656639754E+03  0.13019227287E+03  0.00000000000E+00 0. -1.
        -15    1    3    3    0    0  0.42101908585E+02 -0.11122962776E+02  0.82619524528E+02  0.93410034630E+02  0.17770000000E+01 0.  1.
         15    1    3    3    0    0  0.46981261909E+01 -0.67317170892E+01 -0.45503825071E+02  0.46272499714E+02  0.17770000000E+01 0.  1.
</event>
<event>
 7    1  0.3091307E-006  0.1804543E+03  0.7546771E-02  0.1070095E+00
        -11   -1    0    0    0    0  0.00000000000E+00  0.00000000000E+00  0.18250000000E+03  0.18250000000E+03  0.00000000000E+00 0. -1.
         11   -1    0    0    0    0 -0.00000000000E+00 -0.00000000000E+00 -0.18250000000E+03  0.18250000000E+03  0.00000000000E+00 0.  1.
         25    2    1    2    0    0  0.16597970032E+02  0.72390156808E+02 -0.10281596177E+03  0.17808580027E+03  0.12501041097E+03 0.  0.
        -11    1    1    2    0    0  0.31992850245E+02 -0.66760973646E+02  0.11475510048E+03  0.13656245148E+03  0.00000000000E+00 0. -1.
         11    1    1    2    0    0 -0.48590820278E+02 -0.56291831621E+01 -0.11939138713E+02  0.50351748247E+02  0.00000000000E+00 0.  1.
        -15    1    3    3    0    0  0.58487445671E+02  0.62431996098E+02 -0.10437258880E+03  0.13496418213E+03  0.17770000000E+01 0.  1.
         15    1    3    3    0    0 -0.41889475638E+02  0.99581607102E+01  0.15566270290E+01  0.43121618136E+02  0.17770000000E+01 0.  1.
</event>
<event>
 7    1  0.3091307E-006  0.1513705E+03  0.7546771E-02  0.1096347E+00
        -11   -1    0    0    0    0  0.00000000000E+00  0.00000000000E+00  0.18250000000E+03  0.18250000000E+03  0.00000000000E+00 0.  1.
         11   -1    0    0    0    0 -0.00000000000E+00 -0.00000000000E+00 -0.18250000000E+03  0.18250000000E+03  0.00000000000E+00 0.  1.
         25    2    1    2    0    0 -0.93503567958E+01 -0.77816719057E+02  0.14921267222E+02  0.14829177407E+03  0.12499974041E+03 0.  0.
        -11    1    1    2    0    0  0.54263461912E+02  0.56744698680E+02  0.78440574180E+02  0.11098381776E+03  0.00000000000E+00 0.  1.
         11    1    1    2    0    0 -0.44913105116E+02  0.21072020376E+02 -0.93361841401E+02  0.10572440817E+03  0.00000000000E+00 0.  1.
        -15    1    3    3    0    0 -0.59043556989E+02 -0.22382495038E+02 -0.19699635805E+02  0.66169109756E+02  0.17770000000E+01 0.  1.
         15    1    3    3    0    0  0.49693200193E+02 -0.55434224018E+02  0.34620903027E+02  0.82122664310E+02  0.17770000000E+01 0.  1.
</event>
<event>
 7    1  0.3091307E-006  0.1800725E+03  0.7546771E-02  0.1070404E+00
        -11   -1    0    0    0    0  0.00000000000E+00  0.00000000000E+00  0.18250000000E+03  0.18250000000E+03  0.00000000000E+00 0.  1.
         11   -1    0    0    0    0 -0.00000000000E+00 -0.00000000000E+00 -0.18250000000E+03  0.18250000000E+03  0.00000000000E+00 0. -1.
         25    2    1    2    0    0  0.46652172418E+02  0.90527594576E+02  0.74820055112E+02  0.17774332380E+03  0.12499191149E+03 0.  0.
        -11    1    1    2    0    0 -0.35219925920E+02 -0.11268334411E+02  0.35283745390E+02  0.51111263249E+02  0.00000000000E+00 0.  1.
         11    1    1    2    0    0 -0.11432246498E+02 -0.79259260165E+02 -0.11010380050E+03  0.13614541295E+03  0.00000000000E+00 0. -1.
        -15    1    3    3    0    0  0.85238640546E+02  0.56127324819E+02  0.23219941520E+02  0.10468154492E+03  0.17770000000E+01 0.  1.
         15    1    3    3    0    0 -0.38586468128E+02  0.34400269757E+02  0.51600113592E+02  0.73061778884E+02  0.17770000000E+01 0.  1.
</event>
<event>
 7    1  0.3091307E-006  0.1456788E+03  0.7546771E-02  0.1102248E+00
        -11   -1    0    0    0    0  0.00000000000E+00  0.00000000000E+00  0.18250000000E+03  0.18250000000E+03  0.00000000000E+00 0. -1.
         11   -1    0    0    0    0 -0.00000000000E+00 -0.00000000000E+00 -0.18250000000E+03  0.18250000000E+03  0.00000000000E+00 0. -1.
         25    2    1    2    0    0  0.15632077297E+02 -0.37015000129E+01 -0.54795025985E+01  0.12614884077E+03  0.12500176853E+03 0.  0.
        -11    1    1    2    0    0 -0.33382273979E+02 -0.39721913379E+02  0.11146390446E+03  0.12294880486E+03  0.00000000000E+00 0. -1.
         11    1    1    2    0    0  0.17750196682E+02  0.43423413392E+02 -0.10598440186E+03  0.11590235438E+03  0.00000000000E+00 0. -1.
        -15    1    3    3    0    0 -0.46260776788E+01 -0.18579627393E+02 -0.61653378995E+02  0.64582505520E+02  0.17770000000E+01 0. -1.
         15    1    3    3    0    0  0.20258154975E+02  0.14878127381E+02  0.56173876397E+02  0.61566335247E+02  0.17770000000E+01 0. -1.
</event>
<event>
 7    1  0.3091307E-006  0.1649791E+03  0.7546771E-02  0.1083325E+00
        -11   -1    0    0    0    0  0.00000000000E+00  0.00000000000E+00  0.18250000000E+03  0.18250000000E+03  0.00000000000E+00 0.  1.
         11   -1    0    0    0    0 -0.00000000000E+00 -0.00000000000E+00 -0.18250000000E+03  0.18250000000E+03  0.00000000000E+00 0.  1.
         25    2    1    2    0    0 -0.44522667604E+00  0.73803380405E+02 -0.19433887176E+02  0.14645683736E+03  0.12499916821E+03 0.  0.
        -11    1    1    2    0    0 -0.77474938201E+01 -0.99037178212E+02  0.95612284073E+02  0.13787710178E+03  0.00000000000E+00 0.  1.
         11    1    1    2    0    0  0.81927204961E+01  0.25233797808E+02 -0.76178396897E+02  0.80666060860E+02  0.00000000000E+00 0.  1.
        -15    1    3    3    0    0  0.51477199791E+02  0.55642116577E+02  0.20398749474E+02  0.78518876358E+02  0.17770000000E+01 0. -1.
         15    1    3    3    0    0 -0.51922426467E+02  0.18161263828E+02 -0.39832636650E+02  0.67937961005E+02  0.17770000000E+01 0. -1.
</event>
<event>
 7    1  0.3091307E-006  0.1596090E+03  0.7546771E-02  0.1088293E+00
        -11   -1    0    0    0    0  0.00000000000E+00  0.00000000000E+00  0.18250000000E+03  0.18250000000E+03  0.00000000000E+00 0. -1.
         11   -1    0    0    0    0 -0.00000000000E+00 -0.00000000000E+00 -0.18250000000E+03  0.18250000000E+03  0.00000000000E+00 0. -1.
         25    2    1    2    0    0  0.62712785443E+02 -0.16501619106E+02 -0.69394134600E+02  0.15699094649E+03  0.12500165788E+03 0.  0.
        -11    1    1    2    0    0  0.36907742046E+01  0.74608339865E+02  0.90436042271E+02  0.11729750182E+03  0.00000000000E+00 0. -1.
         11    1    1    2    0    0 -0.66403559648E+02 -0.58106720759E+02 -0.21041907671E+02  0.90711551689E+02  0.00000000000E+00 0. -1.
        -15    1    3    3    0    0  0.58617742749E+02 -0.67515959237E+02 -0.47948153381E+02  0.10147229996E+03  0.17770000000E+01 0. -1.
         15    1    3    3    0    0  0.40950426941E+01  0.51014340131E+02 -0.21445981220E+02  0.55518646536E+02  0.17770000000E+01 0. -1.
</event>
<event>
 7    1  0.3091307E-006  0.1632410E+03  0.7546771E-02  0.1084910E+00
        -11   -1    0    0    0    0  0.00000000000E+00  0.00000000000E+00  0.18250000000E+03  0.18250000000E+03  0.00000000000E+00 0. -1.
         11   -1    0    0    0    0 -0.00000000000E+00 -0.00000000000E+00 -0.18250000000E+03  0.18250000000E+03  0.00000000000E+00 0.  1.
         25    2    1    2    0    0  0.86010541478E+02  0.28605057812E+01  0.31839122627E+02  0.15506125134E+03  0.12499706476E+03 0.  0.
        -11    1    1    2    0    0 -0.26680626597E+02  0.21721134351E+02  0.76565059077E+02  0.83939691353E+02  0.00000000000E+00 0. -1.
         11    1    1    2    0    0 -0.59329914880E+02 -0.24581640132E+02 -0.10840418170E+03  0.12599905731E+03  0.00000000000E+00 0.  1.
        -15    1    3    3    0    0  0.47492705928E+02  0.62144878069E+02  0.31503855513E+02  0.84339751172E+02  0.17770000000E+01 0.  1.
         15    1    3    3    0    0  0.38517835549E+02 -0.59284372288E+02  0.33526711397E+00  0.70721500168E+02  0.17770000000E+01 0.  1.
</event>
<event>
 7    1  0.3091307E-006  0.1595295E+03  0.7546771E-02  0.1088368E+00
        -11   -1    0    0    0    0  0.00000000000E+00  0.00000000000E+00  0.18250000000E+03  0.18250000000E+03  0.00000000000E+00 0.  1.
         11   -1    0    0    0    0 -0.00000000000E+00 -0.00000000000E+00 -0.18250000000E+03  0.18250000000E+03  0.00000000000E+00 0. -1.
         25    2    1    2    0    0 -0.25989724846E+02  0.34174755704E+02 -0.38462813811E+02  0.13765300708E+03  0.12500233033E+03 0.  0.
        -11    1    1    2    0    0  0.73786062457E+01 -0.53883066934E+02  0.12518422185E+03  0.13648779481E+03  0.00000000000E+00 0.  1.
         11    1    1    2    0    0  0.18611118600E+02  0.19708311230E+02 -0.86721408042E+02  0.90859198103E+02  0.00000000000E+00 0. -1.
        -15    1    3    3    0    0 -0.51950274034E+01  0.67633090369E+02  0.16666017933E+02  0.69872291398E+02  0.17770000000E+01 0. -1.
         15    1    3    3    0    0 -0.20794697443E+02 -0.33458334665E+02 -0.55128831744E+02  0.67780715684E+02  0.17770000000E+01 0. -1.
</event>
<event>
 7    1  0.3091307E-006  0.1632225E+03  0.7546771E-02  0.1084927E+00
        -11   -1    0    0    0    0  0.00000000000E+00  0.00000000000E+00  0.18250000000E+03  0.18250000000E+03  0.00000000000E+00 0. -1.
         11   -1    0    0    0    0 -0.00000000000E+00 -0.00000000000E+00 -0.18250000000E+03  0.18250000000E+03  0.00000000000E+00 0. -1.
         25    2    1    2    0    0 -0.28902177343E+02  0.28180833367E+02 -0.44735617092E+02  0.13874698142E+03  0.12497981514E+03 0.  0.
        -11    1    1    2    0    0  0.43498985558E+02 -0.67517931949E+02  0.11745910789E+03  0.14229362215E+03  0.00000000000E+00 0. -1.
         11    1    1    2    0    0 -0.14596808215E+02  0.39337098582E+02 -0.72723490796E+02  0.83959396427E+02  0.00000000000E+00 0. -1.
        -15    1    3    3    0    0  0.42074150143E+02  0.26811288601E+02  0.76478256668E+01  0.50504715355E+02  0.17770000000E+01 0.  1.
         15    1    3    3    0    0 -0.70976327486E+02  0.13695447660E+01 -0.52383442759E+02  0.88242266066E+02  0.17770000000E+01 0.  1.
</event>
<event>
 7    1  0.3091307E-006  0.1563465E+03  0.7546771E-02  0.1091417E+00
        -11   -1    0    0    0    0  0.00000000000E+00  0.00000000000E+00  0.18250000000E+03  0.18250000000E+03  0.00000000000E+00 0.  1.
         11   -1    0    0    0    0 -0.00000000000E+00 -0.00000000000E+00 -0.18250000000E+03  0.18250000000E+03  0.00000000000E+00 0. -1.
         25    2    1    2    0    0 -0.27597732380E+01 -0.96844320909E+01  0.43524044741E+02  0.13274166307E+03  0.12499840828E+03 0.  0.
        -11    1    1    2    0    0  0.50585352389E+02 -0.26588643010E+02  0.78013920266E+02  0.96705768022E+02  0.00000000000E+00 0.  1.
         11    1    1    2    0    0 -0.47825579151E+02  0.36273075101E+02 -0.12153796501E+03  0.13555256890E+03  0.00000000000E+00 0. -1.
        -15    1    3    3    0    0 -0.13758850203E+02  0.37356235857E+02 -0.26351297763E+02  0.47773872976E+02  0.17770000000E+01 0.  1.
         15    1    3    3    0    0  0.10999076965E+02 -0.47040667948E+02  0.69875342504E+02  0.84967790098E+02  0.17770000000E+01 0.  1.
</event>
<event>
 7    1  0.3091307E-006  0.1505882E+03  0.7546771E-02  0.1097141E+00
        -11   -1    0    0    0    0  0.00000000000E+00  0.00000000000E+00  0.18250000000E+03  0.18250000000E+03  0.00000000000E+00 0.  1.
         11   -1    0    0    0    0 -0.00000000000E+00 -0.00000000000E+00 -0.18250000000E+03  0.18250000000E+03  0.00000000000E+00 0.  1.
         25    2    1    2    0    0 -0.95229361485E+01  0.21046771166E+02  0.21555386714E+02  0.12892191945E+03  0.12499029454E+03 0.  0.
        -11    1    1    2    0    0 -0.17032399498E+02 -0.16020039670E+02  0.10453779664E+03  0.10712093740E+03  0.00000000000E+00 0.  1.
         11    1    1    2    0    0  0.26555335647E+02 -0.50267314957E+01 -0.12609318335E+03  0.12895714315E+03  0.00000000000E+00 0.  1.
        -15    1    3    3    0    0 -0.59408277104E+02  0.38074906706E+02  0.27696532491E+02  0.75824122482E+02  0.17770000000E+01 0.  1.
         15    1    3    3    0    0  0.49885340955E+02 -0.17028135540E+02 -0.61411457769E+01  0.53097796966E+02  0.17770000000E+01 0.  1.
</event>
<event>
 7    1  0.3091307E-006  0.1562299E+03  0.7546771E-02  0.1091531E+00
        -11   -1    0    0    0    0  0.00000000000E+00  0.00000000000E+00  0.18250000000E+03  0.18250000000E+03  0.00000000000E+00 0.  1.
         11   -1    0    0    0    0 -0.00000000000E+00 -0.00000000000E+00 -0.18250000000E+03  0.18250000000E+03  0.00000000000E+00 0. -1.
         25    2    1    2    0    0 -0.73269060535E+02 -0.61651610382E+02  0.82818853799E+01  0.15768301526E+03  0.12500426945E+03 0.  0.
        -11    1    1    2    0    0  0.23781860046E+02  0.35687223368E+02  0.86920265586E+02  0.96924131920E+02  0.00000000000E+00 0.  1.
         11    1    1    2    0    0  0.49487200488E+02  0.25964387014E+02 -0.95202150965E+02  0.11039285282E+03  0.00000000000E+00 0. -1.
        -15    1    3    3    0    0 -0.99190617048E+02 -0.51711100713E+02 -0.24665824032E+02  0.11456167357E+03  0.17770000000E+01 0. -1.
         15    1    3    3    0    0  0.25921556513E+02 -0.99405096686E+01  0.32947709412E+02  0.43121341689E+02  0.17770000000E+01 0. -1.
</event>
<event>
 7    1  0.3091307E-006  0.1681749E+03  0.7546771E-02  0.1080466E+00
        -11   -1    0    0    0    0  0.00000000000E+00  0.00000000000E+00  0.18250000000E+03  0.18250000000E+03  0.00000000000E+00 0.  1.
         11   -1    0    0    0    0 -0.00000000000E+00 -0.00000000000E+00 -0.18250000000E+03  0.18250000000E+03  0.00000000000E+00 0.  1.
         25    2    1    2    0    0  0.45646463266E+02 -0.48317671940E+02 -0.54570028703E+02  0.15173896640E+03  0.12501451460E+03 0.  0.
        -11    1    1    2    0    0 -0.45413798127E+02  0.31372559712E+02  0.12721087082E+03  0.13866959371E+03  0.00000000000E+00 0.  1.
         11    1    1    2    0    0 -0.23266513862E+00  0.16945112228E+02 -0.72640842120E+02  0.74591439894E+02  0.00000000000E+00 0.  1.
        -15    1    3    3    0    0 -0.40009685459E+02  0.51843209506E+01 -0.12015369176E+02  0.42132872436E+02  0.17770000000E+01 0. -1.
         15    1    3    3    0    0  0.85656148725E+02 -0.53501992891E+02 -0.42554659527E+02  0.10960609396E+03  0.17770000000E+01 0. -1.
</event>
<event>
 7    1  0.3091307E-006  0.1511530E+03  0.7546771E-02  0.1096567E+00
        -11   -1    0    0    0    0  0.00000000000E+00  0.00000000000E+00  0.18250000000E+03  0.18250000000E+03  0.00000000000E+00 0. -1.
         11   -1    0    0    0    0 -0.00000000000E+00 -0.00000000000E+00 -0.18250000000E+03  0.18250000000E+03  0.00000000000E+00 0.  1.
         25    2    1    2    0    0  0.86917815541E+02  0.19643278469E-01  0.47351903814E+01  0.15231837319E+03  0.12499503086E+03 0.  0.
        -11    1    1    2    0    0 -0.49115173108E+02  0.25671102961E+02  0.91027457823E+02  0.10657065184E+03  0.00000000000E+00 0. -1.
         11    1    1    2    0    0 -0.37802642433E+02 -0.25690746239E+02 -0.95762648204E+02  0.10611097497E+03  0.00000000000E+00 0.  1.
        -15    1    3    3    0    0  0.61901580144E+02  0.56452945123E+02 -0.19402438701E+02  0.86013679110E+02  0.17770000000E+01 0. -1.
         15    1    3    3    0    0  0.25016235396E+02 -0.56433301844E+02  0.24137629082E+02  0.66304694081E+02  0.17770000000E+01 0. -1.
</event>
<event>
 7    1  0.3091307E-006  0.1679846E+03  0.7546771E-02  0.1080635E+00
        -11   -1    0    0    0    0  0.00000000000E+00  0.00000000000E+00  0.18250000000E+03  0.18250000000E+03  0.00000000000E+00 0. -1.
         11   -1    0    0    0    0 -0.00000000000E+00 -0.00000000000E+00 -0.18250000000E+03  0.18250000000E+03  0.00000000000E+00 0. -1.
         25    2    1    2    0    0 -0.35614179856E+02  0.13405931713E+02 -0.69099994391E+02  0.14780927203E+03  0.12499873144E+03 0.  0.
        -11    1    1    2    0    0  0.32343957149E+02  0.17139503729E+02  0.13745737350E+03  0.14224775457E+03  0.00000000000E+00 0. -1.
         11    1    1    2    0    0  0.32702227075E+01 -0.30545435442E+02 -0.68357379109E+02  0.74942973397E+02  0.00000000000E+00 0. -1.
        -15    1    3    3    0    0 -0.67423223016E+02 -0.31303958906E+02 -0.50332617480E+02  0.89790639581E+02  0.17770000000E+01 0. -1.
         15    1    3    3    0    0  0.31809043160E+02  0.44709890619E+02 -0.18767376911E+02  0.58018632447E+02  0.17770000000E+01 0. -1.
</event>
<event>
 7    1  0.3091307E-006  0.1720348E+03  0.7546771E-02  0.1077104E+00
        -11   -1    0    0    0    0  0.00000000000E+00  0.00000000000E+00  0.18250000000E+03  0.18250000000E+03  0.00000000000E+00 0.  1.
         11   -1    0    0    0    0 -0.00000000000E+00 -0.00000000000E+00 -0.18250000000E+03  0.18250000000E+03  0.00000000000E+00 0.  1.
         25    2    1    2    0    0 -0.12861278347E+02  0.95843858625E+01 -0.85695174887E+02  0.15240194915E+03  0.12500167268E+03 0.  0.
        -11    1    1    2    0    0 -0.15291733508E+02  0.61345752576E+01  0.14455183519E+03  0.14548781112E+03  0.00000000000E+00 0.  1.
         11    1    1    2    0    0  0.28153011856E+02 -0.15718961120E+02 -0.58856660301E+02  0.67110239733E+02  0.00000000000E+00 0.  1.
        -15    1    3    3    0    0  0.22117036887E+02 -0.34141336462E+02  0.96225630973E+01  0.41839522292E+02  0.17770000000E+01 0. -1.
         15    1    3    3    0    0 -0.34978315234E+02  0.43725722325E+02 -0.95317737984E+02  0.11056242686E+03  0.17770000000E+01 0. -1.
</event>
<event>
 7    1  0.3091307E-006  0.1672915E+03  0.7546771E-02  0.1081250E+00
        -11   -1    0    0    0    0  0.00000000000E+00  0.00000000000E+00  0.18250000000E+03  0.18250000000E+03  0.00000000000E+00 0.  1.
         11   -1    0    0    0    0 -0.00000000000E+00 -0.00000000000E+00 -0.18250000000E+03  0.18250000000E+03  0.00000000000E+00 0. -1.
         25    2    1    2    0    0 -0.33212049041E+01  0.12819104349E+03 -0.48554785829E+02  0.18552692478E+03  0.12497479170E+03 0.  0.
        -11    1    1    2    0    0  0.12160651701E+01 -0.60514350328E+02  0.83616698402E+02  0.10322411376E+03  0.00000000000E+00 0.  1.
         11    1    1    2    0    0  0.21051397340E+01 -0.67676693158E+02 -0.35061912573E+02  0.76248961457E+02  0.00000000000E+00 0. -1.
        -15    1    3    3    0    0 -0.29929995449E+02  0.13743799906E+03 -0.14680604602E+02  0.14143438795E+03  0.17770000000E+01 0. -1.
         15    1    3    3    0    0  0.26608790545E+02 -0.92469555762E+01 -0.33874181227E+02  0.44092536834E+02  0.17770000000E+01 0. -1.
</event>
<event>
 7    1  0.3091307E-006  0.1588843E+03  0.7546771E-02  0.1088980E+00
        -11   -1    0    0    0    0  0.00000000000E+00  0.00000000000E+00  0.18250000000E+03  0.18250000000E+03  0.00000000000E+00 0.  1.
         11   -1    0    0    0    0 -0.00000000000E+00 -0.00000000000E+00 -0.18250000000E+03  0.18250000000E+03  0.00000000000E+00 0.  1.
         25    2    1    2    0    0 -0.75612486211E+02  0.68525229632E+02 -0.38207204491E+02  0.16582334891E+03  0.12499854960E+03 0.  0.
        -11    1    1    2    0    0 -0.13705054672E+02 -0.32410487871E+02  0.85055624639E+02  0.92047420009E+02  0.00000000000E+00 0.  1.
         11    1    1    2    0    0  0.89317540883E+02 -0.36114741761E+02 -0.46848420148E+02  0.10712923108E+03  0.00000000000E+00 0.  1.
        -15    1    3    3    0    0 -0.20462043193E+02  0.74638174605E+02  0.25327573037E+02  0.81450574000E+02  0.17770000000E+01 0.  1.
         15    1    3    3    0    0 -0.55150443018E+02 -0.61129449725E+01 -0.63534777528E+02  0.84372774909E+02  0.17770000000E+01 0.  1.
</event>
<event>
 7    1  0.3091307E-006  0.1803020E+03  0.7546771E-02  0.1070218E+00
        -11   -1    0    0    0    0  0.00000000000E+00  0.00000000000E+00  0.18250000000E+03  0.18250000000E+03  0.00000000000E+00 0.  1.
         11   -1    0    0    0    0 -0.00000000000E+00 -0.00000000000E+00 -0.18250000000E+03  0.18250000000E+03  0.00000000000E+00 0. -1.
         25    2    1    2    0    0  0.12476869083E+03 -0.56185562725E+02 -0.28791772085E+02  0.18755959692E+03  0.12500237032E+03 0.  0.
        -11    1    1    2    0    0 -0.11673009092E+03  0.45258046404E+02 -0.20012286825E+02  0.12678602650E+03  0.00000000000E+00 0. -1.
         11    1    1    2    0    0 -0.80385999084E+01  0.10927516321E+02  0.48804058909E+02  0.50654376587E+02  0.00000000000E+00 0.  1.
        -15    1    3    3    0    0  0.21058955195E+02  0.37356107429E+02 -0.20700588999E+02  0.47651132936E+02  0.17770000000E+01 0. -1.
         15    1    3    3    0    0  0.10370973563E+03 -0.93541670154E+02 -0.80911830855E+01  0.13990846398E+03  0.17770000000E+01 0. -1.
</event>
<event>
 7    1  0.3091307E-006  0.1657376E+03  0.7546771E-02  0.1082640E+00
        -11   -1    0    0    0    0  0.00000000000E+00  0.00000000000E+00  0.18250000000E+03  0.18250000000E+03  0.00000000000E+00 0. -1.
         11   -1    0    0    0    0 -0.00000000000E+00 -0.00000000000E+00 -0.18250000000E+03  0.18250000000E+03  0.00000000000E+00 0. -1.
         25    2    1    2    0    0  0.51761808750E+01 -0.73396401942E+02  0.57246964805E+02  0.15593453094E+03  0.12499815316E+03 0.  0.
        -11    1    1    2    0    0  0.84270923276E+01  0.40448766751E+02  0.67601552186E+02  0.79228078828E+02  0.00000000000E+00 0. -1.
         11    1    1    2    0    0 -0.13603273203E+02  0.32947635191E+02 -0.12484851699E+03  0.12983739023E+03  0.00000000000E+00 0. -1.
        -15    1    3    3    0    0 -0.55477481475E+02 -0.92533739382E+01  0.28487463010E+02  0.63071936372E+02  0.17770000000E+01 0. -1.
         15    1    3    3    0    0  0.60653662350E+02 -0.64143028004E+02  0.28759501795E+02  0.92862594571E+02  0.17770000000E+01 0. -1.
</event>
<event>
 7    1  0.3091307E-006  0.1694693E+03  0.7546771E-02  0.1079328E+00
        -11   -1    0    0    0    0  0.00000000000E+00  0.00000000000E+00  0.18250000000E+03  0.18250000000E+03  0.00000000000E+00 0.  1.
         11   -1    0    0    0    0 -0.00000000000E+00 -0.00000000000E+00 -0.18250000000E+03  0.18250000000E+03  0.00000000000E+00 0. -1.
         25    2    1    2    0    0 -0.14392119669E+01 -0.35964207648E+02 -0.10744063392E+03  0.16871691984E+03  0.12500565451E+03 0.  0.
        -11    1    1    2    0    0 -0.69852889666E+02  0.31268806691E+02  0.97805604588E+02  0.12418977718E+03  0.00000000000E+00 0.  1.
         11    1    1    2    0    0  0.71292101633E+02  0.46954009566E+01  0.96350293282E+01  0.72093302987E+02  0.00000000000E+00 0. -1.
        -15    1    3    3    0    0 -0.36920660103E+02 -0.48824126778E+02 -0.72822875968E+01  0.61669440890E+02  0.17770000000E+01 0.  1.
         15    1    3    3    0    0  0.35481448136E+02  0.12859919130E+02 -0.10015834632E+03  0.10704747894E+03  0.17770000000E+01 0.  1.
</event>
<event>
 7    1  0.3091307E-006  0.1817552E+03  0.7546771E-02  0.1069049E+00
        -11   -1    0    0    0    0  0.00000000000E+00  0.00000000000E+00  0.18250000000E+03  0.18250000000E+03  0.00000000000E+00 0.  1.
         11   -1    0    0    0    0 -0.00000000000E+00 -0.00000000000E+00 -0.18250000000E+03  0.18250000000E+03  0.00000000000E+00 0. -1.
         25    2    1    2    0    0  0.42607353318E+02 -0.64062271399E+02 -0.79174342272E+02  0.16677058456E+03  0.12499796088E+03 0.  0.
        -11    1    1    2    0    0 -0.66505685798E+02  0.61270761456E+02  0.12035162337E+03  0.15053778828E+03  0.00000000000E+00 0.  1.
         11    1    1    2    0    0  0.23898332481E+02  0.27915099431E+01 -0.41177281096E+02  0.47691627164E+02  0.00000000000E+00 0. -1.
        -15    1    3    3    0    0 -0.42719309709E+02 -0.64900671800E+01 -0.16761124233E+02  0.46380528335E+02  0.17770000000E+01 0.  1.
         15    1    3    3    0    0  0.85326663027E+02 -0.57572204219E+02 -0.62413218039E+02  0.12039005622E+03  0.17770000000E+01 0.  1.
</event>
<event>
 7    1  0.3091307E-006  0.1602952E+03  0.7546771E-02  0.1087647E+00
        -11   -1    0    0    0    0  0.00000000000E+00  0.00000000000E+00  0.18250000000E+03  0.18250000000E+03  0.00000000000E+00 0. -1.
         11   -1    0    0    0    0 -0.00000000000E+00 -0.00000000000E+00 -0.18250000000E+03  0.18250000000E+03  0.00000000000E+00 0. -1.
         25    2    1    2    0    0 -0.67946414531E+02  0.46510233071E+01  0.19093096966E+02  0.14361149899E+03  0.12498547525E+03 0.  0.
        -11    1    1    2    0    0 -0.10591561839E+02 -0.27202425388E+02  0.84527570604E+02  0.89426301061E+02  0.00000000000E+00 0. -1.
         11    1    1    2    0    0  0.78537976370E+02  0.22551402081E+02 -0.10362066757E+03  0.13196219995E+03  0.00000000000E+00 0. -1.
        -15    1    3    3    0    0  0.33282489795E+02 -0.15784403064E+02 -0.58918260631E+01  0.37346256177E+02  0.17770000000E+01 0. -1.
         15    1    3    3    0    0 -0.10122890433E+03  0.20435426372E+02  0.24984923029E+02  0.10626524281E+03  0.17770000000E+01 0. -1.
</event>
<event>
 7    1  0.3091307E-006  0.1701431E+03  0.7546771E-02  0.1078740E+00
        -11   -1    0    0    0    0  0.00000000000E+00  0.00000000000E+00  0.18250000000E+03  0.18250000000E+03  0.00000000000E+00 0. -1.
         11   -1    0    0    0    0 -0.00000000000E+00 -0.00000000000E+00 -0.18250000000E+03  0.18250000000E+03  0.00000000000E+00 0.  1.
         25    2    1    2    0    0  0.76329228046E+01  0.81344929385E+02  0.52644005231E+02  0.15833717411E+03  0.12499604142E+03 0.  0.
        -11    1    1    2    0    0  0.43808558438E+02 -0.12484917311E+03 -0.30932561944E+02  0.13587983370E+03  0.00000000000E+00 0. -1.
         11    1    1    2    0    0 -0.51441481242E+02  0.43504243722E+02 -0.21711443287E+02  0.70782992193E+02  0.00000000000E+00 0.  1.
        -15    1    3    3    0    0  0.33254150652E+02  0.98944491072E+02  0.90817131308E+01  0.10479258605E+03  0.17770000000E+01 0.  1.
         15    1    3    3    0    0 -0.25621227847E+02 -0.17599561687E+02  0.43562292100E+02  0.53544588055E+02  0.17770000000E+01 0.  1.
</event>
<event>
 7    1  0.3091307E-006  0.1729942E+03  0.7546771E-02  0.1076284E+00
        -11   -1    0    0    0    0  0.00000000000E+00  0.00000000000E+00  0.18250000000E+03  0.18250000000E+03  0.00000000000E+00 0. -1.
         11   -1    0    0    0    0 -0.00000000000E+00 -0.00000000000E+00 -0.18250000000E+03  0.18250000000E+03  0.00000000000E+00 0. -1.
         25    2    1    2    0    0  0.47904525120E+02  0.47012556980E+02 -0.68388827775E+02  0.15750066285E+03  0.12499761195E+03 0.  0.
        -11    1    1    2    0    0 -0.58135588901E+02 -0.22364483499E+02  0.12790929658E+03  0.14226983156E+03  0.00000000000E+00 0. -1.
         11    1    1    2    0    0  0.10231063781E+02 -0.24648073480E+02 -0.59520468810E+02  0.65229505591E+02  0.00000000000E+00 0. -1.
        -15    1    3    3    0    0  0.76535651302E+02  0.15049387436E+02 -0.15306596687E+01  0.78036469874E+02  0.17770000000E+01 0. -1.
         15    1    3    3    0    0 -0.28631126182E+02  0.31963169543E+02 -0.66858168107E+02  0.79464192976E+02  0.17770000000E+01 0. -1.
</event>
<event>
 7    1  0.3091307E-006  0.1490670E+03  0.7546771E-02  0.1098700E+00
        -11   -1    0    0    0    0  0.00000000000E+00  0.00000000000E+00  0.18250000000E+03  0.18250000000E+03  0.00000000000E+00 0.  1.
         11   -1    0    0    0    0 -0.00000000000E+00 -0.00000000000E+00 -0.18250000000E+03  0.18250000000E+03  0.00000000000E+00 0. -1.
         25    2    1    2    0    0 -0.27531563066E+02  0.22221490206E+02 -0.27563145341E+02  0.13280084251E+03  0.12499822078E+03 0.  0.
        -11    1    1    2    0    0 -0.38457491189E+02 -0.15371001836E+02  0.11512168181E+03  0.12234479126E+03  0.00000000000E+00 0.  1.
         11    1    1    2    0    0  0.65989054254E+02 -0.68504883698E+01 -0.87558536466E+02  0.10985436623E+03  0.00000000000E+00 0. -1.
        -15    1    3    3    0    0  0.14718191202E+02  0.15587753791E+02 -0.69574657592E+02  0.72824404759E+02  0.17770000000E+01 0.  1.
         15    1    3    3    0    0 -0.42249754268E+02  0.66337364152E+01  0.42011512251E+02  0.59976437750E+02  0.17770000000E+01 0.  1.
</event>
<event>
 7    1  0.3091307E-006  0.1741507E+03  0.7546771E-02  0.1075302E+00
        -11   -1    0    0    0    0  0.00000000000E+00  0.00000000000E+00  0.18250000000E+03  0.18250000000E+03  0.00000000000E+00 0. -1.
         11   -1    0    0    0    0 -0.00000000000E+00 -0.00000000000E+00 -0.18250000000E+03  0.18250000000E+03  0.00000000000E+00 0. -1.
         25    2    1    2    0    0 -0.74784645374E+02  0.50710590994E+02  0.55255271569E+02  0.16383738572E+03  0.12500094679E+03 0.  0.
        -11    1    1    2    0    0  0.17508021067E+02 -0.14128309944E+01  0.60458205554E+02  0.62958093299E+02  0.00000000000E+00 0. -1.
         11    1    1    2    0    0  0.57276624307E+02 -0.49297760000E+02 -0.11571347712E+03  0.13820452099E+03  0.00000000000E+00 0. -1.
        -15    1    3    3    0    0 -0.14295200199E+02  0.64750545282E+02  0.73581719136E+02  0.99067719177E+02  0.17770000000E+01 0. -1.
         15    1    3    3    0    0 -0.60489445175E+02 -0.14039954287E+02 -0.18326447567E+02  0.64769666538E+02  0.17770000000E+01 0. -1.
</event>
<event>
 7    1  0.3091307E-006  0.1614951E+03  0.7546771E-02  0.1086524E+00
        -11   -1    0    0    0    0  0.00000000000E+00  0.00000000000E+00  0.18250000000E+03  0.18250000000E+03  0.00000000000E+00 0.  1.
         11   -1    0    0    0    0 -0.00000000000E+00 -0.00000000000E+00 -0.18250000000E+03  0.18250000000E+03  0.00000000000E+00 0.  1.
         25    2    1    2    0    0  0.27750350156E+02 -0.59539690787E+01 -0.56451099371E+02  0.14006169168E+03  0.12500007670E+03 0.  0.
        -11    1    1    2    0    0 -0.52142723290E+02 -0.52936716554E+02  0.11596728752E+03  0.13773006689E+03  0.00000000000E+00 0.  1.
         11    1    1    2    0    0  0.24392373134E+02  0.58890685632E+02 -0.59516188145E+02  0.87208241427E+02  0.00000000000E+00 0.  1.
        -15    1    3    3    0    0 -0.20859862594E+02  0.49434553441E+02 -0.31466512982E+02  0.62227068946E+02  0.17770000000E+01 0.  1.
         15    1    3    3    0    0  0.48610212750E+02 -0.55388522520E+02 -0.24984586390E+02  0.77834622737E+02  0.17770000000E+01 0.  1.
</event>
<event>
 7    1  0.3091307E-006  0.1456469E+03  0.7546771E-02  0.1102282E+00
        -11   -1    0    0    0    0  0.00000000000E+00  0.00000000000E+00  0.18250000000E+03  0.18250000000E+03  0.00000000000E+00 0.  1.
         11   -1    0    0    0    0 -0.00000000000E+00 -0.00000000000E+00 -0.18250000000E+03  0.18250000000E+03  0.00000000000E+00 0. -1.
         25    2    1    2    0    0  0.10853955421E+02  0.20980333019E+02 -0.52782461286E+01  0.12732269441E+03  0.12500090363E+03 0.  0.
        -11    1    1    2    0    0 -0.51493644476E+02  0.77254683417E+01  0.11001935649E+03  0.12171909088E+03  0.00000000000E+00 0.  1.
         11    1    1    2    0    0  0.40639689055E+02 -0.28705801361E+02 -0.10474111036E+03  0.11595821471E+03  0.00000000000E+00 0. -1.
        -15    1    3    3    0    0  0.37426325717E+02  0.39018815973E+02  0.43141857245E+02  0.69192307608E+02  0.17770000000E+01 0. -1.
         15    1    3    3    0    0 -0.26572370296E+02 -0.18038482954E+02 -0.48420103374E+02  0.58130386806E+02  0.17770000000E+01 0. -1.
</event>
<event>
 7    1  0.3091307E-006  0.1647593E+03  0.7546771E-02  0.1083525E+00
        -11   -1    0    0    0    0  0.00000000000E+00  0.00000000000E+00  0.18250000000E+03  0.18250000000E+03  0.00000000000E+00 0.  1.
         11   -1    0    0    0    0 -0.00000000000E+00 -0.00000000000E+00 -0.18250000000E+03  0.18250000000E+03  0.00000000000E+00 0. -1.
         25    2    1    2    0    0  0.78229888325E+02  0.40959751590E+02 -0.11049866622E+03  0.18876814988E+03  0.12500336994E+03 0.  0.
        -11    1    1    2    0    0 -0.17563992367E+01 -0.20556196585E+02  0.92882925731E+02  0.95146623948E+02  0.00000000000E+00 0.  1.
         11    1    1    2    0    0 -0.76473489089E+02 -0.20403555005E+02  0.17615740489E+02  0.81085226171E+02  0.00000000000E+00 0. -1.
        -15    1    3    3    0    0 -0.25655355424E+02  0.41722228461E+02 -0.39120112315E+02  0.62709509057E+02  0.17770000000E+01 0.  1.
         15    1    3    3    0    0  0.10388524375E+03 -0.76247687079E+00 -0.71378553904E+02  0.12605864082E+03  0.17770000000E+01 0.  1.
</event>
<event>
 7    1  0.3091307E-006  0.1507642E+03  0.7546771E-02  0.1096962E+00
        -11   -1    0    0    0    0  0.00000000000E+00  0.00000000000E+00  0.18250000000E+03  0.18250000000E+03  0.00000000000E+00 0. -1.
         11   -1    0    0    0    0 -0.00000000000E+00 -0.00000000000E+00 -0.18250000000E+03  0.18250000000E+03  0.00000000000E+00 0.  1.
         25    2    1    2    0    0 -0.68977911141E+02  0.27132651988E+02  0.79080658192E+01  0.14553951124E+03  0.12500031519E+03 0.  0.
        -11    1    1    2    0    0  0.64164719071E+02  0.10324773568E+02  0.92007544874E+02  0.11264590732E+03  0.00000000000E+00 0. -1.
         11    1    1    2    0    0  0.48131920708E+01 -0.37457425557E+02 -0.99915610693E+02  0.10681458144E+03  0.00000000000E+00 0.  1.
        -15    1    3    3    0    0 -0.71942583409E+02  0.40406614344E+02 -0.42827338598E+02  0.92982624456E+02  0.17770000000E+01 0. -1.
         15    1    3    3    0    0  0.29646722681E+01 -0.13273962355E+02  0.50735404417E+02  0.52556886786E+02  0.17770000000E+01 0. -1.
</event>
<event>
 7    1  0.3091307E-006  0.1543367E+03  0.7546771E-02  0.1093384E+00
        -11   -1    0    0    0    0  0.00000000000E+00  0.00000000000E+00  0.18250000000E+03  0.18250000000E+03  0.00000000000E+00 0.  1.
         11   -1    0    0    0    0 -0.00000000000E+00 -0.00000000000E+00 -0.18250000000E+03  0.18250000000E+03  0.00000000000E+00 0.  1.
         25    2    1    2    0    0  0.51506294017E+02  0.95066355462E+01  0.88389035837E+00  0.13553938181E+03  0.12500747304E+03 0.  0.
        -11    1    1    2    0    0 -0.97631311809E+02  0.30799079905E+02  0.78632081533E+02  0.12908702729E+03  0.00000000000E+00 0.  1.
         11    1    1    2    0    0  0.46125017792E+02 -0.40305715451E+02 -0.79515971891E+02  0.10037359090E+03  0.00000000000E+00 0.  1.
        -15    1    3    3    0    0 -0.10626413712E+02 -0.19210654763E+02 -0.47054725632E+02  0.51954546077E+02  0.17770000000E+01 0.  1.
         15    1    3    3    0    0  0.62132707729E+02  0.28717290310E+02  0.47938615990E+02  0.83584835733E+02  0.17770000000E+01 0.  1.
</event>
<event>
 7    1  0.3091307E-006  0.1640028E+03  0.7546771E-02  0.1084213E+00
        -11   -1    0    0    0    0  0.00000000000E+00  0.00000000000E+00  0.18250000000E+03  0.18250000000E+03  0.00000000000E+00 0.  1.
         11   -1    0    0    0    0 -0.00000000000E+00 -0.00000000000E+00 -0.18250000000E+03  0.18250000000E+03  0.00000000000E+00 0.  1.
         25    2    1    2    0    0 -0.86825043632E+02  0.31524926837E+02  0.64593078248E+02  0.16831235971E+03  0.12499750181E+03 0.  0.
        -11    1    1    2    0    0  0.54068794656E+02 -0.44071246013E+02  0.44065646358E+02  0.82507517655E+02  0.00000000000E+00 0.  1.
         11    1    1    2    0    0  0.32756248976E+02  0.12546319176E+02 -0.10865872461E+03  0.11418012263E+03  0.00000000000E+00 0.  1.
        -15    1    3    3    0    0 -0.58994622165E+02  0.67333591258E+02  0.21014530833E+00  0.89539822683E+02  0.17770000000E+01 0. -1.
         15    1    3    3    0    0 -0.27830421467E+02 -0.35808664421E+02  0.64382932940E+02  0.78772537027E+02  0.17770000000E+01 0. -1.
</event>
<event>
 7    1  0.3091307E-006  0.1576476E+03  0.7546771E-02  0.1090162E+00
        -11   -1    0    0    0    0  0.00000000000E+00  0.00000000000E+00  0.18250000000E+03  0.18250000000E+03  0.00000000000E+00 0. -1.
         11   -1    0    0    0    0 -0.00000000000E+00 -0.00000000000E+00 -0.18250000000E+03  0.18250000000E+03  0.00000000000E+00 0. -1.
         25    2    1    2    0    0  0.48224688484E+02  0.11973604045E+02 -0.45046958060E+02  0.14185621906E+03  0.12499988272E+03 0.  0.
        -11    1    1    2    0    0 -0.29304399220E+01 -0.17386404701E+02  0.12760720815E+03  0.12881954091E+03  0.00000000000E+00 0. -1.
         11    1    1    2    0    0 -0.45294248562E+02  0.54128006566E+01 -0.82560250092E+02  0.94324240039E+02  0.00000000000E+00 0. -1.
        -15    1    3    3    0    0  0.24504661480E+02 -0.51799341119E+02  0.47400674424E+01  0.57526308269E+02  0.17770000000E+01 0.  1.
         15    1    3    3    0    0  0.23720027004E+02  0.63772945164E+02 -0.49787025503E+02  0.84329910787E+02  0.17770000000E+01 0.  1.
</event>
<event>
 7    1  0.3091307E-006  0.1545949E+03  0.7546771E-02  0.1093129E+00
        -11   -1    0    0    0    0  0.00000000000E+00  0.00000000000E+00  0.18250000000E+03  0.18250000000E+03  0.00000000000E+00 0.  1.
         11   -1    0    0    0    0 -0.00000000000E+00 -0.00000000000E+00 -0.18250000000E+03  0.18250000000E+03  0.00000000000E+00 0. -1.
         25    2    1    2    0    0  0.46793285109E+02 -0.21592430062E+01 -0.42537492489E+02  0.14009682101E+03  0.12499362835E+03 0.  0.
        -11    1    1    2    0    0  0.65588953166E+00 -0.45360647526E+02  0.11648927935E+03  0.12501108246E+03  0.00000000000E+00 0.  1.
         11    1    1    2    0    0 -0.47449174640E+02  0.47519890532E+02 -0.73951786857E+02  0.99892096532E+02  0.00000000000E+00 0. -1.
        -15    1    3    3    0    0  0.27985681737E+02 -0.49532563373E+02 -0.63214051302E+02  0.85063783290E+02  0.17770000000E+01 0. -1.
         15    1    3    3    0    0  0.18807603372E+02  0.47373320367E+02  0.20676558812E+02  0.55033037719E+02  0.17770000000E+01 0. -1.
</event>
<event>
 7    1  0.3091307E-006  0.1641760E+03  0.7546771E-02  0.1084055E+00
        -11   -1    0    0    0    0  0.00000000000E+00  0.00000000000E+00  0.18250000000E+03  0.18250000000E+03  0.00000000000E+00 0. -1.
         11   -1    0    0    0    0 -0.00000000000E+00 -0.00000000000E+00 -0.18250000000E+03  0.18250000000E+03  0.00000000000E+00 0. -1.
         25    2    1    2    0    0 -0.11841404852E+03 -0.50052394212E+02 -0.40820370777E+02  0.18389935823E+03  0.12500216891E+03 0.  0.
        -11    1    1    2    0    0  0.45624431008E+02 -0.11426812823E+02  0.67396046246E+02  0.82185082623E+02  0.00000000000E+00 0. -1.
         11    1    1    2    0    0  0.72789617514E+02  0.61479207035E+02 -0.26575675469E+02  0.98915559151E+02  0.00000000000E+00 0. -1.
        -15    1    3    3    0    0 -0.61535831983E+02  0.35071587789E+02 -0.40288770136E+02  0.81504709164E+02  0.17770000000E+01 0. -1.
         15    1    3    3    0    0 -0.56878216539E+02 -0.85123982000E+02 -0.53160064102E+00  0.10239464906E+03  0.17770000000E+01 0. -1.
</event>
<event>
 7    1  0.3091307E-006  0.1686983E+03  0.7546771E-02  0.1080005E+00
        -11   -1    0    0    0    0  0.00000000000E+00  0.00000000000E+00  0.18250000000E+03  0.18250000000E+03  0.00000000000E+00 0. -1.
         11   -1    0    0    0    0 -0.00000000000E+00 -0.00000000000E+00 -0.18250000000E+03  0.18250000000E+03  0.00000000000E+00 0.  1.
         25    2    1    2    0    0 -0.20487801591E+02 -0.39775762671E+02 -0.70228459977E+02  0.15019322632E+03  0.12499642927E+03 0.  0.
        -11    1    1    2    0    0 -0.27446428762E+01  0.26343644081E+02  0.13873024186E+03  0.14123597508E+03  0.00000000000E+00 0. -1.
         11    1    1    2    0    0  0.23232444467E+02  0.13432118590E+02 -0.68501781887E+02  0.73570798605E+02  0.00000000000E+00 0.  1.
        -15    1    3    3    0    0 -0.64679555319E+02 -0.17748767214E+02 -0.35291582977E+01  0.67186875959E+02  0.17770000000E+01 0. -1.
         15    1    3    3    0    0  0.44191753728E+02 -0.22026995457E+02 -0.66699301680E+02  0.83006350359E+02  0.17770000000E+01 0. -1.
</event>
<event>
 7    1  0.3091307E-006  0.1728383E+03  0.7546771E-02  0.1076417E+00
        -11   -1    0    0    0    0  0.00000000000E+00  0.00000000000E+00  0.18250000000E+03  0.18250000000E+03  0.00000000000E+00 0.  1.
         11   -1    0    0    0    0 -0.00000000000E+00 -0.00000000000E+00 -0.18250000000E+03  0.18250000000E+03  0.00000000000E+00 0.  1.
         25    2    1    2    0    0  0.70101476213E+02  0.56916754610E+02  0.52863907986E+02  0.16301229661E+03  0.12499872861E+03 0.  0.
        -11    1    1    2    0    0  0.10424165397E+02 -0.34197942883E+02  0.54925444848E+02  0.65535997844E+02  0.00000000000E+00 0.  1.
         11    1    1    2    0    0 -0.80525641610E+02 -0.22718811727E+02 -0.10778935283E+03  0.13645170555E+03  0.00000000000E+00 0.  1.
        -15    1    3    3    0    0  0.14312522302E+02  0.16893603833E+02  0.84516136006E+02  0.87386366897E+02  0.17770000000E+01 0. -1.
         15    1    3    3    0    0  0.55788953912E+02  0.40023150777E+02 -0.31652228020E+02  0.75625929709E+02  0.17770000000E+01 0. -1.
</event>
<event>
 7    1  0.3091307E-006  0.1513373E+03  0.7546771E-02  0.1096381E+00
        -11   -1    0    0    0    0  0.00000000000E+00  0.00000000000E+00  0.18250000000E+03  0.18250000000E+03  0.00000000000E+00 0.  1.
         11   -1    0    0    0    0 -0.00000000000E+00 -0.00000000000E+00 -0.18250000000E+03  0.18250000000E+03  0.00000000000E+00 0.  1.
         25    2    1    2    0    0 -0.42438635233E+02  0.35232499689E+02  0.30037066474E+01  0.13666443255E+03  0.12500311227E+03 0.  0.
        -11    1    1    2    0    0  0.25406510484E+02  0.33330897073E+02  0.97131425477E+02  0.10578730212E+03  0.00000000000E+00 0.  1.
         11    1    1    2    0    0  0.17032124748E+02 -0.68563396762E+02 -0.10013513212E+03  0.12254826533E+03  0.00000000000E+00 0.  1.
        -15    1    3    3    0    0  0.42442575036E+02 -0.24133587608E+01  0.93940219977E+01  0.43572948655E+02  0.17770000000E+01 0.  1.
         15    1    3    3    0    0 -0.84881210268E+02  0.37645858450E+02 -0.63903153503E+01  0.93091483898E+02  0.17770000000E+01 0.  1.
</event>
<event>
 7    1  0.3091307E-006  0.1762424E+03  0.7546771E-02  0.1073548E+00
        -11   -1    0    0    0    0  0.00000000000E+00  0.00000000000E+00  0.18250000000E+03  0.18250000000E+03  0.00000000000E+00 0. -1.
         11   -1    0    0    0    0 -0.00000000000E+00 -0.00000000000E+00 -0.18250000000E+03  0.18250000000E+03  0.00000000000E+00 0.  1.
         25    2    1    2    0    0 -0.58507313071E+02  0.23555786138E+02  0.99837410789E+02  0.17196742350E+03  0.12500922130E+03 0.  0.
        -11    1    1    2    0    0  0.42182392869E+02 -0.23799004762E+02  0.33378010267E+02  0.58820391576E+02  0.00000000000E+00 0. -1.
         11    1    1    2    0    0  0.16324920202E+02  0.24321862349E+00 -0.13321542106E+03  0.13421218492E+03  0.00000000000E+00 0.  1.
        -15    1    3    3    0    0 -0.17215089674E+02 -0.49518912911E+02  0.20078164876E+02  0.56167361360E+02  0.17770000000E+01 0.  1.
         15    1    3    3    0    0 -0.41292223397E+02  0.73074699049E+02  0.79759245913E+02  0.11580006214E+03  0.17770000000E+01 0.  1.
</event>
<event>
 7    1  0.3091307E-006  0.1891744E+03  0.7546771E-02  0.1063263E+00
        -11   -1    0    0    0    0  0.00000000000E+00  0.00000000000E+00  0.18250000000E+03  0.18250000000E+03  0.00000000000E+00 0.  1.
         11   -1    0    0    0    0 -0.00000000000E+00 -0.00000000000E+00 -0.18250000000E+03  0.18250000000E+03  0.00000000000E+00 0. -1.
         25    2    1    2    0    0 -0.73045738280E+02 -0.38639691446E+02  0.11951390061E+03  0.19166841553E+03  0.12499801374E+03 0.  0.
        -11    1    1    2    0    0  0.22794381531E+02  0.20019611952E+02  0.10979045160E+02  0.32263107797E+02  0.00000000000E+00 0.  1.
         11    1    1    2    0    0  0.50251356749E+02  0.18620079494E+02 -0.13049294577E+03  0.14106847667E+03  0.00000000000E+00 0. -1.
        -15    1    3    3    0    0 -0.66583183659E+02 -0.15013890549E+02 -0.13933707904E+01  0.68292287022E+02  0.17770000000E+01 0. -1.
         15    1    3    3    0    0 -0.64625546213E+01 -0.23625800897E+02  0.12090727140E+03  0.12337612851E+03  0.17770000000E+01 0. -1.
</event>
<event>
 7    1  0.3091307E-006  0.1483744E+03  0.7546771E-02  0.1099417E+00
        -11   -1    0    0    0    0  0.00000000000E+00  0.00000000000E+00  0.18250000000E+03  0.18250000000E+03  0.00000000000E+00 0.  1.
         11   -1    0    0    0    0 -0.00000000000E+00 -0.00000000000E+00 -0.18250000000E+03  0.18250000000E+03  0.00000000000E+00 0.  1.
         25    2    1    2    0    0 -0.72496002765E+01  0.15221072539E+02  0.65586632611E+02  0.14216882923E+03  0.12500452742E+03 0.  0.
        -11    1    1    2    0    0  0.95031616245E+01  0.95534408259E+02 -0.57157991621E+02  0.11173257917E+03  0.00000000000E+00 0.  1.
         11    1    1    2    0    0 -0.22535613480E+01 -0.11075548080E+03 -0.84286409898E+01  0.11109859160E+03  0.00000000000E+00 0.  1.
        -15    1    3    3    0    0  0.50981111868E+02  0.31763188126E+02  0.53406712612E+02  0.80395326781E+02  0.17770000000E+01 0. -1.
         15    1    3    3    0    0 -0.58230712144E+02 -0.16542115587E+02  0.12179919999E+02  0.61773502451E+02  0.17770000000E+01 0. -1.
</event>
<event>
 7    1  0.3091307E-006  0.1687698E+03  0.7546771E-02  0.1079942E+00
        -11   -1    0    0    0    0  0.00000000000E+00  0.00000000000E+00  0.18250000000E+03  0.18250000000E+03  0.00000000000E+00 0. -1.
         11   -1    0    0    0    0 -0.00000000000E+00 -0.00000000000E+00 -0.18250000000E+03  0.18250000000E+03  0.00000000000E+00 0. -1.
         25    2    1    2    0    0  0.48322195415E+02  0.10830976437E+03 -0.50964370621E+02  0.17971126511E+03  0.12503092460E+03 0.  0.
        -11    1    1    2    0    0  0.79921220699E+01 -0.74059620417E+02  0.83404869556E+02  0.11182608666E+03  0.00000000000E+00 0. -1.
         11    1    1    2    0    0 -0.56314317485E+02 -0.34250143953E+02 -0.32440498935E+02  0.73462648235E+02  0.00000000000E+00 0. -1.
        -15    1    3    3    0    0  0.87033118602E+02  0.10021427438E+03 -0.39583429489E+02  0.13851956592E+03  0.17770000000E+01 0. -1.
         15    1    3    3    0    0 -0.38710923187E+02  0.80954899948E+01 -0.11380941133E+02  0.41191699192E+02  0.17770000000E+01 0. -1.
</event>
<event>
 7    1  0.3091307E-006  0.1712979E+03  0.7546771E-02  0.1077739E+00
        -11   -1    0    0    0    0  0.00000000000E+00  0.00000000000E+00  0.18250000000E+03  0.18250000000E+03  0.00000000000E+00 0.  1.
         11   -1    0    0    0    0 -0.00000000000E+00 -0.00000000000E+00 -0.18250000000E+03  0.18250000000E+03  0.00000000000E+00 0. -1.
         25    2    1    2    0    0 -0.14085990611E+03 -0.20771457261E+02  0.26601200088E+02  0.19129767121E+03  0.12495682685E+03 0.  0.
        -11    1    1    2    0    0  0.99439731682E+02  0.19889836769E+02  0.27961073698E+02  0.10519357151E+03  0.00000000000E+00 0.  1.
         11    1    1    2    0    0  0.41420174431E+02  0.88162049234E+00 -0.54562273786E+02  0.68508757289E+02  0.00000000000E+00 0. -1.
        -15    1    3    3    0    0 -0.10187500310E+03 -0.65731401670E+02 -0.95800902595E+01  0.12163087305E+03  0.17770000000E+01 0.  1.
         15    1    3    3    0    0 -0.38984903015E+02  0.44959944409E+02  0.36181290348E+02  0.69666798151E+02  0.17770000000E+01 0. -1.
</event>
<event>
 7    1  0.3091307E-006  0.1550669E+03  0.7546771E-02  0.1092666E+00
        -11   -1    0    0    0    0  0.00000000000E+00  0.00000000000E+00  0.18250000000E+03  0.18250000000E+03  0.00000000000E+00 0. -1.
         11   -1    0    0    0    0 -0.00000000000E+00 -0.00000000000E+00 -0.18250000000E+03  0.18250000000E+03  0.00000000000E+00 0.  1.
         25    2    1    2    0    0  0.42313542495E+01  0.32647384479E+01  0.36209267123E+02  0.13027918903E+03  0.12503196868E+03 0.  0.
        -11    1    1    2    0    0  0.97642379027E+01  0.54735391857E+01  0.98434978060E+02  0.99069394258E+02  0.00000000000E+00 0. -1.
         11    1    1    2    0    0 -0.13995592152E+02 -0.87382776335E+01 -0.13464424518E+03  0.13565141671E+03  0.00000000000E+00 0.  1.
        -15    1    3    3    0    0 -0.12248983460E+02 -0.93014242753E+01 -0.44403868656E+02  0.47025688405E+02  0.17770000000E+01 0.  1.
         15    1    3    3    0    0  0.16480337709E+02  0.12566162723E+02  0.80613135779E+02  0.83253500622E+02  0.17770000000E+01 0. -1.
</event>
<event>
 7    1  0.3091307E-006  0.1576062E+03  0.7546771E-02  0.1090201E+00
        -11   -1    0    0    0    0  0.00000000000E+00  0.00000000000E+00  0.18250000000E+03  0.18250000000E+03  0.00000000000E+00 0.  1.
         11   -1    0    0    0    0 -0.00000000000E+00 -0.00000000000E+00 -0.18250000000E+03  0.18250000000E+03  0.00000000000E+00 0.  1.
         25    2    1    2    0    0 -0.14844351187E+02 -0.34468735611E+02 -0.41821020355E+02  0.13704370439E+03  0.12499412255E+03 0.  0.
        -11    1    1    2    0    0 -0.27439008542E+02  0.33992064179E+02  0.12621496088E+03  0.13356113195E+03  0.00000000000E+00 0.  1.
         11    1    1    2    0    0  0.42283359729E+02  0.47667143123E+00 -0.84393940527E+02  0.94395163664E+02  0.00000000000E+00 0.  1.
        -15    1    3    3    0    0 -0.10623979287E+02 -0.81358094521E+02 -0.35841888929E+02  0.89553376324E+02  0.17770000000E+01 0.  1.
         15    1    3    3    0    0 -0.42203719000E+01  0.46889358911E+02 -0.59791314254E+01  0.47490328064E+02  0.17770000000E+01 0.  1.
</event>
<event>
 7    1  0.3091307E-006  0.1557553E+03  0.7546771E-02  0.1091992E+00
        -11   -1    0    0    0    0  0.00000000000E+00  0.00000000000E+00  0.18250000000E+03  0.18250000000E+03  0.00000000000E+00 0.  1.
         11   -1    0    0    0    0 -0.00000000000E+00 -0.00000000000E+00 -0.18250000000E+03  0.18250000000E+03  0.00000000000E+00 0.  1.
         25    2    1    2    0    0 -0.14964381865E+02 -0.82633301494E+02 -0.31056518212E+01  0.15061706503E+03  0.12499463974E+03 0.  0.
        -11    1    1    2    0    0 -0.82591050361E+01  0.16201567466E+02  0.96075538399E+02  0.97781453677E+02  0.00000000000E+00 0.  1.
         11    1    1    2    0    0  0.23223486902E+02  0.66431734027E+02 -0.92969886578E+02  0.11660148129E+03  0.00000000000E+00 0.  1.
        -15    1    3    3    0    0 -0.28596457308E+02 -0.93928159972E+02  0.38413110385E+02  0.10544658072E+03  0.17770000000E+01 0.  1.
         15    1    3    3    0    0  0.13632075443E+02  0.11294858478E+02 -0.41518762206E+02  0.45170484313E+02  0.17770000000E+01 0.  1.
</event>
<event>
 7    1  0.3091307E-006  0.1565259E+03  0.7546771E-02  0.1091243E+00
        -11   -1    0    0    0    0  0.00000000000E+00  0.00000000000E+00  0.18250000000E+03  0.18250000000E+03  0.00000000000E+00 0.  1.
         11   -1    0    0    0    0 -0.00000000000E+00 -0.00000000000E+00 -0.18250000000E+03  0.18250000000E+03  0.00000000000E+00 0. -1.
         25    2    1    2    0    0 -0.66881360054E+02  0.69043416030E+01  0.61490596324E+02  0.15468061721E+03  0.12499685455E+03 0.  0.
        -11    1    1    2    0    0  0.81716334734E+02  0.60248842199E+01  0.50740175033E+02  0.96376469922E+02  0.00000000000E+00 0.  1.
         11    1    1    2    0    0 -0.14834974680E+02 -0.12929225823E+02 -0.11223077136E+03  0.11394291287E+03  0.00000000000E+00 0. -1.
        -15    1    3    3    0    0 -0.92156181531E+02  0.61895406022E+01  0.80867468662E+02  0.12277531276E+03  0.17770000000E+01 0.  1.
         15    1    3    3    0    0  0.25274821476E+02  0.71480100077E+00 -0.19376872338E+02  0.31905304445E+02  0.17770000000E+01 0.  1.
</event>
<event>
 7    1  0.3091307E-006  0.1616273E+03  0.7546771E-02  0.1086401E+00
        -11   -1    0    0    0    0  0.00000000000E+00  0.00000000000E+00  0.18250000000E+03  0.18250000000E+03  0.00000000000E+00 0.  1.
         11   -1    0    0    0    0 -0.00000000000E+00 -0.00000000000E+00 -0.18250000000E+03  0.18250000000E+03  0.00000000000E+00 0. -1.
         25    2    1    2    0    0 -0.42782432491E+02  0.15627465832E+02  0.70874042839E+02  0.15072338022E+03  0.12497941102E+03 0.  0.
        -11    1    1    2    0    0  0.49943126715E+02 -0.48723157248E+02  0.51874097208E+02  0.86943567441E+02  0.00000000000E+00 0.  1.
         11    1    1    2    0    0 -0.71606942236E+01  0.33095691416E+02 -0.12274814005E+03  0.12733305234E+03  0.00000000000E+00 0. -1.
        -15    1    3    3    0    0 -0.51965432171E+02  0.64272467134E+02  0.36152544370E+02  0.90230373853E+02  0.17770000000E+01 0. -1.
         15    1    3    3    0    0  0.91829996804E+01 -0.48645001302E+02  0.34721498469E+02  0.60493006370E+02  0.17770000000E+01 0. -1.
</event>
<event>
 7    1  0.3091307E-006  0.1654979E+03  0.7546771E-02  0.1082856E+00
        -11   -1    0    0    0    0  0.00000000000E+00  0.00000000000E+00  0.18250000000E+03  0.18250000000E+03  0.00000000000E+00 0.  1.
         11   -1    0    0    0    0 -0.00000000000E+00 -0.00000000000E+00 -0.18250000000E+03  0.18250000000E+03  0.00000000000E+00 0. -1.
         25    2    1    2    0    0  0.51906325456E+02  0.38805466830E+01  0.49932398201E+02  0.14425755630E+03  0.12493067235E+03 0.  0.
        -11    1    1    2    0    0  0.35878560907E+02 -0.50099315842E+02  0.50426589505E+02  0.79624452963E+02  0.00000000000E+00 0.  1.
         11    1    1    2    0    0 -0.87784886364E+02  0.46218769159E+02 -0.10035898771E+03  0.14111799074E+03  0.00000000000E+00 0. -1.
        -15    1    3    3    0    0  0.69304118374E-01 -0.35089802016E+02  0.68320794248E+02  0.76825696641E+02  0.17770000000E+01 0. -1.
         15    1    3    3    0    0  0.51837021338E+02  0.38970348699E+02 -0.18388396047E+02  0.67431859659E+02  0.17770000000E+01 0. -1.
</event>
<event>
 7    1  0.3091307E-006  0.1597326E+03  0.7546771E-02  0.1088177E+00
        -11   -1    0    0    0    0  0.00000000000E+00  0.00000000000E+00  0.18250000000E+03  0.18250000000E+03  0.00000000000E+00 0.  1.
         11   -1    0    0    0    0 -0.00000000000E+00 -0.00000000000E+00 -0.18250000000E+03  0.18250000000E+03  0.00000000000E+00 0. -1.
         25    2    1    2    0    0  0.40661267127E+02  0.51335724295E+02 -0.37125020011E+01  0.14116887082E+03  0.12500468865E+03 0.  0.
        -11    1    1    2    0    0  0.25715263354E+02  0.36843746063E+02  0.78542536383E+02  0.90485724923E+02  0.00000000000E+00 0.  1.
         11    1    1    2    0    0 -0.66376530482E+02 -0.88179470358E+02 -0.74830034382E+02  0.13334540426E+03  0.00000000000E+00 0. -1.
        -15    1    3    3    0    0 -0.39775748030E+02 -0.90562121038E+00 -0.18834821428E+02  0.44054948739E+02  0.17770000000E+01 0.  1.
         15    1    3    3    0    0  0.80437015158E+02  0.52241345506E+02  0.15122319427E+02  0.97113922079E+02  0.17770000000E+01 0.  1.
</event>
<event>
 7    1  0.3091307E-006  0.1748482E+03  0.7546771E-02  0.1074714E+00
        -11   -1    0    0    0    0  0.00000000000E+00  0.00000000000E+00  0.18250000000E+03  0.18250000000E+03  0.00000000000E+00 0.  1.
         11   -1    0    0    0    0 -0.00000000000E+00 -0.00000000000E+00 -0.18250000000E+03  0.18250000000E+03  0.00000000000E+00 0. -1.
         25    2    1    2    0    0 -0.83097303499E+02  0.67552262600E+02 -0.26070521180E+02  0.16665245667E+03  0.12499959683E+03 0.  0.
        -11    1    1    2    0    0  0.65070708205E+02 -0.89037583508E+02  0.80892577043E+02  0.13676804219E+03  0.00000000000E+00 0.  1.
         11    1    1    2    0    0  0.18026595294E+02  0.21485320908E+02 -0.54822055863E+02  0.61579501147E+02  0.00000000000E+00 0. -1.
        -15    1    3    3    0    0 -0.27370198874E+02 -0.22966881745E+02  0.29793890072E+02  0.46555762889E+02  0.17770000000E+01 0.  1.
         15    1    3    3    0    0 -0.55727104625E+02  0.90519144344E+02 -0.55864411252E+02  0.12009669378E+03  0.17770000000E+01 0.  1.
</event>
<event>
 7    1  0.3091307E-006  0.1506283E+03  0.7546771E-02  0.1097100E+00
        -11   -1    0    0    0    0  0.00000000000E+00  0.00000000000E+00  0.18250000000E+03  0.18250000000E+03  0.00000000000E+00 0.  1.
         11   -1    0    0    0    0 -0.00000000000E+00 -0.00000000000E+00 -0.18250000000E+03  0.18250000000E+03  0.00000000000E+00 0. -1.
         25    2    1    2    0    0  0.11881859665E+02 -0.60994103515E+02  0.17639311018E+01  0.13961073332E+03  0.12500634444E+03 0.  0.
        -11    1    1    2    0    0 -0.47344058699E+02  0.44255713276E+01  0.95925562385E+02  0.10706427553E+03  0.00000000000E+00 0.  1.
         11    1    1    2    0    0  0.35462199034E+02  0.56568532187E+02 -0.97689493487E+02  0.11832499116E+03  0.00000000000E+00 0. -1.
        -15    1    3    3    0    0 -0.55117452520E+02 -0.41926819964E+02  0.75705519864E+01  0.69686891098E+02  0.17770000000E+01 0.  1.
         15    1    3    3    0    0  0.66999312185E+02 -0.19067283551E+02 -0.58066208846E+01  0.69923842217E+02  0.17770000000E+01 0.  1.
</event>
<event>
 7    1  0.3091307E-006  0.1464930E+03  0.7546771E-02  0.1101386E+00
        -11   -1    0    0    0    0  0.00000000000E+00  0.00000000000E+00  0.18250000000E+03  0.18250000000E+03  0.00000000000E+00 0.  1.
         11   -1    0    0    0    0 -0.00000000000E+00 -0.00000000000E+00 -0.18250000000E+03  0.18250000000E+03  0.00000000000E+00 0. -1.
         25    2    1    2    0    0  0.42217145911E+02  0.13577418233E+02  0.31340636433E+01  0.13267233619E+03  0.12500197095E+03 0.  0.
        -11    1    1    2    0    0 -0.45798699685E+02  0.15521303462E+02  0.10749951579E+03  0.11787526309E+03  0.00000000000E+00 0.  1.
         11    1    1    2    0    0  0.35815537737E+01 -0.29098721695E+02 -0.11063357943E+03  0.11445240072E+03  0.00000000000E+00 0. -1.
        -15    1    3    3    0    0 -0.89725386880E+01  0.60078287353E+02 -0.11782937028E+02  0.61902361794E+02  0.17770000000E+01 0.  1.
         15    1    3    3    0    0  0.51189684599E+02 -0.46500869119E+02  0.14917000671E+02  0.70769974398E+02  0.17770000000E+01 0.  1.
</event>
<event>
 7    1  0.3091307E-006  0.1584540E+03  0.7546771E-02  0.1089390E+00
        -11   -1    0    0    0    0  0.00000000000E+00  0.00000000000E+00  0.18250000000E+03  0.18250000000E+03  0.00000000000E+00 0.  1.
         11   -1    0    0    0    0 -0.00000000000E+00 -0.00000000000E+00 -0.18250000000E+03  0.18250000000E+03  0.00000000000E+00 0.  1.
         25    2    1    2    0    0  0.15432747280E+02 -0.34075380211E+02 -0.40789498300E+02  0.13670268446E+03  0.12499815815E+03 0.  0.
        -11    1    1    2    0    0  0.13148981062E+02  0.39285840418E+02  0.12896665398E+03  0.13545726559E+03  0.00000000000E+00 0.  1.
         11    1    1    2    0    0 -0.28581728342E+02 -0.52104602073E+01 -0.88177155684E+02  0.92840049952E+02  0.00000000000E+00 0.  1.
        -15    1    3    3    0    0  0.65073999034E+01 -0.50756475903E+02 -0.78934296041E+02  0.94086911524E+02  0.17770000000E+01 0.  1.
         15    1    3    3    0    0  0.89253473765E+01  0.16681095693E+02  0.38144797741E+02  0.42615772936E+02  0.17770000000E+01 0.  1.
</event>
<event>
 7    1  0.3091307E-006  0.1619902E+03  0.7546771E-02  0.1086064E+00
        -11   -1    0    0    0    0  0.00000000000E+00  0.00000000000E+00  0.18250000000E+03  0.18250000000E+03  0.00000000000E+00 0.  1.
         11   -1    0    0    0    0 -0.00000000000E+00 -0.00000000000E+00 -0.18250000000E+03  0.18250000000E+03  0.00000000000E+00 0. -1.
         25    2    1    2    0    0 -0.43834763049E+02 -0.70967891647E+02 -0.79916001287E+02  0.17020301460E+03  0.12499828327E+03 0.  0.
        -11    1    1    2    0    0 -0.38289220291E+02  0.46589097370E+02  0.90214738745E+02  0.10851408881E+03  0.00000000000E+00 0.  1.
         11    1    1    2    0    0  0.82123983340E+02  0.24378794278E+02 -0.10298737457E+02  0.86282896586E+02  0.00000000000E+00 0. -1.
        -15    1    3    3    0    0 -0.34057702250E+02 -0.10072752419E+03 -0.87739843360E+02  0.13786732410E+03  0.17770000000E+01 0.  1.
         15    1    3    3    0    0 -0.97770607987E+01  0.29759632539E+02  0.78238420728E+01  0.32335690506E+02  0.17770000000E+01 0.  1.
</event>
<event>
 7    1  0.3091307E-006  0.1582727E+03  0.7546771E-02  0.1089563E+00
        -11   -1    0    0    0    0  0.00000000000E+00  0.00000000000E+00  0.18250000000E+03  0.18250000000E+03  0.00000000000E+00 0.  1.
         11   -1    0    0    0    0 -0.00000000000E+00 -0.00000000000E+00 -0.18250000000E+03  0.18250000000E+03  0.00000000000E+00 0.  1.
         25    2    1    2    0    0 -0.49583793686E+02  0.15025451313E+02 -0.45838106794E+02  0.14286892156E+03  0.12500431965E+03 0.  0.
        -11    1    1    2    0    0  0.33292958901E+01 -0.49244886219E+02  0.11913177358E+03  0.12895162855E+03  0.00000000000E+00 0.  1.
         11    1    1    2    0    0  0.46254497796E+02  0.34219434906E+02 -0.73293666782E+02  0.93179449891E+02  0.00000000000E+00 0.  1.
        -15    1    3    3    0    0  0.23016795273E+02 -0.33695904223E+02 -0.36753239237E+02  0.54946748307E+02  0.17770000000E+01 0.  1.
         15    1    3    3    0    0 -0.72600588959E+02  0.48721355536E+02 -0.90848675564E+01  0.87922173255E+02  0.17770000000E+01 0.  1.
</event>
<event>
 7    1  0.3091307E-006  0.1560722E+03  0.7546771E-02  0.1091684E+00
        -11   -1    0    0    0    0  0.00000000000E+00  0.00000000000E+00  0.18250000000E+03  0.18250000000E+03  0.00000000000E+00 0.  1.
         11   -1    0    0    0    0 -0.00000000000E+00 -0.00000000000E+00 -0.18250000000E+03  0.18250000000E+03  0.00000000000E+00 0. -1.
         25    2    1    2    0    0  0.43377793957E+01  0.37369428844E+01  0.44975742589E+02  0.13296563328E+03  0.12499704453E+03 0.  0.
        -11    1    1    2    0    0 -0.39890934093E+02  0.48817007719E+02  0.73990076714E+02  0.97205546743E+02  0.00000000000E+00 0.  1.
         11    1    1    2    0    0  0.35553154697E+02 -0.52553950604E+02 -0.11896581930E+03  0.13482881997E+03  0.00000000000E+00 0. -1.
        -15    1    3    3    0    0 -0.28981673191E+02  0.46666869019E+02 -0.97507805815E+01  0.55820869717E+02  0.17770000000E+01 0.  1.
         15    1    3    3    0    0  0.33319452586E+02 -0.42929926135E+02  0.54726523170E+02  0.77144763568E+02  0.17770000000E+01 0.  1.
</event>
<event>
 7    1  0.3091307E-006  0.1629667E+03  0.7546771E-02  0.1085162E+00
        -11   -1    0    0    0    0  0.00000000000E+00  0.00000000000E+00  0.18250000000E+03  0.18250000000E+03  0.00000000000E+00 0.  1.
         11   -1    0    0    0    0 -0.00000000000E+00 -0.00000000000E+00 -0.18250000000E+03  0.18250000000E+03  0.00000000000E+00 0. -1.
         25    2    1    2    0    0  0.86542615491E+02 -0.11344010346E+02 -0.17189154516E+02  0.15342159758E+03  0.12499763479E+03 0.  0.
        -11    1    1    2    0    0 -0.73868631517E+02  0.36477084781E+02  0.96815389611E+02  0.12712345221E+03  0.00000000000E+00 0.  1.
         11    1    1    2    0    0 -0.12673983974E+02 -0.25133074435E+02 -0.79626235095E+02  0.84454950215E+02  0.00000000000E+00 0. -1.
        -15    1    3    3    0    0 -0.19732286761E+02  0.23863630386E+02  0.18238873066E+02  0.35981248112E+02  0.17770000000E+01 0. -1.
         15    1    3    3    0    0  0.10627490225E+03 -0.35207640731E+02 -0.35428027582E+02  0.11744034946E+03  0.17770000000E+01 0. -1.
</event>
<event>
 7    1  0.3091307E-006  0.1595255E+03  0.7546771E-02  0.1088372E+00
        -11   -1    0    0    0    0  0.00000000000E+00  0.00000000000E+00  0.18250000000E+03  0.18250000000E+03  0.00000000000E+00 0.  1.
         11   -1    0    0    0    0 -0.00000000000E+00 -0.00000000000E+00 -0.18250000000E+03  0.18250000000E+03  0.00000000000E+00 0. -1.
         25    2    1    2    0    0 -0.42559263514E+02  0.44759004541E+02 -0.21714891348E+02  0.14111900861E+03  0.12501351402E+03 0.  0.
        -11    1    1    2    0    0  0.30446847615E+02 -0.72125731618E+02  0.10752227121E+03  0.13300440030E+03  0.00000000000E+00 0.  1.
         11    1    1    2    0    0  0.12112415898E+02  0.27366727077E+02 -0.85807379864E+02  0.90876591094E+02  0.00000000000E+00 0. -1.
        -15    1    3    3    0    0 -0.24728953132E+02 -0.40449800246E+02 -0.25696932110E+02  0.53955514193E+02  0.17770000000E+01 0. -1.
         15    1    3    3    0    0 -0.17830310382E+02  0.85208804787E+02  0.39820407619E+01  0.87163494418E+02  0.17770000000E+01 0. -1.
</event>
<event>
 7    1  0.3091307E-006  0.1761950E+03  0.7546771E-02  0.1073587E+00
        -11   -1    0    0    0    0  0.00000000000E+00  0.00000000000E+00  0.18250000000E+03  0.18250000000E+03  0.00000000000E+00 0. -1.
         11   -1    0    0    0    0 -0.00000000000E+00 -0.00000000000E+00 -0.18250000000E+03  0.18250000000E+03  0.00000000000E+00 0.  1.
         25    2    1    2    0    0 -0.52628755114E+02  0.23986820299E+02  0.77613182160E+02  0.15809714119E+03  0.12500298635E+03 0.  0.
        -11    1    1    2    0    0 -0.10927527300E+02 -0.15515642158E+02  0.55769128752E+02  0.58909606400E+02  0.00000000000E+00 0. -1.
         11    1    1    2    0    0  0.63556282414E+02 -0.84711781410E+01 -0.13338231091E+03  0.14799325241E+03  0.00000000000E+00 0.  1.
        -15    1    3    3    0    0 -0.90543021168E+02 -0.25230132035E+01  0.59475880635E+02  0.10837408539E+03  0.17770000000E+01 0. -1.
         15    1    3    3    0    0  0.37914266055E+02  0.26509833502E+02  0.18137301525E+02  0.49723055803E+02  0.17770000000E+01 0. -1.
</event>
<event>
 7    1  0.3091307E-006  0.1517114E+03  0.7546771E-02  0.1096003E+00
        -11   -1    0    0    0    0  0.00000000000E+00  0.00000000000E+00  0.18250000000E+03  0.18250000000E+03  0.00000000000E+00 0.  1.
         11   -1    0    0    0    0 -0.00000000000E+00 -0.00000000000E+00 -0.18250000000E+03  0.18250000000E+03  0.00000000000E+00 0.  1.
         25    2    1    2    0    0  0.40602804994E+02 -0.22859544401E+02  0.11951114439E+02  0.13393661127E+03  0.12500016063E+03 0.  0.
        -11    1    1    2    0    0 -0.60397594869E+01 -0.10876561330E+02  0.10437250513E+03  0.10511136051E+03  0.00000000000E+00 0.  1.
         11    1    1    2    0    0 -0.34563045507E+02  0.33736105731E+02 -0.11632361957E+03  0.12595202822E+03  0.00000000000E+00 0.  1.
        -15    1    3    3    0    0  0.81720433650E+01  0.13790641233E+02 -0.51396402285E+02  0.53867541017E+02  0.17770000000E+01 0. -1.
         15    1    3    3    0    0  0.32430761629E+02 -0.36650185634E+02  0.63347516724E+02  0.80069070252E+02  0.17770000000E+01 0. -1.
</event>
<event>
 7    1  0.3091307E-006  0.1521250E+03  0.7546771E-02  0.1095586E+00
        -11   -1    0    0    0    0  0.00000000000E+00  0.00000000000E+00  0.18250000000E+03  0.18250000000E+03  0.00000000000E+00 0.  1.
         11   -1    0    0    0    0 -0.00000000000E+00 -0.00000000000E+00 -0.18250000000E+03  0.18250000000E+03  0.00000000000E+00 0. -1.
         25    2    1    2    0    0 -0.81183994068E+01 -0.30453858137E+02  0.20231621525E+02  0.13049393261E+03  0.12500400815E+03 0.  0.
        -11    1    1    2    0    0 -0.24229416030E+02 -0.22907816490E+01  0.10149272722E+03  0.10436994759E+03  0.00000000000E+00 0.  1.
         11    1    1    2    0    0  0.32347815437E+02  0.32744639786E+02 -0.12172434875E+03  0.13013611980E+03  0.00000000000E+00 0. -1.
        -15    1    3    3    0    0  0.35689835958E+02  0.11086350744E+02  0.50568905732E+02  0.62905035724E+02  0.17770000000E+01 0.  1.
         15    1    3    3    0    0 -0.43808235365E+02 -0.41540208881E+02 -0.30337284207E+02  0.67588896882E+02  0.17770000000E+01 0.  1.
</event>
<event>
 7    1  0.3091307E-006  0.1490083E+03  0.7546771E-02  0.1098761E+00
        -11   -1    0    0    0    0  0.00000000000E+00  0.00000000000E+00  0.18250000000E+03  0.18250000000E+03  0.00000000000E+00 0.  1.
         11   -1    0    0    0    0 -0.00000000000E+00 -0.00000000000E+00 -0.18250000000E+03  0.18250000000E+03  0.00000000000E+00 0. -1.
         25    2    1    2    0    0 -0.52278943568E+02  0.21153992893E+02 -0.35758268197E+02  0.14171788926E+03  0.12499890814E+03 0.  0.
        -11    1    1    2    0    0 -0.16657970287E+02  0.21610849701E+02  0.10998811548E+03  0.11332211764E+03  0.00000000000E+00 0.  1.
         11    1    1    2    0    0  0.68936913855E+02 -0.42764842594E+02 -0.74229847285E+02  0.10995999310E+03  0.00000000000E+00 0. -1.
        -15    1    3    3    0    0  0.30743935114E+01  0.15269511953E+01 -0.72379663503E+02  0.72482804121E+02  0.17770000000E+01 0. -1.
         15    1    3    3    0    0 -0.55353337079E+02  0.19627041698E+02  0.36621395306E+02  0.69235085143E+02  0.17770000000E+01 0. -1.
</event>
<event>
 7    1  0.3091307E-006  0.1579562E+03  0.7546771E-02  0.1089866E+00
        -11   -1    0    0    0    0  0.00000000000E+00  0.00000000000E+00  0.18250000000E+03  0.18250000000E+03  0.00000000000E+00 0.  1.
         11   -1    0    0    0    0 -0.00000000000E+00 -0.00000000000E+00 -0.18250000000E+03  0.18250000000E+03  0.00000000000E+00 0. -1.
         25    2    1    2    0    0 -0.40236560942E+02  0.84050206827E+02  0.17298247251E+02  0.15686615376E+03  0.12499737090E+03 0.  0.
        -11    1    1    2    0    0 -0.52640471132E+01 -0.94660240879E+02  0.63986099166E+02  0.11437872303E+03  0.00000000000E+00 0.  1.
         11    1    1    2    0    0  0.45500608055E+02  0.10610034052E+02 -0.81284346417E+02  0.93755123212E+02  0.00000000000E+00 0. -1.
        -15    1    3    3    0    0 -0.36317375852E+02 -0.23119286067E+02  0.24144573147E+02  0.49392016748E+02  0.17770000000E+01 0.  1.
         15    1    3    3    0    0 -0.39191850896E+01  0.10716949289E+03 -0.68463258956E+01  0.10747413701E+03  0.17770000000E+01 0.  1.
</event>
<event>
 7    1  0.3091307E-006  0.1660696E+03  0.7546771E-02  0.1082342E+00
        -11   -1    0    0    0    0  0.00000000000E+00  0.00000000000E+00  0.18250000000E+03  0.18250000000E+03  0.00000000000E+00 0.  1.
         11   -1    0    0    0    0 -0.00000000000E+00 -0.00000000000E+00 -0.18250000000E+03  0.18250000000E+03  0.00000000000E+00 0. -1.
         25    2    1    2    0    0  0.10911972313E+03  0.40475220804E+02 -0.52204209977E+02  0.17859209955E+03  0.12499800401E+03 0.  0.
        -11    1    1    2    0    0 -0.13480132663E+02  0.24387154578E+01  0.77394463911E+02  0.78597483126E+02  0.00000000000E+00 0.  1.
         11    1    1    2    0    0 -0.95639590469E+02 -0.42913936262E+02 -0.25190253933E+02  0.10781041732E+03  0.00000000000E+00 0. -1.
        -15    1    3    3    0    0  0.28664568364E+02 -0.10725281594E+02 -0.74567660597E+02  0.80623711653E+02  0.17770000000E+01 0.  1.
         15    1    3    3    0    0  0.80455154768E+02  0.51200502398E+02  0.22363450620E+02  0.97968387897E+02  0.17770000000E+01 0.  1.
</event>
<event>
 7    1  0.3091307E-006  0.1782724E+03  0.7546771E-02  0.1071871E+00
        -11   -1    0    0    0    0  0.00000000000E+00  0.00000000000E+00  0.18250000000E+03  0.18250000000E+03  0.00000000000E+00 0.  1.
         11   -1    0    0    0    0 -0.00000000000E+00 -0.00000000000E+00 -0.18250000000E+03  0.18250000000E+03  0.00000000000E+00 0. -1.
         25    2    1    2    0    0 -0.35107337188E+02 -0.10157337430E+03 -0.94990944789E+02  0.19025042603E+03  0.12498907761E+03 0.  0.
        -11    1    1    2    0    0  0.33297112762E+02  0.47771478794E+02  0.10493260046E+03  0.12000692706E+03  0.00000000000E+00 0.  1.
         11    1    1    2    0    0  0.18102244257E+01  0.53801895510E+02 -0.99416556684E+01  0.54742646907E+02  0.00000000000E+00 0. -1.
        -15    1    3    3    0    0  0.22092045006E+02 -0.70385568410E+02  0.15039022952E+01  0.73807900282E+02  0.17770000000E+01 0. -1.
         15    1    3    3    0    0 -0.57199382194E+02 -0.31187805893E+02 -0.96494847084E+02  0.11644252575E+03  0.17770000000E+01 0. -1.
</event>
<event>
 7    1  0.3091307E-006  0.1786679E+03  0.7546771E-02  0.1071547E+00
        -11   -1    0    0    0    0  0.00000000000E+00  0.00000000000E+00  0.18250000000E+03  0.18250000000E+03  0.00000000000E+00 0.  1.
         11   -1    0    0    0    0 -0.00000000000E+00 -0.00000000000E+00 -0.18250000000E+03  0.18250000000E+03  0.00000000000E+00 0.  1.
         25    2    1    2    0    0  0.45753202471E+01 -0.30171809744E+02  0.94201789109E+02  0.15946804876E+03  0.12499923938E+03 0.  0.
        -11    1    1    2    0    0  0.15301784208E+02 -0.81804827731E+01  0.51089236169E+02  0.53955305121E+02  0.00000000000E+00 0.  1.
         11    1    1    2    0    0 -0.19877104455E+02  0.38352292517E+02 -0.14529102528E+03  0.15157664612E+03  0.00000000000E+00 0.  1.
        -15    1    3    3    0    0 -0.47706780784E+02 -0.52564815604E+02  0.43639763215E+02  0.83346166286E+02  0.17770000000E+01 0.  1.
         15    1    3    3    0    0  0.52282101031E+02  0.22393005860E+02  0.50562025894E+02  0.76121882473E+02  0.17770000000E+01 0.  1.
</event>
<event>
 7    1  0.3091307E-006  0.1603557E+03  0.7546771E-02  0.1087590E+00
        -11   -1    0    0    0    0  0.00000000000E+00  0.00000000000E+00  0.18250000000E+03  0.18250000000E+03  0.00000000000E+00 0.  1.
         11   -1    0    0    0    0 -0.00000000000E+00 -0.00000000000E+00 -0.18250000000E+03  0.18250000000E+03  0.00000000000E+00 0. -1.
         25    2    1    2    0    0  0.84209025811E+01 -0.93476952165E+02  0.36199742435E+02  0.16044543556E+03  0.12499385687E+03 0.  0.
        -11    1    1    2    0    0 -0.16539530466E+02  0.51743865157E+02  0.70903610915E+02  0.89321361892E+02  0.00000000000E+00 0.  1.
         11    1    1    2    0    0  0.81186278849E+01  0.41733087008E+02 -0.10710335335E+03  0.11523320255E+03  0.00000000000E+00 0. -1.
        -15    1    3    3    0    0  0.10463435951E+02  0.19817359452E+02  0.41280687308E+02  0.47004936987E+02  0.17770000000E+01 0. -1.
         15    1    3    3    0    0 -0.20425333695E+01 -0.11329431162E+03 -0.50809448726E+01  0.11344049858E+03  0.17770000000E+01 0. -1.
</event>
<event>
 7    1  0.3091307E-006  0.1527610E+03  0.7546771E-02  0.1094949E+00
        -11   -1    0    0    0    0  0.00000000000E+00  0.00000000000E+00  0.18250000000E+03  0.18250000000E+03  0.00000000000E+00 0.  1.
         11   -1    0    0    0    0 -0.00000000000E+00 -0.00000000000E+00 -0.18250000000E+03  0.18250000000E+03  0.00000000000E+00 0.  1.
         25    2    1    2    0    0  0.44767163026E+02  0.14652157210E+02  0.19888504706E+02  0.13504054749E+03  0.12498644827E+03 0.  0.
        -11    1    1    2    0    0 -0.20705768477E+02  0.85432213783E+02  0.54074936255E+02  0.10320605957E+03  0.00000000000E+00 0.  1.
         11    1    1    2    0    0 -0.24061394549E+02 -0.10008437099E+03 -0.73963440962E+02  0.12675339295E+03  0.00000000000E+00 0.  1.
        -15    1    3    3    0    0  0.74531628280E+02 -0.19265140037E+01 -0.25002055661E+02  0.78657075883E+02  0.17770000000E+01 0. -1.
         15    1    3    3    0    0 -0.29764465254E+02  0.16578671214E+02  0.44890560367E+02  0.56383471604E+02  0.17770000000E+01 0. -1.
</event>
