<event>
 7    1  0.2665312E-004  0.1930352E+03  0.7546771E-02  0.1060365E+00
        -11   -1    0    0    0    0  0.00000000000E+00  0.00000000000E+00  0.18250000000E+03  0.18250000000E+03  0.00000000000E+00 0.  1.
         11   -1    0    0    0    0 -0.00000000000E+00 -0.00000000000E+00 -0.18250000000E+03  0.18250000000E+03  0.00000000000E+00 0.  1.
         23    2    1    2    0    0  0.25397200567E+02  0.41973627782E+01 -0.16989377540E+03  0.19303518184E+03  0.87954822810E+02 0.  0.
        -11    1    1    2    0    0 -0.22480044056E+02 -0.54566014687E+01  0.15643150313E+03  0.15813267231E+03  0.00000000000E+00 0.  1.
         11    1    1    2    0    0 -0.29171565108E+01  0.12592386905E+01  0.13462272276E+02  0.13832145857E+02  0.00000000000E+00 0.  1.
        -15    1    3    3    0    0 -0.14864227137E+02  0.36418142191E+02 -0.62139757185E+02  0.73564485188E+02  0.17770000000E+01 0. -1.
         15    1    3    3    0    0  0.40261427704E+02 -0.32220779413E+02 -0.10775401822E+03  0.11947069665E+03  0.17770000000E+01 0.  1.
</event>
<event>
 7    1  0.2665312E-004  0.1935998E+03  0.7546771E-02  0.1059947E+00
        -11   -1    0    0    0    0  0.00000000000E+00  0.00000000000E+00  0.18250000000E+03  0.18250000000E+03  0.00000000000E+00 0. -1.
         11   -1    0    0    0    0 -0.00000000000E+00 -0.00000000000E+00 -0.18250000000E+03  0.18250000000E+03  0.00000000000E+00 0. -1.
         23    2    1    2    0    0 -0.65293971824E+01 -0.89480061551E+01  0.17001530796E+03  0.19359977277E+03  0.91940019758E+02 0.  0.
        -11    1    1    2    0    0  0.11580360557E+02  0.11099757868E+02 -0.11536956455E+03  0.11647937929E+03  0.00000000000E+00 0. -1.
         11    1    1    2    0    0 -0.50509633747E+01 -0.21517517131E+01 -0.54645743412E+02  0.54920847949E+02  0.00000000000E+00 0. -1.
        -15    1    3    3    0    0  0.26285190561E+02  0.98718876031E+01  0.11116637210E+02  0.30250665440E+02  0.17770000000E+01 0.  1.
         15    1    3    3    0    0 -0.32814587743E+02 -0.18819893758E+02  0.15889867075E+03  0.16334910733E+03  0.17770000000E+01 0. -1.
</event>
<event>
 7    1  0.2665312E-004  0.1940839E+03  0.7546771E-02  0.1059591E+00
        -11   -1    0    0    0    0  0.00000000000E+00  0.00000000000E+00  0.18250000000E+03  0.18250000000E+03  0.00000000000E+00 0.  1.
         11   -1    0    0    0    0 -0.00000000000E+00 -0.00000000000E+00 -0.18250000000E+03  0.18250000000E+03  0.00000000000E+00 0. -1.
         23    2    1    2    0    0 -0.45541093648E+01  0.51041070918E+01  0.17075168277E+03  0.19408391808E+03  0.92008903189E+02 0.  0.
        -11    1    1    2    0    0  0.14012423578E+01 -0.57288685162E+00 -0.17612524605E+02  0.17677463123E+02  0.00000000000E+00 0.  1.
         11    1    1    2    0    0  0.31528670070E+01 -0.45312202402E+01 -0.15313915817E+03  0.15323861880E+03  0.00000000000E+00 0. -1.
        -15    1    3    3    0    0 -0.79183037963E+01  0.46250841372E+02  0.62212186456E+02  0.77944555520E+02  0.17770000000E+01 0. -1.
         15    1    3    3    0    0  0.33641944315E+01 -0.41146734280E+02  0.10853949632E+03  0.11613936256E+03  0.17770000000E+01 0.  1.
</event>
<event>
 7    1  0.2665312E-004  0.1947372E+03  0.7546771E-02  0.1059111E+00
        -11   -1    0    0    0    0  0.00000000000E+00  0.00000000000E+00  0.18250000000E+03  0.18250000000E+03  0.00000000000E+00 0.  1.
         11   -1    0    0    0    0 -0.00000000000E+00 -0.00000000000E+00 -0.18250000000E+03  0.18250000000E+03  0.00000000000E+00 0. -1.
         23    2    1    2    0    0  0.56647162376E+01 -0.31633495298E+02  0.16653522348E+03  0.19473718993E+03  0.95686077598E+02 0.  0.
        -11    1    1    2    0    0 -0.20016913941E+01  0.16954810459E+02 -0.12288204214E+03  0.12406235789E+03  0.00000000000E+00 0. -1.
         11    1    1    2    0    0 -0.36630248434E+01  0.14678684839E+02 -0.43653181346E+02  0.46200452176E+02  0.00000000000E+00 0.  1.
        -15    1    3    3    0    0  0.11511944183E+02 -0.39798346356E+02  0.17600250407E+03  0.18082165910E+03  0.17770000000E+01 0.  1.
         15    1    3    3    0    0 -0.58472279459E+01  0.81648510581E+01 -0.94672805892E+01  0.13915530827E+02  0.17770000000E+01 0. -1.
</event>
<event>
 7    1  0.2665312E-004  0.1938177E+03  0.7546771E-02  0.1059787E+00
        -11   -1    0    0    0    0  0.00000000000E+00  0.00000000000E+00  0.18250000000E+03  0.18250000000E+03  0.00000000000E+00 0. -1.
         11   -1    0    0    0    0 -0.00000000000E+00 -0.00000000000E+00 -0.18250000000E+03  0.18250000000E+03  0.00000000000E+00 0. -1.
         23    2    1    2    0    0  0.31474747130E+00  0.55529332089E+01 -0.17108812823E+03  0.19381767232E+03  0.90902191104E+02 0.  0.
        -11    1    1    2    0    0 -0.67728966328E+00 -0.33188564881E+01  0.11065880832E+03  0.11071063810E+03  0.00000000000E+00 0. -1.
         11    1    1    2    0    0  0.36254219198E+00 -0.22340767208E+01  0.60429319909E+02  0.60471689577E+02  0.00000000000E+00 0. -1.
        -15    1    3    3    0    0 -0.19699782584E+02  0.10750190846E+02 -0.10703289341E+01  0.22537776512E+02  0.17770000000E+01 0.  1.
         15    1    3    3    0    0  0.20014530055E+02 -0.51972576367E+01 -0.17001779930E+03  0.17127989581E+03  0.17770000000E+01 0. -1.
</event>
<event>
 7    1  0.2665312E-004  0.1922067E+03  0.7546771E-02  0.1060981E+00
        -11   -1    0    0    0    0  0.00000000000E+00  0.00000000000E+00  0.18250000000E+03  0.18250000000E+03  0.00000000000E+00 0.  1.
         11   -1    0    0    0    0 -0.00000000000E+00 -0.00000000000E+00 -0.18250000000E+03  0.18250000000E+03  0.00000000000E+00 0. -1.
         23    2    1    2    0    0 -0.15699040948E+03  0.48558037424E+01 -0.63239342172E+02  0.19220666556E+03  0.90964940431E+02 0.  0.
        -11    1    1    2    0    0  0.26860072922E+02  0.11685936843E+02  0.73107096379E+01  0.30190579867E+02  0.00000000000E+00 0. -1.
         11    1    1    2    0    0  0.13013033656E+03 -0.16541740586E+02  0.55928632534E+02  0.14260275457E+03  0.00000000000E+00 0.  1.
        -15    1    3    3    0    0 -0.14401731886E+02  0.21821944795E+02  0.13396714104E+02  0.29431901632E+02  0.17770000000E+01 0.  1.
         15    1    3    3    0    0 -0.14258867760E+03 -0.16966141052E+02 -0.76636056276E+02  0.16277476393E+03  0.17770000000E+01 0. -1.
</event>
<event>
 7    1  0.2665312E-004  0.1946897E+03  0.7546771E-02  0.1059146E+00
        -11   -1    0    0    0    0  0.00000000000E+00  0.00000000000E+00  0.18250000000E+03  0.18250000000E+03  0.00000000000E+00 0.  1.
         11   -1    0    0    0    0 -0.00000000000E+00 -0.00000000000E+00 -0.18250000000E+03  0.18250000000E+03  0.00000000000E+00 0.  1.
         23    2    1    2    0    0  0.24438651691E+02  0.19893721890E+02  0.16727311811E+03  0.19468972870E+03  0.94502838859E+02 0.  0.
        -11    1    1    2    0    0 -0.19583639592E+02 -0.18208437682E+02 -0.13393516476E+03  0.13657852870E+03  0.00000000000E+00 0.  1.
         11    1    1    2    0    0 -0.48550120995E+01 -0.16852842087E+01 -0.33337953348E+02  0.33731742599E+02  0.00000000000E+00 0.  1.
        -15    1    3    3    0    0  0.47073623498E+02 -0.19264388652E+02  0.62807142471E+02  0.80838960742E+02  0.17770000000E+01 0.  1.
         15    1    3    3    0    0 -0.22634971806E+02  0.39158110543E+02  0.10446597564E+03  0.11385076796E+03  0.17770000000E+01 0. -1.
</event>
<event>
 7    1  0.2665312E-004  0.1929360E+03  0.7546771E-02  0.1060438E+00
        -11   -1    0    0    0    0  0.00000000000E+00  0.00000000000E+00  0.18250000000E+03  0.18250000000E+03  0.00000000000E+00 0.  1.
         11   -1    0    0    0    0 -0.00000000000E+00 -0.00000000000E+00 -0.18250000000E+03  0.18250000000E+03  0.00000000000E+00 0. -1.
         23    2    1    2    0    0 -0.48535316837E+02 -0.28798244570E+02  0.16020472300E+03  0.19293600705E+03  0.91508107147E+02 0.  0.
        -11    1    1    2    0    0  0.31025285402E+02  0.29958846193E+02 -0.13178608939E+03  0.13866388916E+03  0.00000000000E+00 0. -1.
         11    1    1    2    0    0  0.17510031435E+02 -0.11606016234E+01 -0.28418633610E+02  0.33400103791E+02  0.00000000000E+00 0.  1.
        -15    1    3    3    0    0 -0.75307580932E+02 -0.21707823680E+02  0.13087315459E+03  0.15255622463E+03  0.17770000000E+01 0.  1.
         15    1    3    3    0    0  0.26772264095E+02 -0.70904208902E+01  0.29331568416E+02  0.40379782415E+02  0.17770000000E+01 0. -1.
</event>
<event>
 7    1  0.2665312E-004  0.1929158E+03  0.7546771E-02  0.1060453E+00
        -11   -1    0    0    0    0  0.00000000000E+00  0.00000000000E+00  0.18250000000E+03  0.18250000000E+03  0.00000000000E+00 0. -1.
         11   -1    0    0    0    0 -0.00000000000E+00 -0.00000000000E+00 -0.18250000000E+03  0.18250000000E+03  0.00000000000E+00 0.  1.
         23    2    1    2    0    0  0.19334118970E+02  0.61929276290E+02 -0.15889502199E+03  0.19291579033E+03  0.88089901385E+02 0.  0.
        -11    1    1    2    0    0 -0.11932819028E+02 -0.19429876122E+02  0.60176188904E+02  0.64351270128E+02  0.00000000000E+00 0.  1.
         11    1    1    2    0    0 -0.74012999429E+01 -0.42499400168E+02  0.98718833090E+02  0.10773293954E+03  0.00000000000E+00 0. -1.
        -15    1    3    3    0    0  0.32257387482E+02 -0.47322430798E+01 -0.91825272888E+02  0.97457537634E+02  0.17770000000E+01 0.  1.
         15    1    3    3    0    0 -0.12923268511E+02  0.66661519370E+02 -0.67069749107E+02  0.95458252697E+02  0.17770000000E+01 0. -1.
</event>
<event>
 7    1  0.2665312E-004  0.1803854E+03  0.7546771E-02  0.1070151E+00
        -11   -1    0    0    0    0  0.00000000000E+00  0.00000000000E+00  0.18250000000E+03  0.18250000000E+03  0.00000000000E+00 0.  1.
         11   -1    0    0    0    0 -0.00000000000E+00 -0.00000000000E+00 -0.18250000000E+03  0.18250000000E+03  0.00000000000E+00 0. -1.
         23    2    1    2    0    0  0.24711053746E+01 -0.99498122992E+02  0.12495334349E+03  0.18486748271E+03  0.93041202020E+02 0.  0.
        -11    1    1    2    0    0 -0.21203303480E+02 -0.63498277625E+01 -0.18483917516E+02  0.28836705738E+02  0.00000000000E+00 0.  1.
         11    1    1    2    0    0  0.18732198105E+02  0.10584795075E+03 -0.10646942598E+03  0.15129581155E+03  0.00000000000E+00 0. -1.
        -15    1    3    3    0    0 -0.84002473358E+01  0.24488092560E+00 -0.12201666664E+02  0.14921880590E+02  0.17770000000E+01 0. -1.
         15    1    3    3    0    0  0.10871352710E+02 -0.99743003917E+02  0.13715501016E+03  0.16994560212E+03  0.17770000000E+01 0.  1.
</event>
<event>
 7    1  0.2665312E-004  0.1940593E+03  0.7546771E-02  0.1059609E+00
        -11   -1    0    0    0    0  0.00000000000E+00  0.00000000000E+00  0.18250000000E+03  0.18250000000E+03  0.00000000000E+00 0.  1.
         11   -1    0    0    0    0 -0.00000000000E+00 -0.00000000000E+00 -0.18250000000E+03  0.18250000000E+03  0.00000000000E+00 0. -1.
         23    2    1    2    0    0 -0.34611767510E+01 -0.17994812363E+01  0.17088443667E+03  0.19405927332E+03  0.91881951376E+02 0.  0.
        -11    1    1    2    0    0  0.15100165212E+01 -0.27794971982E+00 -0.58041758248E+02  0.58062062540E+02  0.00000000000E+00 0.  1.
         11    1    1    2    0    0  0.19511602298E+01  0.20774309562E+01 -0.11284267842E+03  0.11287866414E+03  0.00000000000E+00 0. -1.
        -15    1    3    3    0    0  0.57623024633E+01  0.39284460022E+02  0.39313010765E+02  0.55902982687E+02  0.17770000000E+01 0. -1.
         15    1    3    3    0    0 -0.92234792143E+01 -0.41083941258E+02  0.13157142590E+03  0.13815629063E+03  0.17770000000E+01 0.  1.
</event>
<event>
 7    1  0.2665312E-004  0.1909456E+03  0.7546771E-02  0.1061924E+00
        -11   -1    0    0    0    0  0.00000000000E+00  0.00000000000E+00  0.18250000000E+03  0.18250000000E+03  0.00000000000E+00 0.  1.
         11   -1    0    0    0    0 -0.00000000000E+00 -0.00000000000E+00 -0.18250000000E+03  0.18250000000E+03  0.00000000000E+00 0. -1.
         23    2    1    2    0    0  0.35625995697E+02 -0.67567506835E+02 -0.15127418842E+03  0.19094563706E+03  0.87987366597E+02 0.  0.
        -11    1    1    2    0    0 -0.28907087029E+02  0.49785958362E+02  0.14132197617E+03  0.15259804153E+03  0.00000000000E+00 0.  1.
         11    1    1    2    0    0 -0.67189086676E+01  0.17781548474E+02  0.99522122450E+01  0.21456321408E+02  0.00000000000E+00 0. -1.
        -15    1    3    3    0    0  0.14909401768E+02 -0.86792746202E+02 -0.11806598817E+03  0.14730243157E+03  0.17770000000E+01 0. -1.
         15    1    3    3    0    0  0.20716593929E+02  0.19225239367E+02 -0.33208200251E+02  0.43643205493E+02  0.17770000000E+01 0.  1.
</event>
<event>
 7    1  0.2665312E-004  0.1929298E+03  0.7546771E-02  0.1060443E+00
        -11   -1    0    0    0    0  0.00000000000E+00  0.00000000000E+00  0.18250000000E+03  0.18250000000E+03  0.00000000000E+00 0. -1.
         11   -1    0    0    0    0 -0.00000000000E+00 -0.00000000000E+00 -0.18250000000E+03  0.18250000000E+03  0.00000000000E+00 0.  1.
         23    2    1    2    0    0 -0.16629074705E+03  0.12133944628E+02 -0.37238101565E+02  0.19292983516E+03  0.89640392238E+02 0.  0.
        -11    1    1    2    0    0  0.70874030587E+01 -0.79116908405E+00  0.62505909375E+01  0.94829909682E+01  0.00000000000E+00 0.  1.
         11    1    1    2    0    0  0.15920334399E+03 -0.11342775543E+02  0.30987510627E+02  0.16258717387E+03  0.00000000000E+00 0. -1.
        -15    1    3    3    0    0 -0.15803834090E+03  0.26899684232E+02 -0.53881166679E+02  0.16913322576E+03  0.17770000000E+01 0.  1.
         15    1    3    3    0    0 -0.82524061503E+01 -0.14765739605E+02  0.16643065114E+02  0.23796609396E+02  0.17770000000E+01 0. -1.
</event>
<event>
 6    1  0.2665312E-004  0.1840649E+03  0.7546771E-02  0.1067216E+00
        -11   -1    0    0    0    0  0.00000000000E+00  0.00000000000E+00  0.18250000000E+03  0.18250000000E+03  0.00000000000E+00 0. -1.
         11   -1    0    0    0    0 -0.00000000000E+00 -0.00000000000E+00 -0.18250000000E+03  0.18250000000E+03  0.00000000000E+00 0.  1.
        -11    1    1    2    0    0  0.36589141655E+01 -0.33513509119E+01  0.23287821667E+02  0.23810540603E+02  0.00000000000E+00 0.  1.
         11    1    1    2    0    0  0.13956224585E+02 -0.17022940689E+02  0.15557499406E+03  0.15712458589E+03  0.00000000000E+00 0. -1.
        -15    1    1    2    0    0  0.36586892376E+01 -0.29270708061E+01 -0.41197289322E+01  0.64871909110E+01  0.17770000000E+01 0.  1.
         15    1    1    2    0    0 -0.21273827988E+02  0.23301362407E+02 -0.17474308679E+03  0.17757768260E+03  0.17770000000E+01 0.  1.
</event>
<event>
 7    1  0.2665312E-004  0.1939082E+03  0.7546771E-02  0.1059720E+00
        -11   -1    0    0    0    0  0.00000000000E+00  0.00000000000E+00  0.18250000000E+03  0.18250000000E+03  0.00000000000E+00 0.  1.
         11   -1    0    0    0    0 -0.00000000000E+00 -0.00000000000E+00 -0.18250000000E+03  0.18250000000E+03  0.00000000000E+00 0. -1.
         23    2    1    2    0    0  0.48704890986E+02 -0.40774386443E+02  0.15660796534E+03  0.19390815919E+03  0.95076823665E+02 0.  0.
        -11    1    1    2    0    0 -0.48886582878E+02  0.33088854924E+02 -0.14903624154E+03  0.16030150217E+03  0.00000000000E+00 0. -1.
         11    1    1    2    0    0  0.18169189235E+00  0.76855315190E+01 -0.75717237970E+01  0.10790338638E+02  0.00000000000E+00 0.  1.
        -15    1    3    3    0    0  0.29848091770E+02  0.25939093490E+02  0.30433329986E+02  0.49930856757E+02  0.17770000000E+01 0. -1.
         15    1    3    3    0    0  0.18856799216E+02 -0.66713479933E+02  0.12617463535E+03  0.14397730243E+03  0.17770000000E+01 0.  1.
</event>
<event>
 7    1  0.2665312E-004  0.1938728E+03  0.7546771E-02  0.1059746E+00
        -11   -1    0    0    0    0  0.00000000000E+00  0.00000000000E+00  0.18250000000E+03  0.18250000000E+03  0.00000000000E+00 0. -1.
         11   -1    0    0    0    0 -0.00000000000E+00 -0.00000000000E+00 -0.18250000000E+03  0.18250000000E+03  0.00000000000E+00 0. -1.
         23    2    1    2    0    0 -0.11393213196E+02 -0.38796588033E+02  0.16557444761E+03  0.19387284406E+03  0.92394812687E+02 0.  0.
        -11    1    1    2    0    0  0.63623851457E+01  0.34496557507E+02 -0.11828315206E+03  0.12337502375E+03  0.00000000000E+00 0. -1.
         11    1    1    2    0    0  0.50308280502E+01  0.43000305256E+01 -0.47291295554E+02  0.47752132189E+02  0.00000000000E+00 0. -1.
        -15    1    3    3    0    0 -0.49874864976E+02 -0.36671880400E+02  0.94121199193E+02  0.11266892577E+03  0.17770000000E+01 0. -1.
         15    1    3    3    0    0  0.38481651780E+02 -0.21247076326E+01  0.71453248420E+02  0.81203918286E+02  0.17770000000E+01 0.  1.
</event>
<event>
 7    1  0.2665312E-004  0.1946913E+03  0.7546771E-02  0.1059144E+00
        -11   -1    0    0    0    0  0.00000000000E+00  0.00000000000E+00  0.18250000000E+03  0.18250000000E+03  0.00000000000E+00 0.  1.
         11   -1    0    0    0    0 -0.00000000000E+00 -0.00000000000E+00 -0.18250000000E+03  0.18250000000E+03  0.00000000000E+00 0.  1.
         23    2    1    2    0    0  0.12900296722E+01  0.75116671804E+01  0.17009729341E+03  0.19469130420E+03  0.94411468512E+02 0.  0.
        -11    1    1    2    0    0  0.78857998161E+00 -0.37149570496E+01 -0.10434303614E+03  0.10441212552E+03  0.00000000000E+00 0.  1.
         11    1    1    2    0    0 -0.20786096538E+01 -0.37967101308E+01 -0.65754257266E+02  0.65896570279E+02  0.00000000000E+00 0.  1.
        -15    1    3    3    0    0 -0.27309183190E+01 -0.25055091561E+02  0.15747406689E+03  0.15948810301E+03  0.17770000000E+01 0.  1.
         15    1    3    3    0    0  0.40209479912E+01  0.32566758741E+02  0.12623226514E+02  0.35203201194E+02  0.17770000000E+01 0. -1.
</event>
<event>
 7    1  0.2665312E-004  0.1939014E+03  0.7546771E-02  0.1059725E+00
        -11   -1    0    0    0    0  0.00000000000E+00  0.00000000000E+00  0.18250000000E+03  0.18250000000E+03  0.00000000000E+00 0. -1.
         11   -1    0    0    0    0 -0.00000000000E+00 -0.00000000000E+00 -0.18250000000E+03  0.18250000000E+03  0.00000000000E+00 0.  1.
         23    2    1    2    0    0  0.84305121051E+02  0.89040925330E+02  0.11725370190E+03  0.19390136067E+03  0.93881133579E+02 0.  0.
        -11    1    1    2    0    0 -0.79956860437E+02 -0.86502374257E+02 -0.10480430308E+03  0.15766959830E+03  0.00000000000E+00 0. -1.
         11    1    1    2    0    0 -0.43482606146E+01 -0.25385510730E+01 -0.12449398820E+02  0.13429041027E+02  0.00000000000E+00 0.  1.
        -15    1    3    3    0    0  0.15444976164E+02  0.59319789688E+02  0.86868009699E+01  0.61935474306E+02  0.17770000000E+01 0.  1.
         15    1    3    3    0    0  0.68860144887E+02  0.29721135642E+02  0.10856690093E+03  0.13196588637E+03  0.17770000000E+01 0. -1.
</event>
