<event>
 7    1  0.1735947E-005  0.5043711E+03  0.7546771E-02  0.9390082E-01
        -11   -1    0    0    0    0  0.00000000000E+00  0.00000000000E+00  0.50000000000E+03  0.50000000000E+03  0.00000000000E+00 0.  1.
         11   -1    0    0    0    0 -0.00000000000E+00 -0.00000000000E+00 -0.50000000000E+03  0.50000000000E+03  0.00000000000E+00 0. -1.
         23    2    1    2    0    0 -0.58103201338E-01 -0.13101371353E+02  0.49541878153E+03  0.50437108896E+03  0.93695127843E+02 0.  0.
        -11    1    1    2    0    0 -0.44768798534E+00  0.71419292507E+01 -0.16384615540E+03  0.16400234821E+03  0.00000000000E+00 0.  1.
         11    1    1    2    0    0  0.50579118668E+00  0.59594421025E+01 -0.33157262613E+03  0.33162656283E+03  0.00000000000E+00 0. -1.
        -15    1    3    3    0    0 -0.24496406084E+01 -0.33052491807E+02  0.60677221510E+02  0.69161773350E+02  0.17770000000E+01 0. -1.
         15    1    3    3    0    0  0.23915374070E+01  0.19951120453E+02  0.43474156002E+03  0.43520931561E+03  0.17770000000E+01 0.  1.
</event>
<event>
 7    1  0.1735947E-005  0.5025823E+03  0.7546771E-02  0.9394050E-01
        -11   -1    0    0    0    0  0.00000000000E+00  0.00000000000E+00  0.50000000000E+03  0.50000000000E+03  0.00000000000E+00 0.  1.
         11   -1    0    0    0    0 -0.00000000000E+00 -0.00000000000E+00 -0.50000000000E+03  0.50000000000E+03  0.00000000000E+00 0. -1.
         23    2    1    2    0    0  0.10621079627E+03 -0.40785160987E+02  0.48003878891E+03  0.50258227034E+03  0.95955911759E+02 0.  0.
        -11    1    1    2    0    0 -0.70789271076E+02  0.40128044597E+02 -0.41912231859E+03  0.42694835613E+03  0.00000000000E+00 0. -1.
         11    1    1    2    0    0 -0.35421525193E+02  0.65711639007E+00 -0.60916470321E+02  0.70469373527E+02  0.00000000000E+00 0.  1.
        -15    1    3    3    0    0  0.12459238731E+03 -0.34089847747E+02  0.41503380553E+03  0.43467412870E+03  0.17770000000E+01 0.  1.
         15    1    3    3    0    0 -0.18381591040E+02 -0.66953132400E+01  0.65004983380E+02  0.67908141646E+02  0.17770000000E+01 0. -1.
</event>
<event>
 7    1  0.1735947E-005  0.5040829E+03  0.7546771E-02  0.9390720E-01
        -11   -1    0    0    0    0  0.00000000000E+00  0.00000000000E+00  0.50000000000E+03  0.50000000000E+03  0.00000000000E+00 0. -1.
         11   -1    0    0    0    0 -0.00000000000E+00 -0.00000000000E+00 -0.50000000000E+03  0.50000000000E+03  0.00000000000E+00 0.  1.
         23    2    1    2    0    0  0.28053042426E+02  0.13159525665E+01  0.49494803698E+03  0.50408286150E+03  0.91308636110E+02 0.  0.
        -11    1    1    2    0    0 -0.62549105975E+01  0.52687132686E+01 -0.12014929818E+03  0.12042731044E+03  0.00000000000E+00 0. -1.
         11    1    1    2    0    0 -0.21798131828E+02 -0.65846658350E+01 -0.37479873880E+03  0.37548982807E+03  0.00000000000E+00 0.  1.
        -15    1    3    3    0    0  0.32361553733E+02  0.41025937330E+02  0.34302793640E+03  0.34698951075E+03  0.17770000000E+01 0. -1.
         15    1    3    3    0    0 -0.43085113072E+01 -0.39709984763E+02  0.15192010058E+03  0.15709335075E+03  0.17770000000E+01 0.  1.
</event>
<event>
 7    1  0.1735947E-005  0.5041005E+03  0.7546771E-02  0.9390681E-01
        -11   -1    0    0    0    0  0.00000000000E+00  0.00000000000E+00  0.50000000000E+03  0.50000000000E+03  0.00000000000E+00 0. -1.
         11   -1    0    0    0    0 -0.00000000000E+00 -0.00000000000E+00 -0.50000000000E+03  0.50000000000E+03  0.00000000000E+00 0. -1.
         23    2    1    2    0    0  0.76660576020E+01 -0.10791826972E+02  0.49570472096E+03  0.50410053399E+03  0.90658402862E+02 0.  0.
        -11    1    1    2    0    0  0.10742929114E+00  0.21992653994E+01 -0.10445590794E+03  0.10447911281E+03  0.00000000000E+00 0. -1.
         11    1    1    2    0    0 -0.77734868931E+01  0.85925615729E+01 -0.39124881303E+03  0.39142035321E+03  0.00000000000E+00 0. -1.
        -15    1    3    3    0    0  0.33009650179E+02 -0.98293475599E+01  0.74129302351E+02  0.81759184649E+02  0.17770000000E+01 0.  1.
         15    1    3    3    0    0 -0.25343592577E+02 -0.96247941237E+00  0.42157541861E+03  0.42234134934E+03  0.17770000000E+01 0. -1.
</event>
<event>
 7    1  0.1735947E-005  0.5006298E+03  0.7546771E-02  0.9398401E-01
        -11   -1    0    0    0    0  0.00000000000E+00  0.00000000000E+00  0.50000000000E+03  0.50000000000E+03  0.00000000000E+00 0. -1.
         11   -1    0    0    0    0 -0.00000000000E+00 -0.00000000000E+00 -0.50000000000E+03  0.50000000000E+03  0.00000000000E+00 0.  1.
         23    2    1    2    0    0  0.28351291606E+02 -0.16248219735E+02 -0.49080780237E+03  0.50062984849E+03  0.93113618537E+02 0.  0.
        -11    1    1    2    0    0 -0.80175385552E+01 -0.62628004590E+00  0.45393921466E+03  0.45401044454E+03  0.00000000000E+00 0. -1.
         11    1    1    2    0    0 -0.20333753051E+02  0.16874499781E+02  0.36868587712E+02  0.45359706964E+02  0.00000000000E+00 0.  1.
        -15    1    3    3    0    0  0.23730964764E+01  0.32385854505E+02 -0.30711779113E+03  0.30883485962E+03  0.17770000000E+01 0.  1.
         15    1    3    3    0    0  0.25978195130E+02 -0.48634074240E+02 -0.18369001124E+03  0.19179498887E+03  0.17770000000E+01 0. -1.
</event>
<event>
 7    1  0.1735947E-005  0.5041503E+03  0.7546771E-02  0.9390571E-01
        -11   -1    0    0    0    0  0.00000000000E+00  0.00000000000E+00  0.50000000000E+03  0.50000000000E+03  0.00000000000E+00 0.  1.
         11   -1    0    0    0    0 -0.00000000000E+00 -0.00000000000E+00 -0.50000000000E+03  0.50000000000E+03  0.00000000000E+00 0. -1.
         23    2    1    2    0    0  0.57944335115E+02 -0.18349957221E+02 -0.49179623574E+03  0.50415029455E+03  0.92788550515E+02 0.  0.
        -11    1    1    2    0    0 -0.37964235995E+02  0.13795485997E+02  0.38434911780E+03  0.38646583679E+03  0.00000000000E+00 0.  1.
         11    1    1    2    0    0 -0.19980099120E+02  0.45544712233E+01  0.10744711794E+03  0.10938386866E+03  0.00000000000E+00 0. -1.
        -15    1    3    3    0    0  0.56739198238E+02  0.40424610256E+01 -0.13319079760E+03  0.14483999586E+03  0.17770000000E+01 0.  1.
         15    1    3    3    0    0  0.12051368775E+01 -0.22392418246E+02 -0.35860543814E+03  0.35931029869E+03  0.17770000000E+01 0. -1.
</event>
<event>
 7    1  0.1735947E-005  0.5036273E+03  0.7546771E-02  0.9391730E-01
        -11   -1    0    0    0    0  0.00000000000E+00  0.00000000000E+00  0.50000000000E+03  0.50000000000E+03  0.00000000000E+00 0. -1.
         11   -1    0    0    0    0 -0.00000000000E+00 -0.00000000000E+00 -0.50000000000E+03  0.50000000000E+03  0.00000000000E+00 0. -1.
         23    2    1    2    0    0  0.18227038913E+03  0.85809169184E+02  0.45256664935E+03  0.50362731434E+03  0.90764483027E+02 0.  0.
        -11    1    1    2    0    0 -0.17621528253E+03 -0.80993124415E+02 -0.44554782848E+03  0.48592651652E+03  0.00000000000E+00 0. -1.
         11    1    1    2    0    0 -0.60551066048E+01 -0.48160447687E+01 -0.70188208680E+01  0.10446169134E+02  0.00000000000E+00 0. -1.
        -15    1    3    3    0    0  0.45519533545E+02 -0.15739824622E+01  0.18632243593E+03  0.19181687416E+03  0.17770000000E+01 0.  1.
         15    1    3    3    0    0  0.13675085559E+03  0.87383151646E+02  0.26624421342E+03  0.31181044018E+03  0.17770000000E+01 0. -1.
</event>
<event>
 7    1  0.1735947E-005  0.5026082E+03  0.7546771E-02  0.9393992E-01
        -11   -1    0    0    0    0  0.00000000000E+00  0.00000000000E+00  0.50000000000E+03  0.50000000000E+03  0.00000000000E+00 0. -1.
         11   -1    0    0    0    0 -0.00000000000E+00 -0.00000000000E+00 -0.50000000000E+03  0.50000000000E+03  0.00000000000E+00 0.  1.
         23    2    1    2    0    0 -0.17247644491E+03  0.35953558993E+03  0.28151665429E+03  0.49739176768E+03  0.95566623073E+02 0.  0.
        -11    1    1    2    0    0  0.22258680056E+02 -0.12361166660E+03 -0.36550135648E+02  0.13080980611E+03  0.00000000000E+00 0. -1.
         11    1    1    2    0    0  0.15021776485E+03 -0.23592392332E+03 -0.24496651864E+03  0.37179842621E+03  0.00000000000E+00 0.  1.
        -15    1    3    3    0    0 -0.17988674381E+03  0.35048612836E+03  0.28354685221E+03  0.48538823832E+03  0.17770000000E+01 0. -1.
         15    1    3    3    0    0  0.74102989074E+01  0.90494615697E+01 -0.20301979219E+01  0.12003529364E+02  0.17770000000E+01 0.  1.
</event>
<event>
 7    1  0.1735947E-005  0.5008063E+03  0.7546771E-02  0.9398007E-01
        -11   -1    0    0    0    0  0.00000000000E+00  0.00000000000E+00  0.50000000000E+03  0.50000000000E+03  0.00000000000E+00 0. -1.
         11   -1    0    0    0    0 -0.00000000000E+00 -0.00000000000E+00 -0.50000000000E+03  0.50000000000E+03  0.00000000000E+00 0.  1.
         23    2    1    2    0    0  0.15865495045E+03 -0.17648677483E+03 -0.43126568780E+03  0.50080629792E+03  0.92183944252E+02 0.  0.
        -11    1    1    2    0    0 -0.11357423860E+03  0.94042504133E+02  0.32773904663E+03  0.35938278053E+03  0.00000000000E+00 0.  1.
         11    1    1    2    0    0 -0.45080711847E+02  0.82444270694E+02  0.10352664117E+03  0.13981092154E+03  0.00000000000E+00 0. -1.
        -15    1    3    3    0    0  0.75868279653E+02 -0.27006036275E+02 -0.10332028324E+03  0.13100977258E+03  0.17770000000E+01 0. -1.
         15    1    3    3    0    0  0.82786670795E+02 -0.14948073855E+03 -0.32794540455E+03  0.36979652534E+03  0.17770000000E+01 0.  1.
</event>
<event>
 7    1  0.1735947E-005  0.5026680E+03  0.7546771E-02  0.9393860E-01
        -11   -1    0    0    0    0  0.00000000000E+00  0.00000000000E+00  0.50000000000E+03  0.50000000000E+03  0.00000000000E+00 0. -1.
         11   -1    0    0    0    0 -0.00000000000E+00 -0.00000000000E+00 -0.50000000000E+03  0.50000000000E+03  0.00000000000E+00 0. -1.
         23    2    1    2    0    0  0.23196333180E+02 -0.35115764134E+02  0.49257627225E+03  0.50266799611E+03  0.90953524212E+02 0.  0.
        -11    1    1    2    0    0  0.11843515328E+02 -0.24012024983E+01 -0.38221780682E+02  0.40086645498E+02  0.00000000000E+00 0. -1.
         11    1    1    2    0    0 -0.35039848508E+02  0.37516966632E+02 -0.45435449156E+03  0.45724535840E+03  0.00000000000E+00 0. -1.
        -15    1    3    3    0    0  0.75849158440E+01 -0.51090530124E+02  0.13760161550E+03  0.14698685497E+03  0.17770000000E+01 0.  1.
         15    1    3    3    0    0  0.15611417336E+02  0.15974765990E+02  0.35497465674E+03  0.35568114113E+03  0.17770000000E+01 0. -1.
</event>
<event>
 7    1  0.1735947E-005  0.5041478E+03  0.7546771E-02  0.9390576E-01
        -11   -1    0    0    0    0  0.00000000000E+00  0.00000000000E+00  0.50000000000E+03  0.50000000000E+03  0.00000000000E+00 0.  1.
         11   -1    0    0    0    0 -0.00000000000E+00 -0.00000000000E+00 -0.50000000000E+03  0.50000000000E+03  0.00000000000E+00 0. -1.
         23    2    1    2    0    0  0.46629078511E+02  0.11487217136E+02 -0.49343982020E+03  0.50414780987E+03  0.91520112065E+02 0.  0.
        -11    1    1    2    0    0 -0.13091806185E+02 -0.72838147660E+01  0.13949745717E+03  0.14029964328E+03  0.00000000000E+00 0. -1.
         11    1    1    2    0    0 -0.33537272325E+02 -0.42034023703E+01  0.35394236303E+03  0.35555254685E+03  0.00000000000E+00 0.  1.
        -15    1    3    3    0    0 -0.24717031239E+02 -0.35153717678E+01 -0.20959038085E+03  0.21107954649E+03  0.17770000000E+01 0.  1.
         15    1    3    3    0    0  0.71346109750E+02  0.15002588904E+02 -0.28384943935E+03  0.29306826338E+03  0.17770000000E+01 0. -1.
</event>
<event>
 7    1  0.1735947E-005  0.5027246E+03  0.7546771E-02  0.9393734E-01
        -11   -1    0    0    0    0  0.00000000000E+00  0.00000000000E+00  0.50000000000E+03  0.50000000000E+03  0.00000000000E+00 0. -1.
         11   -1    0    0    0    0 -0.00000000000E+00 -0.00000000000E+00 -0.50000000000E+03  0.50000000000E+03  0.00000000000E+00 0. -1.
         23    2    1    2    0    0  0.77224644754E+01  0.49747264901E+01  0.49624316842E+03  0.50272457516E+03  0.79939551565E+02 0.  0.
        -11    1    1    2    0    0 -0.11424528595E+02  0.61895199413E+01 -0.41311180429E+03  0.41331609315E+03  0.00000000000E+00 0. -1.
         11    1    1    2    0    0  0.37020641201E+01 -0.11164246431E+02 -0.83131364124E+02  0.83959331693E+02  0.00000000000E+00 0. -1.
        -15    1    3    3    0    0 -0.55212081862E+00  0.42077081089E+02  0.28197325264E+03  0.28510148811E+03  0.17770000000E+01 0.  1.
         15    1    3    3    0    0  0.82745852940E+01 -0.37102354599E+02  0.21426991578E+03  0.21762308704E+03  0.17770000000E+01 0. -1.
</event>
<event>
 7    1  0.1735947E-005  0.5039517E+03  0.7546771E-02  0.9391011E-01
        -11   -1    0    0    0    0  0.00000000000E+00  0.00000000000E+00  0.50000000000E+03  0.50000000000E+03  0.00000000000E+00 0.  1.
         11   -1    0    0    0    0 -0.00000000000E+00 -0.00000000000E+00 -0.50000000000E+03  0.50000000000E+03  0.00000000000E+00 0. -1.
         23    2    1    2    0    0  0.91724353988E+02 -0.70777635586E+02  0.48185429009E+03  0.50395166693E+03  0.91437929286E+02 0.  0.
        -11    1    1    2    0    0 -0.15129324673E+02  0.88872008534E+01 -0.46615871582E+02  0.49808817367E+02  0.00000000000E+00 0.  1.
         11    1    1    2    0    0 -0.76595029315E+02  0.61890434732E+02 -0.43523841851E+03  0.44623951570E+03  0.00000000000E+00 0. -1.
        -15    1    3    3    0    0  0.11052624056E+03 -0.60599140257E+02  0.41736814465E+03  0.43599040304E+03  0.17770000000E+01 0.  1.
         15    1    3    3    0    0 -0.18801886576E+02 -0.10178495328E+02  0.64486145445E+02  0.67961263889E+02  0.17770000000E+01 0. -1.
</event>
<event>
 7    1  0.1735947E-005  0.5032852E+03  0.7546771E-02  0.9392489E-01
        -11   -1    0    0    0    0  0.00000000000E+00  0.00000000000E+00  0.50000000000E+03  0.50000000000E+03  0.00000000000E+00 0. -1.
         11   -1    0    0    0    0 -0.00000000000E+00 -0.00000000000E+00 -0.50000000000E+03  0.50000000000E+03  0.00000000000E+00 0. -1.
         23    2    1    2    0    0 -0.20896523897E+02  0.18910055893E+02  0.49549151066E+03  0.50328523783E+03  0.83605852416E+02 0.  0.
        -11    1    1    2    0    0  0.16418161012E+02 -0.21540493848E+02 -0.46467510181E+03  0.46546374631E+03  0.00000000000E+00 0. -1.
         11    1    1    2    0    0  0.44783628849E+01  0.26304379551E+01 -0.30816408850E+02  0.31251015861E+02  0.00000000000E+00 0. -1.
        -15    1    3    3    0    0 -0.26887076834E+02  0.35101106378E+01  0.45569008312E+02  0.53055895288E+02  0.17770000000E+01 0.  1.
         15    1    3    3    0    0  0.59905529371E+01  0.15399945255E+02  0.44992250235E+03  0.45022934254E+03  0.17770000000E+01 0. -1.
</event>
<event>
 7    1  0.1735947E-005  0.5014823E+03  0.7546771E-02  0.9396499E-01
        -11   -1    0    0    0    0  0.00000000000E+00  0.00000000000E+00  0.50000000000E+03  0.50000000000E+03  0.00000000000E+00 0.  1.
         11   -1    0    0    0    0 -0.00000000000E+00 -0.00000000000E+00 -0.50000000000E+03  0.50000000000E+03  0.00000000000E+00 0. -1.
         23    2    1    2    0    0 -0.10236402076E+02  0.35994671506E+02  0.49158512601E+03  0.50148231670E+03  0.91805106320E+02 0.  0.
        -11    1    1    2    0    0 -0.46744037000E+01  0.12110661768E+02 -0.17627318982E+02  0.21891563510E+02  0.00000000000E+00 0.  1.
         11    1    1    2    0    0  0.14910805776E+02 -0.48105333275E+02 -0.47395780703E+03  0.47662611979E+03  0.00000000000E+00 0. -1.
        -15    1    3    3    0    0  0.36364258830E+02  0.36207211705E+02  0.21917670821E+03  0.22511088079E+03  0.17770000000E+01 0. -1.
         15    1    3    3    0    0 -0.46600660906E+02 -0.21254019884E+00  0.27240841780E+03  0.27637143592E+03  0.17770000000E+01 0.  1.
</event>
<event>
 7    1  0.1735947E-005  0.5039512E+03  0.7546771E-02  0.9391012E-01
        -11   -1    0    0    0    0  0.00000000000E+00  0.00000000000E+00  0.50000000000E+03  0.50000000000E+03  0.00000000000E+00 0.  1.
         11   -1    0    0    0    0 -0.00000000000E+00 -0.00000000000E+00 -0.50000000000E+03  0.50000000000E+03  0.00000000000E+00 0.  1.
         23    2    1    2    0    0 -0.63390177449E+00  0.59405320911E+02 -0.49200977670E+03  0.50395119086E+03  0.91453750132E+02 0.  0.
        -11    1    1    2    0    0 -0.61980752570E+01 -0.52645755813E+02  0.38974000116E+03  0.39332843813E+03  0.00000000000E+00 0.  1.
         11    1    1    2    0    0  0.68319770315E+01 -0.67595650981E+01  0.10226977555E+03  0.10272037101E+03  0.00000000000E+00 0.  1.
        -15    1    3    3    0    0 -0.41858469676E+02  0.14672441347E+02 -0.27539711785E+03  0.27895186371E+03  0.17770000000E+01 0.  1.
         15    1    3    3    0    0  0.41224567902E+02  0.44732879564E+02 -0.21661265885E+03  0.22499932714E+03  0.17770000000E+01 0. -1.
</event>
<event>
 7    1  0.1735947E-005  0.3436845E+03  0.7546771E-02  0.9839198E-01
        -11   -1    0    0    0    0  0.00000000000E+00  0.00000000000E+00  0.50000000000E+03  0.50000000000E+03  0.00000000000E+00 0.  1.
         11   -1    0    0    0    0 -0.00000000000E+00 -0.00000000000E+00 -0.50000000000E+03  0.50000000000E+03  0.00000000000E+00 0.  1.
         23    2    1    2    0    0  0.18792057528E+02  0.33275303367E+01 -0.25099281417E+03  0.26799065521E+03  0.91964039879E+02 0.  0.
        -11    1    1    2    0    0 -0.12475850436E+03  0.29427275722E+03  0.26587891955E+03  0.41575562523E+03  0.00000000000E+00 0.  1.
         11    1    1    2    0    0  0.10596644683E+03 -0.29760028755E+03 -0.14886105380E+02  0.31625371957E+03  0.00000000000E+00 0.  1.
        -15    1    3    3    0    0  0.55479382439E+02  0.46341056708E+01 -0.12729749031E+03  0.13895051486E+03  0.17770000000E+01 0.  1.
         15    1    3    3    0    0 -0.36687324911E+02 -0.13065753341E+01 -0.12369532386E+03  0.12904014035E+03  0.17770000000E+01 0. -1.
</event>
<event>
 7    1  0.1735947E-005  0.5040054E+03  0.7546771E-02  0.9390892E-01
        -11   -1    0    0    0    0  0.00000000000E+00  0.00000000000E+00  0.50000000000E+03  0.50000000000E+03  0.00000000000E+00 0.  1.
         11   -1    0    0    0    0 -0.00000000000E+00 -0.00000000000E+00 -0.50000000000E+03  0.50000000000E+03  0.00000000000E+00 0.  1.
         23    2    1    2    0    0 -0.90702300901E+01 -0.76965040069E+00  0.49566104267E+03  0.50400538316E+03  0.90877365710E+02 0.  0.
        -11    1    1    2    0    0  0.92091348647E+01  0.62436144555E+01 -0.41437854512E+03  0.41452788753E+03  0.00000000000E+00 0.  1.
         11    1    1    2    0    0 -0.13890477467E+00 -0.54739640548E+01 -0.81282497550E+02  0.81466729313E+02  0.00000000000E+00 0.  1.
        -15    1    3    3    0    0 -0.35250292013E+02  0.24672990263E+01  0.44886190240E+03  0.45025419022E+03  0.17770000000E+01 0.  1.
         15    1    3    3    0    0  0.26180061923E+02 -0.32369494270E+01  0.46799140263E+02  0.53751192938E+02  0.17770000000E+01 0. -1.
</event>
<event>
 7    1  0.1735947E-005  0.5036419E+03  0.7546771E-02  0.9391697E-01
        -11   -1    0    0    0    0  0.00000000000E+00  0.00000000000E+00  0.50000000000E+03  0.50000000000E+03  0.00000000000E+00 0.  1.
         11   -1    0    0    0    0 -0.00000000000E+00 -0.00000000000E+00 -0.50000000000E+03  0.50000000000E+03  0.00000000000E+00 0. -1.
         23    2    1    2    0    0 -0.17661733764E+03  0.29718928202E+02 -0.46153896339E+03  0.50364186244E+03  0.92520334136E+02 0.  0.
        -11    1    1    2    0    0  0.32437230358E+02  0.43819105056E+01  0.11278161466E+03  0.11743537652E+03  0.00000000000E+00 0. -1.
         11    1    1    2    0    0  0.14418010729E+03 -0.34100838708E+02  0.34875734873E+03  0.37892276103E+03  0.00000000000E+00 0.  1.
        -15    1    3    3    0    0 -0.16555575894E+03  0.19676230551E+02 -0.45905071785E+03  0.48839183312E+03  0.17770000000E+01 0. -1.
         15    1    3    3    0    0 -0.11061578708E+02  0.10042697651E+02 -0.24882455387E+01  0.15250029328E+02  0.17770000000E+01 0.  1.
</event>
<event>
 7    1  0.1735947E-005  0.5024945E+03  0.7546771E-02  0.9394245E-01
        -11   -1    0    0    0    0  0.00000000000E+00  0.00000000000E+00  0.50000000000E+03  0.50000000000E+03  0.00000000000E+00 0. -1.
         11   -1    0    0    0    0 -0.00000000000E+00 -0.00000000000E+00 -0.50000000000E+03  0.50000000000E+03  0.00000000000E+00 0. -1.
         23    2    1    2    0    0  0.23082978272E+00 -0.23437141497E+01  0.49698780146E+03  0.50249453287E+03  0.74150755147E+02 0.  0.
        -11    1    1    2    0    0  0.34093096311E+01  0.93683765054E+01 -0.41874698584E+03  0.41886564436E+03  0.00000000000E+00 0. -1.
         11    1    1    2    0    0 -0.36401394138E+01 -0.70246623557E+01 -0.78240815620E+02  0.78639822768E+02  0.00000000000E+00 0. -1.
        -15    1    3    3    0    0  0.10438502976E+02  0.33643829840E+02  0.19162892961E+03  0.19484782273E+03  0.17770000000E+01 0.  1.
         15    1    3    3    0    0 -0.10207673193E+02 -0.35987543990E+02  0.30535887186E+03  0.30764671015E+03  0.17770000000E+01 0. -1.
</event>
<event>
 7    1  0.1735947E-005  0.5033227E+03  0.7546771E-02  0.9392405E-01
        -11   -1    0    0    0    0  0.00000000000E+00  0.00000000000E+00  0.50000000000E+03  0.50000000000E+03  0.00000000000E+00 0. -1.
         11   -1    0    0    0    0 -0.00000000000E+00 -0.00000000000E+00 -0.50000000000E+03  0.50000000000E+03  0.00000000000E+00 0.  1.
         23    2    1    2    0    0  0.16795296742E+02  0.84597313706E+01  0.49509731238E+03  0.50332273497E+03  0.88649747663E+02 0.  0.
        -11    1    1    2    0    0  0.76966739505E+00  0.11142222195E+02 -0.84153264943E+02  0.84891186256E+02  0.00000000000E+00 0. -1.
         11    1    1    2    0    0 -0.17564964137E+02 -0.19601953566E+02 -0.41094404744E+03  0.41178607878E+03  0.00000000000E+00 0.  1.
        -15    1    3    3    0    0  0.32112999178E+02  0.22232494331E+02  0.46594698593E+03  0.46758451637E+03  0.17770000000E+01 0. -1.
         15    1    3    3    0    0 -0.15317702436E+02 -0.13772762960E+02  0.29150326449E+02  0.35738218598E+02  0.17770000000E+01 0.  1.
</event>
<event>
 7    1  0.1735947E-005  0.4946108E+03  0.7546771E-02  0.9411950E-01
        -11   -1    0    0    0    0  0.00000000000E+00  0.00000000000E+00  0.50000000000E+03  0.50000000000E+03  0.00000000000E+00 0.  1.
         11   -1    0    0    0    0 -0.00000000000E+00 -0.00000000000E+00 -0.50000000000E+03  0.50000000000E+03  0.00000000000E+00 0. -1.
         23    2    1    2    0    0 -0.53494339525E+02  0.94529989499E+02  0.47204443811E+03  0.49255013305E+03  0.89342703915E+02 0.  0.
        -11    1    1    2    0    0  0.41631234502E+01 -0.16485284827E+02  0.78692342183E+01  0.18735556034E+02  0.00000000000E+00 0.  1.
         11    1    1    2    0    0  0.49331216075E+02 -0.78044704671E+02 -0.47991367233E+03  0.48871431092E+03  0.00000000000E+00 0. -1.
        -15    1    3    3    0    0 -0.26860284262E+02 -0.68889273127E+01  0.18239950889E+03  0.18450385027E+03  0.17770000000E+01 0.  1.
         15    1    3    3    0    0 -0.26634055263E+02  0.10141891681E+03  0.28964492922E+03  0.30804628278E+03  0.17770000000E+01 0. -1.
</event>
<event>
 7    1  0.1735947E-005  0.5033209E+03  0.7546771E-02  0.9392409E-01
        -11   -1    0    0    0    0  0.00000000000E+00  0.00000000000E+00  0.50000000000E+03  0.50000000000E+03  0.00000000000E+00 0.  1.
         11   -1    0    0    0    0 -0.00000000000E+00 -0.00000000000E+00 -0.50000000000E+03  0.50000000000E+03  0.00000000000E+00 0. -1.
         23    2    1    2    0    0  0.64509913662E+02 -0.19846652462E+02 -0.49000203698E+03  0.50332092140E+03  0.93137184310E+02 0.  0.
        -11    1    1    2    0    0 -0.44092466100E+02 -0.76762709466E+00  0.39198845643E+03  0.39446125893E+03  0.00000000000E+00 0.  1.
         11    1    1    2    0    0 -0.20417447561E+02  0.20614279556E+02  0.98013580550E+02  0.10221781967E+03  0.00000000000E+00 0. -1.
        -15    1    3    3    0    0  0.65727693365E+02 -0.49571390052E+02 -0.30438555278E+03  0.31532709185E+03  0.17770000000E+01 0. -1.
         15    1    3    3    0    0 -0.12177797036E+01  0.29724737590E+02 -0.18561648420E+03  0.18799382955E+03  0.17770000000E+01 0.  1.
</event>
<event>
 7    1  0.1735947E-005  0.5035646E+03  0.7546771E-02  0.9391869E-01
        -11   -1    0    0    0    0  0.00000000000E+00  0.00000000000E+00  0.50000000000E+03  0.50000000000E+03  0.00000000000E+00 0.  1.
         11   -1    0    0    0    0 -0.00000000000E+00 -0.00000000000E+00 -0.50000000000E+03  0.50000000000E+03  0.00000000000E+00 0.  1.
         23    2    1    2    0    0 -0.80331114402E+01  0.37605378501E+02 -0.49365242183E+03  0.50356458468E+03  0.91683597227E+02 0.  0.
        -11    1    1    2    0    0 -0.83113118820E+01  0.21580481203E+01  0.53042400416E+02  0.53732963056E+02  0.00000000000E+00 0.  1.
         11    1    1    2    0    0  0.16344423322E+02 -0.39763426621E+02  0.44061002141E+03  0.44270245226E+03  0.00000000000E+00 0.  1.
        -15    1    3    3    0    0 -0.43988555776E+02 -0.43364791805E+00 -0.16534916099E+03  0.17111015125E+03  0.17770000000E+01 0. -1.
         15    1    3    3    0    0  0.35955444336E+02  0.38039026419E+02 -0.32830326083E+03  0.33245443343E+03  0.17770000000E+01 0.  1.
</event>
<event>
 7    1  0.1735947E-005  0.5025379E+03  0.7546771E-02  0.9394149E-01
        -11   -1    0    0    0    0  0.00000000000E+00  0.00000000000E+00  0.50000000000E+03  0.50000000000E+03  0.00000000000E+00 0. -1.
         11   -1    0    0    0    0 -0.00000000000E+00 -0.00000000000E+00 -0.50000000000E+03  0.50000000000E+03  0.00000000000E+00 0.  1.
         23    2    1    2    0    0  0.52563490618E+01 -0.51667113246E+01  0.49618836907E+03  0.50253786402E+03  0.79291128504E+02 0.  0.
        -11    1    1    2    0    0 -0.15831041958E+02  0.28340508351E+01 -0.11490842244E+03  0.11602844169E+03  0.00000000000E+00 0. -1.
         11    1    1    2    0    0  0.10574692897E+02  0.23326604896E+01 -0.38127994663E+03  0.38143369429E+03  0.00000000000E+00 0.  1.
        -15    1    3    3    0    0  0.30516156765E+02  0.87360490387E+01  0.92377080279E+02  0.97694611245E+02  0.17770000000E+01 0.  1.
         15    1    3    3    0    0 -0.25259807703E+02 -0.13902760363E+02  0.40381128879E+03  0.40484325277E+03  0.17770000000E+01 0. -1.
</event>
<event>
 7    1  0.1735947E-005  0.2998505E+03  0.7546771E-02  0.1000969E+00
        -11   -1    0    0    0    0  0.00000000000E+00  0.00000000000E+00  0.50000000000E+03  0.50000000000E+03  0.00000000000E+00 0.  1.
         11   -1    0    0    0    0 -0.00000000000E+00 -0.00000000000E+00 -0.50000000000E+03  0.50000000000E+03  0.00000000000E+00 0.  1.
         23    2    1    2    0    0 -0.76566725346E+02 -0.15888521030E+02  0.30924756940E+03  0.33134626144E+03  0.89673726696E+02 0.  0.
        -11    1    1    2    0    0  0.24040176337E+03  0.20830239875E+03 -0.81288074595E+02  0.32831486142E+03  0.00000000000E+00 0.  1.
         11    1    1    2    0    0 -0.16383503802E+03 -0.19241387772E+03 -0.22795949480E+03  0.34033887714E+03  0.00000000000E+00 0.  1.
        -15    1    3    3    0    0 -0.65587611665E+02  0.63209977549E+01  0.94793029259E+02  0.11545807006E+03  0.17770000000E+01 0.  1.
         15    1    3    3    0    0 -0.10979113682E+02 -0.22209518785E+02  0.21445454014E+03  0.21588819138E+03  0.17770000000E+01 0. -1.
</event>
<event>
 7    1  0.1735947E-005  0.5040711E+03  0.7546771E-02  0.9390746E-01
        -11   -1    0    0    0    0  0.00000000000E+00  0.00000000000E+00  0.50000000000E+03  0.50000000000E+03  0.00000000000E+00 0. -1.
         11   -1    0    0    0    0 -0.00000000000E+00 -0.00000000000E+00 -0.50000000000E+03  0.50000000000E+03  0.00000000000E+00 0.  1.
         23    2    1    2    0    0  0.33652337651E+02 -0.80472154184E+01  0.49418284857E+03  0.50407106188E+03  0.93132755198E+02 0.  0.
        -11    1    1    2    0    0 -0.30113448192E+01  0.10360790947E+02 -0.11695884451E+03  0.11745546175E+03  0.00000000000E+00 0. -1.
         11    1    1    2    0    0 -0.30640992832E+02 -0.23135755284E+01 -0.37722400406E+03  0.37847347637E+03  0.00000000000E+00 0.  1.
        -15    1    3    3    0    0  0.38514693672E+01 -0.43162370065E+02  0.13140844843E+03  0.13838049737E+03  0.17770000000E+01 0.  1.
         15    1    3    3    0    0  0.29800868284E+02  0.35115154647E+02  0.36277440014E+03  0.36569056450E+03  0.17770000000E+01 0. -1.
</event>
<event>
 7    1  0.1735947E-005  0.5018542E+03  0.7546771E-02  0.9395670E-01
        -11   -1    0    0    0    0  0.00000000000E+00  0.00000000000E+00  0.50000000000E+03  0.50000000000E+03  0.00000000000E+00 0. -1.
         11   -1    0    0    0    0 -0.00000000000E+00 -0.00000000000E+00 -0.50000000000E+03  0.50000000000E+03  0.00000000000E+00 0.  1.
         23    2    1    2    0    0 -0.44020905817E+00 -0.16287928056E+02  0.49171482508E+03  0.50185416238E+03  0.99038581958E+02 0.  0.
        -11    1    1    2    0    0 -0.49499584384E+01  0.45872484854E+02 -0.36536687860E+03  0.36826857446E+03  0.00000000000E+00 0.  1.
         11    1    1    2    0    0  0.53901674965E+01 -0.29584556798E+02 -0.12634794647E+03  0.12987726316E+03  0.00000000000E+00 0. -1.
        -15    1    3    3    0    0 -0.60949295990E+01 -0.23576046608E+02  0.49185334306E+03  0.49245897997E+03  0.17770000000E+01 0. -1.
         15    1    3    3    0    0  0.56547205409E+01  0.72881185520E+01 -0.13851798304E+00  0.93951824174E+01  0.17770000000E+01 0.  1.
</event>
<event>
 7    1  0.1735947E-005  0.4939322E+03  0.7546771E-02  0.9413490E-01
        -11   -1    0    0    0    0  0.00000000000E+00  0.00000000000E+00  0.50000000000E+03  0.50000000000E+03  0.00000000000E+00 0. -1.
         11   -1    0    0    0    0 -0.00000000000E+00 -0.00000000000E+00 -0.50000000000E+03  0.50000000000E+03  0.00000000000E+00 0.  1.
         23    2    1    2    0    0 -0.49553559737E+02  0.33848235606E+02 -0.47694144425E+03  0.48994140088E+03  0.94700457839E+02 0.  0.
        -11    1    1    2    0    0  0.69030838462E+02 -0.39698530414E+02  0.48245889462E+03  0.48898651820E+03  0.00000000000E+00 0. -1.
         11    1    1    2    0    0 -0.19477278725E+02  0.58502948078E+01 -0.55174503715E+01  0.21072080924E+02  0.00000000000E+00 0.  1.
        -15    1    3    3    0    0 -0.32177998063E+02  0.56364318328E+02 -0.17496401187E+03  0.18662240787E+03  0.17770000000E+01 0. -1.
         15    1    3    3    0    0 -0.17375561674E+02 -0.22516082723E+02 -0.30197743238E+03  0.30331899301E+03  0.17770000000E+01 0.  1.
</event>
<event>
 7    1  0.1735947E-005  0.3309422E+03  0.7546771E-02  0.9885813E-01
        -11   -1    0    0    0    0  0.00000000000E+00  0.00000000000E+00  0.50000000000E+03  0.50000000000E+03  0.00000000000E+00 0.  1.
         11   -1    0    0    0    0 -0.00000000000E+00 -0.00000000000E+00 -0.50000000000E+03  0.50000000000E+03  0.00000000000E+00 0. -1.
         23    2    1    2    0    0  0.27189651775E+03  0.19059459336E+03  0.20711883069E+03  0.40147199539E+03  0.89596527114E+02 0.  0.
        -11    1    1    2    0    0 -0.38515742760E+02 -0.29787964133E+03 -0.74536344978E+02  0.30946956213E+03  0.00000000000E+00 0.  1.
         11    1    1    2    0    0 -0.23338077499E+03  0.10728504798E+03 -0.13258248572E+03  0.28905844249E+03  0.00000000000E+00 0. -1.
        -15    1    3    3    0    0  0.16456664110E+03  0.14856921038E+03  0.17308026460E+03  0.28127375519E+03  0.17770000000E+01 0.  1.
         15    1    3    3    0    0  0.10732987665E+03  0.42025382977E+02  0.34038566094E+02  0.12019824020E+03  0.17770000000E+01 0. -1.
</event>
<event>
 7    1  0.1735947E-005  0.5033861E+03  0.7546771E-02  0.9392265E-01
        -11   -1    0    0    0    0  0.00000000000E+00  0.00000000000E+00  0.50000000000E+03  0.50000000000E+03  0.00000000000E+00 0.  1.
         11   -1    0    0    0    0 -0.00000000000E+00 -0.00000000000E+00 -0.50000000000E+03  0.50000000000E+03  0.00000000000E+00 0. -1.
         23    2    1    2    0    0  0.26938413388E+03 -0.27203956651E+02 -0.41434863469E+03  0.50338608292E+03  0.91678190216E+02 0.  0.
        -11    1    1    2    0    0 -0.17672730867E+02  0.87791240100E+01  0.46436293759E+02  0.50455206002E+02  0.00000000000E+00 0. -1.
         11    1    1    2    0    0 -0.25171140302E+03  0.18424832641E+02  0.36791234093E+03  0.44615871108E+03  0.00000000000E+00 0.  1.
        -15    1    3    3    0    0  0.73969032358E+02 -0.46869681504E+02 -0.15530960372E+03  0.17830427793E+03  0.17770000000E+01 0.  1.
         15    1    3    3    0    0  0.19541510153E+03  0.19665724853E+02 -0.25903903096E+03  0.32508180498E+03  0.17770000000E+01 0. -1.
</event>
<event>
 7    1  0.1735947E-005  0.5041244E+03  0.7546771E-02  0.9390628E-01
        -11   -1    0    0    0    0  0.00000000000E+00  0.00000000000E+00  0.50000000000E+03  0.50000000000E+03  0.00000000000E+00 0. -1.
         11   -1    0    0    0    0 -0.00000000000E+00 -0.00000000000E+00 -0.50000000000E+03  0.50000000000E+03  0.00000000000E+00 0.  1.
         23    2    1    2    0    0  0.44446156892E+03 -0.40594118485E+02  0.21495756285E+03  0.50412436944E+03  0.93491482669E+02 0.  0.
        -11    1    1    2    0    0 -0.43898220296E+03  0.42374637590E+02 -0.21319908304E+03  0.48985184846E+03  0.00000000000E+00 0.  1.
         11    1    1    2    0    0 -0.54793659638E+01 -0.17805191057E+01 -0.17584798023E+01  0.60237821064E+01  0.00000000000E+00 0. -1.
        -15    1    3    3    0    0  0.41565220277E+03 -0.30079494017E+02  0.17092112449E+03  0.45043170199E+03  0.17770000000E+01 0. -1.
         15    1    3    3    0    0  0.28809366151E+02 -0.10514624468E+02  0.44036438359E+02  0.53692667452E+02  0.17770000000E+01 0.  1.
</event>
<event>
 7    1  0.1735947E-005  0.5029705E+03  0.7546771E-02  0.9393187E-01
        -11   -1    0    0    0    0  0.00000000000E+00  0.00000000000E+00  0.50000000000E+03  0.50000000000E+03  0.00000000000E+00 0. -1.
         11   -1    0    0    0    0 -0.00000000000E+00 -0.00000000000E+00 -0.50000000000E+03  0.50000000000E+03  0.00000000000E+00 0. -1.
         23    2    1    2    0    0 -0.18741865432E+03 -0.49098267002E+02 -0.45481958828E+03  0.50297050386E+03  0.92639505955E+02 0.  0.
        -11    1    1    2    0    0  0.60574956067E+02  0.22961471245E+02  0.21406093904E+03  0.22364847437E+03  0.00000000000E+00 0. -1.
         11    1    1    2    0    0  0.12684369826E+03  0.26136795757E+02  0.24075864924E+03  0.27338102177E+03  0.00000000000E+00 0. -1.
        -15    1    3    3    0    0 -0.18031526285E+02 -0.19483579854E+02 -0.14586883217E+02  0.30342720957E+02  0.17770000000E+01 0.  1.
         15    1    3    3    0    0 -0.16938712804E+03 -0.29614687148E+02 -0.44023270506E+03  0.47262778291E+03  0.17770000000E+01 0. -1.
</event>
<event>
 7    1  0.1735947E-005  0.5043114E+03  0.7546771E-02  0.9390214E-01
        -11   -1    0    0    0    0  0.00000000000E+00  0.00000000000E+00  0.50000000000E+03  0.50000000000E+03  0.00000000000E+00 0.  1.
         11   -1    0    0    0    0 -0.00000000000E+00 -0.00000000000E+00 -0.50000000000E+03  0.50000000000E+03  0.00000000000E+00 0. -1.
         23    2    1    2    0    0  0.84862450036E+01  0.22863552405E+02  0.49506715931E+03  0.50431135079E+03  0.92971436087E+02 0.  0.
        -11    1    1    2    0    0 -0.91338025799E+00 -0.74317088483E+00 -0.12477186297E+02  0.12532627192E+02  0.00000000000E+00 0.  1.
         11    1    1    2    0    0 -0.75728647457E+01 -0.22120381520E+02 -0.48258997301E+03  0.48315602202E+03  0.00000000000E+00 0. -1.
        -15    1    3    3    0    0  0.16291985217E+02  0.24876614921E+02  0.43810335652E+02  0.52979033505E+02  0.17770000000E+01 0. -1.
         15    1    3    3    0    0 -0.78057402136E+01 -0.20130625155E+01  0.45125682366E+03  0.45133231729E+03  0.17770000000E+01 0.  1.
</event>
<event>
 7    1  0.1735947E-005  0.5019755E+03  0.7546771E-02  0.9395400E-01
        -11   -1    0    0    0    0  0.00000000000E+00  0.00000000000E+00  0.50000000000E+03  0.50000000000E+03  0.00000000000E+00 0.  1.
         11   -1    0    0    0    0 -0.00000000000E+00 -0.00000000000E+00 -0.50000000000E+03  0.50000000000E+03  0.00000000000E+00 0. -1.
         23    2    1    2    0    0 -0.24395607273E+03  0.34644506175E+03  0.25303166649E+03  0.50197545556E+03  0.91736511281E+02 0.  0.
        -11    1    1    2    0    0  0.21727483751E+03 -0.30311049247E+03 -0.24571937959E+03  0.44661206787E+03  0.00000000000E+00 0. -1.
         11    1    1    2    0    0  0.26681235223E+02 -0.43334569277E+02 -0.73122868989E+01  0.51412476570E+02  0.00000000000E+00 0.  1.
        -15    1    3    3    0    0 -0.21357122975E+03  0.31845617214E+03  0.19352729492E+03  0.42951481390E+03  0.17770000000E+01 0.  1.
         15    1    3    3    0    0 -0.30384842977E+02  0.27988889611E+02  0.59504371569E+02  0.72460641656E+02  0.17770000000E+01 0. -1.
</event>
<event>
 7    1  0.1735947E-005  0.5044573E+03  0.7546771E-02  0.9389891E-01
        -11   -1    0    0    0    0  0.00000000000E+00  0.00000000000E+00  0.50000000000E+03  0.50000000000E+03  0.00000000000E+00 0.  1.
         11   -1    0    0    0    0 -0.00000000000E+00 -0.00000000000E+00 -0.50000000000E+03  0.50000000000E+03  0.00000000000E+00 0. -1.
         23    2    1    2    0    0  0.94510971109E+01  0.22394895871E+01  0.49544500126E+03  0.50445733087E+03  0.94430455070E+02 0.  0.
        -11    1    1    2    0    0 -0.80955116636E+01 -0.13494679517E+01 -0.42135309292E+03  0.42143301637E+03  0.00000000000E+00 0. -1.
         11    1    1    2    0    0 -0.13555854473E+01 -0.89002163543E+00 -0.74091908337E+02  0.74109652755E+02  0.00000000000E+00 0.  1.
        -15    1    3    3    0    0 -0.36903857488E+02 -0.15629109343E+01  0.10650503019E+03  0.11274225726E+03  0.17770000000E+01 0. -1.
         15    1    3    3    0    0  0.46354954599E+02  0.38024005214E+01  0.38893997108E+03  0.39171507361E+03  0.17770000000E+01 0.  1.
</event>
<event>
 7    1  0.1735947E-005  0.5039666E+03  0.7546771E-02  0.9390978E-01
        -11   -1    0    0    0    0  0.00000000000E+00  0.00000000000E+00  0.50000000000E+03  0.50000000000E+03  0.00000000000E+00 0.  1.
         11   -1    0    0    0    0 -0.00000000000E+00 -0.00000000000E+00 -0.50000000000E+03  0.50000000000E+03  0.00000000000E+00 0. -1.
         23    2    1    2    0    0  0.24464702761E+02  0.17446567418E+02 -0.49496136357E+03  0.50396660272E+03  0.89959328817E+02 0.  0.
        -11    1    1    2    0    0 -0.31046879974E+01  0.11850479159E+01  0.25268519611E+02  0.25486104243E+02  0.00000000000E+00 0. -1.
         11    1    1    2    0    0 -0.21360014763E+02 -0.18631615334E+02  0.46969284395E+03  0.47054729303E+03  0.00000000000E+00 0.  1.
        -15    1    3    3    0    0  0.70165316513E+01  0.27189107614E+02 -0.47441852689E+03  0.47525211801E+03  0.17770000000E+01 0. -1.
         15    1    3    3    0    0  0.17448171109E+02 -0.97425401962E+01 -0.20542836677E+02  0.28714484712E+02  0.17770000000E+01 0.  1.
</event>
<event>
 7    1  0.1735947E-005  0.5004979E+03  0.7546771E-02  0.9398696E-01
        -11   -1    0    0    0    0  0.00000000000E+00  0.00000000000E+00  0.50000000000E+03  0.50000000000E+03  0.00000000000E+00 0.  1.
         11   -1    0    0    0    0 -0.00000000000E+00 -0.00000000000E+00 -0.50000000000E+03  0.50000000000E+03  0.00000000000E+00 0. -1.
         23    2    1    2    0    0  0.20363111103E+01 -0.18532713989E+02  0.49054589146E+03  0.49950210552E+03  0.92300995351E+02 0.  0.
        -11    1    1    2    0    0 -0.44659093164E+02  0.31219423515E+02 -0.29086688567E+03  0.29592673449E+03  0.00000000000E+00 0. -1.
         11    1    1    2    0    0  0.42622782054E+02 -0.12686709526E+02 -0.19967900579E+03  0.20457115999E+03  0.00000000000E+00 0.  1.
        -15    1    3    3    0    0 -0.21310983139E+02 -0.48140757519E+02  0.35142647328E+03  0.35535252129E+03  0.17770000000E+01 0.  1.
         15    1    3    3    0    0  0.23347294249E+02  0.29608043531E+02  0.13911941818E+03  0.14414958423E+03  0.17770000000E+01 0. -1.
</event>
<event>
 7    1  0.1735947E-005  0.5038762E+03  0.7546771E-02  0.9391178E-01
        -11   -1    0    0    0    0  0.00000000000E+00  0.00000000000E+00  0.50000000000E+03  0.50000000000E+03  0.00000000000E+00 0.  1.
         11   -1    0    0    0    0 -0.00000000000E+00 -0.00000000000E+00 -0.50000000000E+03  0.50000000000E+03  0.00000000000E+00 0.  1.
         23    2    1    2    0    0 -0.48177392948E+01 -0.66083585845E+01  0.49554952432E+03  0.50387620745E+03  0.90857142634E+02 0.  0.
        -11    1    1    2    0    0 -0.47246689271E+01 -0.11468163817E+01 -0.35609924505E+03  0.35613243325E+03  0.00000000000E+00 0.  1.
         11    1    1    2    0    0  0.95424082219E+01  0.77551749662E+01 -0.13945027926E+03  0.13999135930E+03  0.00000000000E+00 0.  1.
        -15    1    3    3    0    0  0.10343331398E+01  0.40708701027E+02  0.29071723821E+03  0.29356079184E+03  0.17770000000E+01 0. -1.
         15    1    3    3    0    0 -0.58520724347E+01 -0.47317059611E+02  0.20483228611E+03  0.21031541561E+03  0.17770000000E+01 0.  1.
</event>
<event>
 7    1  0.1735947E-005  0.5041373E+03  0.7546771E-02  0.9390599E-01
        -11   -1    0    0    0    0  0.00000000000E+00  0.00000000000E+00  0.50000000000E+03  0.50000000000E+03  0.00000000000E+00 0. -1.
         11   -1    0    0    0    0 -0.00000000000E+00 -0.00000000000E+00 -0.50000000000E+03  0.50000000000E+03  0.00000000000E+00 0. -1.
         23    2    1    2    0    0 -0.24952257320E+02  0.31642372736E+03 -0.37019073209E+03  0.49586265866E+03  0.89955587629E+02 0.  0.
        -11    1    1    2    0    0  0.32010061896E+02 -0.20063062018E+03  0.31699466827E+03  0.37651415581E+03  0.00000000000E+00 0. -1.
         11    1    1    2    0    0 -0.70578045764E+01 -0.11579310719E+03  0.53196063818E+02  0.12762318552E+03  0.00000000000E+00 0. -1.
        -15    1    3    3    0    0 -0.24901964564E+01  0.97465255303E+02 -0.18108223919E+03  0.20566869511E+03  0.17770000000E+01 0. -1.
         15    1    3    3    0    0 -0.22462060863E+02  0.21895847206E+03 -0.18910849290E+03  0.29019396355E+03  0.17770000000E+01 0.  1.
</event>
<event>
 7    1  0.1735947E-005  0.3503187E+03  0.7546771E-02  0.9815778E-01
        -11   -1    0    0    0    0  0.00000000000E+00  0.00000000000E+00  0.50000000000E+03  0.50000000000E+03  0.00000000000E+00 0. -1.
         11   -1    0    0    0    0 -0.00000000000E+00 -0.00000000000E+00 -0.50000000000E+03  0.50000000000E+03  0.00000000000E+00 0. -1.
         23    2    1    2    0    0  0.24930465469E+02  0.34531326509E+02 -0.43905506799E+03  0.45068340114E+03  0.92370096414E+02 0.  0.
        -11    1    1    2    0    0  0.13261092402E+03  0.59392027067E+02  0.21941183787E+03  0.26316273415E+03  0.00000000000E+00 0. -1.
         11    1    1    2    0    0 -0.15754138949E+03 -0.93923353576E+02  0.21964323012E+03  0.28615386471E+03  0.00000000000E+00 0. -1.
        -15    1    3    3    0    0 -0.12880518332E+01  0.48647931840E+02 -0.39170343698E+03  0.39471891343E+03  0.17770000000E+01 0. -1.
         15    1    3    3    0    0  0.26218517302E+02 -0.14116605331E+02 -0.47351631014E+02  0.55964487707E+02  0.17770000000E+01 0.  1.
</event>
<event>
 7    1  0.1735947E-005  0.5038859E+03  0.7546771E-02  0.9391157E-01
        -11   -1    0    0    0    0  0.00000000000E+00  0.00000000000E+00  0.50000000000E+03  0.50000000000E+03  0.00000000000E+00 0. -1.
         11   -1    0    0    0    0 -0.00000000000E+00 -0.00000000000E+00 -0.50000000000E+03  0.50000000000E+03  0.00000000000E+00 0. -1.
         23    2    1    2    0    0 -0.10786618105E+02 -0.61049710652E+02  0.49216965363E+03  0.50388587489E+03  0.88468009225E+02 0.  0.
        -11    1    1    2    0    0 -0.10677932703E+01  0.37628464041E+01 -0.34353938177E+02  0.34575891366E+02  0.00000000000E+00 0. -1.
         11    1    1    2    0    0  0.11854411375E+02  0.57286864248E+02 -0.45781571546E+03  0.46153823374E+03  0.00000000000E+00 0. -1.
        -15    1    3    3    0    0 -0.25357352385E+02 -0.50295152226E+02  0.47664975592E+03  0.47996952528E+03  0.17770000000E+01 0. -1.
         15    1    3    3    0    0  0.14570734280E+02 -0.10754558426E+02  0.15519897718E+02  0.23916349608E+02  0.17770000000E+01 0.  1.
</event>
<event>
 7    1  0.1735947E-005  0.5041118E+03  0.7546771E-02  0.9390656E-01
        -11   -1    0    0    0    0  0.00000000000E+00  0.00000000000E+00  0.50000000000E+03  0.50000000000E+03  0.00000000000E+00 0.  1.
         11   -1    0    0    0    0 -0.00000000000E+00 -0.00000000000E+00 -0.50000000000E+03  0.50000000000E+03  0.00000000000E+00 0.  1.
         23    2    1    2    0    0 -0.50654467516E+01 -0.83598135461E+00  0.49568140480E+03  0.50411180712E+03  0.91664068198E+02 0.  0.
        -11    1    1    2    0    0 -0.12872251089E+01 -0.45533801391E+01 -0.92701380479E+02  0.92822067214E+02  0.00000000000E+00 0.  1.
         11    1    1    2    0    0  0.63526718605E+01  0.53893614937E+01 -0.40298002432E+03  0.40306612566E+03  0.00000000000E+00 0.  1.
        -15    1    3    3    0    0 -0.22827976222E+02  0.50201829132E+01  0.47714152526E+03  0.47771697855E+03  0.17770000000E+01 0.  1.
         15    1    3    3    0    0  0.17762529470E+02 -0.58561642678E+01  0.18539879539E+02  0.26394828573E+02  0.17770000000E+01 0. -1.
</event>
<event>
 7    1  0.1735947E-005  0.5035828E+03  0.7546771E-02  0.9391828E-01
        -11   -1    0    0    0    0  0.00000000000E+00  0.00000000000E+00  0.50000000000E+03  0.50000000000E+03  0.00000000000E+00 0.  1.
         11   -1    0    0    0    0 -0.00000000000E+00 -0.00000000000E+00 -0.50000000000E+03  0.50000000000E+03  0.00000000000E+00 0.  1.
         23    2    1    2    0    0  0.51147473267E+02  0.34852767187E+02  0.49132662730E+03  0.50358284376E+03  0.91449693469E+02 0.  0.
        -11    1    1    2    0    0 -0.19320932089E+02 -0.29928664573E+02 -0.18470763218E+03  0.18811149026E+03  0.00000000000E+00 0.  1.
         11    1    1    2    0    0 -0.31826541179E+02 -0.49241026146E+01 -0.30661899512E+03  0.30830566598E+03  0.00000000000E+00 0.  1.
        -15    1    3    3    0    0  0.46307946363E+02  0.61343001268E+01  0.45304128384E+03  0.45544661392E+03  0.17770000000E+01 0.  1.
         15    1    3    3    0    0  0.48395269044E+01  0.28718467061E+02  0.38285343456E+02  0.48136229843E+02  0.17770000000E+01 0. -1.
</event>
<event>
 7    1  0.1735947E-005  0.5054589E+03  0.7546771E-02  0.9387677E-01
        -11   -1    0    0    0    0  0.00000000000E+00  0.00000000000E+00  0.50000000000E+03  0.50000000000E+03  0.00000000000E+00 0.  1.
         11   -1    0    0    0    0 -0.00000000000E+00 -0.00000000000E+00 -0.50000000000E+03  0.50000000000E+03  0.00000000000E+00 0. -1.
         23    2    1    2    0    0 -0.35421021239E+03  0.58624010706E+02 -0.32857542853E+03  0.49454105470E+03  0.87791761346E+02 0.  0.
        -11    1    1    2    0    0  0.25931274230E+03 -0.27258442646E+02  0.30776711351E+03  0.40336920702E+03  0.00000000000E+00 0.  1.
         11    1    1    2    0    0  0.94897470085E+02 -0.31365568060E+02  0.20808315019E+02  0.10208973828E+03  0.00000000000E+00 0. -1.
        -15    1    3    3    0    0 -0.64907384140E+02  0.18604409405E+02 -0.11256949209E+03  0.13127886671E+03  0.17770000000E+01 0.  1.
         15    1    3    3    0    0 -0.28930282825E+03  0.40019601301E+02 -0.21600593644E+03  0.36326218799E+03  0.17770000000E+01 0. -1.
</event>
<event>
 6    1  0.1735947E-005  0.5081430E+03  0.7546771E-02  0.9381771E-01
        -11   -1    0    0    0    0  0.00000000000E+00  0.00000000000E+00  0.50000000000E+03  0.50000000000E+03  0.00000000000E+00 0. -1.
         11   -1    0    0    0    0 -0.00000000000E+00 -0.00000000000E+00 -0.50000000000E+03  0.50000000000E+03  0.00000000000E+00 0.  1.
        -11    1    1    2    0    0 -0.16052850940E+02  0.57896154085E+02  0.18743773671E+03  0.19683130803E+03  0.00000000000E+00 0.  1.
         11    1    1    2    0    0  0.23062427392E+02  0.12814689127E+03  0.26473884612E+03  0.29502569031E+03  0.00000000000E+00 0. -1.
        -15    1    1    2    0    0 -0.13889150029E+02  0.13490731048E+02 -0.11221109855E+03  0.11388325900E+03  0.17770000000E+01 0. -1.
         15    1    1    2    0    0  0.68795735773E+01 -0.19953377640E+03 -0.33996548427E+03  0.39425974266E+03  0.17770000000E+01 0.  1.
</event>
<event>
 7    1  0.1735947E-005  0.5015022E+03  0.7546771E-02  0.9396455E-01
        -11   -1    0    0    0    0  0.00000000000E+00  0.00000000000E+00  0.50000000000E+03  0.50000000000E+03  0.00000000000E+00 0. -1.
         11   -1    0    0    0    0 -0.00000000000E+00 -0.00000000000E+00 -0.50000000000E+03  0.50000000000E+03  0.00000000000E+00 0.  1.
         23    2    1    2    0    0 -0.21260548495E+03 -0.34700595527E+03 -0.27362201769E+03  0.49849779311E+03  0.89536673774E+02 0.  0.
        -11    1    1    2    0    0  0.16794517003E+03  0.20166121823E+03  0.21227967360E+03  0.33754331114E+03  0.00000000000E+00 0. -1.
         11    1    1    2    0    0  0.44660314920E+02  0.14534473705E+03  0.61342344085E+02  0.16395889574E+03  0.00000000000E+00 0.  1.
        -15    1    3    3    0    0 -0.16852498856E+03 -0.32264594811E+03 -0.25637597843E+03  0.44523351137E+03  0.17770000000E+01 0.  1.
         15    1    3    3    0    0 -0.44080496388E+02 -0.24360007165E+02 -0.17246039261E+02  0.53264281747E+02  0.17770000000E+01 0. -1.
</event>
<event>
 7    1  0.1735947E-005  0.5040599E+03  0.7546771E-02  0.9390771E-01
        -11   -1    0    0    0    0  0.00000000000E+00  0.00000000000E+00  0.50000000000E+03  0.50000000000E+03  0.00000000000E+00 0. -1.
         11   -1    0    0    0    0 -0.00000000000E+00 -0.00000000000E+00 -0.50000000000E+03  0.50000000000E+03  0.00000000000E+00 0.  1.
         23    2    1    2    0    0  0.20986795651E+02 -0.18457002366E+02  0.49506229847E+03  0.50405991818E+03  0.90601408533E+02 0.  0.
        -11    1    1    2    0    0 -0.11445642052E+02  0.13909700393E+02 -0.24890014009E+03  0.24955112146E+03  0.00000000000E+00 0.  1.
         11    1    1    2    0    0 -0.95411535995E+01  0.45473019729E+01 -0.24616215838E+03  0.24638896036E+03  0.00000000000E+00 0. -1.
        -15    1    3    3    0    0  0.66590121526E+01 -0.33291890834E+02  0.63731265687E+02  0.72232433112E+02  0.17770000000E+01 0.  1.
         15    1    3    3    0    0  0.14327783499E+02  0.14834888469E+02  0.43133103278E+03  0.43182748507E+03  0.17770000000E+01 0. -1.
</event>
<event>
 7    1  0.1735947E-005  0.5027517E+03  0.7546771E-02  0.9393674E-01
        -11   -1    0    0    0    0  0.00000000000E+00  0.00000000000E+00  0.50000000000E+03  0.50000000000E+03  0.00000000000E+00 0. -1.
         11   -1    0    0    0    0 -0.00000000000E+00 -0.00000000000E+00 -0.50000000000E+03  0.50000000000E+03  0.00000000000E+00 0. -1.
         23    2    1    2    0    0  0.14768904594E+02  0.98425584672E+01  0.49383941720E+03  0.50275170155E+03  0.92557587069E+02 0.  0.
        -11    1    1    2    0    0  0.25644565803E+01 -0.30197522497E+02 -0.30949741940E+03  0.31097768315E+03  0.00000000000E+00 0. -1.
         11    1    1    2    0    0 -0.17333361175E+02  0.20354964029E+02 -0.18434199781E+03  0.18627061530E+03  0.00000000000E+00 0. -1.
        -15    1    3    3    0    0  0.44013102534E+02  0.31794649138E+02  0.35655352727E+03  0.36066830807E+03  0.17770000000E+01 0. -1.
         15    1    3    3    0    0 -0.29244197940E+02 -0.21952090671E+02  0.13728588994E+03  0.14208339348E+03  0.17770000000E+01 0.  1.
</event>
<event>
 7    1  0.1735947E-005  0.5042643E+03  0.7546771E-02  0.9390318E-01
        -11   -1    0    0    0    0  0.00000000000E+00  0.00000000000E+00  0.50000000000E+03  0.50000000000E+03  0.00000000000E+00 0.  1.
         11   -1    0    0    0    0 -0.00000000000E+00 -0.00000000000E+00 -0.50000000000E+03  0.50000000000E+03  0.00000000000E+00 0.  1.
         23    2    1    2    0    0  0.33828253568E+02 -0.36002424219E+02 -0.49293750163E+03  0.50426428293E+03  0.94098678198E+02 0.  0.
        -11    1    1    2    0    0 -0.22178241154E+02  0.13746120487E+02  0.30737856094E+03  0.30848405135E+03  0.00000000000E+00 0.  1.
         11    1    1    2    0    0 -0.11650012414E+02  0.22256303732E+02  0.18555894069E+03  0.18725166572E+03  0.00000000000E+00 0.  1.
        -15    1    3    3    0    0  0.50690492382E+02  0.13146038260E+02 -0.20005929464E+03  0.20680721322E+03  0.17770000000E+01 0. -1.
         15    1    3    3    0    0 -0.16862238813E+02 -0.49148462478E+02 -0.29287820699E+03  0.29745706971E+03  0.17770000000E+01 0.  1.
</event>
<event>
 7    1  0.1735947E-005  0.3551455E+03  0.7546771E-02  0.9799085E-01
        -11   -1    0    0    0    0  0.00000000000E+00  0.00000000000E+00  0.50000000000E+03  0.50000000000E+03  0.00000000000E+00 0.  1.
         11   -1    0    0    0    0 -0.00000000000E+00 -0.00000000000E+00 -0.50000000000E+03  0.50000000000E+03  0.00000000000E+00 0. -1.
         23    2    1    2    0    0 -0.23373058957E+03 -0.36811856930E+03  0.84484021883E+02  0.45338864116E+03  0.91007914022E+02 0.  0.
        -11    1    1    2    0    0  0.74932572990E+02  0.26629434411E+03  0.88721727708E+02  0.29051525462E+03  0.00000000000E+00 0.  1.
         11    1    1    2    0    0  0.15879801658E+03  0.10182422519E+03 -0.17320574959E+03  0.25609610422E+03  0.00000000000E+00 0. -1.
        -15    1    3    3    0    0 -0.15233271301E+03 -0.30447359885E+03  0.81132040151E+02  0.34999284781E+03  0.17770000000E+01 0.  1.
         15    1    3    3    0    0 -0.81397876556E+02 -0.63644970447E+02  0.33519817322E+01  0.10339579335E+03  0.17770000000E+01 0. -1.
</event>
<event>
 7    1  0.1735947E-005  0.5009090E+03  0.7546771E-02  0.9397778E-01
        -11   -1    0    0    0    0  0.00000000000E+00  0.00000000000E+00  0.50000000000E+03  0.50000000000E+03  0.00000000000E+00 0. -1.
         11   -1    0    0    0    0 -0.00000000000E+00 -0.00000000000E+00 -0.50000000000E+03  0.50000000000E+03  0.00000000000E+00 0.  1.
         23    2    1    2    0    0  0.82884288077E+01  0.14353006298E+02  0.49095845370E+03  0.50090898800E+03  0.97953581629E+02 0.  0.
        -11    1    1    2    0    0  0.18858950437E+02  0.19994940373E+02 -0.60964371874E+02  0.66873853561E+02  0.00000000000E+00 0. -1.
         11    1    1    2    0    0 -0.27147379245E+02 -0.34347946671E+02 -0.42999408183E+03  0.43221715844E+03  0.00000000000E+00 0.  1.
        -15    1    3    3    0    0  0.23504507798E+01 -0.13263911758E+02  0.45473945706E+03  0.45494240021E+03  0.17770000000E+01 0. -1.
         15    1    3    3    0    0  0.59379780278E+01  0.27616918057E+02  0.36218996644E+02  0.45966587789E+02  0.17770000000E+01 0.  1.
</event>
<event>
 7    1  0.1735947E-005  0.5041234E+03  0.7546771E-02  0.9390630E-01
        -11   -1    0    0    0    0  0.00000000000E+00  0.00000000000E+00  0.50000000000E+03  0.50000000000E+03  0.00000000000E+00 0. -1.
         11   -1    0    0    0    0 -0.00000000000E+00 -0.00000000000E+00 -0.50000000000E+03  0.50000000000E+03  0.00000000000E+00 0. -1.
         23    2    1    2    0    0 -0.37809085708E+00  0.27063142591E+01  0.49578142586E+03  0.50412335683E+03  0.91288934619E+02 0.  0.
        -11    1    1    2    0    0 -0.20514189739E+01 -0.55460460678E+01 -0.27476491331E+03  0.27482853660E+03  0.00000000000E+00 0. -1.
         11    1    1    2    0    0  0.24295098310E+01  0.28397318087E+01 -0.22101651255E+03  0.22104810656E+03  0.00000000000E+00 0. -1.
        -15    1    3    3    0    0  0.26105646728E+02 -0.21525586512E+02  0.40605878596E+03  0.40746993883E+03  0.17770000000E+01 0. -1.
         15    1    3    3    0    0 -0.26483737585E+02  0.24231900772E+02  0.89722639906E+02  0.96653418006E+02  0.17770000000E+01 0.  1.
</event>
<event>
 7    1  0.2147867E-005  0.5038853E+03  0.7546771E-02  0.9391158E-01
        -11   -1    0    0    0    0  0.00000000000E+00  0.00000000000E+00  0.50000000000E+03  0.50000000000E+03  0.00000000000E+00 0.  1.
         11   -1    0    0    0    0 -0.00000000000E+00 -0.00000000000E+00 -0.50000000000E+03  0.50000000000E+03  0.00000000000E+00 0.  1.
         23    2    1    2    0    0 -0.21424708310E+02  0.19471845039E+02 -0.49459905327E+03  0.50388529835E+03  0.91836809192E+02 0.  0.
        -11    1    1    2    0    0  0.24185651204E+02 -0.10363620309E+02  0.26127197360E+03  0.26259359196E+03  0.00000000000E+00 0.  1.
         11    1    1    2    0    0 -0.27609428940E+01 -0.91082247304E+01  0.23332707967E+03  0.23352110969E+03  0.00000000000E+00 0.  1.
        -15    1    3    3    0    0 -0.18376069370E+02  0.35353120863E+02 -0.48108645972E+03  0.48273684605E+03  0.17770000000E+01 0.  1.
         15    1    3    3    0    0 -0.30486389404E+01 -0.15881275823E+02 -0.13512593547E+02  0.21148452297E+02  0.17770000000E+01 0. -1.
</event>
