<event>
 6    1  0.6506903E-004  0.5072301E+03  0.7546771E-02  0.9383776E-01
        -11   -1    0    0    0    0  0.00000000000E+00  0.00000000000E+00  0.50000000000E+03  0.50000000000E+03  0.00000000000E+00 0. -1.
         11   -1    0    0    0    0 -0.00000000000E+00 -0.00000000000E+00 -0.50000000000E+03  0.50000000000E+03  0.00000000000E+00 0.  1.
        -11    1    1    2    0    0 -0.85532657643E+00 -0.66897030772E+01  0.28971642622E+03  0.28979491253E+03  0.00000000000E+00 0. -1.
         11    1    1    2    0    0  0.46555784406E+02  0.30143545966E+02 -0.48963874940E+03  0.49276990507E+03  0.00000000000E+00 0.  1.
        -15    1    1    2    0    0 -0.47468208265E+02  0.31987006084E+01  0.69172196329E+02  0.83972691724E+02  0.17770000000E+01 0.  1.
         15    1    1    2    0    0  0.17677504358E+01 -0.26652543497E+02  0.13075012685E+03  0.13346249068E+03  0.17770000000E+01 0. -1.
</event>
<event>
 6    1  0.6506903E-004  0.5006554E+03  0.7546771E-02  0.9398344E-01
        -11   -1    0    0    0    0  0.00000000000E+00  0.00000000000E+00  0.50000000000E+03  0.50000000000E+03  0.00000000000E+00 0.  1.
         11   -1    0    0    0    0 -0.00000000000E+00 -0.00000000000E+00 -0.50000000000E+03  0.50000000000E+03  0.00000000000E+00 0.  1.
        -11    1    1    2    0    0  0.56105592714E+01  0.39719521650E+01  0.49929725641E+03  0.49934457545E+03  0.00000000000E+00 0.  1.
         11    1    1    2    0    0  0.32193652247E+01 -0.81631022044E+01 -0.44170960922E+03  0.44179676258E+03  0.00000000000E+00 0.  1.
        -15    1    1    2    0    0 -0.43541531495E+01  0.43882449086E+01 -0.21231682555E+02  0.22184621163E+02  0.17770000000E+01 0.  1.
         15    1    1    2    0    0 -0.44757713467E+01 -0.19709486924E+00 -0.36355964634E+02  0.36674040805E+02  0.17770000000E+01 0. -1.
</event>
<event>
 6    1  0.6506903E-004  0.5001069E+03  0.7546771E-02  0.9399571E-01
        -11   -1    0    0    0    0  0.00000000000E+00  0.00000000000E+00  0.50000000000E+03  0.50000000000E+03  0.00000000000E+00 0.  1.
         11   -1    0    0    0    0 -0.00000000000E+00 -0.00000000000E+00 -0.50000000000E+03  0.50000000000E+03  0.00000000000E+00 0. -1.
        -11    1    1    2    0    0  0.74269451988E+01  0.36713170985E+01  0.39755758974E+03  0.39764390508E+03  0.00000000000E+00 0.  1.
         11    1    1    2    0    0 -0.65708038293E+01 -0.28630829154E+01 -0.49984173958E+03  0.49989312591E+03  0.00000000000E+00 0. -1.
        -15    1    1    2    0    0  0.52123512781E+00  0.18081852561E+01  0.40567547332E+02  0.40650028850E+02  0.17770000000E+01 0. -1.
         15    1    1    2    0    0 -0.13773764973E+01 -0.26164194391E+01  0.61716602508E+02  0.61812940157E+02  0.17770000000E+01 0.  1.
</event>
<event>
 6    1  0.6506903E-004  0.5031708E+03  0.7546771E-02  0.9392743E-01
        -11   -1    0    0    0    0  0.00000000000E+00  0.00000000000E+00  0.50000000000E+03  0.50000000000E+03  0.00000000000E+00 0.  1.
         11   -1    0    0    0    0 -0.00000000000E+00 -0.00000000000E+00 -0.50000000000E+03  0.50000000000E+03  0.00000000000E+00 0. -1.
        -11    1    1    2    0    0 -0.24885822416E+01 -0.97365491850E+01  0.47158502819E+03  0.47169209474E+03  0.00000000000E+00 0.  1.
         11    1    1    2    0    0  0.58761721421E+01 -0.57646637097E+01 -0.49676104663E+03  0.49682924450E+03  0.00000000000E+00 0. -1.
        -15    1    1    2    0    0 -0.15277359514E+01  0.55201298299E+01  0.17857263253E+02  0.18837340321E+02  0.17770000000E+01 0.  1.
         15    1    1    2    0    0 -0.18598539491E+01  0.99810830648E+01  0.73187551856E+01  0.12641320434E+02  0.17770000000E+01 0.  1.
</event>
<event>
 6    1  0.6506903E-004  0.4807515E+03  0.7546771E-02  0.9443940E-01
        -11   -1    0    0    0    0  0.00000000000E+00  0.00000000000E+00  0.50000000000E+03  0.50000000000E+03  0.00000000000E+00 0. -1.
         11   -1    0    0    0    0 -0.00000000000E+00 -0.00000000000E+00 -0.50000000000E+03  0.50000000000E+03  0.00000000000E+00 0. -1.
        -11    1    1    2    0    0  0.55421972206E+01  0.66108826852E+01  0.48193273438E+03  0.48200993785E+03  0.00000000000E+00 0. -1.
         11    1    1    2    0    0 -0.26326784297E+02  0.12790593797E+02 -0.47902447040E+03  0.47991784933E+03  0.00000000000E+00 0. -1.
        -15    1    1    2    0    0  0.49028169818E+00 -0.17358599622E+02 -0.21008756802E+01  0.17582171783E+02  0.17770000000E+01 0. -1.
         15    1    1    2    0    0  0.20294305378E+02 -0.20428768601E+01 -0.80738829674E+00  0.20490041033E+02  0.17770000000E+01 0.  1.
</event>
<event>
 6    1  0.6506903E-004  0.5026239E+03  0.7546771E-02  0.9393958E-01
        -11   -1    0    0    0    0  0.00000000000E+00  0.00000000000E+00  0.50000000000E+03  0.50000000000E+03  0.00000000000E+00 0. -1.
         11   -1    0    0    0    0 -0.00000000000E+00 -0.00000000000E+00 -0.50000000000E+03  0.50000000000E+03  0.00000000000E+00 0. -1.
        -11    1    1    2    0    0  0.22535973480E+02 -0.14842442631E+02  0.48162137096E+03  0.48237673366E+03  0.00000000000E+00 0. -1.
         11    1    1    2    0    0 -0.27045469178E+02  0.16301619192E+02 -0.49637262046E+03  0.49737609364E+03  0.00000000000E+00 0. -1.
        -15    1    1    2    0    0  0.21533531816E+01 -0.14679496127E+01  0.16512067883E+02  0.16810649028E+02  0.17770000000E+01 0. -1.
         15    1    1    2    0    0  0.23561425169E+01  0.87730520420E-02 -0.17608183918E+01  0.34365236701E+01  0.17770000000E+01 0.  1.
</event>
<event>
 6    1  0.6506903E-004  0.4803926E+03  0.7546771E-02  0.9444784E-01
        -11   -1    0    0    0    0  0.00000000000E+00  0.00000000000E+00  0.50000000000E+03  0.50000000000E+03  0.00000000000E+00 0. -1.
         11   -1    0    0    0    0 -0.00000000000E+00 -0.00000000000E+00 -0.50000000000E+03  0.50000000000E+03  0.00000000000E+00 0.  1.
        -11    1    1    2    0    0 -0.76436705084E+01 -0.21319129704E+02  0.47440911243E+03  0.47494940462E+03  0.00000000000E+00 0. -1.
         11    1    1    2    0    0  0.21070756879E+02 -0.11100985467E+02 -0.48596253816E+03  0.48654578117E+03  0.00000000000E+00 0.  1.
        -15    1    1    2    0    0 -0.98409371180E+01  0.20407476985E+02  0.23408098201E+01  0.22846143654E+02  0.17770000000E+01 0. -1.
         15    1    1    2    0    0 -0.35861492528E+01  0.12012638187E+02  0.92126159126E+01  0.15658670557E+02  0.17770000000E+01 0.  1.
</event>
<event>
 6    1  0.6506903E-004  0.5037505E+03  0.7546771E-02  0.9391456E-01
        -11   -1    0    0    0    0  0.00000000000E+00  0.00000000000E+00  0.50000000000E+03  0.50000000000E+03  0.00000000000E+00 0.  1.
         11   -1    0    0    0    0 -0.00000000000E+00 -0.00000000000E+00 -0.50000000000E+03  0.50000000000E+03  0.00000000000E+00 0. -1.
        -11    1    1    2    0    0  0.17415354378E+01 -0.62308386052E+01  0.40437324691E+03  0.40442499813E+03  0.00000000000E+00 0.  1.
         11    1    1    2    0    0 -0.15470769042E+02 -0.16858598939E+02 -0.49572166513E+03  0.49624945978E+03  0.00000000000E+00 0. -1.
        -15    1    1    2    0    0  0.15844906478E+02  0.16453364463E+02  0.30985515823E+02  0.38536141261E+02  0.17770000000E+01 0. -1.
         15    1    1    2    0    0 -0.21156728732E+01  0.66360730811E+01  0.60362902401E+02  0.60789400827E+02  0.17770000000E+01 0.  1.
</event>
<event>
 6    1  0.6506903E-004  0.5005483E+03  0.7546771E-02  0.9398584E-01
        -11   -1    0    0    0    0  0.00000000000E+00  0.00000000000E+00  0.50000000000E+03  0.50000000000E+03  0.00000000000E+00 0. -1.
         11   -1    0    0    0    0 -0.00000000000E+00 -0.00000000000E+00 -0.50000000000E+03  0.50000000000E+03  0.00000000000E+00 0. -1.
        -11    1    1    2    0    0 -0.12793213618E+02  0.69530127516E+01  0.43084047378E+03  0.43108644673E+03  0.00000000000E+00 0. -1.
         11    1    1    2    0    0  0.16641575303E+02 -0.59943942184E+01 -0.49913841254E+03  0.49945172906E+03  0.00000000000E+00 0. -1.
        -15    1    1    2    0    0 -0.55009009598E+01  0.39286437097E+01  0.44559376920E+02  0.45104212146E+02  0.17770000000E+01 0.  1.
         15    1    1    2    0    0  0.16525392750E+01 -0.48872622430E+01  0.23738561838E+02  0.24357612063E+02  0.17770000000E+01 0. -1.
</event>
<event>
 6    1  0.6506903E-004  0.5022073E+03  0.7546771E-02  0.9394884E-01
        -11   -1    0    0    0    0  0.00000000000E+00  0.00000000000E+00  0.50000000000E+03  0.50000000000E+03  0.00000000000E+00 0. -1.
         11   -1    0    0    0    0 -0.00000000000E+00 -0.00000000000E+00 -0.50000000000E+03  0.50000000000E+03  0.00000000000E+00 0. -1.
        -11    1    1    2    0    0  0.10712226097E+02 -0.15368090570E+02  0.49744011452E+03  0.49779272547E+03  0.00000000000E+00 0. -1.
         11    1    1    2    0    0 -0.12883035488E+02  0.15874143102E+02 -0.42510386332E+03  0.42559517812E+03  0.00000000000E+00 0. -1.
        -15    1    1    2    0    0  0.45296789516E+01 -0.12104416441E+02 -0.42766312005E+02  0.44711855925E+02  0.17770000000E+01 0. -1.
         15    1    1    2    0    0 -0.23588695600E+01  0.11598363910E+02 -0.29569939187E+02  0.31900240493E+02  0.17770000000E+01 0.  1.
</event>
<event>
 6    1  0.6506903E-004  0.5016607E+03  0.7546771E-02  0.9396101E-01
        -11   -1    0    0    0    0  0.00000000000E+00  0.00000000000E+00  0.50000000000E+03  0.50000000000E+03  0.00000000000E+00 0. -1.
         11   -1    0    0    0    0 -0.00000000000E+00 -0.00000000000E+00 -0.50000000000E+03  0.50000000000E+03  0.00000000000E+00 0. -1.
        -11    1    1    2    0    0  0.74733862507E+01 -0.12001356092E+02  0.49813872671E+03  0.49833931723E+03  0.00000000000E+00 0. -1.
         11    1    1    2    0    0 -0.12583744478E+02 -0.23679765592E+01 -0.45166068069E+03  0.45184214990E+03  0.00000000000E+00 0. -1.
        -15    1    1    2    0    0  0.39512830279E+01  0.74268111031E+01 -0.36377734613E+02  0.37380041001E+02  0.17770000000E+01 0.  1.
         15    1    1    2    0    0  0.11590751991E+01  0.69425215477E+01 -0.10100311400E+02  0.12438491875E+02  0.17770000000E+01 0. -1.
</event>
<event>
 6    1  0.6506903E-004  0.5329420E+03  0.7546771E-02  0.9328974E-01
        -11   -1    0    0    0    0  0.00000000000E+00  0.00000000000E+00  0.50000000000E+03  0.50000000000E+03  0.00000000000E+00 0. -1.
         11   -1    0    0    0    0 -0.00000000000E+00 -0.00000000000E+00 -0.50000000000E+03  0.50000000000E+03  0.00000000000E+00 0. -1.
        -11    1    1    2    0    0 -0.67521802046E+01  0.11334176643E+02  0.34028738766E+03  0.34054303943E+03  0.00000000000E+00 0. -1.
         11    1    1    2    0    0  0.30819759502E+02  0.29681050294E+02 -0.46509395634E+03  0.46705803767E+03  0.00000000000E+00 0. -1.
        -15    1    1    2    0    0 -0.49825056642E+02 -0.51586417639E+02  0.78603210013E+01  0.72170888379E+02  0.17770000000E+01 0. -1.
         15    1    1    2    0    0  0.25757477345E+02  0.10571190702E+02  0.11694624768E+03  0.12022803453E+03  0.17770000000E+01 0.  1.
</event>
<event>
 6    1  0.6506903E-004  0.5069517E+03  0.7546771E-02  0.9384388E-01
        -11   -1    0    0    0    0  0.00000000000E+00  0.00000000000E+00  0.50000000000E+03  0.50000000000E+03  0.00000000000E+00 0.  1.
         11   -1    0    0    0    0 -0.00000000000E+00 -0.00000000000E+00 -0.50000000000E+03  0.50000000000E+03  0.00000000000E+00 0.  1.
        -11    1    1    2    0    0 -0.10197734403E+02  0.50512774921E+01  0.47192098770E+03  0.47205818266E+03  0.00000000000E+00 0.  1.
         11    1    1    2    0    0 -0.10740308044E+02  0.12274069626E+02 -0.49277847956E+03  0.49304831094E+03  0.00000000000E+00 0.  1.
        -15    1    1    2    0    0  0.37137956944E+01 -0.32356544258E+01  0.65187132847E+01  0.83614047810E+01  0.17770000000E+01 0.  1.
         15    1    1    2    0    0  0.17224246752E+02 -0.14089692692E+02  0.14338778577E+02  0.26532101621E+02  0.17770000000E+01 0. -1.
</event>
<event>
 6    1  0.7073972E-004  0.5000385E+03  0.7546771E-02  0.9399724E-01
        -11   -1    0    0    0    0  0.00000000000E+00  0.00000000000E+00  0.50000000000E+03  0.50000000000E+03  0.00000000000E+00 0.  1.
         11   -1    0    0    0    0 -0.00000000000E+00 -0.00000000000E+00 -0.50000000000E+03  0.50000000000E+03  0.00000000000E+00 0. -1.
        -11    1    1    2    0    0 -0.36198255472E+01 -0.83947082921E+00  0.13221459422E+03  0.13226680148E+03  0.00000000000E+00 0.  1.
         11    1    1    2    0    0  0.78336488999E+01  0.80865592289E+01 -0.49983470279E+03  0.49996148712E+03  0.00000000000E+00 0. -1.
        -15    1    1    2    0    0 -0.36987440548E+01 -0.26509465780E+01  0.24937785278E+03  0.24942569918E+03  0.17770000000E+01 0.  1.
         15    1    1    2    0    0 -0.51507929781E+00 -0.45961418217E+01  0.11824225579E+03  0.11834601222E+03  0.17770000000E+01 0. -1.
</event>
<event>
 6    1  0.6506903E-004  0.5001870E+03  0.7546771E-02  0.9399391E-01
        -11   -1    0    0    0    0  0.00000000000E+00  0.00000000000E+00  0.50000000000E+03  0.50000000000E+03  0.00000000000E+00 0. -1.
         11   -1    0    0    0    0 -0.00000000000E+00 -0.00000000000E+00 -0.50000000000E+03  0.50000000000E+03  0.00000000000E+00 0.  1.
        -11    1    1    2    0    0  0.16978758801E+02 -0.69394417025E+01  0.49947631860E+03  0.49981299197E+03  0.00000000000E+00 0. -1.
         11    1    1    2    0    0 -0.19036320799E+02  0.63719020020E+01 -0.32185818965E+03  0.32248360717E+03  0.00000000000E+00 0.  1.
        -15    1    1    2    0    0  0.15017197667E+01 -0.87472867430E+00 -0.13294443608E+03  0.13296766948E+03  0.17770000000E+01 0. -1.
         15    1    1    2    0    0  0.55584223084E+00  0.14422683748E+01 -0.44673692868E+02  0.44735731381E+02  0.17770000000E+01 0.  1.
</event>
<event>
 6    1  0.6506903E-004  0.4956010E+03  0.7546771E-02  0.9409707E-01
        -11   -1    0    0    0    0  0.00000000000E+00  0.00000000000E+00  0.50000000000E+03  0.50000000000E+03  0.00000000000E+00 0. -1.
         11   -1    0    0    0    0 -0.00000000000E+00 -0.00000000000E+00 -0.50000000000E+03  0.50000000000E+03  0.00000000000E+00 0. -1.
        -11    1    1    2    0    0  0.69176795637E+01 -0.32481553738E+01  0.49607046382E+03  0.49612932777E+03  0.00000000000E+00 0. -1.
         11    1    1    2    0    0 -0.62642351455E+01  0.58695037614E+01 -0.49500252976E+03  0.49507695986E+03  0.00000000000E+00 0. -1.
        -15    1    1    2    0    0  0.10449276810E+01 -0.18715908281E+01  0.29294249812E+01  0.40415326062E+01  0.17770000000E+01 0.  1.
         15    1    1    2    0    0 -0.16983720991E+01 -0.74975755952E+00 -0.39973590371E+01  0.47521797585E+01  0.17770000000E+01 0. -1.
</event>
<event>
 6    1  0.6506903E-004  0.5014510E+03  0.7546771E-02  0.9396569E-01
        -11   -1    0    0    0    0  0.00000000000E+00  0.00000000000E+00  0.50000000000E+03  0.50000000000E+03  0.00000000000E+00 0.  1.
         11   -1    0    0    0    0 -0.00000000000E+00 -0.00000000000E+00 -0.50000000000E+03  0.50000000000E+03  0.00000000000E+00 0. -1.
        -11    1    1    2    0    0  0.74926392322E+01 -0.59481702923E+01  0.49845721374E+03  0.49854900893E+03  0.00000000000E+00 0.  1.
         11    1    1    2    0    0  0.12412260661E+02  0.79565747431E+01 -0.41085882157E+03  0.41112326930E+03  0.00000000000E+00 0. -1.
        -15    1    1    2    0    0 -0.14176572741E+02 -0.50206530862E+01 -0.65761573967E+02  0.67482771962E+02  0.17770000000E+01 0. -1.
         15    1    1    2    0    0 -0.57283271529E+01  0.30122486354E+01 -0.21836818197E+02  0.22844949809E+02  0.17770000000E+01 0.  1.
</event>
<event>
 6    1  0.6506903E-004  0.5000875E+03  0.7546771E-02  0.9399614E-01
        -11   -1    0    0    0    0  0.00000000000E+00  0.00000000000E+00  0.50000000000E+03  0.50000000000E+03  0.00000000000E+00 0.  1.
         11   -1    0    0    0    0 -0.00000000000E+00 -0.00000000000E+00 -0.50000000000E+03  0.50000000000E+03  0.00000000000E+00 0.  1.
        -11    1    1    2    0    0 -0.13448440850E+00 -0.33105000299E+01  0.21157710072E+03  0.21160304120E+03  0.00000000000E+00 0.  1.
         11    1    1    2    0    0 -0.79861099820E+01  0.12657519998E+02 -0.49968842466E+03  0.49991250485E+03  0.00000000000E+00 0.  1.
        -15    1    1    2    0    0  0.58931722123E+01 -0.27528531913E+01  0.18520945579E+03  0.18533215566E+03  0.17770000000E+01 0.  1.
         15    1    1    2    0    0  0.22274221782E+01 -0.65941667766E+01  0.10290186815E+03  0.10315229829E+03  0.17770000000E+01 0. -1.
</event>
<event>
 6    1  0.6506903E-004  0.5060115E+03  0.7546771E-02  0.9386458E-01
        -11   -1    0    0    0    0  0.00000000000E+00  0.00000000000E+00  0.50000000000E+03  0.50000000000E+03  0.00000000000E+00 0.  1.
         11   -1    0    0    0    0 -0.00000000000E+00 -0.00000000000E+00 -0.50000000000E+03  0.50000000000E+03  0.00000000000E+00 0. -1.
        -11    1    1    2    0    0  0.77472491069E+01 -0.10802150600E+02  0.49380964186E+03  0.49398853096E+03  0.00000000000E+00 0.  1.
         11    1    1    2    0    0  0.65693961724E+01 -0.35813648720E+02 -0.15844363329E+03  0.16257355053E+03  0.00000000000E+00 0. -1.
        -15    1    1    2    0    0 -0.80914634769E+01 -0.41869017553E+01 -0.85061910045E+01  0.12590271717E+02  0.17770000000E+01 0.  1.
         15    1    1    2    0    0 -0.62251818024E+01  0.50802701075E+02 -0.32685981756E+03  0.33084764680E+03  0.17770000000E+01 0. -1.
</event>
<event>
 6    1  0.6506903E-004  0.5002995E+03  0.7546771E-02  0.9399140E-01
        -11   -1    0    0    0    0  0.00000000000E+00  0.00000000000E+00  0.50000000000E+03  0.50000000000E+03  0.00000000000E+00 0.  1.
         11   -1    0    0    0    0 -0.00000000000E+00 -0.00000000000E+00 -0.50000000000E+03  0.50000000000E+03  0.00000000000E+00 0. -1.
        -11    1    1    2    0    0 -0.11975396486E+01  0.36361913155E+01  0.26351729235E+03  0.26354509928E+03  0.00000000000E+00 0.  1.
         11    1    1    2    0    0 -0.10198588995E+02  0.31478563416E+01 -0.49958645949E+03  0.49970046100E+03  0.00000000000E+00 0. -1.
        -15    1    1    2    0    0  0.42569162526E+01  0.28776781716E+01  0.98657756749E+02  0.98807454493E+02  0.17770000000E+01 0.  1.
         15    1    1    2    0    0  0.71392123911E+01 -0.96617258287E+01  0.13741141039E+03  0.13794698523E+03  0.17770000000E+01 0. -1.
</event>
<event>
 6    1  0.6506903E-004  0.5009746E+03  0.7546771E-02  0.9397632E-01
        -11   -1    0    0    0    0  0.00000000000E+00  0.00000000000E+00  0.50000000000E+03  0.50000000000E+03  0.00000000000E+00 0.  1.
         11   -1    0    0    0    0 -0.00000000000E+00 -0.00000000000E+00 -0.50000000000E+03  0.50000000000E+03  0.00000000000E+00 0.  1.
        -11    1    1    2    0    0 -0.36756481552E+00  0.98312785160E+01  0.49892842641E+03  0.49902541401E+03  0.00000000000E+00 0.  1.
         11    1    1    2    0    0 -0.91306577553E+01  0.28428195980E+01 -0.31917495854E+03  0.31931818723E+03  0.00000000000E+00 0.  1.
        -15    1    1    2    0    0 -0.91056207410E+00  0.27176714659E+01 -0.58370467574E+01  0.67411946520E+01  0.17770000000E+01 0.  1.
         15    1    1    2    0    0  0.10408784645E+02 -0.15391769580E+02 -0.17391642111E+03  0.17491520411E+03  0.17770000000E+01 0. -1.
</event>
<event>
 6    1  0.6506903E-004  0.5081402E+03  0.7546771E-02  0.9381777E-01
        -11   -1    0    0    0    0  0.00000000000E+00  0.00000000000E+00  0.50000000000E+03  0.50000000000E+03  0.00000000000E+00 0. -1.
         11   -1    0    0    0    0 -0.00000000000E+00 -0.00000000000E+00 -0.50000000000E+03  0.50000000000E+03  0.00000000000E+00 0. -1.
        -11    1    1    2    0    0  0.70812254304E+01  0.39460902459E+01  0.49179300718E+03  0.49185981468E+03  0.00000000000E+00 0. -1.
         11    1    1    2    0    0  0.38505250060E+02  0.84791777672E+01 -0.51045946239E+02  0.64499917560E+02  0.00000000000E+00 0. -1.
        -15    1    1    2    0    0 -0.39512069210E+02 -0.61462147795E+01 -0.39571293646E+03  0.39773215281E+03  0.17770000000E+01 0. -1.
         15    1    1    2    0    0 -0.60744062796E+01 -0.62790532335E+01 -0.45034124489E+02  0.45908114954E+02  0.17770000000E+01 0. -1.
</event>
<event>
 6    1  0.6506903E-004  0.5007286E+03  0.7546771E-02  0.9398181E-01
        -11   -1    0    0    0    0  0.00000000000E+00  0.00000000000E+00  0.50000000000E+03  0.50000000000E+03  0.00000000000E+00 0. -1.
         11   -1    0    0    0    0 -0.00000000000E+00 -0.00000000000E+00 -0.50000000000E+03  0.50000000000E+03  0.00000000000E+00 0.  1.
        -11    1    1    2    0    0 -0.68320769078E+01  0.65724047130E+01  0.49918138234E+03  0.49927139539E+03  0.00000000000E+00 0. -1.
         11    1    1    2    0    0  0.69688921162E+01 -0.53449510115E+01 -0.45744310633E+03  0.45752740845E+03  0.00000000000E+00 0.  1.
        -15    1    1    2    0    0  0.18713685314E+01 -0.52118822523E+01 -0.16129829113E+02  0.17146278109E+02  0.17770000000E+01 0. -1.
         15    1    1    2    0    0 -0.20081837398E+01  0.39844285508E+01 -0.25608446903E+02  0.26054918050E+02  0.17770000000E+01 0.  1.
</event>
<event>
 6    1  0.6506903E-004  0.5039321E+03  0.7546771E-02  0.9391054E-01
        -11   -1    0    0    0    0  0.00000000000E+00  0.00000000000E+00  0.50000000000E+03  0.50000000000E+03  0.00000000000E+00 0.  1.
         11   -1    0    0    0    0 -0.00000000000E+00 -0.00000000000E+00 -0.50000000000E+03  0.50000000000E+03  0.00000000000E+00 0. -1.
        -11    1    1    2    0    0  0.11338297278E+02 -0.44748123409E+01  0.48905541206E+03  0.48920729450E+03  0.00000000000E+00 0.  1.
         11    1    1    2    0    0 -0.10175360013E+02 -0.34877290186E+01 -0.49595127419E+03  0.49606790722E+03  0.00000000000E+00 0. -1.
        -15    1    1    2    0    0  0.33012397647E+01  0.67331509515E+01  0.25126389412E+01  0.81058367346E+01  0.17770000000E+01 0.  1.
         15    1    1    2    0    0 -0.44641770302E+01  0.12293904080E+01  0.43832231886E+01  0.66189615389E+01  0.17770000000E+01 0. -1.
</event>
<event>
 6    1  0.6506903E-004  0.5023627E+03  0.7546771E-02  0.9394539E-01
        -11   -1    0    0    0    0  0.00000000000E+00  0.00000000000E+00  0.50000000000E+03  0.50000000000E+03  0.00000000000E+00 0. -1.
         11   -1    0    0    0    0 -0.00000000000E+00 -0.00000000000E+00 -0.50000000000E+03  0.50000000000E+03  0.00000000000E+00 0.  1.
        -11    1    1    2    0    0  0.12838834560E+02 -0.32997946724E+01  0.42966855981E+03  0.42987299940E+03  0.00000000000E+00 0. -1.
         11    1    1    2    0    0 -0.12458209817E+02 -0.22585531983E+02 -0.49696840817E+03  0.49763732975E+03  0.00000000000E+00 0.  1.
        -15    1    1    2    0    0 -0.27300943489E+01  0.20384210434E+02  0.53506350664E+02  0.57350298522E+02  0.17770000000E+01 0. -1.
         15    1    1    2    0    0  0.23494696063E+01  0.55011162213E+01  0.13793497689E+02  0.15139372332E+02  0.17770000000E+01 0. -1.
</event>
<event>
 6    1  0.6506903E-004  0.5041613E+03  0.7546771E-02  0.9390546E-01
        -11   -1    0    0    0    0  0.00000000000E+00  0.00000000000E+00  0.50000000000E+03  0.50000000000E+03  0.00000000000E+00 0. -1.
         11   -1    0    0    0    0 -0.00000000000E+00 -0.00000000000E+00 -0.50000000000E+03  0.50000000000E+03  0.00000000000E+00 0. -1.
        -11    1    1    2    0    0 -0.68652487157E+01  0.64820564893E+01  0.49574881961E+03  0.49583872463E+03  0.00000000000E+00 0. -1.
         11    1    1    2    0    0 -0.21791095912E+01 -0.15550501158E+02 -0.48020056549E+03  0.48045722984E+03  0.00000000000E+00 0. -1.
        -15    1    1    2    0    0  0.10520886639E+02  0.32880983305E+01 -0.12540404707E+02  0.16790477227E+02  0.17770000000E+01 0. -1.
         15    1    1    2    0    0 -0.14765283323E+01  0.57803463385E+01 -0.30078494101E+01  0.69135683104E+01  0.17770000000E+01 0.  1.
</event>
<event>
 6    1  0.6506903E-004  0.5003265E+03  0.7546771E-02  0.9399079E-01
        -11   -1    0    0    0    0  0.00000000000E+00  0.00000000000E+00  0.50000000000E+03  0.50000000000E+03  0.00000000000E+00 0.  1.
         11   -1    0    0    0    0 -0.00000000000E+00 -0.00000000000E+00 -0.50000000000E+03  0.50000000000E+03  0.00000000000E+00 0. -1.
        -11    1    1    2    0    0 -0.52182109777E+01  0.75945234172E+01  0.49958849718E+03  0.49967346641E+03  0.00000000000E+00 0.  1.
         11    1    1    2    0    0  0.57569285511E+01  0.18288941722E+01 -0.38525028002E+03  0.38529763214E+03  0.00000000000E+00 0. -1.
        -15    1    1    2    0    0 -0.22872192689E+01 -0.16513319288E+01 -0.58763448220E+02  0.58857954813E+02  0.17770000000E+01 0. -1.
         15    1    1    2    0    0  0.17485016955E+01 -0.77720856606E+01 -0.55574768950E+02  0.56170946641E+02  0.17770000000E+01 0.  1.
</event>
<event>
 6    1  0.6506903E-004  0.5012131E+03  0.7546771E-02  0.9397099E-01
        -11   -1    0    0    0    0  0.00000000000E+00  0.00000000000E+00  0.50000000000E+03  0.50000000000E+03  0.00000000000E+00 0. -1.
         11   -1    0    0    0    0 -0.00000000000E+00 -0.00000000000E+00 -0.50000000000E+03  0.50000000000E+03  0.00000000000E+00 0.  1.
        -11    1    1    2    0    0 -0.11829326110E+02 -0.25751605284E+01  0.49863993136E+03  0.49878687388E+03  0.00000000000E+00 0. -1.
         11    1    1    2    0    0 -0.11186937809E+01 -0.13054493541E+02 -0.40332172375E+03  0.40353448939E+03  0.00000000000E+00 0.  1.
        -15    1    1    2    0    0  0.13302995265E+01  0.21061950846E+01 -0.21529004219E+02  0.21745378963E+02  0.17770000000E+01 0. -1.
         15    1    1    2    0    0  0.11617720364E+02  0.13523458985E+02 -0.73789203393E+02  0.75933257771E+02  0.17770000000E+01 0. -1.
</event>
<event>
 6    1  0.6506903E-004  0.5057708E+03  0.7546771E-02  0.9386989E-01
        -11   -1    0    0    0    0  0.00000000000E+00  0.00000000000E+00  0.50000000000E+03  0.50000000000E+03  0.00000000000E+00 0.  1.
         11   -1    0    0    0    0 -0.00000000000E+00 -0.00000000000E+00 -0.50000000000E+03  0.50000000000E+03  0.00000000000E+00 0. -1.
        -11    1    1    2    0    0  0.50267125258E+01 -0.16257596149E+01  0.21850363612E+03  0.21856749513E+03  0.00000000000E+00 0.  1.
         11    1    1    2    0    0 -0.26239565391E+00  0.93507044444E+02 -0.48530281912E+03  0.49422915986E+03  0.00000000000E+00 0. -1.
        -15    1    1    2    0    0  0.88270937586E+00 -0.93677984139E+02  0.20861675147E+03  0.22869291772E+03  0.17770000000E+01 0. -1.
         15    1    1    2    0    0 -0.56470262478E+01  0.17966993094E+01  0.58182431529E+02  0.58510427289E+02  0.17770000000E+01 0.  1.
</event>
<event>
 6    1  0.6506903E-004  0.5008755E+03  0.7546771E-02  0.9397853E-01
        -11   -1    0    0    0    0  0.00000000000E+00  0.00000000000E+00  0.50000000000E+03  0.50000000000E+03  0.00000000000E+00 0. -1.
         11   -1    0    0    0    0 -0.00000000000E+00 -0.00000000000E+00 -0.50000000000E+03  0.50000000000E+03  0.00000000000E+00 0.  1.
        -11    1    1    2    0    0  0.90122437726E+01 -0.35671945462E+00  0.41020324167E+03  0.41030238516E+03  0.00000000000E+00 0. -1.
         11    1    1    2    0    0 -0.55163136942E+01 -0.10130488128E+02 -0.49899114523E+03  0.49912445295E+03  0.00000000000E+00 0.  1.
        -15    1    1    2    0    0  0.31001098267E+01  0.98719034458E+01  0.63931330124E+02  0.64787636621E+02  0.17770000000E+01 0.  1.
         15    1    1    2    0    0 -0.65960399051E+01  0.61530413637E+00  0.24856573438E+02  0.25785525275E+02  0.17770000000E+01 0. -1.
</event>
<event>
 6    1  0.6506903E-004  0.5006409E+03  0.7546771E-02  0.9398377E-01
        -11   -1    0    0    0    0  0.00000000000E+00  0.00000000000E+00  0.50000000000E+03  0.50000000000E+03  0.00000000000E+00 0. -1.
         11   -1    0    0    0    0 -0.00000000000E+00 -0.00000000000E+00 -0.50000000000E+03  0.50000000000E+03  0.00000000000E+00 0.  1.
        -11    1    1    2    0    0  0.11269379703E+02  0.15132161882E+01  0.49922961515E+03  0.49935908661E+03  0.00000000000E+00 0. -1.
         11    1    1    2    0    0 -0.15758185290E+02  0.10818214303E+02 -0.20907708176E+03  0.20994899448E+03  0.00000000000E+00 0.  1.
        -15    1    1    2    0    0  0.14145152091E+01 -0.13304532084E+02 -0.25229565957E+03  0.25265642481E+03  0.17770000000E+01 0.  1.
         15    1    1    2    0    0  0.30742903780E+01  0.97310159338E+00 -0.37856873810E+02  0.38035494103E+02  0.17770000000E+01 0. -1.
</event>
<event>
 6    1  0.6506903E-004  0.5002809E+03  0.7546771E-02  0.9399181E-01
        -11   -1    0    0    0    0  0.00000000000E+00  0.00000000000E+00  0.50000000000E+03  0.50000000000E+03  0.00000000000E+00 0.  1.
         11   -1    0    0    0    0 -0.00000000000E+00 -0.00000000000E+00 -0.50000000000E+03  0.50000000000E+03  0.00000000000E+00 0. -1.
        -11    1    1    2    0    0 -0.60392623730E+01  0.79541251837E+01  0.49961925872E+03  0.49971906555E+03  0.00000000000E+00 0.  1.
         11    1    1    2    0    0  0.36840083388E+01 -0.10865811046E+02 -0.13154486704E+03  0.13204427217E+03  0.00000000000E+00 0. -1.
        -15    1    1    2    0    0 -0.15957437033E+01 -0.12534776242E+01 -0.33536189883E+02  0.33644484912E+02  0.17770000000E+01 0.  1.
         15    1    1    2    0    0  0.39509977375E+01  0.41651634867E+01 -0.33453820179E+03  0.33459217737E+03  0.17770000000E+01 0. -1.
</event>
<event>
 6    1  0.6506903E-004  0.4889780E+03  0.7546771E-02  0.9424816E-01
        -11   -1    0    0    0    0  0.00000000000E+00  0.00000000000E+00  0.50000000000E+03  0.50000000000E+03  0.00000000000E+00 0.  1.
         11   -1    0    0    0    0 -0.00000000000E+00 -0.00000000000E+00 -0.50000000000E+03  0.50000000000E+03  0.00000000000E+00 0. -1.
        -11    1    1    2    0    0 -0.31867700661E+01 -0.58365705876E+01  0.48991452564E+03  0.48995965497E+03  0.00000000000E+00 0.  1.
         11    1    1    2    0    0 -0.10108544203E+02  0.13187602302E+02 -0.48783365606E+03  0.48811655525E+03  0.00000000000E+00 0. -1.
        -15    1    1    2    0    0  0.64839722613E+00  0.20001176655E+01  0.40938664949E+01  0.49333924957E+01  0.17770000000E+01 0.  1.
         15    1    1    2    0    0  0.12646917043E+02 -0.93511493800E+01 -0.61747360779E+01  0.16990397290E+02  0.17770000000E+01 0. -1.
</event>
<event>
 6    1  0.6506903E-004  0.4834623E+03  0.7546771E-02  0.9437594E-01
        -11   -1    0    0    0    0  0.00000000000E+00  0.00000000000E+00  0.50000000000E+03  0.50000000000E+03  0.00000000000E+00 0.  1.
         11   -1    0    0    0    0 -0.00000000000E+00 -0.00000000000E+00 -0.50000000000E+03  0.50000000000E+03  0.00000000000E+00 0. -1.
        -11    1    1    2    0    0 -0.73032965154E+01 -0.22515979094E+01  0.48255310191E+03  0.48261361771E+03  0.00000000000E+00 0.  1.
         11    1    1    2    0    0  0.23593560137E+02 -0.56464432427E+01 -0.48387359715E+03  0.48448136849E+03  0.00000000000E+00 0. -1.
        -15    1    1    2    0    0  0.63524785773E+01 -0.67582537318E+00  0.50612031344E+01  0.83417162609E+01  0.17770000000E+01 0. -1.
         15    1    1    2    0    0 -0.22642742199E+02  0.85738665253E+01 -0.37407078968E+01  0.24563297540E+02  0.17770000000E+01 0. -1.
</event>
<event>
 6    1  0.6506903E-004  0.5001068E+03  0.7546771E-02  0.9399571E-01
        -11   -1    0    0    0    0  0.00000000000E+00  0.00000000000E+00  0.50000000000E+03  0.50000000000E+03  0.00000000000E+00 0.  1.
         11   -1    0    0    0    0 -0.00000000000E+00 -0.00000000000E+00 -0.50000000000E+03  0.50000000000E+03  0.00000000000E+00 0. -1.
        -11    1    1    2    0    0  0.14254230100E+00  0.10057182436E+02  0.49979204098E+03  0.49989324007E+03  0.00000000000E+00 0.  1.
         11    1    1    2    0    0 -0.50292721277E+01 -0.44725225082E+01 -0.32380263788E+03  0.32387257576E+03  0.00000000000E+00 0. -1.
        -15    1    1    2    0    0  0.60900370375E+00  0.17412523856E+00 -0.38877261282E+02  0.38923005779E+02  0.17770000000E+01 0. -1.
         15    1    1    2    0    0  0.42777261230E+01 -0.57587851661E+01 -0.13711214182E+03  0.13731117839E+03  0.17770000000E+01 0. -1.
</event>
<event>
 6    1  0.6506903E-004  0.5004645E+03  0.7546771E-02  0.9398771E-01
        -11   -1    0    0    0    0  0.00000000000E+00  0.00000000000E+00  0.50000000000E+03  0.50000000000E+03  0.00000000000E+00 0.  1.
         11   -1    0    0    0    0 -0.00000000000E+00 -0.00000000000E+00 -0.50000000000E+03  0.50000000000E+03  0.00000000000E+00 0.  1.
        -11    1    1    2    0    0  0.45884065864E+01 -0.68072806451E+01  0.49946804219E+03  0.49953550195E+03  0.00000000000E+00 0.  1.
         11    1    1    2    0    0  0.23643511082E+01  0.72339188494E+01 -0.44862455435E+03  0.44868910227E+03  0.00000000000E+00 0.  1.
        -15    1    1    2    0    0 -0.21467250533E+01  0.11486179457E+01 -0.72223598804E+01  0.78261077734E+01  0.17770000000E+01 0. -1.
         15    1    1    2    0    0 -0.48060326413E+01 -0.15752561500E+01 -0.43621127963E+02  0.43949287997E+02  0.17770000000E+01 0.  1.
</event>
<event>
 6    1  0.6506903E-004  0.5000872E+03  0.7546771E-02  0.9399615E-01
        -11   -1    0    0    0    0  0.00000000000E+00  0.00000000000E+00  0.50000000000E+03  0.50000000000E+03  0.00000000000E+00 0.  1.
         11   -1    0    0    0    0 -0.00000000000E+00 -0.00000000000E+00 -0.50000000000E+03  0.50000000000E+03  0.00000000000E+00 0. -1.
        -11    1    1    2    0    0 -0.84513053321E+01 -0.13542813986E+02  0.36973048710E+03  0.37007494574E+03  0.00000000000E+00 0.  1.
         11    1    1    2    0    0  0.82872889233E+01  0.16153310971E+02 -0.49958299584E+03  0.49991277074E+03  0.00000000000E+00 0. -1.
        -15    1    1    2    0    0 -0.13247390797E+01  0.75626475756E+00  0.51493230531E+02  0.51546458555E+02  0.17770000000E+01 0.  1.
         15    1    1    2    0    0  0.14887554885E+01 -0.33667617425E+01  0.78359278204E+02  0.78465824964E+02  0.17770000000E+01 0. -1.
</event>
<event>
 6    1  0.6506903E-004  0.5001864E+03  0.7546771E-02  0.9399393E-01
        -11   -1    0    0    0    0  0.00000000000E+00  0.00000000000E+00  0.50000000000E+03  0.50000000000E+03  0.00000000000E+00 0. -1.
         11   -1    0    0    0    0 -0.00000000000E+00 -0.00000000000E+00 -0.50000000000E+03  0.50000000000E+03  0.00000000000E+00 0.  1.
        -11    1    1    2    0    0  0.13240593383E+02  0.94444440182E+01  0.49954888636E+03  0.49981356594E+03  0.00000000000E+00 0. -1.
         11    1    1    2    0    0 -0.15767992476E+02 -0.10135164120E+02 -0.29940245836E+03  0.29998863847E+03  0.00000000000E+00 0.  1.
        -15    1    1    2    0    0  0.78401721507E+00  0.63533621036E+00 -0.87859896206E+02  0.87883658466E+02  0.17770000000E+01 0. -1.
         15    1    1    2    0    0  0.17433818786E+01  0.55383891755E-01 -0.11228653179E+03  0.11231413712E+03  0.17770000000E+01 0.  1.
</event>
<event>
 6    1  0.6506903E-004  0.5012539E+03  0.7546771E-02  0.9397008E-01
        -11   -1    0    0    0    0  0.00000000000E+00  0.00000000000E+00  0.50000000000E+03  0.50000000000E+03  0.00000000000E+00 0. -1.
         11   -1    0    0    0    0 -0.00000000000E+00 -0.00000000000E+00 -0.50000000000E+03  0.50000000000E+03  0.00000000000E+00 0. -1.
        -11    1    1    2    0    0  0.10249464491E+02 -0.36760388605E+01  0.45833714263E+03  0.45846646671E+03  0.00000000000E+00 0. -1.
         11    1    1    2    0    0  0.13836216895E+01  0.91654897526E+01 -0.49865996765E+03  0.49874611171E+03  0.00000000000E+00 0. -1.
        -15    1    1    2    0    0 -0.10382704909E+02 -0.35342535846E+01  0.34914347006E+02  0.36639607878E+02  0.17770000000E+01 0.  1.
         15    1    1    2    0    0 -0.12503812715E+01 -0.19551973075E+01  0.54084780154E+01  0.61478136990E+01  0.17770000000E+01 0. -1.
</event>
<event>
 6    1  0.6506903E-004  0.5000897E+03  0.7546771E-02  0.9399609E-01
        -11   -1    0    0    0    0  0.00000000000E+00  0.00000000000E+00  0.50000000000E+03  0.50000000000E+03  0.00000000000E+00 0.  1.
         11   -1    0    0    0    0 -0.00000000000E+00 -0.00000000000E+00 -0.50000000000E+03  0.50000000000E+03  0.00000000000E+00 0.  1.
        -11    1    1    2    0    0  0.22936565952E+01 -0.42600292235E+01  0.41579973276E+02  0.41860517044E+02  0.00000000000E+00 0.  1.
         11    1    1    2    0    0 -0.83325235726E+01  0.16221426599E+02 -0.49957753217E+03  0.49991026822E+03  0.00000000000E+00 0.  1.
        -15    1    1    2    0    0  0.34872772751E+01 -0.90717360104E+01  0.36663531196E+03  0.36676841086E+03  0.17770000000E+01 0.  1.
         15    1    1    2    0    0  0.25515897024E+01 -0.28896613653E+01  0.91362246931E+02  0.91460803879E+02  0.17770000000E+01 0.  1.
</event>
<event>
 6    1  0.6506903E-004  0.5002040E+03  0.7546771E-02  0.9399353E-01
        -11   -1    0    0    0    0  0.00000000000E+00  0.00000000000E+00  0.50000000000E+03  0.50000000000E+03  0.00000000000E+00 0.  1.
         11   -1    0    0    0    0 -0.00000000000E+00 -0.00000000000E+00 -0.50000000000E+03  0.50000000000E+03  0.00000000000E+00 0. -1.
        -11    1    1    2    0    0 -0.98413431555E+01  0.19232400122E+02  0.27950318637E+03  0.28033688384E+03  0.00000000000E+00 0.  1.
         11    1    1    2    0    0  0.19017648663E+02 -0.17510922553E+02 -0.49912693602E+03  0.49979596000E+03  0.00000000000E+00 0. -1.
        -15    1    1    2    0    0 -0.23565450519E+01 -0.12987399325E+01  0.80131096632E+02  0.80195950063E+02  0.17770000000E+01 0.  1.
         15    1    1    2    0    0 -0.68197604556E+01 -0.42273763637E+00  0.13949265302E+03  0.13967120610E+03  0.17770000000E+01 0.  1.
</event>
<event>
 6    1  0.6506903E-004  0.5002287E+03  0.7546771E-02  0.9399298E-01
        -11   -1    0    0    0    0  0.00000000000E+00  0.00000000000E+00  0.50000000000E+03  0.50000000000E+03  0.00000000000E+00 0.  1.
         11   -1    0    0    0    0 -0.00000000000E+00 -0.00000000000E+00 -0.50000000000E+03  0.50000000000E+03  0.00000000000E+00 0.  1.
        -11    1    1    2    0    0 -0.89694755386E+00  0.32833076665E+01  0.20387607634E+03  0.20390448531E+03  0.00000000000E+00 0.  1.
         11    1    1    2    0    0  0.85410932512E+01  0.80327754688E+01 -0.49963373881E+03  0.49977129640E+03  0.00000000000E+00 0.  1.
        -15    1    1    2    0    0 -0.10541160889E+02 -0.89504111373E+01  0.24587878266E+03  0.24627374895E+03  0.17770000000E+01 0.  1.
         15    1    1    2    0    0  0.28970151917E+01 -0.23656719980E+01  0.49878879806E+02  0.50050469336E+02  0.17770000000E+01 0. -1.
</event>
<event>
 6    1  0.6506903E-004  0.5262919E+03  0.7546771E-02  0.9342828E-01
        -11   -1    0    0    0    0  0.00000000000E+00  0.00000000000E+00  0.50000000000E+03  0.50000000000E+03  0.00000000000E+00 0. -1.
         11   -1    0    0    0    0 -0.00000000000E+00 -0.00000000000E+00 -0.50000000000E+03  0.50000000000E+03  0.00000000000E+00 0. -1.
        -11    1    1    2    0    0 -0.43905960887E+00  0.11717805948E+02  0.40961457282E+03  0.40978237885E+03  0.00000000000E+00 0. -1.
         11    1    1    2    0    0 -0.49072148195E+02  0.64076075642E+02 -0.46678213216E+03  0.47370811487E+03  0.00000000000E+00 0. -1.
        -15    1    1    2    0    0  0.10123071080E+02 -0.54547424693E+02  0.22595079549E+02  0.59929904535E+02  0.17770000000E+01 0.  1.
         15    1    1    2    0    0  0.39388136725E+02 -0.21246456896E+02  0.34572479783E+02  0.56579601736E+02  0.17770000000E+01 0. -1.
</event>
<event>
 6    1  0.6506903E-004  0.5006166E+03  0.7546771E-02  0.9398431E-01
        -11   -1    0    0    0    0  0.00000000000E+00  0.00000000000E+00  0.50000000000E+03  0.50000000000E+03  0.00000000000E+00 0.  1.
         11   -1    0    0    0    0 -0.00000000000E+00 -0.00000000000E+00 -0.50000000000E+03  0.50000000000E+03  0.00000000000E+00 0.  1.
        -11    1    1    2    0    0 -0.63406709533E+01  0.31849458067E+01  0.49933301446E+03  0.49938342716E+03  0.00000000000E+00 0.  1.
         11    1    1    2    0    0 -0.20848659736E+01  0.54477206829E+01 -0.42566226702E+03  0.42570223148E+03  0.00000000000E+00 0.  1.
        -15    1    1    2    0    0  0.36169011882E+00 -0.22621267625E+01 -0.10701505565E+02  0.11087289461E+02  0.17770000000E+01 0. -1.
         15    1    1    2    0    0  0.80638468081E+01 -0.63705397271E+01 -0.62969241883E+02  0.63827051898E+02  0.17770000000E+01 0.  1.
</event>
<event>
 6    1  0.6506903E-004  0.5003434E+03  0.7546771E-02  0.9399042E-01
        -11   -1    0    0    0    0  0.00000000000E+00  0.00000000000E+00  0.50000000000E+03  0.50000000000E+03  0.00000000000E+00 0. -1.
         11   -1    0    0    0    0 -0.00000000000E+00 -0.00000000000E+00 -0.50000000000E+03  0.50000000000E+03  0.00000000000E+00 0. -1.
        -11    1    1    2    0    0  0.13342427072E+02 -0.12935339266E+01  0.49947678526E+03  0.49965663471E+03  0.00000000000E+00 0. -1.
         11    1    1    2    0    0  0.49809229837E+01  0.56591691190E+01 -0.17973744394E+03  0.17989548228E+03  0.00000000000E+00 0. -1.
        -15    1    1    2    0    0 -0.90051988846E+01 -0.26344148119E+01 -0.89774540689E+02  0.90281003723E+02  0.17770000000E+01 0. -1.
         15    1    1    2    0    0 -0.93181511707E+01 -0.17312203805E+01 -0.22996480063E+03  0.23016687930E+03  0.17770000000E+01 0.  1.
</event>
<event>
 6    1  0.6506903E-004  0.5025970E+03  0.7546771E-02  0.9394017E-01
        -11   -1    0    0    0    0  0.00000000000E+00  0.00000000000E+00  0.50000000000E+03  0.50000000000E+03  0.00000000000E+00 0.  1.
         11   -1    0    0    0    0 -0.00000000000E+00 -0.00000000000E+00 -0.50000000000E+03  0.50000000000E+03  0.00000000000E+00 0.  1.
        -11    1    1    2    0    0  0.32594879688E+01 -0.72014210547E+01  0.45181982096E+03  0.45188896351E+03  0.00000000000E+00 0.  1.
         11    1    1    2    0    0  0.12947246279E+02 -0.40917917706E+01 -0.49721762904E+03  0.49740300016E+03  0.00000000000E+00 0.  1.
        -15    1    1    2    0    0 -0.88573082317E+01  0.98728441164E+01  0.19196758314E+02  0.23400816627E+02  0.17770000000E+01 0.  1.
         15    1    1    2    0    0 -0.73494260159E+01  0.14203687088E+01  0.26201049760E+02  0.27307219697E+02  0.17770000000E+01 0. -1.
</event>
<event>
 6    1  0.6506903E-004  0.5005878E+03  0.7546771E-02  0.9398495E-01
        -11   -1    0    0    0    0  0.00000000000E+00  0.00000000000E+00  0.50000000000E+03  0.50000000000E+03  0.00000000000E+00 0.  1.
         11   -1    0    0    0    0 -0.00000000000E+00 -0.00000000000E+00 -0.50000000000E+03  0.50000000000E+03  0.00000000000E+00 0. -1.
        -11    1    1    2    0    0  0.41434460071E+01  0.14937937146E+02  0.10795712757E+03  0.10906443739E+03  0.00000000000E+00 0.  1.
         11    1    1    2    0    0 -0.36316207169E+01 -0.68666688829E+01 -0.49935181202E+03  0.49941222650E+03  0.00000000000E+00 0. -1.
        -15    1    1    2    0    0 -0.20256958020E+00 -0.74989480901E+01  0.35064437435E+03  0.35072911235E+03  0.17770000000E+01 0.  1.
         15    1    1    2    0    0 -0.30925571003E+00 -0.57232017344E+00  0.40750310099E+02  0.40794223753E+02  0.17770000000E+01 0.  1.
</event>
<event>
 6    1  0.6506903E-004  0.5039284E+03  0.7546771E-02  0.9391062E-01
        -11   -1    0    0    0    0  0.00000000000E+00  0.00000000000E+00  0.50000000000E+03  0.50000000000E+03  0.00000000000E+00 0.  1.
         11   -1    0    0    0    0 -0.00000000000E+00 -0.00000000000E+00 -0.50000000000E+03  0.50000000000E+03  0.00000000000E+00 0.  1.
        -11    1    1    2    0    0 -0.10943171165E+02  0.40169187208E+01  0.46918401829E+03  0.46932880974E+03  0.00000000000E+00 0.  1.
         11    1    1    2    0    0  0.23488356625E+02 -0.54368989900E+01 -0.49548534908E+03  0.49607156129E+03  0.00000000000E+00 0.  1.
        -15    1    1    2    0    0 -0.14569460265E+02  0.64198987784E+01  0.23003767593E+02  0.28032397779E+02  0.17770000000E+01 0. -1.
         15    1    1    2    0    0  0.20242748052E+01 -0.49999185092E+01  0.32975631947E+01  0.65672311981E+01  0.17770000000E+01 0.  1.
</event>
<event>
 6    1  0.6506903E-004  0.5001519E+03  0.7546771E-02  0.9399470E-01
        -11   -1    0    0    0    0  0.00000000000E+00  0.00000000000E+00  0.50000000000E+03  0.50000000000E+03  0.00000000000E+00 0. -1.
         11   -1    0    0    0    0 -0.00000000000E+00 -0.00000000000E+00 -0.50000000000E+03  0.50000000000E+03  0.00000000000E+00 0. -1.
        -11    1    1    2    0    0  0.10203764164E+02 -0.80982553910E+01  0.27172690254E+03  0.27203898270E+03  0.00000000000E+00 0. -1.
         11    1    1    2    0    0 -0.87111052471E+01  0.23238519641E+02 -0.49923160414E+03  0.49984808365E+03  0.00000000000E+00 0. -1.
        -15    1    1    2    0    0 -0.13196946072E+01 -0.44419862482E+01  0.10899567751E+03  0.10910860773E+03  0.17770000000E+01 0. -1.
         15    1    1    2    0    0 -0.17296430956E+00 -0.10698278002E+02  0.11850902409E+03  0.11900432593E+03  0.17770000000E+01 0.  1.
</event>
<event>
 6    1  0.6506903E-004  0.5006626E+03  0.7546771E-02  0.9398328E-01
        -11   -1    0    0    0    0  0.00000000000E+00  0.00000000000E+00  0.50000000000E+03  0.50000000000E+03  0.00000000000E+00 0.  1.
         11   -1    0    0    0    0 -0.00000000000E+00 -0.00000000000E+00 -0.50000000000E+03  0.50000000000E+03  0.00000000000E+00 0. -1.
        -11    1    1    2    0    0 -0.58618277758E+00 -0.75166052056E+01  0.49928046391E+03  0.49933738555E+03  0.00000000000E+00 0.  1.
         11    1    1    2    0    0  0.18401356872E+01  0.95121745378E+01 -0.47882878637E+03  0.47892679422E+03  0.00000000000E+00 0. -1.
        -15    1    1    2    0    0 -0.72073840474E+00  0.18512238589E+01 -0.45754260988E+01  0.52951625668E+01  0.17770000000E+01 0.  1.
         15    1    1    2    0    0 -0.53321450492E+00 -0.38467931912E+01 -0.15876251441E+02  0.16440657662E+02  0.17770000000E+01 0. -1.
</event>
<event>
 6    1  0.6506903E-004  0.5020826E+03  0.7546771E-02  0.9395162E-01
        -11   -1    0    0    0    0  0.00000000000E+00  0.00000000000E+00  0.50000000000E+03  0.50000000000E+03  0.00000000000E+00 0.  1.
         11   -1    0    0    0    0 -0.00000000000E+00 -0.00000000000E+00 -0.50000000000E+03  0.50000000000E+03  0.00000000000E+00 0.  1.
        -11    1    1    2    0    0  0.45247175707E+01 -0.29084874554E+01  0.36379943960E+03  0.36383920160E+03  0.00000000000E+00 0.  1.
         11    1    1    2    0    0  0.53662051535E+01  0.18415337299E+02 -0.49754776994E+03  0.49791736682E+03  0.00000000000E+00 0.  1.
        -15    1    1    2    0    0  0.23839862428E+01  0.34045636887E+01  0.77316152904E+02  0.77448174112E+02  0.17770000000E+01 0. -1.
         15    1    1    2    0    0 -0.12274908967E+02 -0.18911413533E+02  0.56432177435E+02  0.60795257471E+02  0.17770000000E+01 0.  1.
</event>
<event>
 6    1  0.6506903E-004  0.5012150E+03  0.7546771E-02  0.9397095E-01
        -11   -1    0    0    0    0  0.00000000000E+00  0.00000000000E+00  0.50000000000E+03  0.50000000000E+03  0.00000000000E+00 0.  1.
         11   -1    0    0    0    0 -0.00000000000E+00 -0.00000000000E+00 -0.50000000000E+03  0.50000000000E+03  0.00000000000E+00 0. -1.
        -11    1    1    2    0    0 -0.56880737558E+00 -0.12424398005E+02  0.49862992957E+03  0.49878501969E+03  0.00000000000E+00 0.  1.
         11    1    1    2    0    0  0.13281236078E+02  0.19688483809E+02 -0.37942627076E+03  0.38016880799E+03  0.00000000000E+00 0. -1.
        -15    1    1    2    0    0 -0.38991040539E+01 -0.10613012182E+02 -0.64961468759E+02  0.65962028413E+02  0.17770000000E+01 0. -1.
         15    1    1    2    0    0 -0.88133246490E+01  0.33489263782E+01 -0.54242190049E+02  0.55084143903E+02  0.17770000000E+01 0.  1.
</event>
<event>
 6    1  0.6506903E-004  0.5053203E+03  0.7546771E-02  0.9387983E-01
        -11   -1    0    0    0    0  0.00000000000E+00  0.00000000000E+00  0.50000000000E+03  0.50000000000E+03  0.00000000000E+00 0.  1.
         11   -1    0    0    0    0 -0.00000000000E+00 -0.00000000000E+00 -0.50000000000E+03  0.50000000000E+03  0.00000000000E+00 0. -1.
        -11    1    1    2    0    0  0.32634392177E+02 -0.51683160369E+01  0.49357497273E+03  0.49467966276E+03  0.00000000000E+00 0.  1.
         11    1    1    2    0    0 -0.39512565639E+02  0.72741689401E+01 -0.63447480920E+02  0.75098197131E+02  0.00000000000E+00 0. -1.
        -15    1    1    2    0    0  0.52175663531E+01 -0.31689338294E+01 -0.29324662422E+03  0.29331553911E+03  0.17770000000E+01 0. -1.
         15    1    1    2    0    0  0.16606071088E+01  0.10630809262E+01 -0.13688086759E+03  0.13690660100E+03  0.17770000000E+01 0.  1.
</event>
<event>
 6    1  0.6506903E-004  0.5040723E+03  0.7546771E-02  0.9390743E-01
        -11   -1    0    0    0    0  0.00000000000E+00  0.00000000000E+00  0.50000000000E+03  0.50000000000E+03  0.00000000000E+00 0. -1.
         11   -1    0    0    0    0 -0.00000000000E+00 -0.00000000000E+00 -0.50000000000E+03  0.50000000000E+03  0.00000000000E+00 0.  1.
        -11    1    1    2    0    0 -0.18355517005E+02  0.57028110269E+01  0.49555507009E+03  0.49592769085E+03  0.00000000000E+00 0. -1.
         11    1    1    2    0    0 -0.27134339882E+02 -0.10471670157E+02 -0.34209044040E+03  0.34332462435E+03  0.00000000000E+00 0.  1.
        -15    1    1    2    0    0  0.16510640710E+02 -0.43072963035E+01 -0.63656455145E+02  0.65927657844E+02  0.17770000000E+01 0. -1.
         15    1    1    2    0    0  0.28979216177E+02  0.90761554337E+01 -0.89808174545E+02  0.94820026955E+02  0.17770000000E+01 0.  1.
</event>
<event>
 6    1  0.6506903E-004  0.5025483E+03  0.7546771E-02  0.9394126E-01
        -11   -1    0    0    0    0  0.00000000000E+00  0.00000000000E+00  0.50000000000E+03  0.50000000000E+03  0.00000000000E+00 0.  1.
         11   -1    0    0    0    0 -0.00000000000E+00 -0.00000000000E+00 -0.50000000000E+03  0.50000000000E+03  0.00000000000E+00 0. -1.
        -11    1    1    2    0    0  0.82412455222E+01  0.23760742229E+01  0.49737774644E+03  0.49745169264E+03  0.00000000000E+00 0.  1.
         11    1    1    2    0    0  0.72372677930E+01 -0.44604403421E+01 -0.39589956758E+03  0.39599083472E+03  0.00000000000E+00 0. -1.
        -15    1    1    2    0    0  0.14194563027E+01 -0.54451951250E+01 -0.35611692641E+01  0.68923625609E+01  0.17770000000E+01 0.  1.
         15    1    1    2    0    0 -0.16897969618E+02  0.75295612441E+01 -0.97917009593E+02  0.99665110076E+02  0.17770000000E+01 0. -1.
</event>
<event>
 6    1  0.6506903E-004  0.4749986E+03  0.7546771E-02  0.9457558E-01
        -11   -1    0    0    0    0  0.00000000000E+00  0.00000000000E+00  0.50000000000E+03  0.50000000000E+03  0.00000000000E+00 0. -1.
         11   -1    0    0    0    0 -0.00000000000E+00 -0.00000000000E+00 -0.50000000000E+03  0.50000000000E+03  0.00000000000E+00 0. -1.
        -11    1    1    2    0    0  0.97418595350E+01 -0.12876696877E+01  0.46530250818E+03  0.46540625913E+03  0.00000000000E+00 0. -1.
         11    1    1    2    0    0  0.12549826520E+02 -0.32235407561E+02 -0.48440173326E+03  0.48563531465E+03  0.00000000000E+00 0. -1.
        -15    1    1    2    0    0 -0.21591447433E+02  0.32826074646E+02  0.11333588413E+02  0.40931036320E+02  0.17770000000E+01 0.  1.
         15    1    1    2    0    0 -0.70023862213E+00  0.69700260312E+00  0.77656366655E+01  0.80273898982E+01  0.17770000000E+01 0. -1.
</event>
<event>
 6    1  0.6506903E-004  0.5009830E+03  0.7546771E-02  0.9397613E-01
        -11   -1    0    0    0    0  0.00000000000E+00  0.00000000000E+00  0.50000000000E+03  0.50000000000E+03  0.00000000000E+00 0.  1.
         11   -1    0    0    0    0 -0.00000000000E+00 -0.00000000000E+00 -0.50000000000E+03  0.50000000000E+03  0.00000000000E+00 0.  1.
        -11    1    1    2    0    0  0.42006668955E+01  0.11980363121E+02  0.49294382744E+03  0.49310728215E+03  0.00000000000E+00 0.  1.
         11    1    1    2    0    0  0.16028247986E+01 -0.52953445613E+01  0.56050844108E+01  0.78757026741E+01  0.00000000000E+00 0.  1.
        -15    1    1    2    0    0 -0.10340630622E+01  0.68098361569E+01 -0.14593978636E+03  0.14611304571E+03  0.17770000000E+01 0.  1.
         15    1    1    2    0    0 -0.47694286318E+01 -0.13494854716E+02 -0.35260912549E+03  0.35290396946E+03  0.17770000000E+01 0. -1.
</event>
<event>
 6    1  0.6506903E-004  0.5000813E+03  0.7546771E-02  0.9399628E-01
        -11   -1    0    0    0    0  0.00000000000E+00  0.00000000000E+00  0.50000000000E+03  0.50000000000E+03  0.00000000000E+00 0. -1.
         11   -1    0    0    0    0 -0.00000000000E+00 -0.00000000000E+00 -0.50000000000E+03  0.50000000000E+03  0.00000000000E+00 0.  1.
        -11    1    1    2    0    0 -0.23664011550E+01 -0.17478579542E+02  0.49960749950E+03  0.49991874755E+03  0.00000000000E+00 0. -1.
         11    1    1    2    0    0 -0.10972830798E+01  0.11774702331E+02 -0.22152273440E+03  0.22183816061E+03  0.00000000000E+00 0.  1.
        -15    1    1    2    0    0  0.32773715893E+01  0.50088612788E+01 -0.25574561976E+03  0.25582183177E+03  0.17770000000E+01 0.  1.
         15    1    1    2    0    0  0.18631264546E+00  0.69501593251E+00 -0.22339145346E+02  0.22421260074E+02  0.17770000000E+01 0.  1.
</event>
<event>
 6    1  0.6506903E-004  0.5009115E+03  0.7546771E-02  0.9397772E-01
        -11   -1    0    0    0    0  0.00000000000E+00  0.00000000000E+00  0.50000000000E+03  0.50000000000E+03  0.00000000000E+00 0. -1.
         11   -1    0    0    0    0 -0.00000000000E+00 -0.00000000000E+00 -0.50000000000E+03  0.50000000000E+03  0.00000000000E+00 0.  1.
        -11    1    1    2    0    0 -0.96978997532E+02  0.14412238143E+02  0.40696801239E+03  0.41861151642E+03  0.00000000000E+00 0. -1.
         11    1    1    2    0    0  0.11058200286E+03 -0.10130557427E+01 -0.48668252843E+03  0.49908845821E+03  0.00000000000E+00 0.  1.
        -15    1    1    2    0    0 -0.52607267611E+01 -0.84747977165E+01  0.49308763758E+02  0.50338944712E+02  0.17770000000E+01 0.  1.
         15    1    1    2    0    0 -0.83422785719E+01 -0.49243846835E+01  0.30405752280E+02  0.31961080661E+02  0.17770000000E+01 0.  1.
</event>
<event>
 6    1  0.6506903E-004  0.5003103E+03  0.7546771E-02  0.9399116E-01
        -11   -1    0    0    0    0  0.00000000000E+00  0.00000000000E+00  0.50000000000E+03  0.50000000000E+03  0.00000000000E+00 0.  1.
         11   -1    0    0    0    0 -0.00000000000E+00 -0.00000000000E+00 -0.50000000000E+03  0.50000000000E+03  0.00000000000E+00 0.  1.
        -11    1    1    2    0    0  0.87994080038E+01 -0.35378015944E+02  0.39998289256E+03  0.40164081955E+03  0.00000000000E+00 0.  1.
         11    1    1    2    0    0 -0.17523195479E+02  0.35434084512E+02 -0.49812368690E+03  0.49968974792E+03  0.00000000000E+00 0.  1.
        -15    1    1    2    0    0  0.22242949152E+01 -0.16658499317E+00  0.47015505141E+02  0.47101918126E+02  0.17770000000E+01 0.  1.
         15    1    1    2    0    0  0.64994925599E+01  0.11051642508E+00  0.51125289197E+02  0.51567514405E+02  0.17770000000E+01 0.  1.
</event>
<event>
 6    1  0.6506903E-004  0.5031723E+03  0.7546771E-02  0.9392739E-01
        -11   -1    0    0    0    0  0.00000000000E+00  0.00000000000E+00  0.50000000000E+03  0.50000000000E+03  0.00000000000E+00 0. -1.
         11   -1    0    0    0    0 -0.00000000000E+00 -0.00000000000E+00 -0.50000000000E+03  0.50000000000E+03  0.00000000000E+00 0. -1.
        -11    1    1    2    0    0  0.11859413440E+01  0.73991864579E+01  0.49677114242E+03  0.49682765861E+03  0.00000000000E+00 0. -1.
         11    1    1    2    0    0  0.77426432249E+01 -0.86233815102E+01 -0.48739257310E+03  0.48753033910E+03  0.00000000000E+00 0. -1.
        -15    1    1    2    0    0 -0.82497981942E+01  0.24189967043E+01 -0.10004500059E+02  0.13310088870E+02  0.17770000000E+01 0. -1.
         15    1    1    2    0    0 -0.67878637478E+00 -0.11948016520E+01  0.62593073479E+00  0.23319134236E+01  0.17770000000E+01 0.  1.
</event>
<event>
 6    1  0.6506903E-004  0.5028596E+03  0.7546771E-02  0.9393434E-01
        -11   -1    0    0    0    0  0.00000000000E+00  0.00000000000E+00  0.50000000000E+03  0.50000000000E+03  0.00000000000E+00 0. -1.
         11   -1    0    0    0    0 -0.00000000000E+00 -0.00000000000E+00 -0.50000000000E+03  0.50000000000E+03  0.00000000000E+00 0. -1.
        -11    1    1    2    0    0  0.10486610557E+02  0.15908417899E+02  0.37703749644E+02  0.42244757050E+02  0.00000000000E+00 0. -1.
         11    1    1    2    0    0 -0.49332155181E+02  0.35420097928E+02 -0.49341697082E+03  0.49714037451E+03  0.00000000000E+00 0. -1.
        -15    1    1    2    0    0  0.11253191879E+02 -0.22352808500E+02  0.23119957155E+03  0.23255683604E+03  0.17770000000E+01 0.  1.
         15    1    1    2    0    0  0.27592352745E+02 -0.28975707327E+02  0.22451364963E+03  0.22805803240E+03  0.17770000000E+01 0. -1.
</event>
<event>
 6    1  0.6506903E-004  0.5054704E+03  0.7546771E-02  0.9387652E-01
        -11   -1    0    0    0    0  0.00000000000E+00  0.00000000000E+00  0.50000000000E+03  0.50000000000E+03  0.00000000000E+00 0. -1.
         11   -1    0    0    0    0 -0.00000000000E+00 -0.00000000000E+00 -0.50000000000E+03  0.50000000000E+03  0.00000000000E+00 0. -1.
        -11    1    1    2    0    0  0.26829871206E+01 -0.80321214059E+01  0.49445705335E+03  0.49452956535E+03  0.00000000000E+00 0. -1.
         11    1    1    2    0    0  0.13737025584E+02 -0.11238713201E+02 -0.46189323340E+03  0.46223411125E+03  0.00000000000E+00 0. -1.
        -15    1    1    2    0    0 -0.15998083517E+02  0.19793788678E+02 -0.32523569483E+02  0.41336098599E+02  0.17770000000E+01 0. -1.
         15    1    1    2    0    0 -0.42192918709E+00 -0.52295407098E+00 -0.40250470866E-01  0.19002248024E+01  0.17770000000E+01 0.  1.
</event>
<event>
 6    1  0.6506903E-004  0.5004848E+03  0.7546771E-02  0.9398726E-01
        -11   -1    0    0    0    0  0.00000000000E+00  0.00000000000E+00  0.50000000000E+03  0.50000000000E+03  0.00000000000E+00 0.  1.
         11   -1    0    0    0    0 -0.00000000000E+00 -0.00000000000E+00 -0.50000000000E+03  0.50000000000E+03  0.00000000000E+00 0. -1.
        -11    1    1    2    0    0 -0.34242914871E+01 -0.37698454764E+01  0.36034175351E+03  0.36037774187E+03  0.00000000000E+00 0.  1.
         11    1    1    2    0    0 -0.13186265203E+02  0.67127397775E+01 -0.49929597621E+03  0.49951517527E+03  0.00000000000E+00 0. -1.
        -15    1    1    2    0    0  0.14004837354E+02 -0.12612390587E+01  0.10192019426E+03  0.10290097143E+03  0.17770000000E+01 0. -1.
         15    1    1    2    0    0  0.26057193368E+01 -0.16816552424E+01  0.37034028434E+02  0.37206111443E+02  0.17770000000E+01 0. -1.
</event>
<event>
 6    1  0.6506903E-004  0.5005516E+03  0.7546771E-02  0.9398576E-01
        -11   -1    0    0    0    0  0.00000000000E+00  0.00000000000E+00  0.50000000000E+03  0.50000000000E+03  0.00000000000E+00 0. -1.
         11   -1    0    0    0    0 -0.00000000000E+00 -0.00000000000E+00 -0.50000000000E+03  0.50000000000E+03  0.00000000000E+00 0. -1.
        -11    1    1    2    0    0 -0.11141073269E+02 -0.44225117977E+01  0.49930456027E+03  0.49944842179E+03  0.00000000000E+00 0. -1.
         11    1    1    2    0    0  0.29983554501E+01 -0.30888070183E+01 -0.96461680352E+01  0.10563116111E+02  0.00000000000E+00 0. -1.
        -15    1    1    2    0    0  0.69703033658E+01  0.96142740963E+01 -0.46412803252E+03  0.46428332696E+03  0.17770000000E+01 0. -1.
         15    1    1    2    0    0  0.11724144529E+01 -0.21029552804E+01 -0.25530359708E+02  0.25705135136E+02  0.17770000000E+01 0.  1.
</event>
<event>
 6    1  0.6506903E-004  0.4760228E+03  0.7546771E-02  0.9455119E-01
        -11   -1    0    0    0    0  0.00000000000E+00  0.00000000000E+00  0.50000000000E+03  0.50000000000E+03  0.00000000000E+00 0. -1.
         11   -1    0    0    0    0 -0.00000000000E+00 -0.00000000000E+00 -0.50000000000E+03  0.50000000000E+03  0.00000000000E+00 0. -1.
        -11    1    1    2    0    0 -0.61896202497E+01  0.17393066790E+02  0.47053146993E+03  0.47089350639E+03  0.00000000000E+00 0. -1.
         11    1    1    2    0    0  0.29385729400E+02  0.20061347945E+02 -0.48091304606E+03  0.48222747396E+03  0.00000000000E+00 0. -1.
        -15    1    1    2    0    0 -0.13262470499E+02 -0.25507824279E+02  0.13855149320E+01  0.28837815517E+02  0.17770000000E+01 0.  1.
         15    1    1    2    0    0 -0.99336386510E+01 -0.11946590457E+02  0.89960611967E+01  0.18041204130E+02  0.17770000000E+01 0. -1.
</event>
<event>
 6    1  0.6506903E-004  0.5019169E+03  0.7546771E-02  0.9395531E-01
        -11   -1    0    0    0    0  0.00000000000E+00  0.00000000000E+00  0.50000000000E+03  0.50000000000E+03  0.00000000000E+00 0.  1.
         11   -1    0    0    0    0 -0.00000000000E+00 -0.00000000000E+00 -0.50000000000E+03  0.50000000000E+03  0.00000000000E+00 0.  1.
        -11    1    1    2    0    0 -0.11201895729E+01  0.86926896875E+01  0.37045933780E+03  0.37056300226E+03  0.00000000000E+00 0.  1.
         11    1    1    2    0    0  0.19307428630E+02  0.14116030192E+02 -0.49750851121E+03  0.49808308326E+03  0.00000000000E+00 0.  1.
        -15    1    1    2    0    0 -0.19052062637E+01 -0.88778418252E+01  0.65647088315E+02  0.66295880864E+02  0.17770000000E+01 0. -1.
         15    1    1    2    0    0 -0.16282032794E+02 -0.13930878055E+02  0.61402085093E+02  0.65058033616E+02  0.17770000000E+01 0.  1.
</event>
<event>
 6    1  0.6506903E-004  0.5009610E+03  0.7546771E-02  0.9397662E-01
        -11   -1    0    0    0    0  0.00000000000E+00  0.00000000000E+00  0.50000000000E+03  0.50000000000E+03  0.00000000000E+00 0.  1.
         11   -1    0    0    0    0 -0.00000000000E+00 -0.00000000000E+00 -0.50000000000E+03  0.50000000000E+03  0.00000000000E+00 0.  1.
        -11    1    1    2    0    0  0.20551427850E+01 -0.11379347919E+02  0.49890500299E+03  0.49903899164E+03  0.00000000000E+00 0.  1.
         11    1    1    2    0    0 -0.67634709362E+01 -0.21071691219E+01 -0.39423137718E+03  0.39429502083E+03  0.00000000000E+00 0.  1.
        -15    1    1    2    0    0  0.86508437155E+01  0.68531691897E+01 -0.40809735367E+02  0.42313062459E+02  0.17770000000E+01 0. -1.
         15    1    1    2    0    0 -0.39425155643E+01  0.66333478513E+01 -0.63863890448E+02  0.64352925069E+02  0.17770000000E+01 0.  1.
</event>
<event>
 6    1  0.6506903E-004  0.5013172E+03  0.7546771E-02  0.9396867E-01
        -11   -1    0    0    0    0  0.00000000000E+00  0.00000000000E+00  0.50000000000E+03  0.50000000000E+03  0.00000000000E+00 0. -1.
         11   -1    0    0    0    0 -0.00000000000E+00 -0.00000000000E+00 -0.50000000000E+03  0.50000000000E+03  0.00000000000E+00 0.  1.
        -11    1    1    2    0    0  0.95607377304E+01 -0.20622086422E+01  0.49858687677E+03  0.49868279908E+03  0.00000000000E+00 0. -1.
         11    1    1    2    0    0 -0.27069195109E+01  0.11517373743E+02 -0.46263365048E+03  0.46278490886E+03  0.00000000000E+00 0.  1.
        -15    1    1    2    0    0 -0.48933685454E+01 -0.92939073456E+01 -0.23525049641E+02  0.25824551479E+02  0.17770000000E+01 0. -1.
         15    1    1    2    0    0 -0.19604496740E+01 -0.16125775474E+00 -0.12428176650E+02  0.12707740588E+02  0.17770000000E+01 0.  1.
</event>
<event>
 6    1  0.6506903E-004  0.4182184E+03  0.7546771E-02  0.9604052E-01
        -11   -1    0    0    0    0  0.00000000000E+00  0.00000000000E+00  0.50000000000E+03  0.50000000000E+03  0.00000000000E+00 0.  1.
         11   -1    0    0    0    0 -0.00000000000E+00 -0.00000000000E+00 -0.50000000000E+03  0.50000000000E+03  0.00000000000E+00 0.  1.
        -11    1    1    2    0    0 -0.61394672104E+01  0.60229121135E+01  0.45967799080E+03  0.45975844066E+03  0.00000000000E+00 0.  1.
         11    1    1    2    0    0 -0.10481911304E+03  0.18928108549E+02 -0.37384929547E+03  0.38872691633E+03  0.00000000000E+00 0.  1.
        -15    1    1    2    0    0  0.65352040807E+01  0.42856111283E+00  0.68161620374E+01  0.96182301347E+01  0.17770000000E+01 0. -1.
         15    1    1    2    0    0  0.10442337617E+03 -0.25379581775E+02 -0.92644857370E+02  0.14189641288E+03  0.17770000000E+01 0.  1.
</event>
<event>
 6    1  0.6506903E-004  0.5035746E+03  0.7546771E-02  0.9391847E-01
        -11   -1    0    0    0    0  0.00000000000E+00  0.00000000000E+00  0.50000000000E+03  0.50000000000E+03  0.00000000000E+00 0. -1.
         11   -1    0    0    0    0 -0.00000000000E+00 -0.00000000000E+00 -0.50000000000E+03  0.50000000000E+03  0.00000000000E+00 0.  1.
        -11    1    1    2    0    0 -0.11806773789E+02  0.75972275309E+01  0.40535267931E+03  0.40559574997E+03  0.00000000000E+00 0. -1.
         11    1    1    2    0    0 -0.18003819664E+02 -0.28928309245E+01 -0.49609036668E+03  0.49642537999E+03  0.00000000000E+00 0.  1.
        -15    1    1    2    0    0  0.61063435964E+01 -0.41809666017E+00  0.31262927066E+01  0.70988500493E+01  0.17770000000E+01 0.  1.
         15    1    1    2    0    0  0.23704249856E+02 -0.42862999462E+01  0.87611394665E+02  0.90880019986E+02  0.17770000000E+01 0. -1.
</event>
<event>
 6    1  0.6506903E-004  0.5134198E+03  0.7546771E-02  0.9370273E-01
        -11   -1    0    0    0    0  0.00000000000E+00  0.00000000000E+00  0.50000000000E+03  0.50000000000E+03  0.00000000000E+00 0.  1.
         11   -1    0    0    0    0 -0.00000000000E+00 -0.00000000000E+00 -0.50000000000E+03  0.50000000000E+03  0.00000000000E+00 0. -1.
        -11    1    1    2    0    0  0.17907671211E+02  0.80188397418E+01  0.48618442271E+03  0.48658018801E+03  0.00000000000E+00 0.  1.
         11    1    1    2    0    0  0.37971833366E+02  0.34849081749E+00 -0.43429349877E+03  0.43595048417E+03  0.00000000000E+00 0. -1.
        -15    1    1    2    0    0 -0.45505482294E+02 -0.10599109059E+02 -0.42615654395E+02  0.63264063734E+02  0.17770000000E+01 0. -1.
         15    1    1    2    0    0 -0.10374022284E+02  0.22317784993E+01 -0.92752695446E+01  0.14205264085E+02  0.17770000000E+01 0.  1.
</event>
<event>
 6    1  0.6506903E-004  0.5027711E+03  0.7546771E-02  0.9393630E-01
        -11   -1    0    0    0    0  0.00000000000E+00  0.00000000000E+00  0.50000000000E+03  0.50000000000E+03  0.00000000000E+00 0.  1.
         11   -1    0    0    0    0 -0.00000000000E+00 -0.00000000000E+00 -0.50000000000E+03  0.50000000000E+03  0.00000000000E+00 0. -1.
        -11    1    1    2    0    0  0.36351605242E+01 -0.70380528445E+01  0.49716576689E+03  0.49722886918E+03  0.00000000000E+00 0.  1.
         11    1    1    2    0    0  0.68100280667E+01  0.65666064221E+00 -0.48272446863E+03  0.48277294901E+03  0.00000000000E+00 0. -1.
        -15    1    1    2    0    0 -0.14566778606E+01  0.68553128796E+00 -0.54496182689E+01  0.59538165753E+01  0.17770000000E+01 0. -1.
         15    1    1    2    0    0 -0.89885107303E+01  0.56958609143E+01 -0.89916799908E+01  0.14044365232E+02  0.17770000000E+01 0.  1.
</event>
<event>
 6    1  0.6506903E-004  0.5000546E+03  0.7546771E-02  0.9399688E-01
        -11   -1    0    0    0    0  0.00000000000E+00  0.00000000000E+00  0.50000000000E+03  0.50000000000E+03  0.00000000000E+00 0. -1.
         11   -1    0    0    0    0 -0.00000000000E+00 -0.00000000000E+00 -0.50000000000E+03  0.50000000000E+03  0.00000000000E+00 0.  1.
        -11    1    1    2    0    0  0.34865660807E+01 -0.69090374969E+00  0.12018991810E+03  0.12024246298E+03  0.00000000000E+00 0. -1.
         11    1    1    2    0    0 -0.83861550683E+01  0.14043816932E+02 -0.49967773145E+03  0.49994538871E+03  0.00000000000E+00 0.  1.
        -15    1    1    2    0    0  0.28634880617E+01 -0.83931306621E+01  0.16305748252E+03  0.16330812760E+03  0.17770000000E+01 0. -1.
         15    1    1    2    0    0  0.20361009260E+01 -0.49597825200E+01  0.21643033083E+03  0.21650402070E+03  0.17770000000E+01 0.  1.
</event>
<event>
 6    1  0.6506903E-004  0.5001866E+03  0.7546771E-02  0.9399392E-01
        -11   -1    0    0    0    0  0.00000000000E+00  0.00000000000E+00  0.50000000000E+03  0.50000000000E+03  0.00000000000E+00 0.  1.
         11   -1    0    0    0    0 -0.00000000000E+00 -0.00000000000E+00 -0.50000000000E+03  0.50000000000E+03  0.00000000000E+00 0. -1.
        -11    1    1    2    0    0  0.19079270241E+01 -0.40262330690E+01  0.26251985568E+03  0.26255766103E+03  0.00000000000E+00 0.  1.
         11    1    1    2    0    0 -0.79495028760E+01 -0.72990734160E+01 -0.49969684419E+03  0.49981337233E+03  0.00000000000E+00 0. -1.
        -15    1    1    2    0    0  0.65098577388E+01  0.87354692521E+01  0.15608701747E+03  0.15647683989E+03  0.17770000000E+01 0.  1.
         15    1    1    2    0    0 -0.46828188686E+00  0.25898372329E+01  0.81089971035E+02  0.81152126752E+02  0.17770000000E+01 0. -1.
</event>
<event>
 6    1  0.6506903E-004  0.5033652E+03  0.7546771E-02  0.9392311E-01
        -11   -1    0    0    0    0  0.00000000000E+00  0.00000000000E+00  0.50000000000E+03  0.50000000000E+03  0.00000000000E+00 0. -1.
         11   -1    0    0    0    0 -0.00000000000E+00 -0.00000000000E+00 -0.50000000000E+03  0.50000000000E+03  0.00000000000E+00 0.  1.
        -11    1    1    2    0    0  0.69092546022E-01  0.74110154595E+01  0.49657952729E+03  0.49663483048E+03  0.00000000000E+00 0. -1.
         11    1    1    2    0    0 -0.17395651681E+01  0.12923275780E+02 -0.45870054724E+03  0.45888585638E+03  0.00000000000E+00 0.  1.
        -15    1    1    2    0    0 -0.17716835274E+01 -0.18183060536E+02 -0.33771183000E+02  0.38437131568E+02  0.17770000000E+01 0.  1.
         15    1    1    2    0    0  0.34421561495E+01 -0.21512307033E+01 -0.41077970529E+01  0.60421815700E+01  0.17770000000E+01 0. -1.
</event>
<event>
 6    1  0.6506903E-004  0.5012405E+03  0.7546771E-02  0.9397038E-01
        -11   -1    0    0    0    0  0.00000000000E+00  0.00000000000E+00  0.50000000000E+03  0.50000000000E+03  0.00000000000E+00 0. -1.
         11   -1    0    0    0    0 -0.00000000000E+00 -0.00000000000E+00 -0.50000000000E+03  0.50000000000E+03  0.00000000000E+00 0.  1.
        -11    1    1    2    0    0  0.17446535788E+02 -0.67180879715E+01  0.49840902265E+03  0.49875952941E+03  0.00000000000E+00 0. -1.
         11    1    1    2    0    0 -0.57044907105E+01  0.15569826385E+02 -0.53459908808E+02  0.55972516092E+02  0.00000000000E+00 0.  1.
        -15    1    1    2    0    0 -0.92321380963E+01 -0.24347436348E+01 -0.24602922570E+03  0.24622083173E+03  0.17770000000E+01 0. -1.
         15    1    1    2    0    0 -0.25099069812E+01 -0.64169947784E+01 -0.19891988814E+03  0.19904712277E+03  0.17770000000E+01 0.  1.
</event>
<event>
 6    1  0.6506903E-004  0.5006010E+03  0.7546771E-02  0.9398466E-01
        -11   -1    0    0    0    0  0.00000000000E+00  0.00000000000E+00  0.50000000000E+03  0.50000000000E+03  0.00000000000E+00 0.  1.
         11   -1    0    0    0    0 -0.00000000000E+00 -0.00000000000E+00 -0.50000000000E+03  0.50000000000E+03  0.00000000000E+00 0.  1.
        -11    1    1    2    0    0 -0.36678835422E+01  0.84577664595E+01  0.49931386090E+03  0.49939895762E+03  0.00000000000E+00 0.  1.
         11    1    1    2    0    0  0.71440020658E+01  0.65313589802E+01 -0.31698060322E+03  0.31712836240E+03  0.00000000000E+00 0.  1.
        -15    1    1    2    0    0 -0.45994174943E+01 -0.56598630387E+01 -0.33418546935E+02  0.34251214564E+02  0.17770000000E+01 0. -1.
         15    1    1    2    0    0  0.11232989707E+01 -0.93292624010E+01 -0.14891471074E+03  0.14922146542E+03  0.17770000000E+01 0.  1.
</event>
<event>
 6    1  0.6506903E-004  0.5030722E+03  0.7546771E-02  0.9392962E-01
        -11   -1    0    0    0    0  0.00000000000E+00  0.00000000000E+00  0.50000000000E+03  0.50000000000E+03  0.00000000000E+00 0.  1.
         11   -1    0    0    0    0 -0.00000000000E+00 -0.00000000000E+00 -0.50000000000E+03  0.50000000000E+03  0.00000000000E+00 0.  1.
        -11    1    1    2    0    0 -0.97362550098E+01  0.12603320772E+01  0.49683083378E+03  0.49692782222E+03  0.00000000000E+00 0.  1.
         11    1    1    2    0    0 -0.10294049670E+02 -0.50275378418E+01 -0.45643528743E+03  0.45657903500E+03  0.00000000000E+00 0.  1.
        -15    1    1    2    0    0  0.13059000403E+02  0.49828015655E+01 -0.33949989967E+02  0.36757657035E+02  0.17770000000E+01 0.  1.
         15    1    1    2    0    0  0.69713042762E+01 -0.12155958009E+01 -0.64455563919E+01  0.97354857436E+01  0.17770000000E+01 0. -1.
</event>
<event>
 6    1  0.6506903E-004  0.5060589E+03  0.7546771E-02  0.9386354E-01
        -11   -1    0    0    0    0  0.00000000000E+00  0.00000000000E+00  0.50000000000E+03  0.50000000000E+03  0.00000000000E+00 0. -1.
         11   -1    0    0    0    0 -0.00000000000E+00 -0.00000000000E+00 -0.50000000000E+03  0.50000000000E+03  0.00000000000E+00 0. -1.
        -11    1    1    2    0    0  0.10049256146E+02 -0.14303522366E+02  0.46706188701E+03  0.46738890081E+03  0.00000000000E+00 0. -1.
         11    1    1    2    0    0 -0.84680435790E+01  0.33450246223E+01 -0.49385721097E+03  0.49394113190E+03  0.00000000000E+00 0. -1.
        -15    1    1    2    0    0 -0.12627618606E+02  0.82385866203E+01  0.20614341227E+02  0.25601559608E+02  0.17770000000E+01 0. -1.
         15    1    1    2    0    0  0.11046406039E+02  0.27199111232E+01  0.61809827376E+01  0.13068407688E+02  0.17770000000E+01 0.  1.
</event>
<event>
 6    1  0.6506903E-004  0.5015116E+03  0.7546771E-02  0.9396434E-01
        -11   -1    0    0    0    0  0.00000000000E+00  0.00000000000E+00  0.50000000000E+03  0.50000000000E+03  0.00000000000E+00 0.  1.
         11   -1    0    0    0    0 -0.00000000000E+00 -0.00000000000E+00 -0.50000000000E+03  0.50000000000E+03  0.00000000000E+00 0.  1.
        -11    1    1    2    0    0  0.11164194834E+02 -0.28345697020E+01  0.49835525706E+03  0.49848835119E+03  0.00000000000E+00 0.  1.
         11    1    1    2    0    0 -0.10852952546E+02 -0.73720289675E+00 -0.17558487516E+02  0.20655036454E+02  0.00000000000E+00 0.  1.
        -15    1    1    2    0    0 -0.25119937824E+01  0.12298953069E+00 -0.22295542460E+03  0.22297669010E+03  0.17770000000E+01 0.  1.
         15    1    1    2    0    0  0.22007514951E+01  0.34487830681E+01 -0.25784134495E+03  0.25787992226E+03  0.17770000000E+01 0.  1.
</event>
<event>
 6    1  0.6506903E-004  0.5008944E+03  0.7546771E-02  0.9397811E-01
        -11   -1    0    0    0    0  0.00000000000E+00  0.00000000000E+00  0.50000000000E+03  0.50000000000E+03  0.00000000000E+00 0. -1.
         11   -1    0    0    0    0 -0.00000000000E+00 -0.00000000000E+00 -0.50000000000E+03  0.50000000000E+03  0.00000000000E+00 0. -1.
        -11    1    1    2    0    0 -0.10867020867E+01  0.86602494247E+01  0.49902925656E+03  0.49910557975E+03  0.00000000000E+00 0. -1.
         11    1    1    2    0    0 -0.72033664656E+01  0.81669586522E+01 -0.38678545869E+03  0.38693872740E+03  0.00000000000E+00 0. -1.
        -15    1    1    2    0    0  0.18546863034E+01 -0.19940266912E+01 -0.24745634941E+02  0.24958368964E+02  0.17770000000E+01 0.  1.
         15    1    1    2    0    0  0.64353822489E+01 -0.14833181386E+02 -0.87498162924E+02  0.88997323886E+02  0.17770000000E+01 0. -1.
</event>
<event>
 6    1  0.6506903E-004  0.5004907E+03  0.7546771E-02  0.9398712E-01
        -11   -1    0    0    0    0  0.00000000000E+00  0.00000000000E+00  0.50000000000E+03  0.50000000000E+03  0.00000000000E+00 0. -1.
         11   -1    0    0    0    0 -0.00000000000E+00 -0.00000000000E+00 -0.50000000000E+03  0.50000000000E+03  0.00000000000E+00 0.  1.
        -11    1    1    2    0    0  0.64891978004E+01 -0.26364496818E+01  0.49946020368E+03  0.49950931485E+03  0.00000000000E+00 0. -1.
         11    1    1    2    0    0 -0.45017506934E+01 -0.67115120079E+01 -0.42977883404E+03  0.42985480844E+03  0.00000000000E+00 0.  1.
        -15    1    1    2    0    0  0.94327556155E+00  0.41932413303E+01 -0.42750739200E+02  0.43002982138E+02  0.17770000000E+01 0. -1.
         15    1    1    2    0    0 -0.29307226685E+01  0.51547203594E+01 -0.26930630447E+02  0.27632894575E+02  0.17770000000E+01 0.  1.
</event>
<event>
 6    1  0.6506903E-004  0.5246889E+03  0.7546771E-02  0.9346200E-01
        -11   -1    0    0    0    0  0.00000000000E+00  0.00000000000E+00  0.50000000000E+03  0.50000000000E+03  0.00000000000E+00 0. -1.
         11   -1    0    0    0    0 -0.00000000000E+00 -0.00000000000E+00 -0.50000000000E+03  0.50000000000E+03  0.00000000000E+00 0. -1.
        -11    1    1    2    0    0  0.12133851918E+02  0.11366878056E+02  0.47502020594E+03  0.47531109006E+03  0.00000000000E+00 0. -1.
         11    1    1    2    0    0  0.55330394690E+02  0.54300392747E+02 -0.37617619163E+03  0.38408138770E+03  0.00000000000E+00 0. -1.
        -15    1    1    2    0    0 -0.52367078829E+02 -0.58282868484E+02 -0.61516708153E+02  0.99632659379E+02  0.17770000000E+01 0.  1.
         15    1    1    2    0    0 -0.15097167779E+02 -0.73844023185E+01 -0.37327306158E+02  0.40974862862E+02  0.17770000000E+01 0. -1.
</event>
<event>
 6    1  0.6506903E-004  0.5010575E+03  0.7546771E-02  0.9397447E-01
        -11   -1    0    0    0    0  0.00000000000E+00  0.00000000000E+00  0.50000000000E+03  0.50000000000E+03  0.00000000000E+00 0.  1.
         11   -1    0    0    0    0 -0.00000000000E+00 -0.00000000000E+00 -0.50000000000E+03  0.50000000000E+03  0.00000000000E+00 0. -1.
        -11    1    1    2    0    0  0.52258711163E+01 -0.33224880896E+02  0.37371513989E+03  0.37522554313E+03  0.00000000000E+00 0.  1.
         11    1    1    2    0    0 -0.56740040201E+01  0.18659152425E+02 -0.49856119276E+03  0.49894250292E+03  0.00000000000E+00 0. -1.
        -15    1    1    2    0    0  0.29212139813E+00  0.11042362773E+02  0.10517344133E+03  0.10576686437E+03  0.17770000000E+01 0.  1.
         15    1    1    2    0    0  0.15601150570E+00  0.35233656986E+01  0.19672611548E+02  0.20065089573E+02  0.17770000000E+01 0.  1.
</event>
<event>
 6    1  0.6506903E-004  0.5007021E+03  0.7546771E-02  0.9398240E-01
        -11   -1    0    0    0    0  0.00000000000E+00  0.00000000000E+00  0.50000000000E+03  0.50000000000E+03  0.00000000000E+00 0. -1.
         11   -1    0    0    0    0 -0.00000000000E+00 -0.00000000000E+00 -0.50000000000E+03  0.50000000000E+03  0.00000000000E+00 0. -1.
        -11    1    1    2    0    0  0.82858854966E+01 -0.34191583581E+01  0.49921743973E+03  0.49929790574E+03  0.00000000000E+00 0. -1.
         11    1    1    2    0    0  0.23340593868E+01 -0.11028482769E+02 -0.31239360723E+03  0.31259693073E+03  0.00000000000E+00 0. -1.
        -15    1    1    2    0    0 -0.70731145495E+01  0.16046460238E+02 -0.14749667997E+03  0.14854610788E+03  0.17770000000E+01 0.  1.
         15    1    1    2    0    0 -0.35468303339E+01 -0.15988191106E+01 -0.39327152535E+02  0.39559055644E+02  0.17770000000E+01 0. -1.
</event>
<event>
 6    1  0.6506903E-004  0.5019175E+03  0.7546771E-02  0.9395529E-01
        -11   -1    0    0    0    0  0.00000000000E+00  0.00000000000E+00  0.50000000000E+03  0.50000000000E+03  0.00000000000E+00 0.  1.
         11   -1    0    0    0    0 -0.00000000000E+00 -0.00000000000E+00 -0.50000000000E+03  0.50000000000E+03  0.00000000000E+00 0.  1.
        -11    1    1    2    0    0 -0.66863415420E+01 -0.20469018440E+01  0.47298144015E+03  0.47303312749E+03  0.00000000000E+00 0.  1.
         11    1    1    2    0    0 -0.53156103942E+01  0.74268112884E+01 -0.49799875738E+03  0.49808249878E+03  0.00000000000E+00 0.  1.
        -15    1    1    2    0    0  0.10959434827E+01 -0.89922880933E+00  0.62394286414E+01  0.66406252221E+01  0.17770000000E+01 0. -1.
         15    1    1    2    0    0  0.10906008454E+02 -0.44806806351E+01  0.18777888584E+02  0.22243748515E+02  0.17770000000E+01 0.  1.
</event>
<event>
 6    1  0.6506903E-004  0.5036697E+03  0.7546771E-02  0.9391636E-01
        -11   -1    0    0    0    0  0.00000000000E+00  0.00000000000E+00  0.50000000000E+03  0.50000000000E+03  0.00000000000E+00 0. -1.
         11   -1    0    0    0    0 -0.00000000000E+00 -0.00000000000E+00 -0.50000000000E+03  0.50000000000E+03  0.00000000000E+00 0.  1.
        -11    1    1    2    0    0  0.34196953398E+01 -0.91936918521E+01  0.49623339557E+03  0.49633033472E+03  0.00000000000E+00 0. -1.
         11    1    1    2    0    0  0.58074531992E+01  0.15030573509E+02 -0.48230343177E+03  0.48257252818E+03  0.00000000000E+00 0.  1.
        -15    1    1    2    0    0 -0.32085152175E+01 -0.13788985345E+01 -0.12713787166E+02  0.13303910860E+02  0.17770000000E+01 0.  1.
         15    1    1    2    0    0 -0.60186333215E+01 -0.44579831226E+01 -0.12161766315E+01  0.77932262369E+01  0.17770000000E+01 0. -1.
</event>
<event>
 6    1  0.6506903E-004  0.5032678E+03  0.7546771E-02  0.9392527E-01
        -11   -1    0    0    0    0  0.00000000000E+00  0.00000000000E+00  0.50000000000E+03  0.50000000000E+03  0.00000000000E+00 0. -1.
         11   -1    0    0    0    0 -0.00000000000E+00 -0.00000000000E+00 -0.50000000000E+03  0.50000000000E+03  0.00000000000E+00 0. -1.
        -11    1    1    2    0    0  0.43512574789E+01 -0.68495088781E+01  0.46979458829E+03  0.46986466605E+03  0.00000000000E+00 0. -1.
         11    1    1    2    0    0  0.86524081259E+00 -0.10191409877E+02 -0.49662686610E+03  0.49673217896E+03  0.00000000000E+00 0. -1.
        -15    1    1    2    0    0 -0.47872470240E+01  0.51243705735E+01  0.62994429386E+01  0.95925814138E+01  0.17770000000E+01 0. -1.
         15    1    1    2    0    0 -0.42925126747E+00  0.11916548182E+02  0.20532834876E+02  0.23810573581E+02  0.17770000000E+01 0.  1.
</event>
<event>
 6    1  0.6506903E-004  0.5003709E+03  0.7546771E-02  0.9398980E-01
        -11   -1    0    0    0    0  0.00000000000E+00  0.00000000000E+00  0.50000000000E+03  0.50000000000E+03  0.00000000000E+00 0.  1.
         11   -1    0    0    0    0 -0.00000000000E+00 -0.00000000000E+00 -0.50000000000E+03  0.50000000000E+03  0.00000000000E+00 0. -1.
        -11    1    1    2    0    0 -0.86255392057E+01 -0.64127769513E+00  0.49955420919E+03  0.49962908150E+03  0.00000000000E+00 0.  1.
         11    1    1    2    0    0 -0.12918639201E+01  0.71732949450E+01 -0.71352425368E+02  0.71723731628E+02  0.00000000000E+00 0. -1.
        -15    1    1    2    0    0  0.49617517508E+01 -0.54247052509E+01 -0.38948406370E+03  0.38955749256E+03  0.17770000000E+01 0. -1.
         15    1    1    2    0    0  0.49556513750E+01 -0.11073119990E+01 -0.38717720127E+02  0.39089694310E+02  0.17770000000E+01 0.  1.
</event>
<event>
 6    1  0.6506903E-004  0.5001595E+03  0.7546771E-02  0.9399453E-01
        -11   -1    0    0    0    0  0.00000000000E+00  0.00000000000E+00  0.50000000000E+03  0.50000000000E+03  0.00000000000E+00 0.  1.
         11   -1    0    0    0    0 -0.00000000000E+00 -0.00000000000E+00 -0.50000000000E+03  0.50000000000E+03  0.00000000000E+00 0. -1.
        -11    1    1    2    0    0 -0.11019294002E+01  0.90603311628E+01  0.49975716892E+03  0.49984050630E+03  0.00000000000E+00 0.  1.
         11    1    1    2    0    0 -0.37233743655E+01  0.37196711449E+01 -0.14354802937E+03  0.14364447851E+03  0.00000000000E+00 0. -1.
        -15    1    1    2    0    0  0.40319341162E+00 -0.29362812472E+01 -0.55835860234E+02  0.55942696839E+02  0.17770000000E+01 0.  1.
         15    1    1    2    0    0  0.44221103541E+01 -0.98437210605E+01 -0.30037327932E+03  0.30057231835E+03  0.17770000000E+01 0. -1.
</event>
<event>
 6    1  0.6506903E-004  0.5002753E+03  0.7546771E-02  0.9399194E-01
        -11   -1    0    0    0    0  0.00000000000E+00  0.00000000000E+00  0.50000000000E+03  0.50000000000E+03  0.00000000000E+00 0.  1.
         11   -1    0    0    0    0 -0.00000000000E+00 -0.00000000000E+00 -0.50000000000E+03  0.50000000000E+03  0.00000000000E+00 0. -1.
        -11    1    1    2    0    0  0.17324636804E+02  0.96216492702E+00  0.42607042391E+03  0.42642358627E+03  0.00000000000E+00 0.  1.
         11    1    1    2    0    0 -0.12623987721E+02  0.31492163134E+01 -0.49955532196E+03  0.49972472655E+03  0.00000000000E+00 0. -1.
        -15    1    1    2    0    0 -0.16419279832E+01 -0.21157591699E+01  0.27299445745E+02  0.27487994313E+02  0.17770000000E+01 0.  1.
         15    1    1    2    0    0 -0.30587211004E+01 -0.19956220706E+01  0.46185452306E+02  0.46363692864E+02  0.17770000000E+01 0.  1.
</event>
<event>
 6    1  0.6506903E-004  0.5010582E+03  0.7546771E-02  0.9397445E-01
        -11   -1    0    0    0    0  0.00000000000E+00  0.00000000000E+00  0.50000000000E+03  0.50000000000E+03  0.00000000000E+00 0.  1.
         11   -1    0    0    0    0 -0.00000000000E+00 -0.00000000000E+00 -0.50000000000E+03  0.50000000000E+03  0.00000000000E+00 0. -1.
        -11    1    1    2    0    0 -0.37102353021E+01 -0.42187252868E+01  0.34159526391E+03  0.34164146092E+03  0.00000000000E+00 0.  1.
         11    1    1    2    0    0 -0.19705681751E+02  0.69312093240E+01 -0.49850437134E+03  0.49894184410E+03  0.00000000000E+00 0. -1.
        -15    1    1    2    0    0  0.42444280773E+00  0.13555835238E+01  0.46313739070E+02  0.46369579619E+02  0.17770000000E+01 0.  1.
         15    1    1    2    0    0  0.22991474245E+02 -0.40680675610E+01  0.11059536835E+03  0.11304711536E+03  0.17770000000E+01 0.  1.
</event>
<event>
 6    1  0.6506903E-004  0.5036091E+03  0.7546771E-02  0.9391770E-01
        -11   -1    0    0    0    0  0.00000000000E+00  0.00000000000E+00  0.50000000000E+03  0.50000000000E+03  0.00000000000E+00 0. -1.
         11   -1    0    0    0    0 -0.00000000000E+00 -0.00000000000E+00 -0.50000000000E+03  0.50000000000E+03  0.00000000000E+00 0. -1.
        -11    1    1    2    0    0 -0.35573154298E+01  0.20645481334E+02  0.40650688938E+03  0.40704636285E+03  0.00000000000E+00 0. -1.
         11    1    1    2    0    0 -0.14899757801E+02  0.41719559962E+01 -0.49614967975E+03  0.49639088701E+03  0.00000000000E+00 0. -1.
        -15    1    1    2    0    0  0.15774331665E+02 -0.21423350294E+02  0.50183095162E+02  0.56826844417E+02  0.17770000000E+01 0. -1.
         15    1    1    2    0    0  0.26827415657E+01 -0.33940870362E+01  0.39459695198E+02  0.39735905718E+02  0.17770000000E+01 0.  1.
</event>
<event>
 6    1  0.6506903E-004  0.5109373E+03  0.7546771E-02  0.9375664E-01
        -11   -1    0    0    0    0  0.00000000000E+00  0.00000000000E+00  0.50000000000E+03  0.50000000000E+03  0.00000000000E+00 0. -1.
         11   -1    0    0    0    0 -0.00000000000E+00 -0.00000000000E+00 -0.50000000000E+03  0.50000000000E+03  0.00000000000E+00 0. -1.
        -11    1    1    2    0    0 -0.27660798213E+02 -0.13534390221E+02  0.48809224653E+03  0.48906271643E+03  0.00000000000E+00 0. -1.
         11    1    1    2    0    0 -0.28973933370E+02  0.80485783111E+01 -0.41874313432E+03  0.41982148702E+03  0.00000000000E+00 0. -1.
        -15    1    1    2    0    0  0.49388096855E+02  0.91689544070E+01 -0.54837979748E+02  0.74388275875E+02  0.17770000000E+01 0. -1.
         15    1    1    2    0    0  0.72466347276E+01 -0.36831424974E+01 -0.14511132464E+02  0.16727520675E+02  0.17770000000E+01 0.  1.
</event>
<event>
 6    1  0.6506903E-004  0.5002833E+03  0.7546771E-02  0.9399176E-01
        -11   -1    0    0    0    0  0.00000000000E+00  0.00000000000E+00  0.50000000000E+03  0.50000000000E+03  0.00000000000E+00 0.  1.
         11   -1    0    0    0    0 -0.00000000000E+00 -0.00000000000E+00 -0.50000000000E+03  0.50000000000E+03  0.00000000000E+00 0. -1.
        -11    1    1    2    0    0 -0.71659874133E+01 -0.62504645519E+01  0.15445566580E+03  0.15474809331E+03  0.00000000000E+00 0.  1.
         11    1    1    2    0    0  0.93110622153E+01 -0.83513167607E+01 -0.49956017604E+03  0.49971672962E+03  0.00000000000E+00 0. -1.
        -15    1    1    2    0    0  0.15077947965E+01  0.28558141246E+00  0.52552155023E+02  0.52604578969E+02  0.17770000000E+01 0. -1.
         15    1    1    2    0    0 -0.36528695985E+01  0.14316199900E+02  0.29255235522E+03  0.29293059811E+03  0.17770000000E+01 0.  1.
</event>
<event>
 6    1  0.6506903E-004  0.5006546E+03  0.7546771E-02  0.9398346E-01
        -11   -1    0    0    0    0  0.00000000000E+00  0.00000000000E+00  0.50000000000E+03  0.50000000000E+03  0.00000000000E+00 0. -1.
         11   -1    0    0    0    0 -0.00000000000E+00 -0.00000000000E+00 -0.50000000000E+03  0.50000000000E+03  0.00000000000E+00 0.  1.
        -11    1    1    2    0    0 -0.15140643206E+02  0.43901176940E+02  0.49718134185E+03  0.49934541061E+03  0.00000000000E+00 0. -1.
         11    1    1    2    0    0  0.24769055537E+02 -0.28136740042E+02 -0.27464364999E+03  0.27719003722E+03  0.00000000000E+00 0.  1.
        -15    1    1    2    0    0  0.68847662353E+00 -0.30374028978E+01 -0.27687519781E+02  0.27918744547E+02  0.17770000000E+01 0. -1.
         15    1    1    2    0    0 -0.10316888955E+02 -0.12727034000E+02 -0.19485017207E+03  0.19554580762E+03  0.17770000000E+01 0.  1.
</event>
<event>
 6    1  0.6506903E-004  0.5003671E+03  0.7546771E-02  0.9398989E-01
        -11   -1    0    0    0    0  0.00000000000E+00  0.00000000000E+00  0.50000000000E+03  0.50000000000E+03  0.00000000000E+00 0.  1.
         11   -1    0    0    0    0 -0.00000000000E+00 -0.00000000000E+00 -0.50000000000E+03  0.50000000000E+03  0.00000000000E+00 0.  1.
        -11    1    1    2    0    0  0.47083122893E+00 -0.60801696771E+01  0.31094510635E+03  0.31100490238E+03  0.00000000000E+00 0.  1.
         11    1    1    2    0    0  0.36586391273E+01  0.15359551329E+02 -0.49938338695E+03  0.49963293389E+03  0.00000000000E+00 0.  1.
        -15    1    1    2    0    0  0.36880554702E+01 -0.35067333967E+01  0.22760222333E+02  0.23389835012E+02  0.17770000000E+01 0. -1.
         15    1    1    2    0    0 -0.78175258263E+01 -0.57726482552E+01  0.16567805828E+03  0.16597232872E+03  0.17770000000E+01 0.  1.
</event>
<event>
 6    1  0.6506903E-004  0.5016077E+03  0.7546771E-02  0.9396220E-01
        -11   -1    0    0    0    0  0.00000000000E+00  0.00000000000E+00  0.50000000000E+03  0.50000000000E+03  0.00000000000E+00 0.  1.
         11   -1    0    0    0    0 -0.00000000000E+00 -0.00000000000E+00 -0.50000000000E+03  0.50000000000E+03  0.00000000000E+00 0. -1.
        -11    1    1    2    0    0  0.89590381018E+01 -0.84461905468E+01  0.49824017415E+03  0.49839228891E+03  0.00000000000E+00 0.  1.
         11    1    1    2    0    0 -0.87421242400E+01  0.19907278495E+02 -0.41933330903E+03  0.41989659267E+03  0.00000000000E+00 0. -1.
        -15    1    1    2    0    0 -0.42212585548E+00 -0.15129433855E+02 -0.72718289970E+02  0.74297950067E+02  0.17770000000E+01 0. -1.
         15    1    1    2    0    0  0.20521199369E+00  0.36683459067E+01 -0.61885751538E+01  0.74131683569E+01  0.17770000000E+01 0.  1.
</event>
<event>
 6    1  0.6506903E-004  0.5039930E+03  0.7546771E-02  0.9390919E-01
        -11   -1    0    0    0    0  0.00000000000E+00  0.00000000000E+00  0.50000000000E+03  0.50000000000E+03  0.00000000000E+00 0. -1.
         11   -1    0    0    0    0 -0.00000000000E+00 -0.00000000000E+00 -0.50000000000E+03  0.50000000000E+03  0.00000000000E+00 0.  1.
        -11    1    1    2    0    0 -0.68366187152E+01  0.16158399117E+00  0.49595987990E+03  0.49600702408E+03  0.00000000000E+00 0. -1.
         11    1    1    2    0    0  0.38165186023E+01 -0.12865857544E+02 -0.47802124059E+03  0.47820958017E+03  0.00000000000E+00 0.  1.
        -15    1    1    2    0    0  0.44937942813E+01  0.29258098957E+01 -0.51768776416E+00  0.56727665393E+01  0.17770000000E+01 0. -1.
         15    1    1    2    0    0 -0.14736941684E+01  0.97784636576E+01 -0.17420951539E+02  0.20110629218E+02  0.17770000000E+01 0.  1.
</event>
<event>
 6    1  0.6506903E-004  0.5006714E+03  0.7546771E-02  0.9398309E-01
        -11   -1    0    0    0    0  0.00000000000E+00  0.00000000000E+00  0.50000000000E+03  0.50000000000E+03  0.00000000000E+00 0. -1.
         11   -1    0    0    0    0 -0.00000000000E+00 -0.00000000000E+00 -0.50000000000E+03  0.50000000000E+03  0.00000000000E+00 0.  1.
        -11    1    1    2    0    0  0.92695065100E+01  0.23610437230E+01  0.24000853606E+03  0.24019907506E+03  0.00000000000E+00 0. -1.
         11    1    1    2    0    0 -0.37923269966E+01  0.22860624618E+02 -0.49879055140E+03  0.49932855323E+03  0.00000000000E+00 0.  1.
        -15    1    1    2    0    0  0.21251012089E+01 -0.80713059317E+01  0.13444457440E+03  0.13471511923E+03  0.17770000000E+01 0. -1.
         15    1    1    2    0    0 -0.76022807223E+01 -0.17150362410E+02  0.12433744094E+03  0.12575725248E+03  0.17770000000E+01 0.  1.
</event>
<event>
 6    1  0.6506903E-004  0.4733320E+03  0.7546771E-02  0.9461542E-01
        -11   -1    0    0    0    0  0.00000000000E+00  0.00000000000E+00  0.50000000000E+03  0.50000000000E+03  0.00000000000E+00 0. -1.
         11   -1    0    0    0    0 -0.00000000000E+00 -0.00000000000E+00 -0.50000000000E+03  0.50000000000E+03  0.00000000000E+00 0.  1.
        -11    1    1    2    0    0  0.89186104058E+01  0.20231182047E+01  0.46655936659E+03  0.46664898711E+03  0.00000000000E+00 0. -1.
         11    1    1    2    0    0  0.12400441418E+01  0.40605543088E+02 -0.47939744423E+03  0.48111563825E+03  0.00000000000E+00 0.  1.
        -15    1    1    2    0    0 -0.72580903146E+01 -0.41147081389E+02  0.32403308619E+01  0.41945436640E+02  0.17770000000E+01 0. -1.
         15    1    1    2    0    0 -0.29005642330E+01 -0.14815799031E+01  0.95977467772E+01  0.10289938002E+02  0.17770000000E+01 0.  1.
</event>
<event>
 6    1  0.6506903E-004  0.3968228E+03  0.7546771E-02  0.9665835E-01
        -11   -1    0    0    0    0  0.00000000000E+00  0.00000000000E+00  0.50000000000E+03  0.50000000000E+03  0.00000000000E+00 0.  1.
         11   -1    0    0    0    0 -0.00000000000E+00 -0.00000000000E+00 -0.50000000000E+03  0.50000000000E+03  0.00000000000E+00 0. -1.
        -11    1    1    2    0    0  0.30719993799E+00 -0.17334483692E+02  0.44025767907E+03  0.44059891362E+03  0.00000000000E+00 0.  1.
         11    1    1    2    0    0 -0.63497558409E+02 -0.12599349896E+03 -0.14302570840E+03  0.20090459170E+03  0.00000000000E+00 0. -1.
        -15    1    1    2    0    0  0.14637391842E+02  0.43902364640E+01  0.96374157752E+01  0.18153923211E+02  0.17770000000E+01 0.  1.
         15    1    1    2    0    0  0.48552966630E+02  0.13893774619E+03 -0.30686938645E+03  0.34034257147E+03  0.17770000000E+01 0. -1.
</event>
<event>
 6    1  0.6506903E-004  0.5032281E+03  0.7546771E-02  0.9392616E-01
        -11   -1    0    0    0    0  0.00000000000E+00  0.00000000000E+00  0.50000000000E+03  0.50000000000E+03  0.00000000000E+00 0. -1.
         11   -1    0    0    0    0 -0.00000000000E+00 -0.00000000000E+00 -0.50000000000E+03  0.50000000000E+03  0.00000000000E+00 0. -1.
        -11    1    1    2    0    0 -0.51278205316E+01 -0.38993863562E+01  0.47039239800E+03  0.47043650778E+03  0.00000000000E+00 0. -1.
         11    1    1    2    0    0  0.17270565324E+02  0.20986834755E+02  0.18345746389E+02  0.32791554861E+02  0.00000000000E+00 0. -1.
        -15    1    1    2    0    0 -0.16865832881E+02 -0.45440672122E+02 -0.41133904813E+03  0.41418870246E+03  0.17770000000E+01 0. -1.
         15    1    1    2    0    0  0.47230880890E+01  0.28353223723E+02 -0.77399096258E+02  0.82583234904E+02  0.17770000000E+01 0.  1.
</event>
<event>
 6    1  0.6506903E-004  0.5003817E+03  0.7546771E-02  0.9398956E-01
        -11   -1    0    0    0    0  0.00000000000E+00  0.00000000000E+00  0.50000000000E+03  0.50000000000E+03  0.00000000000E+00 0. -1.
         11   -1    0    0    0    0 -0.00000000000E+00 -0.00000000000E+00 -0.50000000000E+03  0.50000000000E+03  0.00000000000E+00 0.  1.
        -11    1    1    2    0    0 -0.10401309262E+02 -0.14705348254E+02  0.49929351035E+03  0.49961829829E+03  0.00000000000E+00 0. -1.
         11    1    1    2    0    0  0.10578905881E+02  0.99555212724E+01 -0.18456198437E+03  0.18513279485E+03  0.00000000000E+00 0.  1.
        -15    1    1    2    0    0 -0.85965656593E+00  0.33796942279E+00 -0.39358711034E+01  0.44161117609E+01  0.17770000000E+01 0.  1.
         15    1    1    2    0    0  0.68205994749E+00  0.44118575586E+01 -0.31079565487E+03  0.31083279510E+03  0.17770000000E+01 0.  1.
</event>
<event>
 6    1  0.6506903E-004  0.5001967E+03  0.7546771E-02  0.9399370E-01
        -11   -1    0    0    0    0  0.00000000000E+00  0.00000000000E+00  0.50000000000E+03  0.50000000000E+03  0.00000000000E+00 0.  1.
         11   -1    0    0    0    0 -0.00000000000E+00 -0.00000000000E+00 -0.50000000000E+03  0.50000000000E+03  0.00000000000E+00 0. -1.
        -11    1    1    2    0    0  0.10457304769E+02 -0.32589887704E+01  0.49968323066E+03  0.49980326853E+03  0.00000000000E+00 0.  1.
         11    1    1    2    0    0  0.30034581468E+01  0.37339676077E+01 -0.25656984657E+03  0.25661459320E+03  0.00000000000E+00 0. -1.
        -15    1    1    2    0    0 -0.43741027718E+01  0.95038523165E+00 -0.47236435314E+02  0.47481307452E+02  0.17770000000E+01 0. -1.
         15    1    1    2    0    0 -0.90866601441E+01 -0.14253640689E+01 -0.19587694878E+03  0.19610083082E+03  0.17770000000E+01 0.  1.
</event>
<event>
 6    1  0.6506903E-004  0.5035490E+03  0.7546771E-02  0.9391903E-01
        -11   -1    0    0    0    0  0.00000000000E+00  0.00000000000E+00  0.50000000000E+03  0.50000000000E+03  0.00000000000E+00 0.  1.
         11   -1    0    0    0    0 -0.00000000000E+00 -0.00000000000E+00 -0.50000000000E+03  0.50000000000E+03  0.00000000000E+00 0.  1.
        -11    1    1    2    0    0  0.99904228071E+01  0.12570746589E+01  0.49634883295E+03  0.49645095705E+03  0.00000000000E+00 0.  1.
         11    1    1    2    0    0  0.14233373289E+02  0.64636370355E+01 -0.40050262395E+03  0.40080758390E+03  0.00000000000E+00 0.  1.
        -15    1    1    2    0    0 -0.22360507004E+02 -0.15907806097E+02 -0.62013845128E+02  0.67837491735E+02  0.17770000000E+01 0. -1.
         15    1    1    2    0    0 -0.18632890919E+01  0.81870944026E+01 -0.33832363868E+02  0.34903967323E+02  0.17770000000E+01 0.  1.
</event>
<event>
 6    1  0.6506903E-004  0.5017267E+03  0.7546771E-02  0.9395954E-01
        -11   -1    0    0    0    0  0.00000000000E+00  0.00000000000E+00  0.50000000000E+03  0.50000000000E+03  0.00000000000E+00 0.  1.
         11   -1    0    0    0    0 -0.00000000000E+00 -0.00000000000E+00 -0.50000000000E+03  0.50000000000E+03  0.00000000000E+00 0. -1.
        -11    1    1    2    0    0 -0.13719763643E+01 -0.57990358979E+01  0.13043480955E+03  0.13057086459E+03  0.00000000000E+00 0.  1.
         11    1    1    2    0    0 -0.69376085169E+01 -0.57271810334E+02 -0.49492234671E+03  0.49827333858E+03  0.00000000000E+00 0. -1.
        -15    1    1    2    0    0 -0.56530536042E+01  0.18910873190E+02  0.60707399117E+02  0.63860192424E+02  0.17770000000E+01 0. -1.
         15    1    1    2    0    0  0.13962638485E+02  0.44159973042E+02  0.30378013804E+03  0.30729560440E+03  0.17770000000E+01 0.  1.
</event>
<event>
 6    1  0.6506903E-004  0.5045535E+03  0.7546771E-02  0.9389678E-01
        -11   -1    0    0    0    0  0.00000000000E+00  0.00000000000E+00  0.50000000000E+03  0.50000000000E+03  0.00000000000E+00 0.  1.
         11   -1    0    0    0    0 -0.00000000000E+00 -0.00000000000E+00 -0.50000000000E+03  0.50000000000E+03  0.00000000000E+00 0.  1.
        -11    1    1    2    0    0  0.13069832641E+02  0.37916105148E+01  0.49525961249E+03  0.49544654666E+03  0.00000000000E+00 0.  1.
         11    1    1    2    0    0 -0.56197129501E+01  0.60854420697E+01 -0.48300792855E+03  0.48307895092E+03  0.00000000000E+00 0.  1.
        -15    1    1    2    0    0 -0.90352174761E+01 -0.27556794186E+01 -0.42753015189E+01  0.10519736497E+02  0.17770000000E+01 0.  1.
         15    1    1    2    0    0  0.15850977850E+01 -0.71213731659E+01 -0.79763824237E+01  0.10954765918E+02  0.17770000000E+01 0. -1.
</event>
<event>
 6    1  0.6506903E-004  0.5006022E+03  0.7546771E-02  0.9398463E-01
        -11   -1    0    0    0    0  0.00000000000E+00  0.00000000000E+00  0.50000000000E+03  0.50000000000E+03  0.00000000000E+00 0. -1.
         11   -1    0    0    0    0 -0.00000000000E+00 -0.00000000000E+00 -0.50000000000E+03  0.50000000000E+03  0.00000000000E+00 0.  1.
        -11    1    1    2    0    0  0.57619762672E+01  0.39425140778E+01  0.49934900809E+03  0.49939781304E+03  0.00000000000E+00 0. -1.
         11    1    1    2    0    0  0.12864179541E+02 -0.28667669064E+00 -0.29663135783E+03  0.29691030926E+03  0.00000000000E+00 0.  1.
        -15    1    1    2    0    0 -0.77815795342E+01  0.68528566494E+00 -0.73595400466E+02  0.74030151258E+02  0.17770000000E+01 0. -1.
         15    1    1    2    0    0 -0.10844576274E+02 -0.43411230521E+01 -0.12912224979E+03  0.12966172644E+03  0.17770000000E+01 0.  1.
</event>
<event>
 6    1  0.6506903E-004  0.5030772E+03  0.7546771E-02  0.9392950E-01
        -11   -1    0    0    0    0  0.00000000000E+00  0.00000000000E+00  0.50000000000E+03  0.50000000000E+03  0.00000000000E+00 0.  1.
         11   -1    0    0    0    0 -0.00000000000E+00 -0.00000000000E+00 -0.50000000000E+03  0.50000000000E+03  0.00000000000E+00 0.  1.
        -11    1    1    2    0    0  0.70716535189E+01 -0.23899241224E+01  0.49686671887E+03  0.49692278710E+03  0.00000000000E+00 0.  1.
         11    1    1    2    0    0 -0.44334026301E-01  0.74571571192E+01 -0.48763989818E+03  0.48769691557E+03  0.00000000000E+00 0.  1.
        -15    1    1    2    0    0 -0.45152348432E+00  0.16697472178E+01 -0.75741916016E+00  0.25929408039E+01  0.17770000000E+01 0.  1.
         15    1    1    2    0    0 -0.65757960083E+01 -0.67369802146E+01 -0.84694015286E+01  0.12787356521E+02  0.17770000000E+01 0. -1.
</event>
<event>
 6    1  0.6506903E-004  0.5089540E+03  0.7546771E-02  0.9379994E-01
        -11   -1    0    0    0    0  0.00000000000E+00  0.00000000000E+00  0.50000000000E+03  0.50000000000E+03  0.00000000000E+00 0. -1.
         11   -1    0    0    0    0 -0.00000000000E+00 -0.00000000000E+00 -0.50000000000E+03  0.50000000000E+03  0.00000000000E+00 0.  1.
        -11    1    1    2    0    0  0.53461914510E+01 -0.72028970688E+01  0.46596099580E+03  0.46604732924E+03  0.00000000000E+00 0. -1.
         11    1    1    2    0    0  0.22953934931E+02  0.15734042902E+02 -0.49025678616E+03  0.49104598523E+03  0.00000000000E+00 0.  1.
        -15    1    1    2    0    0 -0.22934134108E+02 -0.96372007061E+01  0.89195907041E+01  0.26487109545E+02  0.17770000000E+01 0.  1.
         15    1    1    2    0    0 -0.53659922739E+01  0.11060548730E+01  0.15376199659E+02  0.16419575981E+02  0.17770000000E+01 0. -1.
</event>
<event>
 6    1  0.6506903E-004  0.5012685E+03  0.7546771E-02  0.9396976E-01
        -11   -1    0    0    0    0  0.00000000000E+00  0.00000000000E+00  0.50000000000E+03  0.50000000000E+03  0.00000000000E+00 0. -1.
         11   -1    0    0    0    0 -0.00000000000E+00 -0.00000000000E+00 -0.50000000000E+03  0.50000000000E+03  0.00000000000E+00 0.  1.
        -11    1    1    2    0    0 -0.19149906572E+02 -0.18220254887E+02  0.49803052364E+03  0.49873148997E+03  0.00000000000E+00 0. -1.
         11    1    1    2    0    0  0.65720787408E+01  0.21395216825E+02 -0.43227224973E+03  0.43285129711E+03  0.00000000000E+00 0.  1.
        -15    1    1    2    0    0  0.54042871666E+01 -0.81791085702E+01 -0.34677128816E+02  0.36079982383E+02  0.17770000000E+01 0. -1.
         15    1    1    2    0    0  0.71735406644E+01  0.50041466320E+01 -0.31081145093E+02  0.32337230532E+02  0.17770000000E+01 0.  1.
</event>
<event>
 6    1  0.6506903E-004  0.5277390E+03  0.7546771E-02  0.9339795E-01
        -11   -1    0    0    0    0  0.00000000000E+00  0.00000000000E+00  0.50000000000E+03  0.50000000000E+03  0.00000000000E+00 0.  1.
         11   -1    0    0    0    0 -0.00000000000E+00 -0.00000000000E+00 -0.50000000000E+03  0.50000000000E+03  0.00000000000E+00 0.  1.
        -11    1    1    2    0    0 -0.13244767428E+02 -0.75614755356E+01  0.47201464093E+03  0.47226096708E+03  0.00000000000E+00 0.  1.
         11    1    1    2    0    0  0.25191627760E+02  0.84836519962E+02 -0.37321478445E+03  0.38356372165E+03  0.00000000000E+00 0.  1.
        -15    1    1    2    0    0  0.27399862434E+02 -0.45928901843E+02 -0.61520965920E+02  0.81536516130E+02  0.17770000000E+01 0. -1.
         15    1    1    2    0    0 -0.39346722766E+02 -0.31346142584E+02 -0.37278890555E+02  0.62638795145E+02  0.17770000000E+01 0.  1.
</event>
<event>
 6    1  0.6506903E-004  0.5001181E+03  0.7546771E-02  0.9399545E-01
        -11   -1    0    0    0    0  0.00000000000E+00  0.00000000000E+00  0.50000000000E+03  0.50000000000E+03  0.00000000000E+00 0. -1.
         11   -1    0    0    0    0 -0.00000000000E+00 -0.00000000000E+00 -0.50000000000E+03  0.50000000000E+03  0.00000000000E+00 0. -1.
        -11    1    1    2    0    0 -0.88253764440E+01 -0.83968874859E+01  0.49973341657E+03  0.49988186867E+03  0.00000000000E+00 0. -1.
         11    1    1    2    0    0  0.33383644503E+01  0.31301690995E+01 -0.35629865241E+02  0.35922554654E+02  0.00000000000E+00 0. -1.
        -15    1    1    2    0    0  0.28648146034E+01  0.50234732321E+01 -0.31700937780E+03  0.31706709982E+03  0.17770000000E+01 0. -1.
         15    1    1    2    0    0  0.26221973903E+01  0.24324515424E+00 -0.14709417353E+03  0.14712847686E+03  0.17770000000E+01 0.  1.
</event>
<event>
 6    1  0.6506903E-004  0.5001927E+03  0.7546771E-02  0.9399379E-01
        -11   -1    0    0    0    0  0.00000000000E+00  0.00000000000E+00  0.50000000000E+03  0.50000000000E+03  0.00000000000E+00 0.  1.
         11   -1    0    0    0    0 -0.00000000000E+00 -0.00000000000E+00 -0.50000000000E+03  0.50000000000E+03  0.00000000000E+00 0. -1.
        -11    1    1    2    0    0 -0.48637003064E+01 -0.23004165050E+01  0.26172562601E+03  0.26178092140E+03  0.00000000000E+00 0.  1.
         11    1    1    2    0    0  0.36903400668E+00 -0.75440354487E+01 -0.49975026730E+03  0.49980734121E+03  0.00000000000E+00 0. -1.
        -15    1    1    2    0    0  0.35929940828E+00  0.48441003042E+01  0.16412663620E+03  0.16420811443E+03  0.17770000000E+01 0.  1.
         15    1    1    2    0    0  0.41353668914E+01  0.50003516496E+01  0.73898005088E+02  0.74203622963E+02  0.17770000000E+01 0. -1.
</event>
<event>
 6    1  0.6506903E-004  0.5015870E+03  0.7546771E-02  0.9396266E-01
        -11   -1    0    0    0    0  0.00000000000E+00  0.00000000000E+00  0.50000000000E+03  0.50000000000E+03  0.00000000000E+00 0. -1.
         11   -1    0    0    0    0 -0.00000000000E+00 -0.00000000000E+00 -0.50000000000E+03  0.50000000000E+03  0.00000000000E+00 0. -1.
        -11    1    1    2    0    0  0.26578940259E+01 -0.14182591454E+02  0.49820407287E+03  0.49841298992E+03  0.00000000000E+00 0. -1.
         11    1    1    2    0    0 -0.45747980466E+01 -0.57311879998E+01 -0.13648060604E+02  0.15493380887E+02  0.00000000000E+00 0. -1.
        -15    1    1    2    0    0 -0.62184897178E+01  0.21598989000E+01 -0.20123321226E+02  0.21247130719E+02  0.17770000000E+01 0.  1.
         15    1    1    2    0    0  0.81353937385E+01  0.17753880554E+02 -0.46443269104E+03  0.46484649847E+03  0.17770000000E+01 0. -1.
</event>
<event>
 6    1  0.6506903E-004  0.5001011E+03  0.7546771E-02  0.9399584E-01
        -11   -1    0    0    0    0  0.00000000000E+00  0.00000000000E+00  0.50000000000E+03  0.50000000000E+03  0.00000000000E+00 0.  1.
         11   -1    0    0    0    0 -0.00000000000E+00 -0.00000000000E+00 -0.50000000000E+03  0.50000000000E+03  0.00000000000E+00 0.  1.
        -11    1    1    2    0    0 -0.59077666582E+01 -0.65158202539E+01  0.49982154082E+03  0.49989892007E+03  0.00000000000E+00 0.  1.
         11    1    1    2    0    0 -0.32824173882E+01  0.36724560981E+01 -0.12680397072E+03  0.12689959885E+03  0.00000000000E+00 0.  1.
        -15    1    1    2    0    0  0.30296278530E+01 -0.69772531459E+00 -0.66445201094E+02  0.66541625641E+02  0.17770000000E+01 0. -1.
         15    1    1    2    0    0  0.61605561935E+01  0.35410894704E+01 -0.30657236901E+03  0.30665985544E+03  0.17770000000E+01 0.  1.
</event>
<event>
 6    1  0.6506903E-004  0.5022522E+03  0.7546771E-02  0.9394784E-01
        -11   -1    0    0    0    0  0.00000000000E+00  0.00000000000E+00  0.50000000000E+03  0.50000000000E+03  0.00000000000E+00 0. -1.
         11   -1    0    0    0    0 -0.00000000000E+00 -0.00000000000E+00 -0.50000000000E+03  0.50000000000E+03  0.00000000000E+00 0.  1.
        -11    1    1    2    0    0  0.18295465334E+02 -0.12459082092E+02  0.49725536021E+03  0.49774777351E+03  0.00000000000E+00 0. -1.
         11    1    1    2    0    0 -0.29473398016E+02 -0.14749172453E+02 -0.26083748807E+03  0.26291141942E+03  0.00000000000E+00 0.  1.
        -15    1    1    2    0    0 -0.14359975499E+01  0.23351117537E+02 -0.13080736764E+03  0.13289492818E+03  0.17770000000E+01 0. -1.
         15    1    1    2    0    0  0.12613930232E+02  0.38571370085E+01 -0.10561050450E+03  0.10644587889E+03  0.17770000000E+01 0.  1.
</event>
<event>
 6    1  0.6506903E-004  0.5003542E+03  0.7546771E-02  0.9399018E-01
        -11   -1    0    0    0    0  0.00000000000E+00  0.00000000000E+00  0.50000000000E+03  0.50000000000E+03  0.00000000000E+00 0.  1.
         11   -1    0    0    0    0 -0.00000000000E+00 -0.00000000000E+00 -0.50000000000E+03  0.50000000000E+03  0.00000000000E+00 0. -1.
        -11    1    1    2    0    0 -0.23290650204E+02 -0.20631255689E+00  0.49910267133E+03  0.49964584806E+03  0.00000000000E+00 0.  1.
         11    1    1    2    0    0  0.27971776915E+02 -0.20103935728E+00 -0.41530876049E+03  0.41624971743E+03  0.00000000000E+00 0. -1.
        -15    1    1    2    0    0 -0.22155536920E+01 -0.18294018049E+01 -0.45401805536E+02  0.45527322171E+02  0.17770000000E+01 0. -1.
         15    1    1    2    0    0 -0.24655730186E+01  0.22367537191E+01 -0.38392105305E+02  0.38577112337E+02  0.17770000000E+01 0.  1.
</event>
<event>
 6    1  0.6506903E-004  0.5009907E+03  0.7546771E-02  0.9397596E-01
        -11   -1    0    0    0    0  0.00000000000E+00  0.00000000000E+00  0.50000000000E+03  0.50000000000E+03  0.00000000000E+00 0.  1.
         11   -1    0    0    0    0 -0.00000000000E+00 -0.00000000000E+00 -0.50000000000E+03  0.50000000000E+03  0.00000000000E+00 0. -1.
        -11    1    1    2    0    0 -0.68395463529E+01 -0.10238542840E+01  0.31375702192E+03  0.31383323035E+03  0.00000000000E+00 0.  1.
         11    1    1    2    0    0 -0.15363189165E+02  0.88563150442E+01 -0.49869410014E+03  0.49900928589E+03  0.00000000000E+00 0. -1.
        -15    1    1    2    0    0  0.26809273614E+01 -0.61267129876E+00  0.84873199399E+02  0.84936331701E+02  0.17770000000E+01 0.  1.
         15    1    1    2    0    0  0.19521808156E+02 -0.72197894614E+01  0.10006387882E+03  0.10222115205E+03  0.17770000000E+01 0. -1.
</event>
<event>
 6    1  0.6506903E-004  0.5090819E+03  0.7546771E-02  0.9379714E-01
        -11   -1    0    0    0    0  0.00000000000E+00  0.00000000000E+00  0.50000000000E+03  0.50000000000E+03  0.00000000000E+00 0.  1.
         11   -1    0    0    0    0 -0.00000000000E+00 -0.00000000000E+00 -0.50000000000E+03  0.50000000000E+03  0.00000000000E+00 0. -1.
        -11    1    1    2    0    0 -0.77192379819E+01  0.96331618343E+01  0.49076285420E+03  0.49091808228E+03  0.00000000000E+00 0.  1.
         11    1    1    2    0    0  0.11425328531E+02 -0.91722529283E+01 -0.48692111493E+03  0.48714149949E+03  0.00000000000E+00 0. -1.
        -15    1    1    2    0    0  0.16895333023E+01 -0.12418012299E+01  0.81755444240E+01  0.86251868793E+01  0.17770000000E+01 0.  1.
         15    1    1    2    0    0 -0.53956238513E+01  0.78089232392E+00 -0.12017283695E+02  0.13315231353E+02  0.17770000000E+01 0. -1.
</event>
<event>
 6    1  0.6506903E-004  0.5001985E+03  0.7546771E-02  0.9399366E-01
        -11   -1    0    0    0    0  0.00000000000E+00  0.00000000000E+00  0.50000000000E+03  0.50000000000E+03  0.00000000000E+00 0. -1.
         11   -1    0    0    0    0 -0.00000000000E+00 -0.00000000000E+00 -0.50000000000E+03  0.50000000000E+03  0.00000000000E+00 0. -1.
        -11    1    1    2    0    0 -0.66799889886E+01 -0.14257772593E+01  0.49975481097E+03  0.49980148677E+03  0.00000000000E+00 0. -1.
         11    1    1    2    0    0  0.31920982468E+01  0.92696483274E+01 -0.28452435552E+03  0.28469321165E+03  0.00000000000E+00 0. -1.
        -15    1    1    2    0    0 -0.14180464376E+00 -0.51467508017E+00 -0.17563802786E+02  0.17661537201E+02  0.17770000000E+01 0. -1.
         15    1    1    2    0    0  0.36296953855E+01 -0.73291959879E+01 -0.19766665266E+03  0.19784376438E+03  0.17770000000E+01 0. -1.
</event>
<event>
 6    1  0.6506903E-004  0.5012168E+03  0.7546771E-02  0.9397091E-01
        -11   -1    0    0    0    0  0.00000000000E+00  0.00000000000E+00  0.50000000000E+03  0.50000000000E+03  0.00000000000E+00 0. -1.
         11   -1    0    0    0    0 -0.00000000000E+00 -0.00000000000E+00 -0.50000000000E+03  0.50000000000E+03  0.00000000000E+00 0. -1.
        -11    1    1    2    0    0 -0.60902043040E+01  0.25453420878E+01  0.36591665741E+03  0.36597618711E+03  0.00000000000E+00 0. -1.
         11    1    1    2    0    0 -0.10483485717E+01  0.16614667852E+02 -0.49850533249E+03  0.49878323222E+03  0.00000000000E+00 0. -1.
        -15    1    1    2    0    0  0.12224606412E+02 -0.10739134823E+02  0.91556473636E+02  0.93008148096E+02  0.17770000000E+01 0. -1.
         15    1    1    2    0    0 -0.50860535362E+01 -0.84208751163E+01  0.41032201435E+02  0.42232432584E+02  0.17770000000E+01 0.  1.
</event>
<event>
 6    1  0.6506903E-004  0.4815784E+03  0.7546771E-02  0.9442000E-01
        -11   -1    0    0    0    0  0.00000000000E+00  0.00000000000E+00  0.50000000000E+03  0.50000000000E+03  0.00000000000E+00 0.  1.
         11   -1    0    0    0    0 -0.00000000000E+00 -0.00000000000E+00 -0.50000000000E+03  0.50000000000E+03  0.00000000000E+00 0. -1.
        -11    1    1    2    0    0 -0.38093583756E+01  0.60987215276E+01  0.48578191392E+03  0.48583512996E+03  0.00000000000E+00 0.  1.
         11    1    1    2    0    0 -0.11000650294E+02  0.20575279640E+02 -0.47727234515E+03  0.47784228348E+03  0.00000000000E+00 0. -1.
        -15    1    1    2    0    0  0.14327889027E+02 -0.22307953111E+02 -0.13186870173E+02  0.29664531851E+02  0.17770000000E+01 0.  1.
         15    1    1    2    0    0  0.48211964208E+00 -0.43660480562E+01  0.46773014095E+01  0.66580547049E+01  0.17770000000E+01 0. -1.
</event>
<event>
 6    1  0.6506903E-004  0.4965562E+03  0.7546771E-02  0.9407549E-01
        -11   -1    0    0    0    0  0.00000000000E+00  0.00000000000E+00  0.50000000000E+03  0.50000000000E+03  0.00000000000E+00 0.  1.
         11   -1    0    0    0    0 -0.00000000000E+00 -0.00000000000E+00 -0.50000000000E+03  0.50000000000E+03  0.00000000000E+00 0. -1.
        -11    1    1    2    0    0 -0.99183958095E+01 -0.42393676564E+01  0.49816189412E+03  0.49827865654E+03  0.00000000000E+00 0.  1.
         11    1    1    2    0    0  0.16022540855E+01  0.57205872636E+01 -0.41712396495E+01  0.72588964043E+01  0.00000000000E+00 0. -1.
        -15    1    1    2    0    0 -0.55880005253E+01 -0.40895356573E+01 -0.19714909074E+03  0.19727866524E+03  0.17770000000E+01 0.  1.
         15    1    1    2    0    0  0.13904142249E+02  0.26083160501E+01 -0.29684156373E+03  0.29718378181E+03  0.17770000000E+01 0. -1.
</event>
<event>
 6    1  0.6506903E-004  0.5000561E+03  0.7546771E-02  0.9399684E-01
        -11   -1    0    0    0    0  0.00000000000E+00  0.00000000000E+00  0.50000000000E+03  0.50000000000E+03  0.00000000000E+00 0. -1.
         11   -1    0    0    0    0 -0.00000000000E+00 -0.00000000000E+00 -0.50000000000E+03  0.50000000000E+03  0.00000000000E+00 0.  1.
        -11    1    1    2    0    0 -0.32812265614E+01  0.17234379745E+02  0.49963594669E+03  0.49994386637E+03  0.00000000000E+00 0. -1.
         11    1    1    2    0    0 -0.62754794856E+00 -0.11992201915E+02 -0.23206168889E+03  0.23237218890E+03  0.00000000000E+00 0.  1.
        -15    1    1    2    0    0  0.14461664638E+01 -0.28616750035E+01 -0.10521600234E+03  0.10527984356E+03  0.17770000000E+01 0.  1.
         15    1    1    2    0    0  0.24626080461E+01 -0.23805028265E+01 -0.16235825546E+03  0.16240410117E+03  0.17770000000E+01 0.  1.
</event>
<event>
 6    1  0.6506903E-004  0.5016725E+03  0.7546771E-02  0.9396075E-01
        -11   -1    0    0    0    0  0.00000000000E+00  0.00000000000E+00  0.50000000000E+03  0.50000000000E+03  0.00000000000E+00 0.  1.
         11   -1    0    0    0    0 -0.00000000000E+00 -0.00000000000E+00 -0.50000000000E+03  0.50000000000E+03  0.00000000000E+00 0.  1.
        -11    1    1    2    0    0  0.62627672786E+01 -0.66873177552E+01  0.46202189994E+03  0.46211273354E+03  0.00000000000E+00 0.  1.
         11    1    1    2    0    0  0.24189456433E+01  0.10177497252E+02 -0.49821765110E+03  0.49832746324E+03  0.00000000000E+00 0.  1.
        -15    1    1    2    0    0 -0.74055760125E+01  0.36664387405E+01  0.20361935985E+02  0.22046575589E+02  0.17770000000E+01 0.  1.
         15    1    1    2    0    0 -0.12761369094E+01 -0.71566182372E+01  0.15833815175E+02  0.17513227630E+02  0.17770000000E+01 0. -1.
</event>
<event>
 6    1  0.6506903E-004  0.5006096E+03  0.7546771E-02  0.9398447E-01
        -11   -1    0    0    0    0  0.00000000000E+00  0.00000000000E+00  0.50000000000E+03  0.50000000000E+03  0.00000000000E+00 0. -1.
         11   -1    0    0    0    0 -0.00000000000E+00 -0.00000000000E+00 -0.50000000000E+03  0.50000000000E+03  0.00000000000E+00 0.  1.
        -11    1    1    2    0    0 -0.12892004033E+02  0.29022136554E+02  0.49837964663E+03  0.49939038873E+03  0.00000000000E+00 0. -1.
         11    1    1    2    0    0  0.17338188456E+02 -0.28973266819E+02 -0.27656710318E+03  0.27862057629E+03  0.00000000000E+00 0.  1.
        -15    1    1    2    0    0  0.59268067800E+00  0.79319158568E+00 -0.13085189594E+03  0.13086770733E+03  0.17770000000E+01 0. -1.
         15    1    1    2    0    0 -0.50388651008E+01 -0.84206132128E+00 -0.90960647510E+02  0.91121327652E+02  0.17770000000E+01 0.  1.
</event>
<event>
 6    1  0.6506903E-004  0.5018375E+03  0.7546771E-02  0.9395707E-01
        -11   -1    0    0    0    0  0.00000000000E+00  0.00000000000E+00  0.50000000000E+03  0.50000000000E+03  0.00000000000E+00 0.  1.
         11   -1    0    0    0    0 -0.00000000000E+00 -0.00000000000E+00 -0.50000000000E+03  0.50000000000E+03  0.00000000000E+00 0.  1.
        -11    1    1    2    0    0 -0.13137892486E+02 -0.23986626560E+01  0.49798342155E+03  0.49816246942E+03  0.00000000000E+00 0.  1.
         11    1    1    2    0    0 -0.28670295348E+01  0.15942589231E+02 -0.43345978244E+03  0.43376234162E+03  0.00000000000E+00 0.  1.
        -15    1    1    2    0    0  0.83576109338E+01 -0.49485428557E+01 -0.34085253677E+02  0.35486616973E+02  0.17770000000E+01 0.  1.
         15    1    1    2    0    0  0.76473110869E+01 -0.85953837196E+01 -0.30438385427E+02  0.32588571993E+02  0.17770000000E+01 0. -1.
</event>
<event>
 6    1  0.6506903E-004  0.5001744E+03  0.7546771E-02  0.9399420E-01
        -11   -1    0    0    0    0  0.00000000000E+00  0.00000000000E+00  0.50000000000E+03  0.50000000000E+03  0.00000000000E+00 0.  1.
         11   -1    0    0    0    0 -0.00000000000E+00 -0.00000000000E+00 -0.50000000000E+03  0.50000000000E+03  0.00000000000E+00 0. -1.
        -11    1    1    2    0    0 -0.43411605610E+00  0.78362015782E+00  0.15966236985E+02  0.15991348935E+02  0.00000000000E+00 0.  1.
         11    1    1    2    0    0 -0.17127996870E+02  0.70289000119E+01 -0.49948261117E+03  0.49982562216E+03  0.00000000000E+00 0. -1.
        -15    1    1    2    0    0  0.12711654257E+02 -0.38968963224E+01  0.14866594729E+03  0.14926986825E+03  0.17770000000E+01 0. -1.
         15    1    1    2    0    0  0.48504586695E+01 -0.39156238473E+01  0.33485042690E+03  0.33491316066E+03  0.17770000000E+01 0.  1.
</event>
<event>
 6    1  0.6506903E-004  0.5004025E+03  0.7546771E-02  0.9398910E-01
        -11   -1    0    0    0    0  0.00000000000E+00  0.00000000000E+00  0.50000000000E+03  0.50000000000E+03  0.00000000000E+00 0.  1.
         11   -1    0    0    0    0 -0.00000000000E+00 -0.00000000000E+00 -0.50000000000E+03  0.50000000000E+03  0.00000000000E+00 0. -1.
        -11    1    1    2    0    0 -0.29399373588E+01  0.11106570435E+02  0.49946538285E+03  0.49959750581E+03  0.00000000000E+00 0.  1.
         11    1    1    2    0    0  0.63865515380E+01 -0.60745094891E+01 -0.45865869844E+03  0.45874338073E+03  0.00000000000E+00 0. -1.
        -15    1    1    2    0    0 -0.15825444173E+01  0.28389495432E+00 -0.14564952996E+02  0.14760780059E+02  0.17770000000E+01 0.  1.
         15    1    1    2    0    0 -0.18640697618E+01 -0.53159559001E+01 -0.26241731416E+02  0.26898333404E+02  0.17770000000E+01 0.  1.
</event>
<event>
 6    1  0.6506903E-004  0.5050088E+03  0.7546771E-02  0.9388671E-01
        -11   -1    0    0    0    0  0.00000000000E+00  0.00000000000E+00  0.50000000000E+03  0.50000000000E+03  0.00000000000E+00 0.  1.
         11   -1    0    0    0    0 -0.00000000000E+00 -0.00000000000E+00 -0.50000000000E+03  0.50000000000E+03  0.00000000000E+00 0. -1.
        -11    1    1    2    0    0 -0.53535390086E+01 -0.74016374211E+01  0.49490687319E+03  0.49499116936E+03  0.00000000000E+00 0.  1.
         11    1    1    2    0    0  0.14514950572E+02  0.17622476650E+01 -0.48425451380E+03  0.48447520415E+03  0.00000000000E+00 0. -1.
        -15    1    1    2    0    0  0.12130656523E+00  0.55432635287E+01  0.58282606486E+00  0.58514870805E+01  0.17770000000E+01 0. -1.
         15    1    1    2    0    0 -0.92827181291E+01  0.96126227453E-01 -0.11235185460E+02  0.14682139402E+02  0.17770000000E+01 0.  1.
</event>
<event>
 6    1  0.6506903E-004  0.5002768E+03  0.7546771E-02  0.9399191E-01
        -11   -1    0    0    0    0  0.00000000000E+00  0.00000000000E+00  0.50000000000E+03  0.50000000000E+03  0.00000000000E+00 0.  1.
         11   -1    0    0    0    0 -0.00000000000E+00 -0.00000000000E+00 -0.50000000000E+03  0.50000000000E+03  0.00000000000E+00 0.  1.
        -11    1    1    2    0    0  0.49810108315E+01 -0.38294010244E+01  0.11736504117E+03  0.11753309181E+03  0.00000000000E+00 0.  1.
         11    1    1    2    0    0 -0.25236086754E+02 -0.20501107706E+02 -0.49866437541E+03  0.49972323819E+03  0.00000000000E+00 0.  1.
        -15    1    1    2    0    0  0.40785247961E+01  0.83704785304E+01  0.15796289868E+03  0.15824706747E+03  0.17770000000E+01 0. -1.
         15    1    1    2    0    0  0.16176551127E+02  0.15960030200E+02  0.22333643555E+03  0.22449660252E+03  0.17770000000E+01 0.  1.
</event>
<event>
 6    1  0.6506903E-004  0.5015864E+03  0.7546771E-02  0.9396267E-01
        -11   -1    0    0    0    0  0.00000000000E+00  0.00000000000E+00  0.50000000000E+03  0.50000000000E+03  0.00000000000E+00 0.  1.
         11   -1    0    0    0    0 -0.00000000000E+00 -0.00000000000E+00 -0.50000000000E+03  0.50000000000E+03  0.00000000000E+00 0.  1.
        -11    1    1    2    0    0  0.51484967817E+01 -0.26896895872E+01  0.32062689026E+03  0.32067950388E+03  0.00000000000E+00 0.  1.
         11    1    1    2    0    0  0.31414161143E+01 -0.31630671376E+02 -0.49739893595E+03  0.49841355254E+03  0.00000000000E+00 0.  1.
        -15    1    1    2    0    0 -0.42563507976E+01  0.31803045484E+02  0.13233691164E+03  0.13618284083E+03  0.17770000000E+01 0.  1.
         15    1    1    2    0    0 -0.40335620984E+01  0.25173154787E+01  0.44435134048E+02  0.44724102756E+02  0.17770000000E+01 0. -1.
</event>
<event>
 6    1  0.6506903E-004  0.5045558E+03  0.7546771E-02  0.9389673E-01
        -11   -1    0    0    0    0  0.00000000000E+00  0.00000000000E+00  0.50000000000E+03  0.50000000000E+03  0.00000000000E+00 0. -1.
         11   -1    0    0    0    0 -0.00000000000E+00 -0.00000000000E+00 -0.50000000000E+03  0.50000000000E+03  0.00000000000E+00 0.  1.
        -11    1    1    2    0    0  0.72274176535E+01  0.11374989313E+02  0.45058401260E+03  0.45078551258E+03  0.00000000000E+00 0. -1.
         11    1    1    2    0    0  0.16907789512E+02 -0.76219519376E-01 -0.49515561250E+03  0.49544420448E+03  0.00000000000E+00 0.  1.
        -15    1    1    2    0    0 -0.10890073572E+02  0.73410215847E+00  0.10525720849E+02  0.15266995015E+02  0.17770000000E+01 0. -1.
         15    1    1    2    0    0 -0.13245133594E+02 -0.12032871952E+02  0.34045879057E+02  0.38503287926E+02  0.17770000000E+01 0.  1.
</event>
<event>
 6    1  0.6506903E-004  0.5024037E+03  0.7546771E-02  0.9394447E-01
        -11   -1    0    0    0    0  0.00000000000E+00  0.00000000000E+00  0.50000000000E+03  0.50000000000E+03  0.00000000000E+00 0. -1.
         11   -1    0    0    0    0 -0.00000000000E+00 -0.00000000000E+00 -0.50000000000E+03  0.50000000000E+03  0.00000000000E+00 0. -1.
        -11    1    1    2    0    0 -0.16134773561E+01  0.90675482909E+01  0.49751106837E+03  0.49759630916E+03  0.00000000000E+00 0. -1.
         11    1    1    2    0    0 -0.85475993198E+01  0.87155138890E+00 -0.46780298000E+03  0.46788187521E+03  0.00000000000E+00 0. -1.
        -15    1    1    2    0    0  0.10148322678E+02 -0.10712446183E+02 -0.28739463742E+02  0.32355207643E+02  0.17770000000E+01 0. -1.
         15    1    1    2    0    0  0.12753997720E-01  0.77334650288E+00 -0.96862463379E+00  0.21666079847E+01  0.17770000000E+01 0. -1.
</event>
<event>
 6    1  0.6506903E-004  0.5040984E+03  0.7546771E-02  0.9390686E-01
        -11   -1    0    0    0    0  0.00000000000E+00  0.00000000000E+00  0.50000000000E+03  0.50000000000E+03  0.00000000000E+00 0.  1.
         11   -1    0    0    0    0 -0.00000000000E+00 -0.00000000000E+00 -0.50000000000E+03  0.50000000000E+03  0.00000000000E+00 0. -1.
        -11    1    1    2    0    0  0.72661066664E+01 -0.78059093029E+01  0.49578688501E+03  0.49590156672E+03  0.00000000000E+00 0.  1.
         11    1    1    2    0    0 -0.83606958964E+01 -0.37772585822E+00 -0.47281038089E+03  0.47288444698E+03  0.00000000000E+00 0. -1.
        -15    1    1    2    0    0 -0.85672337532E+01  0.65296402117E+01 -0.96179027081E+01  0.14549758657E+02  0.17770000000E+01 0. -1.
         15    1    1    2    0    0  0.96618229831E+01  0.16539949494E+01 -0.13358601404E+02  0.16664227649E+02  0.17770000000E+01 0.  1.
</event>
<event>
 6    1  0.6506903E-004  0.5031250E+03  0.7546771E-02  0.9392844E-01
        -11   -1    0    0    0    0  0.00000000000E+00  0.00000000000E+00  0.50000000000E+03  0.50000000000E+03  0.00000000000E+00 0. -1.
         11   -1    0    0    0    0 -0.00000000000E+00 -0.00000000000E+00 -0.50000000000E+03  0.50000000000E+03  0.00000000000E+00 0. -1.
        -11    1    1    2    0    0 -0.75038114050E+01 -0.25571953376E+01  0.42746763004E+03  0.42754113389E+03  0.00000000000E+00 0. -1.
         11    1    1    2    0    0  0.15705306101E+01 -0.13909441655E+02 -0.49667780803E+03  0.49687501861E+03  0.00000000000E+00 0. -1.
        -15    1    1    2    0    0  0.12050577788E+02  0.13835025832E+01  0.17675575063E+02  0.21510792343E+02  0.17770000000E+01 0.  1.
         15    1    1    2    0    0 -0.61172969927E+01  0.15083134409E+02  0.51534602924E+02  0.54073055154E+02  0.17770000000E+01 0. -1.
</event>
<event>
 6    1  0.6506903E-004  0.4446218E+03  0.7546771E-02  0.9533033E-01
        -11   -1    0    0    0    0  0.00000000000E+00  0.00000000000E+00  0.50000000000E+03  0.50000000000E+03  0.00000000000E+00 0. -1.
         11   -1    0    0    0    0 -0.00000000000E+00 -0.00000000000E+00 -0.50000000000E+03  0.50000000000E+03  0.00000000000E+00 0. -1.
        -11    1    1    2    0    0 -0.38599573826E+01 -0.52149762791E+01  0.44731870470E+03  0.44736575509E+03  0.00000000000E+00 0. -1.
         11    1    1    2    0    0 -0.44669554043E+02 -0.74978874434E+02 -0.43824448538E+03  0.44685056746E+03  0.00000000000E+00 0. -1.
        -15    1    1    2    0    0  0.38056417724E+02  0.75869322100E+02  0.79363247716E+01  0.85267742703E+02  0.17770000000E+01 0.  1.
         15    1    1    2    0    0  0.10473093702E+02  0.43245286135E+01 -0.17010544089E+02  0.20515934749E+02  0.17770000000E+01 0. -1.
</event>
<event>
 6    1  0.6506903E-004  0.5015262E+03  0.7546771E-02  0.9396401E-01
        -11   -1    0    0    0    0  0.00000000000E+00  0.00000000000E+00  0.50000000000E+03  0.50000000000E+03  0.00000000000E+00 0.  1.
         11   -1    0    0    0    0 -0.00000000000E+00 -0.00000000000E+00 -0.50000000000E+03  0.50000000000E+03  0.00000000000E+00 0.  1.
        -11    1    1    2    0    0 -0.29252270977E+01 -0.63917308868E+01  0.49842425956E+03  0.49847382448E+03  0.00000000000E+00 0.  1.
         11    1    1    2    0    0  0.68010728179E+01 -0.93077904536E+01 -0.34970020876E+03  0.34989016214E+03  0.00000000000E+00 0.  1.
        -15    1    1    2    0    0  0.47772753898E+01  0.36982002749E+01 -0.82752759598E+01  0.10398892568E+02  0.17770000000E+01 0. -1.
         15    1    1    2    0    0 -0.86531211101E+01  0.12001321066E+02 -0.14044877484E+03  0.14123712081E+03  0.17770000000E+01 0.  1.
</event>
<event>
 6    1  0.6506903E-004  0.5004594E+03  0.7546771E-02  0.9398782E-01
        -11   -1    0    0    0    0  0.00000000000E+00  0.00000000000E+00  0.50000000000E+03  0.50000000000E+03  0.00000000000E+00 0.  1.
         11   -1    0    0    0    0 -0.00000000000E+00 -0.00000000000E+00 -0.50000000000E+03  0.50000000000E+03  0.00000000000E+00 0. -1.
        -11    1    1    2    0    0  0.13786982373E+02 -0.15898289798E+01  0.49934779673E+03  0.49954061950E+03  0.00000000000E+00 0.  1.
         11    1    1    2    0    0 -0.82287030461E+01  0.26552756864E+01 -0.49410604296E+02  0.50161437975E+02  0.00000000000E+00 0. -1.
        -15    1    1    2    0    0  0.25645043926E+01  0.53150053472E+01 -0.25899647894E+03  0.25906979715E+03  0.17770000000E+01 0. -1.
         15    1    1    2    0    0 -0.81227837199E+01 -0.63804520537E+01 -0.19094071349E+03  0.19122814537E+03  0.17770000000E+01 0.  1.
</event>
<event>
 6    1  0.6506903E-004  0.4847839E+03  0.7546771E-02  0.9434516E-01
        -11   -1    0    0    0    0  0.00000000000E+00  0.00000000000E+00  0.50000000000E+03  0.50000000000E+03  0.00000000000E+00 0.  1.
         11   -1    0    0    0    0 -0.00000000000E+00 -0.00000000000E+00 -0.50000000000E+03  0.50000000000E+03  0.00000000000E+00 0. -1.
        -11    1    1    2    0    0 -0.92645177799E+01  0.46866042827E+01  0.49189792776E+03  0.49200748661E+03  0.00000000000E+00 0.  1.
         11    1    1    2    0    0 -0.10573078452E+02  0.73170906562E+01 -0.47776755908E+03  0.47794055103E+03  0.00000000000E+00 0. -1.
        -15    1    1    2    0    0  0.15328434482E+02 -0.86677066408E+01 -0.16019838887E+02  0.23872222541E+02  0.17770000000E+01 0.  1.
         15    1    1    2    0    0  0.45091617499E+01 -0.33359882981E+01  0.18894702124E+01  0.61797398243E+01  0.17770000000E+01 0. -1.
</event>
<event>
 6    1  0.6506903E-004  0.5016384E+03  0.7546771E-02  0.9396151E-01
        -11   -1    0    0    0    0  0.00000000000E+00  0.00000000000E+00  0.50000000000E+03  0.50000000000E+03  0.00000000000E+00 0. -1.
         11   -1    0    0    0    0 -0.00000000000E+00 -0.00000000000E+00 -0.50000000000E+03  0.50000000000E+03  0.00000000000E+00 0. -1.
        -11    1    1    2    0    0 -0.88978587871E+01  0.34036918460E+01  0.49827052138E+03  0.49836158508E+03  0.00000000000E+00 0. -1.
         11    1    1    2    0    0 -0.76684892735E+01 -0.19863068539E+02 -0.37250365681E+03  0.37311167437E+03  0.00000000000E+00 0. -1.
        -15    1    1    2    0    0  0.19639886276E+01 -0.81351349776E+00 -0.57314628093E+01  0.63660388371E+01  0.17770000000E+01 0.  1.
         15    1    1    2    0    0  0.14602359433E+02  0.17272890190E+02 -0.12003540176E+03  0.12216070171E+03  0.17770000000E+01 0. -1.
</event>
<event>
 6    1  0.6506903E-004  0.5040546E+03  0.7546771E-02  0.9390783E-01
        -11   -1    0    0    0    0  0.00000000000E+00  0.00000000000E+00  0.50000000000E+03  0.50000000000E+03  0.00000000000E+00 0.  1.
         11   -1    0    0    0    0 -0.00000000000E+00 -0.00000000000E+00 -0.50000000000E+03  0.50000000000E+03  0.00000000000E+00 0. -1.
        -11    1    1    2    0    0 -0.35324957434E-01  0.75900288038E+01  0.49588734871E+03  0.49594543288E+03  0.00000000000E+00 0.  1.
         11    1    1    2    0    0  0.24091097699E+02 -0.80695795531E+00 -0.43924387810E+03  0.43990478131E+03  0.00000000000E+00 0. -1.
        -15    1    1    2    0    0 -0.78760005373E+01 -0.38582292783E+01 -0.57496174687E+01  0.10636406708E+02  0.17770000000E+01 0.  1.
         15    1    1    2    0    0 -0.16179772204E+02 -0.29248415702E+01 -0.50893853137E+02  0.53513379102E+02  0.17770000000E+01 0. -1.
</event>
<event>
 6    1  0.6506903E-004  0.5001570E+03  0.7546771E-02  0.9399458E-01
        -11   -1    0    0    0    0  0.00000000000E+00  0.00000000000E+00  0.50000000000E+03  0.50000000000E+03  0.00000000000E+00 0.  1.
         11   -1    0    0    0    0 -0.00000000000E+00 -0.00000000000E+00 -0.50000000000E+03  0.50000000000E+03  0.00000000000E+00 0. -1.
        -11    1    1    2    0    0  0.31727695514E+01  0.38556571729E+01  0.31952975622E+03  0.31956876829E+03  0.00000000000E+00 0.  1.
         11    1    1    2    0    0  0.13933939635E+01 -0.85215048932E+01 -0.49976839390E+03  0.49984298048E+03  0.00000000000E+00 0. -1.
        -15    1    1    2    0    0  0.14847441920E+01 -0.11113724460E+01  0.53268660954E+02  0.53330550183E+02  0.17770000000E+01 0.  1.
         15    1    1    2    0    0 -0.60509077069E+01  0.57772201663E+01  0.12696997672E+03  0.12725770105E+03  0.17770000000E+01 0. -1.
</event>
<event>
 6    1  0.6506903E-004  0.5022040E+03  0.7546771E-02  0.9394892E-01
        -11   -1    0    0    0    0  0.00000000000E+00  0.00000000000E+00  0.50000000000E+03  0.50000000000E+03  0.00000000000E+00 0.  1.
         11   -1    0    0    0    0 -0.00000000000E+00 -0.00000000000E+00 -0.50000000000E+03  0.50000000000E+03  0.00000000000E+00 0.  1.
        -11    1    1    2    0    0 -0.43505232366E+01 -0.56798208241E+01  0.48318816964E+03  0.48324113514E+03  0.00000000000E+00 0.  1.
         11    1    1    2    0    0  0.11817401781E+02  0.78040147249E+00 -0.49765509596E+03  0.49779599691E+03  0.00000000000E+00 0.  1.
        -15    1    1    2    0    0 -0.98895180845E+00  0.47035855440E+01  0.87494921411E+01  0.10139678712E+02  0.17770000000E+01 0.  1.
         15    1    1    2    0    0 -0.64779267363E+01  0.19583380762E+00  0.57174341761E+01  0.88231892329E+01  0.17770000000E+01 0. -1.
</event>
<event>
 6    1  0.6506903E-004  0.5040934E+03  0.7546771E-02  0.9390697E-01
        -11   -1    0    0    0    0  0.00000000000E+00  0.00000000000E+00  0.50000000000E+03  0.50000000000E+03  0.00000000000E+00 0.  1.
         11   -1    0    0    0    0 -0.00000000000E+00 -0.00000000000E+00 -0.50000000000E+03  0.50000000000E+03  0.00000000000E+00 0.  1.
        -11    1    1    2    0    0 -0.25482716001E+02 -0.13247868602E+02  0.49507423298E+03  0.49590661520E+03  0.00000000000E+00 0.  1.
         11    1    1    2    0    0  0.64608118872E+01  0.14256899126E+02 -0.11067226094E+02  0.19169891924E+02  0.00000000000E+00 0.  1.
        -15    1    1    2    0    0  0.21499020354E+02  0.15922867033E+01 -0.46478909580E+03  0.46529217117E+03  0.17770000000E+01 0.  1.
         15    1    1    2    0    0 -0.24771162395E+01 -0.26013172275E+01 -0.19217911088E+02  0.19631321702E+02  0.17770000000E+01 0. -1.
</event>
<event>
 6    1  0.6506903E-004  0.5129916E+03  0.7546771E-02  0.9371200E-01
        -11   -1    0    0    0    0  0.00000000000E+00  0.00000000000E+00  0.50000000000E+03  0.50000000000E+03  0.00000000000E+00 0.  1.
         11   -1    0    0    0    0 -0.00000000000E+00 -0.00000000000E+00 -0.50000000000E+03  0.50000000000E+03  0.00000000000E+00 0. -1.
        -11    1    1    2    0    0  0.30883600889E+01  0.62492005708E+01  0.48695851464E+03  0.48700840389E+03  0.00000000000E+00 0.  1.
         11    1    1    2    0    0  0.51014934705E+02  0.36314391129E+02 -0.25943085272E+03  0.26688129554E+03  0.00000000000E+00 0. -1.
        -15    1    1    2    0    0  0.56335887790E+01 -0.12494130529E+02 -0.66765653957E+01  0.15348448609E+02  0.17770000000E+01 0.  1.
         15    1    1    2    0    0 -0.59736883573E+02 -0.30069461171E+02 -0.22085109653E+03  0.23076185196E+03  0.17770000000E+01 0. -1.
</event>
<event>
 6    1  0.6506903E-004  0.5024126E+03  0.7546771E-02  0.9394427E-01
        -11   -1    0    0    0    0  0.00000000000E+00  0.00000000000E+00  0.50000000000E+03  0.50000000000E+03  0.00000000000E+00 0. -1.
         11   -1    0    0    0    0 -0.00000000000E+00 -0.00000000000E+00 -0.50000000000E+03  0.50000000000E+03  0.00000000000E+00 0.  1.
        -11    1    1    2    0    0  0.79642367057E+01 -0.60940295453E+01  0.49748629970E+03  0.49758736384E+03  0.00000000000E+00 0. -1.
         11    1    1    2    0    0 -0.11903229552E+02 -0.12086242359E+02 -0.44246477022E+03  0.44278983391E+03  0.00000000000E+00 0.  1.
        -15    1    1    2    0    0  0.18303732561E+01  0.38655902765E+00 -0.11558222011E+01  0.28272509791E+01  0.17770000000E+01 0. -1.
         15    1    1    2    0    0  0.21086195898E+01  0.17793712877E+02 -0.53865707280E+02  0.56795551272E+02  0.17770000000E+01 0.  1.
</event>
<event>
 6    1  0.6506903E-004  0.4933155E+03  0.7546771E-02  0.9414892E-01
        -11   -1    0    0    0    0  0.00000000000E+00  0.00000000000E+00  0.50000000000E+03  0.50000000000E+03  0.00000000000E+00 0. -1.
         11   -1    0    0    0    0 -0.00000000000E+00 -0.00000000000E+00 -0.50000000000E+03  0.50000000000E+03  0.00000000000E+00 0. -1.
        -11    1    1    2    0    0 -0.31758926074E+01  0.60075059424E+01  0.49400415151E+03  0.49405088618E+03  0.00000000000E+00 0. -1.
         11    1    1    2    0    0  0.80372423194E+01  0.39723386624E+01 -0.49256209046E+03  0.49264367416E+03  0.00000000000E+00 0. -1.
        -15    1    1    2    0    0 -0.42340067973E+00 -0.75058591924E+01  0.30160040999E-01  0.77250132026E+01  0.17770000000E+01 0.  1.
         15    1    1    2    0    0 -0.44379490322E+01 -0.24739854123E+01 -0.14722210989E+01  0.55804264530E+01  0.17770000000E+01 0. -1.
</event>
<event>
 6    1  0.6506903E-004  0.4544432E+03  0.7546771E-02  0.9507945E-01
        -11   -1    0    0    0    0  0.00000000000E+00  0.00000000000E+00  0.50000000000E+03  0.50000000000E+03  0.00000000000E+00 0.  1.
         11   -1    0    0    0    0 -0.00000000000E+00 -0.00000000000E+00 -0.50000000000E+03  0.50000000000E+03  0.00000000000E+00 0. -1.
        -11    1    1    2    0    0 -0.76644967958E+02 -0.42072340855E+02  0.43638961266E+03  0.44506227319E+03  0.00000000000E+00 0.  1.
         11    1    1    2    0    0  0.83743819811E+02  0.44980715525E+02  0.12768883051E+02  0.95913171671E+02  0.00000000000E+00 0. -1.
        -15    1    1    2    0    0 -0.19379360674E+02 -0.28793822661E+02 -0.64248913656E+02  0.73046043551E+02  0.17770000000E+01 0.  1.
         15    1    1    2    0    0  0.12280508821E+02  0.25885447991E+02 -0.38490958206E+03  0.38597851158E+03  0.17770000000E+01 0. -1.
</event>
<event>
 6    1  0.6506903E-004  0.4515014E+03  0.7546771E-02  0.9515388E-01
        -11   -1    0    0    0    0  0.00000000000E+00  0.00000000000E+00  0.50000000000E+03  0.50000000000E+03  0.00000000000E+00 0.  1.
         11   -1    0    0    0    0 -0.00000000000E+00 -0.00000000000E+00 -0.50000000000E+03  0.50000000000E+03  0.00000000000E+00 0.  1.
        -11    1    1    2    0    0  0.53484276257E+01 -0.12940589695E+02  0.45779764782E+03  0.45801173663E+03  0.00000000000E+00 0.  1.
         11    1    1    2    0    0 -0.28619688395E+02 -0.73402898706E+02 -0.44257811298E+03  0.44953582526E+03  0.00000000000E+00 0.  1.
        -15    1    1    2    0    0  0.45355014717E+01  0.85262453484E+01 -0.68129291149E+01  0.11951626060E+02  0.17770000000E+01 0. -1.
         15    1    1    2    0    0  0.18735759298E+02  0.77817243052E+02 -0.84066057262E+01  0.80500812055E+02  0.17770000000E+01 0.  1.
</event>
<event>
 6    1  0.6506903E-004  0.5011242E+03  0.7546771E-02  0.9397298E-01
        -11   -1    0    0    0    0  0.00000000000E+00  0.00000000000E+00  0.50000000000E+03  0.50000000000E+03  0.00000000000E+00 0.  1.
         11   -1    0    0    0    0 -0.00000000000E+00 -0.00000000000E+00 -0.50000000000E+03  0.50000000000E+03  0.00000000000E+00 0.  1.
        -11    1    1    2    0    0  0.63905347995E+01  0.25256488568E+01  0.49882847196E+03  0.49887579845E+03  0.00000000000E+00 0.  1.
         11    1    1    2    0    0  0.35892568929E+01 -0.53219992874E+01 -0.45171737407E+03  0.45176298263E+03  0.00000000000E+00 0.  1.
        -15    1    1    2    0    0 -0.70707064985E+01  0.22621756726E+00 -0.42320043007E+02  0.42944031412E+02  0.17770000000E+01 0.  1.
         15    1    1    2    0    0 -0.29090851938E+01  0.25701328634E+01 -0.47910548826E+01  0.64171875061E+01  0.17770000000E+01 0. -1.
</event>
<event>
 6    1  0.6506903E-004  0.5002026E+03  0.7546771E-02  0.9399356E-01
        -11   -1    0    0    0    0  0.00000000000E+00  0.00000000000E+00  0.50000000000E+03  0.50000000000E+03  0.00000000000E+00 0. -1.
         11   -1    0    0    0    0 -0.00000000000E+00 -0.00000000000E+00 -0.50000000000E+03  0.50000000000E+03  0.00000000000E+00 0.  1.
        -11    1    1    2    0    0  0.20083314890E+01  0.11733241445E+02  0.49965559329E+03  0.49979737320E+03  0.00000000000E+00 0. -1.
         11    1    1    2    0    0 -0.19736715140E+01 -0.15811626999E+02 -0.27117658345E+03  0.27164433058E+03  0.00000000000E+00 0.  1.
        -15    1    1    2    0    0 -0.11178773533E+01  0.16216194537E+01 -0.12874921540E+03  0.12877654093E+03  0.17770000000E+01 0.  1.
         15    1    1    2    0    0  0.10832173783E+01  0.24567660999E+01 -0.99729794444E+02  0.99781755288E+02  0.17770000000E+01 0. -1.
</event>
<event>
 6    1  0.6506903E-004  0.5064370E+03  0.7546771E-02  0.9385520E-01
        -11   -1    0    0    0    0  0.00000000000E+00  0.00000000000E+00  0.50000000000E+03  0.50000000000E+03  0.00000000000E+00 0.  1.
         11   -1    0    0    0    0 -0.00000000000E+00 -0.00000000000E+00 -0.50000000000E+03  0.50000000000E+03  0.00000000000E+00 0. -1.
        -11    1    1    2    0    0 -0.87171147205E+01 -0.16920593621E+02  0.44270125183E+03  0.44311024920E+03  0.00000000000E+00 0.  1.
         11    1    1    2    0    0  0.23389882287E+02 -0.16187595747E+02 -0.49274262653E+03  0.49356298570E+03  0.00000000000E+00 0. -1.
        -15    1    1    2    0    0 -0.88597698766E+01  0.20639845355E+02  0.40957695139E+02  0.46746007943E+02  0.17770000000E+01 0. -1.
         15    1    1    2    0    0 -0.58129976897E+01  0.12468344012E+02  0.90836795660E+01  0.16580757160E+02  0.17770000000E+01 0.  1.
</event>
<event>
 6    1  0.6506903E-004  0.5009478E+03  0.7546771E-02  0.9397691E-01
        -11   -1    0    0    0    0  0.00000000000E+00  0.00000000000E+00  0.50000000000E+03  0.50000000000E+03  0.00000000000E+00 0. -1.
         11   -1    0    0    0    0 -0.00000000000E+00 -0.00000000000E+00 -0.50000000000E+03  0.50000000000E+03  0.00000000000E+00 0.  1.
        -11    1    1    2    0    0 -0.67764835683E+01  0.46741949289E+01  0.49898426638E+03  0.49905216854E+03  0.00000000000E+00 0. -1.
         11    1    1    2    0    0 -0.69060496535E+00  0.10117577153E+02 -0.24057124550E+03  0.24078489667E+03  0.00000000000E+00 0.  1.
        -15    1    1    2    0    0  0.15481888769E+02 -0.48344150255E+01 -0.11199488330E+03  0.11317717112E+03  0.17770000000E+01 0.  1.
         15    1    1    2    0    0 -0.80148002351E+01 -0.99573570560E+01 -0.14641813757E+03  0.14698576367E+03  0.17770000000E+01 0. -1.
</event>
<event>
 6    1  0.6506903E-004  0.5004210E+03  0.7546771E-02  0.9398868E-01
        -11   -1    0    0    0    0  0.00000000000E+00  0.00000000000E+00  0.50000000000E+03  0.50000000000E+03  0.00000000000E+00 0. -1.
         11   -1    0    0    0    0 -0.00000000000E+00 -0.00000000000E+00 -0.50000000000E+03  0.50000000000E+03  0.00000000000E+00 0.  1.
        -11    1    1    2    0    0  0.64087561135E+01 -0.36240157891E+01  0.49952470463E+03  0.49957895891E+03  0.00000000000E+00 0. -1.
         11    1    1    2    0    0 -0.81882123439E+01 -0.10176136906E+02 -0.31703904294E+03  0.31730798183E+03  0.00000000000E+00 0.  1.
        -15    1    1    2    0    0  0.71152347361E-01  0.11704407105E+02 -0.15011609924E+03  0.15058220077E+03  0.17770000000E+01 0.  1.
         15    1    1    2    0    0  0.17083038831E+01  0.20957455901E+01 -0.32369562451E+02  0.32530858488E+02  0.17770000000E+01 0. -1.
</event>
<event>
 6    1  0.6506903E-004  0.5003168E+03  0.7546771E-02  0.9399101E-01
        -11   -1    0    0    0    0  0.00000000000E+00  0.00000000000E+00  0.50000000000E+03  0.50000000000E+03  0.00000000000E+00 0. -1.
         11   -1    0    0    0    0 -0.00000000000E+00 -0.00000000000E+00 -0.50000000000E+03  0.50000000000E+03  0.00000000000E+00 0. -1.
        -11    1    1    2    0    0  0.76422651204E+01 -0.93549499965E+00  0.49962389282E+03  0.49968321329E+03  0.00000000000E+00 0. -1.
         11    1    1    2    0    0  0.44504377244E+01  0.26398790780E+01 -0.34059734952E+03  0.34063665372E+03  0.00000000000E+00 0. -1.
        -15    1    1    2    0    0 -0.11906100820E+02 -0.22486242992E+01 -0.14702289541E+03  0.14753203398E+03  0.17770000000E+01 0. -1.
         15    1    1    2    0    0 -0.18660202494E+00  0.54424022090E+00 -0.12003647888E+02  0.12148099001E+02  0.17770000000E+01 0.  1.
</event>
<event>
 6    1  0.6506903E-004  0.5001453E+03  0.7546771E-02  0.9399485E-01
        -11   -1    0    0    0    0  0.00000000000E+00  0.00000000000E+00  0.50000000000E+03  0.50000000000E+03  0.00000000000E+00 0.  1.
         11   -1    0    0    0    0 -0.00000000000E+00 -0.00000000000E+00 -0.50000000000E+03  0.50000000000E+03  0.00000000000E+00 0.  1.
        -11    1    1    2    0    0 -0.20808350247E+01  0.14547844513E+02  0.49963857087E+03  0.49985465003E+03  0.00000000000E+00 0.  1.
         11    1    1    2    0    0 -0.13383509639E+01 -0.94618807033E+01 -0.35547321133E+03  0.35560163433E+03  0.00000000000E+00 0.  1.
        -15    1    1    2    0    0  0.48697562237E+01 -0.56116361990E+01 -0.88674190451E+02  0.89002667194E+02  0.17770000000E+01 0. -1.
         15    1    1    2    0    0 -0.14505702351E+01  0.52567238973E+00 -0.55491169093E+02  0.55541048440E+02  0.17770000000E+01 0.  1.
</event>
<event>
 6    1  0.6506903E-004  0.5000742E+03  0.7546771E-02  0.9399644E-01
        -11   -1    0    0    0    0  0.00000000000E+00  0.00000000000E+00  0.50000000000E+03  0.50000000000E+03  0.00000000000E+00 0. -1.
         11   -1    0    0    0    0 -0.00000000000E+00 -0.00000000000E+00 -0.50000000000E+03  0.50000000000E+03  0.00000000000E+00 0. -1.
        -11    1    1    2    0    0  0.97840582520E+01  0.37855314565E+01  0.49981567800E+03  0.49992576450E+03  0.00000000000E+00 0. -1.
         11    1    1    2    0    0 -0.66284091191E+01 -0.14847952012E+01 -0.12084459144E+03  0.12103534899E+03  0.00000000000E+00 0. -1.
        -15    1    1    2    0    0 -0.31626842310E+01 -0.33884466425E+01 -0.29613221791E+03  0.29617382118E+03  0.17770000000E+01 0. -1.
         15    1    1    2    0    0  0.70350980647E-02  0.10877103871E+01 -0.82838868649E+02  0.82865065325E+02  0.17770000000E+01 0. -1.
</event>
<event>
 6    1  0.6506903E-004  0.4852754E+03  0.7546771E-02  0.9433373E-01
        -11   -1    0    0    0    0  0.00000000000E+00  0.00000000000E+00  0.50000000000E+03  0.50000000000E+03  0.00000000000E+00 0.  1.
         11   -1    0    0    0    0 -0.00000000000E+00 -0.00000000000E+00 -0.50000000000E+03  0.50000000000E+03  0.00000000000E+00 0.  1.
        -11    1    1    2    0    0  0.62207065203E+01  0.10872574498E+02  0.48392057059E+03  0.48408266723E+03  0.00000000000E+00 0.  1.
         11    1    1    2    0    0  0.48673718683E+01 -0.29203579502E+02 -0.48580514202E+03  0.48670645812E+03  0.00000000000E+00 0.  1.
        -15    1    1    2    0    0 -0.47748654650E+01  0.19347487089E+02 -0.39274529766E+01  0.20388899253E+02  0.17770000000E+01 0.  1.
         15    1    1    2    0    0 -0.63132129236E+01 -0.10164820860E+01  0.58120244027E+01  0.88219753971E+01  0.17770000000E+01 0. -1.
</event>
<event>
 6    1  0.6506903E-004  0.5044733E+03  0.7546771E-02  0.9389856E-01
        -11   -1    0    0    0    0  0.00000000000E+00  0.00000000000E+00  0.50000000000E+03  0.50000000000E+03  0.00000000000E+00 0.  1.
         11   -1    0    0    0    0 -0.00000000000E+00 -0.00000000000E+00 -0.50000000000E+03  0.50000000000E+03  0.00000000000E+00 0. -1.
        -11    1    1    2    0    0  0.29800123920E+01 -0.88285645728E+01  0.35986493864E+03  0.35998555262E+03  0.00000000000E+00 0.  1.
         11    1    1    2    0    0  0.53224533468E+02  0.13958996379E+02 -0.49246217860E+03  0.49552669140E+03  0.00000000000E+00 0. -1.
        -15    1    1    2    0    0 -0.99469180411E+01  0.19662890075E+01  0.29721442870E+02  0.31453606570E+02  0.17770000000E+01 0.  1.
         15    1    1    2    0    0 -0.46257627818E+02 -0.70967208137E+01  0.10287579709E+03  0.11303414941E+03  0.17770000000E+01 0. -1.
</event>
<event>
 6    1  0.6506903E-004  0.4782690E+03  0.7546771E-02  0.9449792E-01
        -11   -1    0    0    0    0  0.00000000000E+00  0.00000000000E+00  0.50000000000E+03  0.50000000000E+03  0.00000000000E+00 0.  1.
         11   -1    0    0    0    0 -0.00000000000E+00 -0.00000000000E+00 -0.50000000000E+03  0.50000000000E+03  0.00000000000E+00 0. -1.
        -11    1    1    2    0    0 -0.16885519509E+01  0.18197965374E+02  0.48362244051E+03  0.48396764574E+03  0.00000000000E+00 0.  1.
         11    1    1    2    0    0 -0.20203843401E+02  0.37388525799E+01 -0.47268834112E+03  0.47313469767E+03  0.00000000000E+00 0. -1.
        -15    1    1    2    0    0  0.58176026819E+01  0.42104919472E+01  0.43302869663E+01  0.85721559489E+01  0.17770000000E+01 0. -1.
         15    1    1    2    0    0  0.16074792670E+02 -0.26147309901E+02 -0.15264386356E+02  0.34325500641E+02  0.17770000000E+01 0.  1.
</event>
<event>
 6    1  0.6506903E-004  0.5001166E+03  0.7546771E-02  0.9399549E-01
        -11   -1    0    0    0    0  0.00000000000E+00  0.00000000000E+00  0.50000000000E+03  0.50000000000E+03  0.00000000000E+00 0. -1.
         11   -1    0    0    0    0 -0.00000000000E+00 -0.00000000000E+00 -0.50000000000E+03  0.50000000000E+03  0.00000000000E+00 0.  1.
        -11    1    1    2    0    0  0.43906079008E+01 -0.71160936630E+01  0.49981344937E+03  0.49988338680E+03  0.00000000000E+00 0. -1.
         11    1    1    2    0    0  0.23882138569E+01  0.21504700974E+00 -0.38845320101E+02  0.38919258785E+02  0.00000000000E+00 0.  1.
        -15    1    1    2    0    0 -0.81996601354E+01  0.35433157524E+01 -0.21118124871E+03  0.21137754623E+03  0.17770000000E+01 0. -1.
         15    1    1    2    0    0  0.14208383776E+01  0.33577309009E+01 -0.24978688055E+03  0.24981980819E+03  0.17770000000E+01 0.  1.
</event>
<event>
 6    1  0.6506903E-004  0.4754136E+03  0.7546771E-02  0.9456569E-01
        -11   -1    0    0    0    0  0.00000000000E+00  0.00000000000E+00  0.50000000000E+03  0.50000000000E+03  0.00000000000E+00 0.  1.
         11   -1    0    0    0    0 -0.00000000000E+00 -0.00000000000E+00 -0.50000000000E+03  0.50000000000E+03  0.00000000000E+00 0.  1.
        -11    1    1    2    0    0  0.19758385251E+02  0.16726951191E+01  0.48362794653E+03  0.48403427808E+03  0.00000000000E+00 0.  1.
         11    1    1    2    0    0 -0.29209816335E+02  0.30078793814E+02 -0.46565579440E+03  0.46753958770E+03  0.00000000000E+00 0.  1.
        -15    1    1    2    0    0 -0.74503916565E+01 -0.25007771007E+02 -0.68938320897E+01  0.27047728120E+02  0.17770000000E+01 0. -1.
         15    1    1    2    0    0  0.16901822741E+02 -0.67437179261E+01 -0.11078320041E+02  0.21378406100E+02  0.17770000000E+01 0.  1.
</event>
<event>
 6    1  0.6506903E-004  0.5008993E+03  0.7546771E-02  0.9397800E-01
        -11   -1    0    0    0    0  0.00000000000E+00  0.00000000000E+00  0.50000000000E+03  0.50000000000E+03  0.00000000000E+00 0.  1.
         11   -1    0    0    0    0 -0.00000000000E+00 -0.00000000000E+00 -0.50000000000E+03  0.50000000000E+03  0.00000000000E+00 0. -1.
        -11    1    1    2    0    0  0.87078791080E+02 -0.33947119467E+02  0.30211528608E+03  0.31624163050E+03  0.00000000000E+00 0.  1.
         11    1    1    2    0    0 -0.12343862920E+03  0.34457272006E+02 -0.48236617214E+03  0.49910071409E+03  0.00000000000E+00 0. -1.
        -15    1    1    2    0    0  0.36576725668E+02  0.18999873318E+01  0.17230111931E+03  0.17615987130E+03  0.17770000000E+01 0.  1.
         15    1    1    2    0    0 -0.21688754619E+00 -0.24101398704E+01  0.79497667503E+01  0.84977841104E+01  0.17770000000E+01 0. -1.
</event>
<event>
 6    1  0.6506903E-004  0.5001254E+03  0.7546771E-02  0.9399529E-01
        -11   -1    0    0    0    0  0.00000000000E+00  0.00000000000E+00  0.50000000000E+03  0.50000000000E+03  0.00000000000E+00 0. -1.
         11   -1    0    0    0    0 -0.00000000000E+00 -0.00000000000E+00 -0.50000000000E+03  0.50000000000E+03  0.00000000000E+00 0. -1.
        -11    1    1    2    0    0 -0.50996494774E+01  0.12800901481E+02  0.36778561595E+03  0.36804365068E+03  0.00000000000E+00 0. -1.
         11    1    1    2    0    0 -0.10438001762E+01 -0.18927794249E+02 -0.49951505555E+03  0.49987462592E+03  0.00000000000E+00 0. -1.
        -15    1    1    2    0    0  0.30037857460E+01  0.27366374372E+01  0.47377978890E+02  0.47585108238E+02  0.17770000000E+01 0.  1.
         15    1    1    2    0    0  0.31396639076E+01  0.33902553300E+01  0.84351460711E+02  0.84496615162E+02  0.17770000000E+01 0.  1.
</event>
<event>
 6    1  0.6506903E-004  0.5014153E+03  0.7546771E-02  0.9396648E-01
        -11   -1    0    0    0    0  0.00000000000E+00  0.00000000000E+00  0.50000000000E+03  0.50000000000E+03  0.00000000000E+00 0.  1.
         11   -1    0    0    0    0 -0.00000000000E+00 -0.00000000000E+00 -0.50000000000E+03  0.50000000000E+03  0.00000000000E+00 0.  1.
        -11    1    1    2    0    0  0.13406425578E+02 -0.50067753110E+00  0.49840420389E+03  0.49858473039E+03  0.00000000000E+00 0.  1.
         11    1    1    2    0    0 -0.17181871774E+02  0.26132324255E+01 -0.49798581562E+02  0.52744141162E+02  0.00000000000E+00 0.  1.
        -15    1    1    2    0    0  0.95927770186E+00  0.16561215555E+01 -0.17130645307E+03  0.17132635975E+03  0.17770000000E+01 0. -1.
         15    1    1    2    0    0  0.28161684946E+01 -0.37686764499E+01 -0.27729916925E+03  0.27734476870E+03  0.17770000000E+01 0.  1.
</event>
<event>
 6    1  0.6506903E-004  0.5004629E+03  0.7546771E-02  0.9398774E-01
        -11   -1    0    0    0    0  0.00000000000E+00  0.00000000000E+00  0.50000000000E+03  0.50000000000E+03  0.00000000000E+00 0.  1.
         11   -1    0    0    0    0 -0.00000000000E+00 -0.00000000000E+00 -0.50000000000E+03  0.50000000000E+03  0.00000000000E+00 0. -1.
        -11    1    1    2    0    0 -0.42075489179E+01  0.66568170804E+01  0.49947500009E+03  0.49953707810E+03  0.00000000000E+00 0.  1.
         11    1    1    2    0    0  0.69086483679E+01  0.52130630774E+01 -0.37248782372E+03  0.37258835767E+03  0.00000000000E+00 0. -1.
        -15    1    1    2    0    0 -0.51378427766E+01 -0.98023407956E+01 -0.86646862023E+02  0.87368871693E+02  0.17770000000E+01 0.  1.
         15    1    1    2    0    0  0.24367433267E+01 -0.20675393622E+01 -0.40340314346E+02  0.40505692533E+02  0.17770000000E+01 0. -1.
</event>
<event>
 6    1  0.6506903E-004  0.4680355E+03  0.7546771E-02  0.9474318E-01
        -11   -1    0    0    0    0  0.00000000000E+00  0.00000000000E+00  0.50000000000E+03  0.50000000000E+03  0.00000000000E+00 0. -1.
         11   -1    0    0    0    0 -0.00000000000E+00 -0.00000000000E+00 -0.50000000000E+03  0.50000000000E+03  0.00000000000E+00 0.  1.
        -11    1    1    2    0    0 -0.23099053837E+01  0.79665056744E+01  0.47372544804E+03  0.47379805930E+03  0.00000000000E+00 0. -1.
         11    1    1    2    0    0  0.42858594653E+02  0.14914812733E+02 -0.46128599171E+03  0.46351275810E+03  0.00000000000E+00 0.  1.
        -15    1    1    2    0    0  0.15876995414E+01 -0.34045510240E+01  0.10198553083E+02  0.11012718624E+02  0.17770000000E+01 0.  1.
         15    1    1    2    0    0 -0.42136388811E+02 -0.19476767383E+02 -0.22638009413E+02  0.51676463975E+02  0.17770000000E+01 0. -1.
</event>
<event>
 6    1  0.6506903E-004  0.5069355E+03  0.7546771E-02  0.9384423E-01
        -11   -1    0    0    0    0  0.00000000000E+00  0.00000000000E+00  0.50000000000E+03  0.50000000000E+03  0.00000000000E+00 0.  1.
         11   -1    0    0    0    0 -0.00000000000E+00 -0.00000000000E+00 -0.50000000000E+03  0.50000000000E+03  0.00000000000E+00 0.  1.
        -11    1    1    2    0    0 -0.87402975302E+01  0.14584787851E+02  0.49277125386E+03  0.49306451654E+03  0.00000000000E+00 0.  1.
         11    1    1    2    0    0  0.23502793998E+02 -0.11312774095E+02 -0.48029661355E+03  0.48100436294E+03  0.00000000000E+00 0.  1.
        -15    1    1    2    0    0 -0.62418711484E+01 -0.45349012204E+00 -0.15075784826E+02  0.16419611014E+02  0.17770000000E+01 0.  1.
         15    1    1    2    0    0 -0.85206253196E+01 -0.28185236337E+01  0.26011445065E+01  0.95115095045E+01  0.17770000000E+01 0. -1.
</event>
<event>
 6    1  0.6506903E-004  0.5023273E+03  0.7546771E-02  0.9394617E-01
        -11   -1    0    0    0    0  0.00000000000E+00  0.00000000000E+00  0.50000000000E+03  0.50000000000E+03  0.00000000000E+00 0. -1.
         11   -1    0    0    0    0 -0.00000000000E+00 -0.00000000000E+00 -0.50000000000E+03  0.50000000000E+03  0.00000000000E+00 0. -1.
        -11    1    1    2    0    0 -0.30762832155E+02 -0.30998634200E+02  0.49575279879E+03  0.49767268829E+03  0.00000000000E+00 0. -1.
         11    1    1    2    0    0  0.17474588841E+02 -0.29554538818E+01 -0.19446560279E+03  0.19527152027E+03  0.00000000000E+00 0. -1.
        -15    1    1    2    0    0  0.26942740119E+02  0.34084842214E+02 -0.25776729276E+03  0.26140930102E+03  0.17770000000E+01 0. -1.
         15    1    1    2    0    0 -0.13654496806E+02 -0.13075413262E+00 -0.43519903248E+02  0.45646490417E+02  0.17770000000E+01 0.  1.
</event>
<event>
 6    1  0.6506903E-004  0.5016427E+03  0.7546771E-02  0.9396142E-01
        -11   -1    0    0    0    0  0.00000000000E+00  0.00000000000E+00  0.50000000000E+03  0.50000000000E+03  0.00000000000E+00 0.  1.
         11   -1    0    0    0    0 -0.00000000000E+00 -0.00000000000E+00 -0.50000000000E+03  0.50000000000E+03  0.00000000000E+00 0.  1.
        -11    1    1    2    0    0  0.10851544311E+02  0.53780339262E-01  0.49823912882E+03  0.49835728990E+03  0.00000000000E+00 0.  1.
         11    1    1    2    0    0 -0.68194065623E+01 -0.90540447405E+01 -0.45324449772E+03  0.45338620925E+03  0.00000000000E+00 0.  1.
        -15    1    1    2    0    0 -0.84565833724E+01  0.92399640478E+01 -0.33558009481E+02  0.35863469816E+02  0.17770000000E+01 0.  1.
         15    1    1    2    0    0  0.44244456239E+01 -0.23969964658E+00 -0.11436621623E+02  0.12393031032E+02  0.17770000000E+01 0.  1.
</event>
<event>
 6    1  0.6506903E-004  0.4901524E+03  0.7546771E-02  0.9422118E-01
        -11   -1    0    0    0    0  0.00000000000E+00  0.00000000000E+00  0.50000000000E+03  0.50000000000E+03  0.00000000000E+00 0. -1.
         11   -1    0    0    0    0 -0.00000000000E+00 -0.00000000000E+00 -0.50000000000E+03  0.50000000000E+03  0.00000000000E+00 0. -1.
        -11    1    1    2    0    0 -0.85344033419E+01 -0.48424883794E+01  0.49056319920E+03  0.49066132734E+03  0.00000000000E+00 0. -1.
         11    1    1    2    0    0 -0.64467184772E+01 -0.50629300510E+01 -0.48973968018E+03  0.48980827656E+03  0.00000000000E+00 0. -1.
        -15    1    1    2    0    0  0.14884269458E+02  0.84079290510E+01 -0.75322232292E+00  0.17203482818E+02  0.17770000000E+01 0. -1.
         15    1    1    2    0    0  0.96852361638E-01  0.14974893794E+01 -0.70296700814E-01  0.23269132875E+01  0.17770000000E+01 0.  1.
</event>
<event>
 6    1  0.6506903E-004  0.5005522E+03  0.7546771E-02  0.9398575E-01
        -11   -1    0    0    0    0  0.00000000000E+00  0.00000000000E+00  0.50000000000E+03  0.50000000000E+03  0.00000000000E+00 0. -1.
         11   -1    0    0    0    0 -0.00000000000E+00 -0.00000000000E+00 -0.50000000000E+03  0.50000000000E+03  0.00000000000E+00 0. -1.
        -11    1    1    2    0    0 -0.11130872181E+00 -0.59979990735E+01  0.42549309968E+03  0.42553538779E+03  0.00000000000E+00 0. -1.
         11    1    1    2    0    0 -0.83051709282E+01  0.37201811636E+01 -0.49936484637E+03  0.49944776043E+03  0.00000000000E+00 0. -1.
        -15    1    1    2    0    0  0.24152237912E+01  0.41638538454E+01  0.16644124926E+02  0.17417106774E+02  0.17770000000E+01 0.  1.
         15    1    1    2    0    0  0.60012558587E+01 -0.18860359354E+01  0.57227621759E+02  0.57599745004E+02  0.17770000000E+01 0. -1.
</event>
<event>
 6    1  0.6506903E-004  0.5086251E+03  0.7546771E-02  0.9380715E-01
        -11   -1    0    0    0    0  0.00000000000E+00  0.00000000000E+00  0.50000000000E+03  0.50000000000E+03  0.00000000000E+00 0.  1.
         11   -1    0    0    0    0 -0.00000000000E+00 -0.00000000000E+00 -0.50000000000E+03  0.50000000000E+03  0.00000000000E+00 0.  1.
        -11    1    1    2    0    0  0.16045579450E+02 -0.12253072654E+02  0.49095997474E+03  0.49137490291E+03  0.00000000000E+00 0.  1.
         11    1    1    2    0    0 -0.24326042495E+02 -0.13249720931E+02 -0.46653606822E+03  0.46735769427E+03  0.00000000000E+00 0.  1.
        -15    1    1    2    0    0  0.17883786850E+01  0.10860064419E+01  0.29118323284E+01  0.40017752088E+01  0.17770000000E+01 0.  1.
         15    1    1    2    0    0  0.64920843607E+01  0.24416787144E+02 -0.27335738850E+02  0.37265627611E+02  0.17770000000E+01 0. -1.
</event>
<event>
 6    1  0.6506903E-004  0.5001140E+03  0.7546771E-02  0.9399555E-01
        -11   -1    0    0    0    0  0.00000000000E+00  0.00000000000E+00  0.50000000000E+03  0.50000000000E+03  0.00000000000E+00 0. -1.
         11   -1    0    0    0    0 -0.00000000000E+00 -0.00000000000E+00 -0.50000000000E+03  0.50000000000E+03  0.00000000000E+00 0. -1.
        -11    1    1    2    0    0 -0.13080009260E+02 -0.34860379001E+01  0.49970265857E+03  0.49988597309E+03  0.00000000000E+00 0. -1.
         11    1    1    2    0    0  0.83135202063E+01  0.14805206055E+01 -0.13942014490E+03  0.13967563625E+03  0.00000000000E+00 0. -1.
        -15    1    1    2    0    0 -0.16598164982E+01 -0.15623656435E+01 -0.75003078832E+02  0.75058747262E+02  0.17770000000E+01 0.  1.
         15    1    1    2    0    0  0.64263055522E+01  0.35678829381E+01 -0.28527943485E+03  0.28537964340E+03  0.17770000000E+01 0. -1.
</event>
<event>
 6    1  0.6506903E-004  0.5001054E+03  0.7546771E-02  0.9399574E-01
        -11   -1    0    0    0    0  0.00000000000E+00  0.00000000000E+00  0.50000000000E+03  0.50000000000E+03  0.00000000000E+00 0.  1.
         11   -1    0    0    0    0 -0.00000000000E+00 -0.00000000000E+00 -0.50000000000E+03  0.50000000000E+03  0.00000000000E+00 0. -1.
        -11    1    1    2    0    0 -0.84039185995E+00  0.73364063059E+01  0.49984005768E+03  0.49989460127E+03  0.00000000000E+00 0.  1.
         11    1    1    2    0    0 -0.52245759949E+01 -0.54617299220E+01 -0.23153887945E+03  0.23166220967E+03  0.00000000000E+00 0. -1.
        -15    1    1    2    0    0  0.41387021493E+01 -0.58147630755E+00 -0.86994597137E+02  0.87113056600E+02  0.17770000000E+01 0. -1.
         15    1    1    2    0    0  0.19262657056E+01 -0.12932000763E+01 -0.18130658109E+03  0.18133013247E+03  0.17770000000E+01 0.  1.
</event>
<event>
 6    1  0.6506903E-004  0.5058726E+03  0.7546771E-02  0.9386764E-01
        -11   -1    0    0    0    0  0.00000000000E+00  0.00000000000E+00  0.50000000000E+03  0.50000000000E+03  0.00000000000E+00 0. -1.
         11   -1    0    0    0    0 -0.00000000000E+00 -0.00000000000E+00 -0.50000000000E+03  0.50000000000E+03  0.00000000000E+00 0.  1.
        -11    1    1    2    0    0  0.12664126133E+02 -0.13673927434E+02  0.44657961099E+03  0.44696834937E+03  0.00000000000E+00 0. -1.
         11    1    1    2    0    0 -0.23236100308E+02  0.18181252350E+02 -0.49324578080E+03  0.49412738699E+03  0.00000000000E+00 0.  1.
        -15    1    1    2    0    0  0.12614915133E+02 -0.18063973935E+02  0.29544926057E+02  0.36898558547E+02  0.17770000000E+01 0. -1.
         15    1    1    2    0    0 -0.20429409576E+01  0.13556649019E+02  0.17121243749E+02  0.22005705098E+02  0.17770000000E+01 0.  1.
</event>
<event>
 6    1  0.6506903E-004  0.5041895E+03  0.7546771E-02  0.9390484E-01
        -11   -1    0    0    0    0  0.00000000000E+00  0.00000000000E+00  0.50000000000E+03  0.50000000000E+03  0.00000000000E+00 0.  1.
         11   -1    0    0    0    0 -0.00000000000E+00 -0.00000000000E+00 -0.50000000000E+03  0.50000000000E+03  0.00000000000E+00 0. -1.
        -11    1    1    2    0    0 -0.30582948094E+01  0.94979384143E+01  0.49571004897E+03  0.49581046445E+03  0.00000000000E+00 0.  1.
         11    1    1    2    0    0 -0.23165485751E+01 -0.14733382186E+02 -0.48302674234E+03  0.48325694280E+03  0.00000000000E+00 0. -1.
        -15    1    1    2    0    0  0.29627981347E+01 -0.24002162511E+01  0.15679183078E+01  0.44894663000E+01  0.17770000000E+01 0.  1.
         15    1    1    2    0    0  0.24120452498E+01  0.76356600227E+01 -0.14251224945E+02  0.16443126458E+02  0.17770000000E+01 0. -1.
</event>
<event>
 6    1  0.6506903E-004  0.5013618E+03  0.7546771E-02  0.9396768E-01
        -11   -1    0    0    0    0  0.00000000000E+00  0.00000000000E+00  0.50000000000E+03  0.50000000000E+03  0.00000000000E+00 0. -1.
         11   -1    0    0    0    0 -0.00000000000E+00 -0.00000000000E+00 -0.50000000000E+03  0.50000000000E+03  0.00000000000E+00 0.  1.
        -11    1    1    2    0    0 -0.86526317027E+01  0.18669331738E+01  0.37311461402E+03  0.37321959845E+03  0.00000000000E+00 0. -1.
         11    1    1    2    0    0 -0.75948131618E+01 -0.12104347484E+02 -0.49843336531E+03  0.49863816147E+03  0.00000000000E+00 0.  1.
        -15    1    1    2    0    0  0.12785915335E+02  0.74130066382E+00  0.99849294030E+02  0.10068300951E+03  0.17770000000E+01 0.  1.
         15    1    1    2    0    0  0.34615295295E+01  0.94961136463E+01  0.25469457261E+02  0.27459230565E+02  0.17770000000E+01 0. -1.
</event>
<event>
 6    1  0.6506903E-004  0.5000696E+03  0.7546771E-02  0.9399654E-01
        -11   -1    0    0    0    0  0.00000000000E+00  0.00000000000E+00  0.50000000000E+03  0.50000000000E+03  0.00000000000E+00 0.  1.
         11   -1    0    0    0    0 -0.00000000000E+00 -0.00000000000E+00 -0.50000000000E+03  0.50000000000E+03  0.00000000000E+00 0.  1.
        -11    1    1    2    0    0  0.49753299512E+01  0.51445243625E+01  0.14871752790E+03  0.14888963411E+03  0.00000000000E+00 0.  1.
         11    1    1    2    0    0 -0.37614631001E+01 -0.11149874045E+02 -0.49979192175E+03  0.49993042850E+03  0.00000000000E+00 0.  1.
        -15    1    1    2    0    0 -0.23573587372E+01  0.38480767219E+01  0.14008254022E+03  0.14016647473E+03  0.17770000000E+01 0.  1.
         15    1    1    2    0    0  0.11434918862E+01  0.21572729604E+01  0.21099185362E+03  0.21101346266E+03  0.17770000000E+01 0. -1.
</event>
<event>
 6    1  0.6506903E-004  0.5005013E+03  0.7546771E-02  0.9398689E-01
        -11   -1    0    0    0    0  0.00000000000E+00  0.00000000000E+00  0.50000000000E+03  0.50000000000E+03  0.00000000000E+00 0. -1.
         11   -1    0    0    0    0 -0.00000000000E+00 -0.00000000000E+00 -0.50000000000E+03  0.50000000000E+03  0.00000000000E+00 0. -1.
        -11    1    1    2    0    0 -0.45831999480E+01  0.76286002309E+01  0.49941936944E+03  0.49949865649E+03  0.00000000000E+00 0. -1.
         11    1    1    2    0    0 -0.22921396482E+01  0.68025082891E+01 -0.23722294007E+03  0.23733152196E+03  0.00000000000E+00 0. -1.
        -15    1    1    2    0    0  0.17863895357E+01 -0.10247163943E+01 -0.15268669866E+03  0.15271092596E+03  0.17770000000E+01 0.  1.
         15    1    1    2    0    0  0.50889500605E+01 -0.13406392126E+02 -0.10950973072E+03  0.11045889558E+03  0.17770000000E+01 0. -1.
</event>
<event>
 6    1  0.6506903E-004  0.5117850E+03  0.7546771E-02  0.9373819E-01
        -11   -1    0    0    0    0  0.00000000000E+00  0.00000000000E+00  0.50000000000E+03  0.50000000000E+03  0.00000000000E+00 0.  1.
         11   -1    0    0    0    0 -0.00000000000E+00 -0.00000000000E+00 -0.50000000000E+03  0.50000000000E+03  0.00000000000E+00 0. -1.
        -11    1    1    2    0    0 -0.28036739310E+02 -0.35674475580E+02  0.48610196248E+03  0.48821495766E+03  0.00000000000E+00 0.  1.
         11    1    1    2    0    0 -0.21997984773E+02  0.20041805767E+02 -0.42859288343E+03  0.42962477238E+03  0.00000000000E+00 0. -1.
        -15    1    1    2    0    0  0.10899237455E+02 -0.39643840940E+01 -0.27765681771E+01  0.12057229292E+02  0.17770000000E+01 0.  1.
         15    1    1    2    0    0  0.39135486627E+02  0.19597053907E+02 -0.54732510873E+02  0.70103040667E+02  0.17770000000E+01 0. -1.
</event>
<event>
 6    1  0.6506903E-004  0.5016654E+03  0.7546771E-02  0.9396091E-01
        -11   -1    0    0    0    0  0.00000000000E+00  0.00000000000E+00  0.50000000000E+03  0.50000000000E+03  0.00000000000E+00 0.  1.
         11   -1    0    0    0    0 -0.00000000000E+00 -0.00000000000E+00 -0.50000000000E+03  0.50000000000E+03  0.00000000000E+00 0. -1.
        -11    1    1    2    0    0 -0.13359007800E+01 -0.83009893605E+01  0.49826362312E+03  0.49833455547E+03  0.00000000000E+00 0.  1.
         11    1    1    2    0    0 -0.11212002576E+02 -0.92278411210E+01 -0.32338348258E+03  0.32370934318E+03  0.00000000000E+00 0. -1.
        -15    1    1    2    0    0  0.92852768756E+01  0.19903684496E+02 -0.80159400753E+02  0.83132787041E+02  0.17770000000E+01 0. -1.
         15    1    1    2    0    0  0.32626264804E+01 -0.23748540142E+01 -0.94720739781E+02  0.94823314310E+02  0.17770000000E+01 0.  1.
</event>
<event>
 6    1  0.6506903E-004  0.5042914E+03  0.7546771E-02  0.9390258E-01
        -11   -1    0    0    0    0  0.00000000000E+00  0.00000000000E+00  0.50000000000E+03  0.50000000000E+03  0.00000000000E+00 0.  1.
         11   -1    0    0    0    0 -0.00000000000E+00 -0.00000000000E+00 -0.50000000000E+03  0.50000000000E+03  0.00000000000E+00 0. -1.
        -11    1    1    2    0    0 -0.11362955123E+02  0.55685113869E-01  0.49557836597E+03  0.49570862073E+03  0.00000000000E+00 0.  1.
         11    1    1    2    0    0 -0.90546441999E+01 -0.10311066755E+02 -0.45884599498E+03  0.45905114289E+03  0.00000000000E+00 0. -1.
        -15    1    1    2    0    0  0.15314152657E+02  0.32927582460E+01 -0.14882668495E+02  0.21679877283E+02  0.17770000000E+01 0.  1.
         15    1    1    2    0    0  0.51034466656E+01  0.69626233956E+01 -0.21849702497E+02  0.23560359094E+02  0.17770000000E+01 0. -1.
</event>
<event>
 6    1  0.6506903E-004  0.5000781E+03  0.7546771E-02  0.9399635E-01
        -11   -1    0    0    0    0  0.00000000000E+00  0.00000000000E+00  0.50000000000E+03  0.50000000000E+03  0.00000000000E+00 0. -1.
         11   -1    0    0    0    0 -0.00000000000E+00 -0.00000000000E+00 -0.50000000000E+03  0.50000000000E+03  0.00000000000E+00 0. -1.
        -11    1    1    2    0    0  0.59808186717E+01 -0.79771283488E+01  0.49982251622E+03  0.49992194640E+03  0.00000000000E+00 0. -1.
         11    1    1    2    0    0 -0.47673906697E+01  0.17432835075E+01 -0.74968980673E+02  0.75140635574E+02  0.00000000000E+00 0. -1.
        -15    1    1    2    0    0 -0.57114519028E+00  0.19810930093E+00 -0.60853836991E+02  0.60882778022E+02  0.17770000000E+01 0. -1.
         15    1    1    2    0    0 -0.64228281172E+00  0.60357355403E+01 -0.36399969856E+03  0.36405464001E+03  0.17770000000E+01 0. -1.
</event>
<event>
 6    1  0.6506903E-004  0.5009502E+03  0.7546771E-02  0.9397686E-01
        -11   -1    0    0    0    0  0.00000000000E+00  0.00000000000E+00  0.50000000000E+03  0.50000000000E+03  0.00000000000E+00 0. -1.
         11   -1    0    0    0    0 -0.00000000000E+00 -0.00000000000E+00 -0.50000000000E+03  0.50000000000E+03  0.00000000000E+00 0. -1.
        -11    1    1    2    0    0  0.55478266344E+01 -0.51246677373E+01  0.49899265796E+03  0.49904981044E+03  0.00000000000E+00 0. -1.
         11    1    1    2    0    0  0.11481063458E+02  0.72404076008E+01 -0.71003722059E+02  0.72289465807E+02  0.00000000000E+00 0. -1.
        -15    1    1    2    0    0 -0.16101682946E+02 -0.45753113439E+01 -0.41284258676E+03  0.41318562032E+03  0.17770000000E+01 0. -1.
         15    1    1    2    0    0 -0.92720714622E+00  0.24595714804E+01 -0.15146349142E+02  0.15475103434E+02  0.17770000000E+01 0. -1.
</event>
<event>
 6    1  0.6506903E-004  0.5009035E+03  0.7546771E-02  0.9397790E-01
        -11   -1    0    0    0    0  0.00000000000E+00  0.00000000000E+00  0.50000000000E+03  0.50000000000E+03  0.00000000000E+00 0.  1.
         11   -1    0    0    0    0 -0.00000000000E+00 -0.00000000000E+00 -0.50000000000E+03  0.50000000000E+03  0.00000000000E+00 0. -1.
        -11    1    1    2    0    0 -0.26176956942E+01 -0.60304465356E+01  0.46986855580E+03  0.46991454366E+03  0.00000000000E+00 0.  1.
         11    1    1    2    0    0 -0.53335594683E+01  0.53606388610E+01 -0.49903919942E+03  0.49909648953E+03  0.00000000000E+00 0. -1.
        -15    1    1    2    0    0 -0.14768314990E+00 -0.90834467261E+00  0.63233773528E+01  0.66324754431E+01  0.17770000000E+01 0. -1.
         15    1    1    2    0    0  0.80989383124E+01  0.15781523471E+01  0.22847266267E+02  0.24356491362E+02  0.17770000000E+01 0.  1.
</event>
<event>
 6    1  0.6506903E-004  0.5001733E+03  0.7546771E-02  0.9399422E-01
        -11   -1    0    0    0    0  0.00000000000E+00  0.00000000000E+00  0.50000000000E+03  0.50000000000E+03  0.00000000000E+00 0.  1.
         11   -1    0    0    0    0 -0.00000000000E+00 -0.00000000000E+00 -0.50000000000E+03  0.50000000000E+03  0.00000000000E+00 0. -1.
        -11    1    1    2    0    0  0.54040192989E+01  0.53013602917E+01  0.39046246350E+03  0.39053584118E+03  0.00000000000E+00 0.  1.
         11    1    1    2    0    0 -0.83724216727E+01 -0.11848203185E+01 -0.49975515019E+03  0.49982668134E+03  0.00000000000E+00 0. -1.
        -15    1    1    2    0    0  0.16328600920E+01  0.56070227279E+00  0.64305288775E+02  0.64352999251E+02  0.17770000000E+01 0.  1.
         15    1    1    2    0    0  0.13355422818E+01 -0.46772422461E+01  0.44987397912E+02  0.45284478225E+02  0.17770000000E+01 0. -1.
</event>
<event>
 6    1  0.6506903E-004  0.5010180E+03  0.7546771E-02  0.9397535E-01
        -11   -1    0    0    0    0  0.00000000000E+00  0.00000000000E+00  0.50000000000E+03  0.50000000000E+03  0.00000000000E+00 0. -1.
         11   -1    0    0    0    0 -0.00000000000E+00 -0.00000000000E+00 -0.50000000000E+03  0.50000000000E+03  0.00000000000E+00 0.  1.
        -11    1    1    2    0    0  0.21897302910E+01 -0.92285087322E+01  0.26155259600E+03  0.26172451311E+03  0.00000000000E+00 0. -1.
         11    1    1    2    0    0  0.23916413332E+01 -0.13604670988E+02 -0.49879073097E+03  0.49898196393E+03  0.00000000000E+00 0.  1.
        -15    1    1    2    0    0 -0.97925673289E+01  0.13553947042E+02  0.83449448024E+02  0.85126799304E+02  0.17770000000E+01 0. -1.
         15    1    1    2    0    0  0.52111957048E+01  0.92792326791E+01  0.15378868695E+03  0.15416672366E+03  0.17770000000E+01 0.  1.
</event>
<event>
 6    1  0.6506903E-004  0.5005108E+03  0.7546771E-02  0.9398667E-01
        -11   -1    0    0    0    0  0.00000000000E+00  0.00000000000E+00  0.50000000000E+03  0.50000000000E+03  0.00000000000E+00 0. -1.
         11   -1    0    0    0    0 -0.00000000000E+00 -0.00000000000E+00 -0.50000000000E+03  0.50000000000E+03  0.00000000000E+00 0.  1.
        -11    1    1    2    0    0 -0.87507482943E+00 -0.66135519559E+01  0.49326876063E+03  0.49331387072E+03  0.00000000000E+00 0. -1.
         11    1    1    2    0    0 -0.19071337520E+01  0.32850613017E+01  0.61128936579E+01  0.71969615656E+01  0.00000000000E+00 0.  1.
        -15    1    1    2    0    0  0.86175337944E+00 -0.22167150584E+01 -0.69002684980E+02  0.69066523787E+02  0.17770000000E+01 0.  1.
         15    1    1    2    0    0  0.19204552020E+01  0.55452057125E+01 -0.43037896931E+03  0.43042264393E+03  0.17770000000E+01 0.  1.
</event>
<event>
 6    1  0.6506903E-004  0.5010673E+03  0.7546771E-02  0.9397425E-01
        -11   -1    0    0    0    0  0.00000000000E+00  0.00000000000E+00  0.50000000000E+03  0.50000000000E+03  0.00000000000E+00 0. -1.
         11   -1    0    0    0    0 -0.00000000000E+00 -0.00000000000E+00 -0.50000000000E+03  0.50000000000E+03  0.00000000000E+00 0.  1.
        -11    1    1    2    0    0 -0.16487415481E+02  0.26285086460E+02  0.49796697708E+03  0.49893271180E+03  0.00000000000E+00 0. -1.
         11    1    1    2    0    0  0.15359697778E+02 -0.22608783902E+02 -0.15223943249E+03  0.15467359901E+03  0.00000000000E+00 0.  1.
        -15    1    1    2    0    0  0.52814663757E+01 -0.11287727774E+02 -0.21229721451E+03  0.21267010064E+03  0.17770000000E+01 0.  1.
         15    1    1    2    0    0 -0.41537486730E+01  0.76114252159E+01 -0.13343033008E+03  0.13372358855E+03  0.17770000000E+01 0. -1.
</event>
<event>
 6    1  0.6506903E-004  0.5017759E+03  0.7546771E-02  0.9395845E-01
        -11   -1    0    0    0    0  0.00000000000E+00  0.00000000000E+00  0.50000000000E+03  0.50000000000E+03  0.00000000000E+00 0. -1.
         11   -1    0    0    0    0 -0.00000000000E+00 -0.00000000000E+00 -0.50000000000E+03  0.50000000000E+03  0.00000000000E+00 0.  1.
        -11    1    1    2    0    0  0.11112981432E+02 -0.95043567631E+01  0.49800948451E+03  0.49822412408E+03  0.00000000000E+00 0. -1.
         11    1    1    2    0    0 -0.18624145782E+02  0.19276689587E+02 -0.10715854830E+03  0.11045996578E+03  0.00000000000E+00 0.  1.
        -15    1    1    2    0    0  0.37013784495E+01  0.21513104126E+01 -0.19623454050E+03  0.19628927875E+03  0.17770000000E+01 0.  1.
         15    1    1    2    0    0  0.38097859005E+01 -0.11923643236E+02 -0.19461639572E+03  0.19502663138E+03  0.17770000000E+01 0. -1.
</event>
<event>
 6    1  0.6506903E-004  0.4851294E+03  0.7546771E-02  0.9433713E-01
        -11   -1    0    0    0    0  0.00000000000E+00  0.00000000000E+00  0.50000000000E+03  0.50000000000E+03  0.00000000000E+00 0.  1.
         11   -1    0    0    0    0 -0.00000000000E+00 -0.00000000000E+00 -0.50000000000E+03  0.50000000000E+03  0.00000000000E+00 0. -1.
        -11    1    1    2    0    0  0.17051132946E+02 -0.16445868358E+01  0.49007947543E+03  0.49037876997E+03  0.00000000000E+00 0.  1.
         11    1    1    2    0    0  0.49521878246E+01 -0.76095806370E+01 -0.48013873847E+03  0.48022457045E+03  0.00000000000E+00 0. -1.
        -15    1    1    2    0    0 -0.29595081559E+01  0.10223742989E+01  0.31643485326E+01  0.47932002219E+01  0.17770000000E+01 0.  1.
         15    1    1    2    0    0 -0.19043812614E+02  0.82317931739E+01 -0.13105085490E+02  0.24603459359E+02  0.17770000000E+01 0. -1.
</event>
<event>
 6    1  0.6506903E-004  0.5001876E+03  0.7546771E-02  0.9399390E-01
        -11   -1    0    0    0    0  0.00000000000E+00  0.00000000000E+00  0.50000000000E+03  0.50000000000E+03  0.00000000000E+00 0. -1.
         11   -1    0    0    0    0 -0.00000000000E+00 -0.00000000000E+00 -0.50000000000E+03  0.50000000000E+03  0.00000000000E+00 0.  1.
        -11    1    1    2    0    0  0.35239788244E+01  0.16063121007E+02  0.49954177534E+03  0.49981239240E+03  0.00000000000E+00 0. -1.
         11    1    1    2    0    0 -0.36323641466E+01 -0.16267984401E+02 -0.24524631366E+03  0.24581211473E+03  0.00000000000E+00 0.  1.
        -15    1    1    2    0    0  0.24669813369E+01  0.76163279317E+00 -0.95006129941E+02  0.95057816810E+02  0.17770000000E+01 0.  1.
         15    1    1    2    0    0 -0.23585960147E+01 -0.55676939922E+00 -0.15928933175E+03  0.15931767606E+03  0.17770000000E+01 0. -1.
</event>
<event>
 6    1  0.6506903E-004  0.5014856E+03  0.7546771E-02  0.9396492E-01
        -11   -1    0    0    0    0  0.00000000000E+00  0.00000000000E+00  0.50000000000E+03  0.50000000000E+03  0.00000000000E+00 0. -1.
         11   -1    0    0    0    0 -0.00000000000E+00 -0.00000000000E+00 -0.50000000000E+03  0.50000000000E+03  0.00000000000E+00 0. -1.
        -11    1    1    2    0    0 -0.22722513470E+02  0.10117587511E+02  0.49789350794E+03  0.49851441649E+03  0.00000000000E+00 0. -1.
         11    1    1    2    0    0  0.17243776517E+02 -0.10352871322E+02 -0.55500100880E+02  0.59032118129E+02  0.00000000000E+00 0. -1.
        -15    1    1    2    0    0  0.14251425207E+01  0.14427134238E+01 -0.17239451507E+03  0.17241559966E+03  0.17770000000E+01 0. -1.
         15    1    1    2    0    0  0.40535944328E+01 -0.12074296127E+01 -0.26999889200E+03  0.27003786572E+03  0.17770000000E+01 0. -1.
</event>
<event>
 6    1  0.6506903E-004  0.5001794E+03  0.7546771E-02  0.9399408E-01
        -11   -1    0    0    0    0  0.00000000000E+00  0.00000000000E+00  0.50000000000E+03  0.50000000000E+03  0.00000000000E+00 0.  1.
         11   -1    0    0    0    0 -0.00000000000E+00 -0.00000000000E+00 -0.50000000000E+03  0.50000000000E+03  0.00000000000E+00 0.  1.
        -11    1    1    2    0    0 -0.74032619790E+01 -0.32701704408E+01  0.49975506559E+03  0.49982059570E+03  0.00000000000E+00 0.  1.
         11    1    1    2    0    0  0.11514107800E+01  0.16092656258E+01 -0.71084113299E+01  0.73786851317E+01  0.00000000000E+00 0.  1.
        -15    1    1    2    0    0  0.47785012671E+01  0.44127927159E+01 -0.42886880149E+03  0.42892180340E+03  0.17770000000E+01 0.  1.
         15    1    1    2    0    0  0.14733499320E+01 -0.27518879009E+01 -0.63777852768E+02  0.63878915769E+02  0.17770000000E+01 0. -1.
</event>
<event>
 6    1  0.6506903E-004  0.5003153E+03  0.7546771E-02  0.9399105E-01
        -11   -1    0    0    0    0  0.00000000000E+00  0.00000000000E+00  0.50000000000E+03  0.50000000000E+03  0.00000000000E+00 0.  1.
         11   -1    0    0    0    0 -0.00000000000E+00 -0.00000000000E+00 -0.50000000000E+03  0.50000000000E+03  0.00000000000E+00 0. -1.
        -11    1    1    2    0    0 -0.38163384801E+01  0.58523893955E+01  0.49963586857E+03  0.49968471665E+03  0.00000000000E+00 0.  1.
         11    1    1    2    0    0  0.65691404564E+01 -0.53493098654E+00 -0.10550281809E+03  0.10570848775E+03  0.00000000000E+00 0. -1.
        -15    1    1    2    0    0  0.15549195824E+01 -0.73273599804E+01 -0.68020246581E+02  0.68454507909E+02  0.17770000000E+01 0.  1.
         15    1    1    2    0    0 -0.43077215588E+01  0.20099015714E+01 -0.32611280390E+03  0.32615228769E+03  0.17770000000E+01 0. -1.
</event>
<event>
 6    1  0.6506903E-004  0.5006737E+03  0.7546771E-02  0.9398303E-01
        -11   -1    0    0    0    0  0.00000000000E+00  0.00000000000E+00  0.50000000000E+03  0.50000000000E+03  0.00000000000E+00 0. -1.
         11   -1    0    0    0    0 -0.00000000000E+00 -0.00000000000E+00 -0.50000000000E+03  0.50000000000E+03  0.00000000000E+00 0.  1.
        -11    1    1    2    0    0 -0.29851725557E+01  0.67275496446E+01  0.34268543939E+03  0.34276446950E+03  0.00000000000E+00 0. -1.
         11    1    1    2    0    0  0.19060138866E+01  0.71697079728E+01 -0.49927115733E+03  0.49932627224E+03  0.00000000000E+00 0.  1.
        -15    1    1    2    0    0 -0.28540987384E+01 -0.99730177131E+01  0.13864799506E+03  0.13904686701E+03  0.17770000000E+01 0. -1.
         15    1    1    2    0    0  0.39332574074E+01 -0.39242399043E+01  0.17937722881E+02  0.18862391254E+02  0.17770000000E+01 0.  1.
</event>
<event>
 6    1  0.6506903E-004  0.5001129E+03  0.7546771E-02  0.9399557E-01
        -11   -1    0    0    0    0  0.00000000000E+00  0.00000000000E+00  0.50000000000E+03  0.50000000000E+03  0.00000000000E+00 0. -1.
         11   -1    0    0    0    0 -0.00000000000E+00 -0.00000000000E+00 -0.50000000000E+03  0.50000000000E+03  0.00000000000E+00 0.  1.
        -11    1    1    2    0    0  0.34571132709E+01  0.10463503371E+02  0.49976561003E+03  0.49988708876E+03  0.00000000000E+00 0. -1.
         11    1    1    2    0    0 -0.73646630190E+01 -0.66755883412E+01 -0.23019392057E+03  0.23040842608E+03  0.00000000000E+00 0.  1.
        -15    1    1    2    0    0  0.22814803989E+01 -0.41695712123E+01 -0.23102890228E+03  0.23108462064E+03  0.17770000000E+01 0.  1.
         15    1    1    2    0    0  0.16260693492E+01  0.38165618268E+00 -0.38542787181E+02  0.38619864521E+02  0.17770000000E+01 0.  1.
</event>
<event>
 6    1  0.6506903E-004  0.4737801E+03  0.7546771E-02  0.9460469E-01
        -11   -1    0    0    0    0  0.00000000000E+00  0.00000000000E+00  0.50000000000E+03  0.50000000000E+03  0.00000000000E+00 0.  1.
         11   -1    0    0    0    0 -0.00000000000E+00 -0.00000000000E+00 -0.50000000000E+03  0.50000000000E+03  0.00000000000E+00 0. -1.
        -11    1    1    2    0    0 -0.79526287181E+01  0.63319862649E+01  0.48434196815E+03  0.48444863553E+03  0.00000000000E+00 0.  1.
         11    1    1    2    0    0  0.22693796852E+02  0.22447105812E+02 -0.46280813409E+03  0.46390758773E+03  0.00000000000E+00 0. -1.
        -15    1    1    2    0    0 -0.21381358005E+02 -0.26797764585E+02 -0.26129122096E+02  0.43141295848E+02  0.17770000000E+01 0. -1.
         15    1    1    2    0    0  0.66401898715E+01 -0.19813274922E+01  0.45952880346E+01  0.85024808898E+01  0.17770000000E+01 0.  1.
</event>
<event>
 6    1  0.6506903E-004  0.5011657E+03  0.7546771E-02  0.9397205E-01
        -11   -1    0    0    0    0  0.00000000000E+00  0.00000000000E+00  0.50000000000E+03  0.50000000000E+03  0.00000000000E+00 0.  1.
         11   -1    0    0    0    0 -0.00000000000E+00 -0.00000000000E+00 -0.50000000000E+03  0.50000000000E+03  0.00000000000E+00 0.  1.
        -11    1    1    2    0    0  0.24023908198E+01 -0.33761627462E+02  0.49768465737E+03  0.49883427825E+03  0.00000000000E+00 0.  1.
         11    1    1    2    0    0  0.54530655505E+01  0.16338948123E+02 -0.43125395395E+03  0.43159781040E+03  0.00000000000E+00 0.  1.
        -15    1    1    2    0    0 -0.88595142932E+01  0.13810261814E+02 -0.52619935846E+02  0.55147345378E+02  0.17770000000E+01 0. -1.
         15    1    1    2    0    0  0.10040579229E+01  0.36124175252E+01 -0.13810767580E+02  0.14420565968E+02  0.17770000000E+01 0.  1.
</event>
<event>
 6    1  0.6506903E-004  0.5003349E+03  0.7546771E-02  0.9399061E-01
        -11   -1    0    0    0    0  0.00000000000E+00  0.00000000000E+00  0.50000000000E+03  0.50000000000E+03  0.00000000000E+00 0.  1.
         11   -1    0    0    0    0 -0.00000000000E+00 -0.00000000000E+00 -0.50000000000E+03  0.50000000000E+03  0.00000000000E+00 0.  1.
        -11    1    1    2    0    0 -0.94894238342E+00  0.10111350603E+02  0.49956186056E+03  0.49966508026E+03  0.00000000000E+00 0.  1.
         11    1    1    2    0    0  0.64877710695E+01 -0.12384809159E+02 -0.15569867720E+03  0.15632515074E+03  0.00000000000E+00 0.  1.
        -15    1    1    2    0    0  0.11239001312E+01 -0.10748353836E+01 -0.73376470969E+02  0.73414458001E+02  0.17770000000E+01 0.  1.
         15    1    1    2    0    0 -0.66627288173E+01  0.33482939395E+01 -0.27048671239E+03  0.27059531100E+03  0.17770000000E+01 0.  1.
</event>
<event>
 6    1  0.8074248E-004  0.5001018E+03  0.7546771E-02  0.9399582E-01
        -11   -1    0    0    0    0  0.00000000000E+00  0.00000000000E+00  0.50000000000E+03  0.50000000000E+03  0.00000000000E+00 0.  1.
         11   -1    0    0    0    0 -0.00000000000E+00 -0.00000000000E+00 -0.50000000000E+03  0.50000000000E+03  0.00000000000E+00 0. -1.
        -11    1    1    2    0    0  0.16802596116E+01  0.10660774745E+01  0.10203994151E+03  0.10205934282E+03  0.00000000000E+00 0.  1.
         11    1    1    2    0    0 -0.23904454984E+01  0.14354819039E+02 -0.49968635460E+03  0.49989821768E+03  0.00000000000E+00 0. -1.
        -15    1    1    2    0    0  0.23086836174E-01 -0.83159148482E+01  0.12109428361E+03  0.12139249658E+03  0.17770000000E+01 0.  1.
         15    1    1    2    0    0  0.68709905059E+00 -0.71049816652E+01  0.27655212949E+03  0.27664994293E+03  0.17770000000E+01 0. -1.
</event>
<event>
 6    1  0.6506903E-004  0.5019402E+03  0.7546771E-02  0.9395479E-01
        -11   -1    0    0    0    0  0.00000000000E+00  0.00000000000E+00  0.50000000000E+03  0.50000000000E+03  0.00000000000E+00 0. -1.
         11   -1    0    0    0    0 -0.00000000000E+00 -0.00000000000E+00 -0.50000000000E+03  0.50000000000E+03  0.00000000000E+00 0.  1.
        -11    1    1    2    0    0 -0.11451833412E+02  0.58244189207E+00  0.29273373964E+03  0.29295823261E+03  0.00000000000E+00 0. -1.
         11    1    1    2    0    0 -0.63414055758E+01 -0.22654413465E+02 -0.49750390370E+03  0.49805980571E+03  0.00000000000E+00 0.  1.
        -15    1    1    2    0    0  0.10778664298E+02  0.22913007002E+02  0.78505334697E+02  0.82507156046E+02  0.17770000000E+01 0.  1.
         15    1    1    2    0    0  0.70145746896E+01 -0.84103542888E+00  0.12626482936E+03  0.12647480564E+03  0.17770000000E+01 0. -1.
</event>
<event>
 6    1  0.6506903E-004  0.5018333E+03  0.7546771E-02  0.9395717E-01
        -11   -1    0    0    0    0  0.00000000000E+00  0.00000000000E+00  0.50000000000E+03  0.50000000000E+03  0.00000000000E+00 0. -1.
         11   -1    0    0    0    0 -0.00000000000E+00 -0.00000000000E+00 -0.50000000000E+03  0.50000000000E+03  0.00000000000E+00 0.  1.
        -11    1    1    2    0    0  0.27680661988E+02  0.10745014901E+02  0.49728100651E+03  0.49816671289E+03  0.00000000000E+00 0. -1.
         11    1    1    2    0    0 -0.16825674755E+02 -0.18088418252E+02 -0.86827175569E+02  0.90273210994E+02  0.00000000000E+00 0.  1.
        -15    1    1    2    0    0  0.38343660437E+00 -0.59141057022E+00 -0.16625059171E+01  0.25334650217E+01  0.17770000000E+01 0.  1.
         15    1    1    2    0    0 -0.11238423837E+02  0.79348139217E+01 -0.40879132502E+03  0.40902661110E+03  0.17770000000E+01 0.  1.
</event>
<event>
 6    1  0.6506903E-004  0.5001654E+03  0.7546771E-02  0.9399440E-01
        -11   -1    0    0    0    0  0.00000000000E+00  0.00000000000E+00  0.50000000000E+03  0.50000000000E+03  0.00000000000E+00 0. -1.
         11   -1    0    0    0    0 -0.00000000000E+00 -0.00000000000E+00 -0.50000000000E+03  0.50000000000E+03  0.00000000000E+00 0.  1.
        -11    1    1    2    0    0 -0.40164311717E+01  0.11058881884E+02  0.49969614012E+03  0.49983463569E+03  0.00000000000E+00 0. -1.
         11    1    1    2    0    0 -0.27920113361E+00 -0.13923985906E+02 -0.34121802880E+03  0.34150212080E+03  0.00000000000E+00 0.  1.
        -15    1    1    2    0    0  0.34007471579E+01  0.54434266018E+00 -0.53294206387E+02  0.53434928218E+02  0.17770000000E+01 0.  1.
         15    1    1    2    0    0  0.89488514742E+00  0.23207613620E+01 -0.10518390493E+03  0.10522831529E+03  0.17770000000E+01 0. -1.
</event>
<event>
 6    1  0.6506903E-004  0.5017591E+03  0.7546771E-02  0.9395882E-01
        -11   -1    0    0    0    0  0.00000000000E+00  0.00000000000E+00  0.50000000000E+03  0.50000000000E+03  0.00000000000E+00 0.  1.
         11   -1    0    0    0    0 -0.00000000000E+00 -0.00000000000E+00 -0.50000000000E+03  0.50000000000E+03  0.00000000000E+00 0. -1.
        -11    1    1    2    0    0  0.37466715465E+01 -0.65660372659E+01  0.44564395265E+03  0.44570806918E+03  0.00000000000E+00 0.  1.
         11    1    1    2    0    0  0.13129301379E+02  0.30241763979E+01 -0.49805870754E+03  0.49824090594E+03  0.00000000000E+00 0. -1.
        -15    1    1    2    0    0 -0.21693694830E+01 -0.11630810253E+00  0.20329585291E+02  0.20522413567E+02  0.17770000000E+01 0. -1.
         15    1    1    2    0    0 -0.14706603443E+02  0.36581689706E+01  0.32085169594E+02  0.35528611314E+02  0.17770000000E+01 0.  1.
</event>
<event>
 6    1  0.6506903E-004  0.5061373E+03  0.7546771E-02  0.9386181E-01
        -11   -1    0    0    0    0  0.00000000000E+00  0.00000000000E+00  0.50000000000E+03  0.50000000000E+03  0.00000000000E+00 0. -1.
         11   -1    0    0    0    0 -0.00000000000E+00 -0.00000000000E+00 -0.50000000000E+03  0.50000000000E+03  0.00000000000E+00 0.  1.
        -11    1    1    2    0    0 -0.22450761400E+01  0.12636754266E+02  0.46475418708E+03  0.46493137379E+03  0.00000000000E+00 0. -1.
         11    1    1    2    0    0 -0.26506775656E+01  0.14184141747E+02 -0.49365181822E+03  0.49386266674E+03  0.00000000000E+00 0.  1.
        -15    1    1    2    0    0  0.36521552919E+01 -0.22269561899E+01  0.36963664401E+01  0.59260801553E+01  0.17770000000E+01 0.  1.
         15    1    1    2    0    0  0.12435984137E+01 -0.24593939823E+02  0.25201264703E+02  0.35279879318E+02  0.17770000000E+01 0. -1.
</event>
<event>
 6    1  0.6506903E-004  0.5007946E+03  0.7546771E-02  0.9398034E-01
        -11   -1    0    0    0    0  0.00000000000E+00  0.00000000000E+00  0.50000000000E+03  0.50000000000E+03  0.00000000000E+00 0. -1.
         11   -1    0    0    0    0 -0.00000000000E+00 -0.00000000000E+00 -0.50000000000E+03  0.50000000000E+03  0.00000000000E+00 0.  1.
        -11    1    1    2    0    0 -0.78803744541E+01 -0.38813179311E+01  0.49912815194E+03  0.49920544567E+03  0.00000000000E+00 0. -1.
         11    1    1    2    0    0  0.11295412703E+02 -0.11679503394E+02 -0.34152171339E+03  0.34190799620E+03  0.00000000000E+00 0.  1.
        -15    1    1    2    0    0 -0.11428114933E+00  0.26695207896E+01 -0.72069459261E+01  0.78890557108E+01  0.17770000000E+01 0. -1.
         15    1    1    2    0    0 -0.33007570992E+01  0.12891300536E+02 -0.15039949262E+03  0.15099750242E+03  0.17770000000E+01 0.  1.
</event>
<event>
 6    1  0.6506903E-004  0.5001827E+03  0.7546771E-02  0.9399401E-01
        -11   -1    0    0    0    0  0.00000000000E+00  0.00000000000E+00  0.50000000000E+03  0.50000000000E+03  0.00000000000E+00 0.  1.
         11   -1    0    0    0    0 -0.00000000000E+00 -0.00000000000E+00 -0.50000000000E+03  0.50000000000E+03  0.00000000000E+00 0.  1.
        -11    1    1    2    0    0 -0.95375049514E+01 -0.19807629816E+02  0.49933353356E+03  0.49981725054E+03  0.00000000000E+00 0.  1.
         11    1    1    2    0    0  0.13924142762E+01  0.75281067464E+01 -0.50655496391E+02  0.51230757591E+02  0.00000000000E+00 0.  1.
        -15    1    1    2    0    0  0.43587289072E+00  0.22189919326E+01 -0.77303030952E+02  0.77356513842E+02  0.17770000000E+01 0.  1.
         15    1    1    2    0    0  0.77092177845E+01  0.10060531137E+02 -0.37137500621E+03  0.37159547803E+03  0.17770000000E+01 0.  1.
</event>
<event>
 6    1  0.6506903E-004  0.5013908E+03  0.7546771E-02  0.9396703E-01
        -11   -1    0    0    0    0  0.00000000000E+00  0.00000000000E+00  0.50000000000E+03  0.50000000000E+03  0.00000000000E+00 0. -1.
         11   -1    0    0    0    0 -0.00000000000E+00 -0.00000000000E+00 -0.50000000000E+03  0.50000000000E+03  0.00000000000E+00 0. -1.
        -11    1    1    2    0    0  0.10054325201E+02 -0.35900050789E+01  0.36393519420E+03  0.36409175103E+03  0.00000000000E+00 0. -1.
         11    1    1    2    0    0 -0.36383905613E+01 -0.21429653372E+02 -0.49813514503E+03  0.49860915620E+03  0.00000000000E+00 0. -1.
        -15    1    1    2    0    0  0.14388827392E+01  0.72889613005E+01  0.63787829749E+02  0.64243632319E+02  0.17770000000E+01 0. -1.
         15    1    1    2    0    0 -0.78548173792E+01  0.17730697151E+02  0.70412121080E+02  0.73055460450E+02  0.17770000000E+01 0.  1.
</event>
<event>
 6    1  0.6506903E-004  0.5004003E+03  0.7546771E-02  0.9398914E-01
        -11   -1    0    0    0    0  0.00000000000E+00  0.00000000000E+00  0.50000000000E+03  0.50000000000E+03  0.00000000000E+00 0. -1.
         11   -1    0    0    0    0 -0.00000000000E+00 -0.00000000000E+00 -0.50000000000E+03  0.50000000000E+03  0.00000000000E+00 0. -1.
        -11    1    1    2    0    0  0.95467564675E+01  0.12493766613E+02  0.49935222199E+03  0.49959971615E+03  0.00000000000E+00 0. -1.
         11    1    1    2    0    0  0.35704074006E+01  0.53592195466E+01 -0.49050215986E+02  0.49471130282E+02  0.00000000000E+00 0. -1.
        -15    1    1    2    0    0 -0.53014588243E+01 -0.18999475239E+01 -0.11907286554E+03  0.11921921114E+03  0.17770000000E+01 0. -1.
         15    1    1    2    0    0 -0.78157050438E+01 -0.15953038635E+02 -0.33122914046E+03  0.33170994243E+03  0.17770000000E+01 0. -1.
</event>
<event>
 6    1  0.6506903E-004  0.5132265E+03  0.7546771E-02  0.9370691E-01
        -11   -1    0    0    0    0  0.00000000000E+00  0.00000000000E+00  0.50000000000E+03  0.50000000000E+03  0.00000000000E+00 0.  1.
         11   -1    0    0    0    0 -0.00000000000E+00 -0.00000000000E+00 -0.50000000000E+03  0.50000000000E+03  0.00000000000E+00 0.  1.
        -11    1    1    2    0    0  0.12841087674E+02  0.23926720185E+02  0.48601546912E+03  0.48677347678E+03  0.00000000000E+00 0.  1.
         11    1    1    2    0    0 -0.72890322097E+02 -0.18732580457E+02 -0.31268461175E+03  0.32161401563E+03  0.00000000000E+00 0.  1.
        -15    1    1    2    0    0  0.57582975564E+02  0.69202962146E+01 -0.16851710487E+03  0.17822699553E+03  0.17770000000E+01 0.  1.
         15    1    1    2    0    0  0.24662588599E+01 -0.12114435943E+02 -0.48137525025E+01  0.13385512061E+02  0.17770000000E+01 0. -1.
</event>
<event>
 6    1  0.6506903E-004  0.5008150E+03  0.7546771E-02  0.9397988E-01
        -11   -1    0    0    0    0  0.00000000000E+00  0.00000000000E+00  0.50000000000E+03  0.50000000000E+03  0.00000000000E+00 0. -1.
         11   -1    0    0    0    0 -0.00000000000E+00 -0.00000000000E+00 -0.50000000000E+03  0.50000000000E+03  0.00000000000E+00 0. -1.
        -11    1    1    2    0    0 -0.13613506732E+02 -0.40717211031E+01  0.33575826887E+03  0.33605880675E+03  0.00000000000E+00 0. -1.
         11    1    1    2    0    0  0.24514865649E+02 -0.19495809444E+02 -0.49820133675E+03  0.49918497289E+03  0.00000000000E+00 0. -1.
        -15    1    1    2    0    0 -0.11248652724E+02  0.22904732650E+02  0.15037925249E+03  0.15253929419E+03  0.17770000000E+01 0. -1.
         15    1    1    2    0    0  0.34729380659E+00  0.66279789693E+00  0.12063815390E+02  0.12216926160E+02  0.17770000000E+01 0. -1.
</event>
<event>
 6    1  0.6506903E-004  0.5019479E+03  0.7546771E-02  0.9395462E-01
        -11   -1    0    0    0    0  0.00000000000E+00  0.00000000000E+00  0.50000000000E+03  0.50000000000E+03  0.00000000000E+00 0.  1.
         11   -1    0    0    0    0 -0.00000000000E+00 -0.00000000000E+00 -0.50000000000E+03  0.50000000000E+03  0.00000000000E+00 0. -1.
        -11    1    1    2    0    0 -0.28692352234E+01 -0.61015526631E+01  0.42331569083E+03  0.42336938429E+03  0.00000000000E+00 0.  1.
         11    1    1    2    0    0 -0.15081943198E+02  0.12749894931E+01 -0.49782203811E+03  0.49805207783E+03  0.00000000000E+00 0. -1.
        -15    1    1    2    0    0  0.93539462896E+00 -0.26586566182E+01  0.31720566475E+02  0.31895069911E+02  0.17770000000E+01 0.  1.
         15    1    1    2    0    0  0.17015783792E+02  0.74852197882E+01  0.42785780802E+02  0.46683467965E+02  0.17770000000E+01 0. -1.
</event>
<event>
 6    1  0.6506903E-004  0.5001894E+03  0.7546771E-02  0.9399386E-01
        -11   -1    0    0    0    0  0.00000000000E+00  0.00000000000E+00  0.50000000000E+03  0.50000000000E+03  0.00000000000E+00 0. -1.
         11   -1    0    0    0    0 -0.00000000000E+00 -0.00000000000E+00 -0.50000000000E+03  0.50000000000E+03  0.00000000000E+00 0.  1.
        -11    1    1    2    0    0 -0.11984302594E+02  0.18135791726E+01  0.33468171102E+03  0.33490112013E+03  0.00000000000E+00 0. -1.
         11    1    1    2    0    0  0.20517542898E+02 -0.14565392662E+02 -0.49917685648E+03  0.49981061841E+03  0.00000000000E+00 0.  1.
        -15    1    1    2    0    0 -0.49628451998E+01  0.95783539318E+01  0.12189091234E+03  0.12238025551E+03  0.17770000000E+01 0. -1.
         15    1    1    2    0    0 -0.35703951038E+01  0.31734595578E+01  0.42604233114E+02  0.42908005954E+02  0.17770000000E+01 0. -1.
</event>
<event>
 6    1  0.6506903E-004  0.5007242E+03  0.7546771E-02  0.9398191E-01
        -11   -1    0    0    0    0  0.00000000000E+00  0.00000000000E+00  0.50000000000E+03  0.50000000000E+03  0.00000000000E+00 0. -1.
         11   -1    0    0    0    0 -0.00000000000E+00 -0.00000000000E+00 -0.50000000000E+03  0.50000000000E+03  0.00000000000E+00 0. -1.
        -11    1    1    2    0    0 -0.28273007560E+01  0.17337247216E+01  0.23893576650E+03  0.23895878294E+03  0.00000000000E+00 0. -1.
         11    1    1    2    0    0  0.61298008702E+01 -0.11256802783E+02 -0.49911121171E+03  0.49927576721E+03  0.00000000000E+00 0. -1.
        -15    1    1    2    0    0 -0.11689110139E+02  0.78967127402E+01  0.22753588007E+03  0.22797966535E+03  0.17770000000E+01 0. -1.
         15    1    1    2    0    0  0.83866100247E+01  0.16263653209E+01  0.32639565149E+02  0.33785784496E+02  0.17770000000E+01 0.  1.
</event>
<event>
 6    1  0.6506903E-004  0.5012094E+03  0.7546771E-02  0.9397108E-01
        -11   -1    0    0    0    0  0.00000000000E+00  0.00000000000E+00  0.50000000000E+03  0.50000000000E+03  0.00000000000E+00 0. -1.
         11   -1    0    0    0    0 -0.00000000000E+00 -0.00000000000E+00 -0.50000000000E+03  0.50000000000E+03  0.00000000000E+00 0.  1.
        -11    1    1    2    0    0  0.79898237543E+01  0.16016088498E+01  0.44774196174E+03  0.44781610817E+03  0.00000000000E+00 0. -1.
         11    1    1    2    0    0 -0.15289566742E+02 -0.25562203246E+01 -0.49854969064E+03  0.49879063659E+03  0.00000000000E+00 0.  1.
        -15    1    1    2    0    0  0.43943166351E+01 -0.45181024996E+01  0.41839504178E+02  0.42348850134E+02  0.17770000000E+01 0. -1.
         15    1    1    2    0    0  0.29054263528E+01  0.54727139744E+01  0.89682247239E+01  0.11044405110E+02  0.17770000000E+01 0.  1.
</event>
<event>
 6    1  0.6506903E-004  0.5052341E+03  0.7546771E-02  0.9388173E-01
        -11   -1    0    0    0    0  0.00000000000E+00  0.00000000000E+00  0.50000000000E+03  0.50000000000E+03  0.00000000000E+00 0.  1.
         11   -1    0    0    0    0 -0.00000000000E+00 -0.00000000000E+00 -0.50000000000E+03  0.50000000000E+03  0.00000000000E+00 0. -1.
        -11    1    1    2    0    0  0.11273974547E+02  0.17812063414E+01  0.46133044324E+03  0.46147161674E+03  0.00000000000E+00 0.  1.
         11    1    1    2    0    0  0.11864394727E+02  0.71682941305E+01 -0.49457163142E+03  0.49476585059E+03  0.00000000000E+00 0. -1.
        -15    1    1    2    0    0 -0.24367079551E+02 -0.69852900545E+01  0.30987505730E+02  0.40074082440E+02  0.17770000000E+01 0.  1.
         15    1    1    2    0    0  0.12287102770E+01 -0.19642104174E+01  0.22536824556E+01  0.36884502327E+01  0.17770000000E+01 0. -1.
</event>
<event>
 6    1  0.6506903E-004  0.5001762E+03  0.7546771E-02  0.9399416E-01
        -11   -1    0    0    0    0  0.00000000000E+00  0.00000000000E+00  0.50000000000E+03  0.50000000000E+03  0.00000000000E+00 0. -1.
         11   -1    0    0    0    0 -0.00000000000E+00 -0.00000000000E+00 -0.50000000000E+03  0.50000000000E+03  0.00000000000E+00 0. -1.
        -11    1    1    2    0    0 -0.20389438566E+01  0.82518361022E+01  0.49975151531E+03  0.49982379610E+03  0.00000000000E+00 0. -1.
         11    1    1    2    0    0 -0.42718080785E+01 -0.44307066113E+01 -0.14330468654E+03  0.14343678988E+03  0.00000000000E+00 0. -1.
        -15    1    1    2    0    0  0.74267480300E+01  0.21938332052E+01 -0.17378116058E+03  0.17396269425E+03  0.17770000000E+01 0. -1.
         15    1    1    2    0    0 -0.11159960950E+01 -0.60149626960E+01 -0.18266566820E+03  0.18277671977E+03  0.17770000000E+01 0.  1.
</event>
<event>
 6    1  0.6506903E-004  0.5024745E+03  0.7546771E-02  0.9394290E-01
        -11   -1    0    0    0    0  0.00000000000E+00  0.00000000000E+00  0.50000000000E+03  0.50000000000E+03  0.00000000000E+00 0.  1.
         11   -1    0    0    0    0 -0.00000000000E+00 -0.00000000000E+00 -0.50000000000E+03  0.50000000000E+03  0.00000000000E+00 0. -1.
        -11    1    1    2    0    0 -0.66586192587E+01  0.22584643475E+01  0.49747581298E+03  0.49752549922E+03  0.00000000000E+00 0.  1.
         11    1    1    2    0    0 -0.59682940105E+00 -0.88559597991E+01 -0.48497133247E+03  0.48505255133E+03  0.00000000000E+00 0. -1.
        -15    1    1    2    0    0  0.71021523019E+01  0.27606344393E+01 -0.90199981118E+01  0.11940676897E+02  0.17770000000E+01 0.  1.
         15    1    1    2    0    0  0.15329635782E+00  0.38368610123E+01 -0.34844823998E+01  0.54812725526E+01  0.17770000000E+01 0. -1.
</event>
<event>
 6    1  0.6506903E-004  0.5002758E+03  0.7546771E-02  0.9399193E-01
        -11   -1    0    0    0    0  0.00000000000E+00  0.00000000000E+00  0.50000000000E+03  0.50000000000E+03  0.00000000000E+00 0.  1.
         11   -1    0    0    0    0 -0.00000000000E+00 -0.00000000000E+00 -0.50000000000E+03  0.50000000000E+03  0.00000000000E+00 0.  1.
        -11    1    1    2    0    0 -0.18155894526E+01 -0.67583969953E+01  0.49967518053E+03  0.49972418225E+03  0.00000000000E+00 0.  1.
         11    1    1    2    0    0  0.79273757468E+01  0.57855660696E+00 -0.38566890762E+03  0.38575080598E+03  0.00000000000E+00 0.  1.
        -15    1    1    2    0    0 -0.25528009996E+01  0.78540285103E+00 -0.17892094142E+02  0.18177414898E+02  0.17770000000E+01 0.  1.
         15    1    1    2    0    0 -0.35589852945E+01  0.53944375373E+01 -0.96114178765E+02  0.96347596863E+02  0.17770000000E+01 0.  1.
</event>
<event>
 6    1  0.6506903E-004  0.4303836E+03  0.7546771E-02  0.9570656E-01
        -11   -1    0    0    0    0  0.00000000000E+00  0.00000000000E+00  0.50000000000E+03  0.50000000000E+03  0.00000000000E+00 0.  1.
         11   -1    0    0    0    0 -0.00000000000E+00 -0.00000000000E+00 -0.50000000000E+03  0.50000000000E+03  0.00000000000E+00 0. -1.
        -11    1    1    2    0    0 -0.21057016606E+02 -0.78461017407E+01  0.46481887351E+03  0.46536173504E+03  0.00000000000E+00 0.  1.
         11    1    1    2    0    0 -0.51935172189E+02  0.77974454065E+02 -0.39327909867E+03  0.40428421568E+03  0.00000000000E+00 0. -1.
        -15    1    1    2    0    0  0.65522163500E+02 -0.74289409026E+02 -0.59795122292E+02  0.11571812556E+03  0.17770000000E+01 0. -1.
         15    1    1    2    0    0  0.74700252957E+01  0.41610567026E+01 -0.11744652556E+02  0.14635923731E+02  0.17770000000E+01 0.  1.
</event>
<event>
 6    1  0.6506903E-004  0.5048342E+03  0.7546771E-02  0.9389057E-01
        -11   -1    0    0    0    0  0.00000000000E+00  0.00000000000E+00  0.50000000000E+03  0.50000000000E+03  0.00000000000E+00 0.  1.
         11   -1    0    0    0    0 -0.00000000000E+00 -0.00000000000E+00 -0.50000000000E+03  0.50000000000E+03  0.00000000000E+00 0.  1.
        -11    1    1    2    0    0 -0.46339111092E+00 -0.10834006846E+02  0.47746110069E+03  0.47758422619E+03  0.00000000000E+00 0.  1.
         11    1    1    2    0    0  0.25578961469E+01 -0.83335335562E+01 -0.49508902374E+03  0.49516576219E+03  0.00000000000E+00 0.  1.
        -15    1    1    2    0    0  0.20933162336E+01  0.76164447360E+01  0.91448752038E+01  0.12213872226E+02  0.17770000000E+01 0. -1.
         15    1    1    2    0    0 -0.41878212695E+01  0.11551095666E+02  0.84830478505E+01  0.15036139395E+02  0.17770000000E+01 0.  1.
</event>
<event>
 6    1  0.6506903E-004  0.5024926E+03  0.7546771E-02  0.9394249E-01
        -11   -1    0    0    0    0  0.00000000000E+00  0.00000000000E+00  0.50000000000E+03  0.50000000000E+03  0.00000000000E+00 0.  1.
         11   -1    0    0    0    0 -0.00000000000E+00 -0.00000000000E+00 -0.50000000000E+03  0.50000000000E+03  0.00000000000E+00 0.  1.
        -11    1    1    2    0    0 -0.51751064846E+01 -0.47041863281E+01  0.39791088483E+03  0.39797233994E+03  0.00000000000E+00 0.  1.
         11    1    1    2    0    0 -0.14572560404E+02 -0.67596304240E+01 -0.49724796759E+03  0.49750738024E+03  0.00000000000E+00 0.  1.
        -15    1    1    2    0    0  0.33759465778E+01 -0.68575991330E+01  0.22321892167E+02  0.23661113247E+02  0.17770000000E+01 0.  1.
         15    1    1    2    0    0  0.16371720311E+02  0.18321415885E+02  0.77015190598E+02  0.80859166567E+02  0.17770000000E+01 0. -1.
</event>
<event>
 6    1  0.6506903E-004  0.5000641E+03  0.7546771E-02  0.9399666E-01
        -11   -1    0    0    0    0  0.00000000000E+00  0.00000000000E+00  0.50000000000E+03  0.50000000000E+03  0.00000000000E+00 0. -1.
         11   -1    0    0    0    0 -0.00000000000E+00 -0.00000000000E+00 -0.50000000000E+03  0.50000000000E+03  0.00000000000E+00 0.  1.
        -11    1    1    2    0    0 -0.45536890477E+01  0.67910955601E+01  0.49986899220E+03  0.49993586032E+03  0.00000000000E+00 0. -1.
         11    1    1    2    0    0  0.70300477499E+01 -0.32284457264E+01 -0.31135576647E+03  0.31145185462E+03  0.00000000000E+00 0.  1.
        -15    1    1    2    0    0 -0.25984076135E+01 -0.22367108127E+01 -0.12841969622E+03  0.12847774400E+03  0.17770000000E+01 0. -1.
         15    1    1    2    0    0  0.12204891135E+00 -0.13259390210E+01 -0.60093529517E+02  0.60134541064E+02  0.17770000000E+01 0.  1.
</event>
<event>
 6    1  0.6506903E-004  0.5075478E+03  0.7546771E-02  0.9383078E-01
        -11   -1    0    0    0    0  0.00000000000E+00  0.00000000000E+00  0.50000000000E+03  0.50000000000E+03  0.00000000000E+00 0. -1.
         11   -1    0    0    0    0 -0.00000000000E+00 -0.00000000000E+00 -0.50000000000E+03  0.50000000000E+03  0.00000000000E+00 0. -1.
        -11    1    1    2    0    0 -0.44407878012E+02 -0.10696502150E+02  0.49032915856E+03  0.49245218907E+03  0.00000000000E+00 0. -1.
         11    1    1    2    0    0  0.55540778066E+02  0.27277263020E+02 -0.37629978277E+03  0.38135331862E+03  0.00000000000E+00 0. -1.
        -15    1    1    2    0    0  0.17822351194E+02 -0.16419673244E+02 -0.41676695640E+02  0.48242580362E+02  0.17770000000E+01 0.  1.
         15    1    1    2    0    0 -0.28955251248E+02 -0.16108762518E+00 -0.72352680145E+02  0.77951911953E+02  0.17770000000E+01 0. -1.
</event>
<event>
 6    1  0.6506903E-004  0.5031230E+03  0.7546771E-02  0.9392849E-01
        -11   -1    0    0    0    0  0.00000000000E+00  0.00000000000E+00  0.50000000000E+03  0.50000000000E+03  0.00000000000E+00 0. -1.
         11   -1    0    0    0    0 -0.00000000000E+00 -0.00000000000E+00 -0.50000000000E+03  0.50000000000E+03  0.00000000000E+00 0.  1.
        -11    1    1    2    0    0 -0.10496081262E+01 -0.71625968529E+01  0.49682422703E+03  0.49687696368E+03  0.00000000000E+00 0. -1.
         11    1    1    2    0    0  0.98157969511E+01 -0.31617412325E+00 -0.47776144956E+03  0.47786237822E+03  0.00000000000E+00 0.  1.
        -15    1    1    2    0    0 -0.24058048656E+01 -0.15862033585E+01 -0.29661129770E+00  0.33984769247E+01  0.17770000000E+01 0.  1.
         15    1    1    2    0    0 -0.63603839592E+01  0.90649743347E+01 -0.18766166172E+02  0.21862181172E+02  0.17770000000E+01 0. -1.
</event>
<event>
 6    1  0.6506903E-004  0.5001573E+03  0.7546771E-02  0.9399458E-01
        -11   -1    0    0    0    0  0.00000000000E+00  0.00000000000E+00  0.50000000000E+03  0.50000000000E+03  0.00000000000E+00 0.  1.
         11   -1    0    0    0    0 -0.00000000000E+00 -0.00000000000E+00 -0.50000000000E+03  0.50000000000E+03  0.00000000000E+00 0.  1.
        -11    1    1    2    0    0  0.71272822033E+01 -0.23500618644E+01  0.49978638081E+03  0.49984272265E+03  0.00000000000E+00 0.  1.
         11    1    1    2    0    0  0.39524146234E+01 -0.48485730963E+00 -0.60158233044E+02  0.60289880336E+02  0.00000000000E+00 0.  1.
        -15    1    1    2    0    0 -0.10227407391E+02  0.31392709566E+01 -0.41961956241E+03  0.41975968098E+03  0.17770000000E+01 0.  1.
         15    1    1    2    0    0 -0.85228943610E+00 -0.30435178251E+00 -0.20008585354E+02  0.20107716035E+02  0.17770000000E+01 0. -1.
</event>
<event>
 6    1  0.6506903E-004  0.5003934E+03  0.7546771E-02  0.9398930E-01
        -11   -1    0    0    0    0  0.00000000000E+00  0.00000000000E+00  0.50000000000E+03  0.50000000000E+03  0.00000000000E+00 0.  1.
         11   -1    0    0    0    0 -0.00000000000E+00 -0.00000000000E+00 -0.50000000000E+03  0.50000000000E+03  0.00000000000E+00 0.  1.
        -11    1    1    2    0    0  0.84506953488E+01  0.34401049604E+01  0.49952328136E+03  0.49960660243E+03  0.00000000000E+00 0.  1.
         11    1    1    2    0    0  0.81866105854E+01 -0.19134044353E+01 -0.28865232560E+03  0.28877473363E+03  0.00000000000E+00 0.  1.
        -15    1    1    2    0    0 -0.14392114217E+02 -0.19410485055E+01 -0.16081592013E+03  0.16148008706E+03  0.17770000000E+01 0.  1.
         15    1    1    2    0    0 -0.22451917175E+01  0.41434798042E+00 -0.50055035639E+02  0.50138576884E+02  0.17770000000E+01 0. -1.
</event>
<event>
 6    1  0.6506903E-004  0.5042772E+03  0.7546771E-02  0.9390290E-01
        -11   -1    0    0    0    0  0.00000000000E+00  0.00000000000E+00  0.50000000000E+03  0.50000000000E+03  0.00000000000E+00 0.  1.
         11   -1    0    0    0    0 -0.00000000000E+00 -0.00000000000E+00 -0.50000000000E+03  0.50000000000E+03  0.00000000000E+00 0.  1.
        -11    1    1    2    0    0 -0.95965148955E+01 -0.15235901541E+01  0.49562757835E+03  0.49572281655E+03  0.00000000000E+00 0.  1.
         11    1    1    2    0    0  0.10238597768E+02  0.40908458733E+01 -0.49297768589E+03  0.49310096602E+03  0.00000000000E+00 0.  1.
        -15    1    1    2    0    0 -0.10885403810E+01  0.23001354945E+01 -0.46612176323E+01  0.56000198455E+01  0.17770000000E+01 0.  1.
         15    1    1    2    0    0  0.44645750806E+00 -0.48673912137E+01  0.20113251774E+01  0.55761975846E+01  0.17770000000E+01 0. -1.
</event>
<event>
 6    1  0.6506903E-004  0.5050976E+03  0.7546771E-02  0.9388475E-01
        -11   -1    0    0    0    0  0.00000000000E+00  0.00000000000E+00  0.50000000000E+03  0.50000000000E+03  0.00000000000E+00 0.  1.
         11   -1    0    0    0    0 -0.00000000000E+00 -0.00000000000E+00 -0.50000000000E+03  0.50000000000E+03  0.00000000000E+00 0. -1.
        -11    1    1    2    0    0 -0.12630541624E+02  0.61601801319E+01  0.49470281622E+03  0.49490236894E+03  0.00000000000E+00 0.  1.
         11    1    1    2    0    0 -0.25902467040E+02  0.21414738429E+02 -0.33057511767E+03  0.33227915560E+03  0.00000000000E+00 0. -1.
        -15    1    1    2    0    0  0.10317926145E+02 -0.69843709371E+01 -0.14697092497E+02  0.19349503719E+02  0.17770000000E+01 0.  1.
         15    1    1    2    0    0  0.28215082520E+02 -0.20590547624E+02 -0.14943060606E+03  0.15346897174E+03  0.17770000000E+01 0. -1.
</event>
<event>
 6    1  0.6506903E-004  0.5014280E+03  0.7546771E-02  0.9396620E-01
        -11   -1    0    0    0    0  0.00000000000E+00  0.00000000000E+00  0.50000000000E+03  0.50000000000E+03  0.00000000000E+00 0.  1.
         11   -1    0    0    0    0 -0.00000000000E+00 -0.00000000000E+00 -0.50000000000E+03  0.50000000000E+03  0.00000000000E+00 0.  1.
        -11    1    1    2    0    0 -0.23402476854E+01 -0.87172688121E+01  0.49849032012E+03  0.49857202769E+03  0.00000000000E+00 0.  1.
         11    1    1    2    0    0  0.34466731416E+01 -0.13919508500E+02 -0.36183280538E+03  0.36211684760E+03  0.00000000000E+00 0.  1.
        -15    1    1    2    0    0 -0.64869254653E+01  0.17783660821E+02 -0.83809394295E+02  0.85938996360E+02  0.17770000000E+01 0. -1.
         15    1    1    2    0    0  0.53805000091E+01  0.48531164909E+01 -0.52848120453E+02  0.53372128348E+02  0.17770000000E+01 0.  1.
</event>
<event>
 6    1  0.6506903E-004  0.4862075E+03  0.7546771E-02  0.9431211E-01
        -11   -1    0    0    0    0  0.00000000000E+00  0.00000000000E+00  0.50000000000E+03  0.50000000000E+03  0.00000000000E+00 0. -1.
         11   -1    0    0    0    0 -0.00000000000E+00 -0.00000000000E+00 -0.50000000000E+03  0.50000000000E+03  0.00000000000E+00 0.  1.
        -11    1    1    2    0    0  0.33235832998E+01 -0.86555822597E+01  0.49160399882E+03  0.49169142454E+03  0.00000000000E+00 0. -1.
         11    1    1    2    0    0 -0.38701981425E+01 -0.14131919094E+02 -0.48082728358E+03  0.48105048198E+03  0.00000000000E+00 0.  1.
        -15    1    1    2    0    0 -0.16182029655E+01  0.10997390312E+02 -0.33515760704E+00  0.11261937406E+02  0.17770000000E+01 0.  1.
         15    1    1    2    0    0  0.21648178081E+01  0.11790111042E+02 -0.10441557630E+02  0.15996156078E+02  0.17770000000E+01 0. -1.
</event>
<event>
 6    1  0.6506903E-004  0.5003378E+03  0.7546771E-02  0.9399054E-01
        -11   -1    0    0    0    0  0.00000000000E+00  0.00000000000E+00  0.50000000000E+03  0.50000000000E+03  0.00000000000E+00 0.  1.
         11   -1    0    0    0    0 -0.00000000000E+00 -0.00000000000E+00 -0.50000000000E+03  0.50000000000E+03  0.00000000000E+00 0.  1.
        -11    1    1    2    0    0  0.21037739307E+01 -0.48403089907E+01  0.38870986081E+03  0.38874568852E+03  0.00000000000E+00 0.  1.
         11    1    1    2    0    0 -0.65434429255E+01 -0.43273829322E+01 -0.49960060452E+03  0.49966219281E+03  0.00000000000E+00 0.  1.
        -15    1    1    2    0    0  0.19069377901E+00  0.76426236161E+00  0.41175695534E+02  0.41221548889E+02  0.17770000000E+01 0.  1.
         15    1    1    2    0    0  0.42489752157E+01  0.84034295613E+01  0.69715048178E+02  0.70370569773E+02  0.17770000000E+01 0. -1.
</event>
<event>
 6    1  0.6506903E-004  0.5021158E+03  0.7546771E-02  0.9395088E-01
        -11   -1    0    0    0    0  0.00000000000E+00  0.00000000000E+00  0.50000000000E+03  0.50000000000E+03  0.00000000000E+00 0.  1.
         11   -1    0    0    0    0 -0.00000000000E+00 -0.00000000000E+00 -0.50000000000E+03  0.50000000000E+03  0.00000000000E+00 0.  1.
        -11    1    1    2    0    0 -0.80072763648E+01  0.83230315426E+01  0.40125612871E+03  0.40142230899E+03  0.00000000000E+00 0.  1.
         11    1    1    2    0    0 -0.19533164347E+02 -0.96913946749E+01 -0.49740652766E+03  0.49788424498E+03  0.00000000000E+00 0.  1.
        -15    1    1    2    0    0  0.36002873306E+01 -0.32234915830E+01  0.11823705018E+02  0.12896150441E+02  0.17770000000E+01 0.  1.
         15    1    1    2    0    0  0.23940153382E+02  0.45918547154E+01  0.84326693937E+02  0.87797295590E+02  0.17770000000E+01 0. -1.
</event>
<event>
 6    1  0.6506903E-004  0.5048982E+03  0.7546771E-02  0.9388916E-01
        -11   -1    0    0    0    0  0.00000000000E+00  0.00000000000E+00  0.50000000000E+03  0.50000000000E+03  0.00000000000E+00 0. -1.
         11   -1    0    0    0    0 -0.00000000000E+00 -0.00000000000E+00 -0.50000000000E+03  0.50000000000E+03  0.00000000000E+00 0. -1.
        -11    1    1    2    0    0 -0.77462080987E+01 -0.87704821462E-01  0.44634692455E+03  0.44641414459E+03  0.00000000000E+00 0. -1.
         11    1    1    2    0    0  0.34732668776E+01 -0.26940943074E+02 -0.49435607409E+03  0.49510181376E+03  0.00000000000E+00 0. -1.
        -15    1    1    2    0    0  0.81943030891E+01  0.29464923452E+01  0.11441999866E+02  0.14488116171E+02  0.17770000000E+01 0.  1.
         15    1    1    2    0    0 -0.39213618680E+01  0.24082155550E+02  0.36567149670E+02  0.43995925480E+02  0.17770000000E+01 0. -1.
</event>
<event>
 6    1  0.6506903E-004  0.4911184E+03  0.7546771E-02  0.9419905E-01
        -11   -1    0    0    0    0  0.00000000000E+00  0.00000000000E+00  0.50000000000E+03  0.50000000000E+03  0.00000000000E+00 0. -1.
         11   -1    0    0    0    0 -0.00000000000E+00 -0.00000000000E+00 -0.50000000000E+03  0.50000000000E+03  0.00000000000E+00 0.  1.
        -11    1    1    2    0    0  0.54365716590E+01 -0.86235578904E+01  0.48771442488E+03  0.48782095311E+03  0.00000000000E+00 0. -1.
         11    1    1    2    0    0 -0.14233403767E+02 -0.26307779160E+01 -0.49433013953E+03  0.49454200794E+03  0.00000000000E+00 0.  1.
        -15    1    1    2    0    0  0.78020106934E+01  0.11357577884E+02  0.42825159533E+01  0.14538349911E+02  0.17770000000E+01 0.  1.
         15    1    1    2    0    0  0.99482141468E+00 -0.10324207781E+00  0.23331986952E+01  0.30986890333E+01  0.17770000000E+01 0. -1.
</event>
<event>
 6    1  0.6506903E-004  0.5003088E+03  0.7546771E-02  0.9399119E-01
        -11   -1    0    0    0    0  0.00000000000E+00  0.00000000000E+00  0.50000000000E+03  0.50000000000E+03  0.00000000000E+00 0. -1.
         11   -1    0    0    0    0 -0.00000000000E+00 -0.00000000000E+00 -0.50000000000E+03  0.50000000000E+03  0.00000000000E+00 0. -1.
        -11    1    1    2    0    0 -0.96573254745E+01 -0.72228527654E+01  0.49954567405E+03  0.49969121866E+03  0.00000000000E+00 0. -1.
         11    1    1    2    0    0  0.73988722378E+00  0.21089969438E+01 -0.37449466444E+01  0.43611840803E+01  0.00000000000E+00 0. -1.
        -15    1    1    2    0    0  0.55635358393E+01  0.53962572990E+01 -0.38339319337E+03  0.38347564587E+03  0.17770000000E+01 0. -1.
         15    1    1    2    0    0  0.33539024114E+01 -0.28240147746E+00 -0.11240753404E+03  0.11247195139E+03  0.17770000000E+01 0. -1.
</event>
<event>
 6    1  0.6506903E-004  0.5002925E+03  0.7546771E-02  0.9399156E-01
        -11   -1    0    0    0    0  0.00000000000E+00  0.00000000000E+00  0.50000000000E+03  0.50000000000E+03  0.00000000000E+00 0.  1.
         11   -1    0    0    0    0 -0.00000000000E+00 -0.00000000000E+00 -0.50000000000E+03  0.50000000000E+03  0.00000000000E+00 0.  1.
        -11    1    1    2    0    0 -0.74309255682E+01 -0.20224464478E+02  0.49924281303E+03  0.49970754845E+03  0.00000000000E+00 0.  1.
         11    1    1    2    0    0  0.78595441517E+01  0.14309220779E+02 -0.13910261256E+03  0.14005735630E+03  0.00000000000E+00 0.  1.
        -15    1    1    2    0    0  0.19235667647E+01  0.31019888270E+01 -0.21197963725E+03  0.21201850576E+03  0.17770000000E+01 0.  1.
         15    1    1    2    0    0 -0.23521853481E+01  0.28132548718E+01 -0.14816056321E+03  0.14821658949E+03  0.17770000000E+01 0.  1.
</event>
<event>
 6    1  0.6506903E-004  0.5002914E+03  0.7546771E-02  0.9399158E-01
        -11   -1    0    0    0    0  0.00000000000E+00  0.00000000000E+00  0.50000000000E+03  0.50000000000E+03  0.00000000000E+00 0. -1.
         11   -1    0    0    0    0 -0.00000000000E+00 -0.00000000000E+00 -0.50000000000E+03  0.50000000000E+03  0.00000000000E+00 0. -1.
        -11    1    1    2    0    0  0.13358308019E+01  0.53928709015E+01  0.30523794489E+03  0.30528850372E+03  0.00000000000E+00 0. -1.
         11    1    1    2    0    0  0.95876879924E+01  0.46426160903E+01 -0.49959504684E+03  0.49970860356E+03  0.00000000000E+00 0. -1.
        -15    1    1    2    0    0 -0.29476123497E+01 -0.41537902629E+01  0.48597116617E+02  0.48895601690E+02  0.17770000000E+01 0.  1.
         15    1    1    2    0    0 -0.79759064446E+01 -0.58816967289E+01  0.14575998533E+03  0.14610729103E+03  0.17770000000E+01 0. -1.
</event>
<event>
 6    1  0.6506903E-004  0.5002171E+03  0.7546771E-02  0.9399324E-01
        -11   -1    0    0    0    0  0.00000000000E+00  0.00000000000E+00  0.50000000000E+03  0.50000000000E+03  0.00000000000E+00 0.  1.
         11   -1    0    0    0    0 -0.00000000000E+00 -0.00000000000E+00 -0.50000000000E+03  0.50000000000E+03  0.00000000000E+00 0.  1.
        -11    1    1    2    0    0  0.95078721915E+01  0.89020614807E+01  0.49961315913E+03  0.49978290798E+03  0.00000000000E+00 0.  1.
         11    1    1    2    0    0 -0.99373488302E+01 -0.26855711005E+01 -0.10109749221E+03  0.10162020530E+03  0.00000000000E+00 0.  1.
        -15    1    1    2    0    0  0.16614960306E+01 -0.15653424834E+01 -0.15886052321E+03  0.15888686047E+03  0.17770000000E+01 0.  1.
         15    1    1    2    0    0 -0.12320193919E+01 -0.46511478969E+01 -0.23965514371E+03  0.23971002625E+03  0.17770000000E+01 0.  1.
</event>
<event>
 6    1  0.6506903E-004  0.5083086E+03  0.7546771E-02  0.9381408E-01
        -11   -1    0    0    0    0  0.00000000000E+00  0.00000000000E+00  0.50000000000E+03  0.50000000000E+03  0.00000000000E+00 0. -1.
         11   -1    0    0    0    0 -0.00000000000E+00 -0.00000000000E+00 -0.50000000000E+03  0.50000000000E+03  0.00000000000E+00 0.  1.
        -11    1    1    2    0    0  0.27347344422E+01  0.10949913759E+02  0.45541273316E+03  0.45555256218E+03  0.00000000000E+00 0. -1.
         11    1    1    2    0    0  0.19209576358E+02  0.12763268666E+01 -0.49131438686E+03  0.49169143126E+03  0.00000000000E+00 0.  1.
        -15    1    1    2    0    0 -0.12883137056E+02 -0.11099700091E+01  0.36012069535E+02  0.38304492360E+02  0.17770000000E+01 0. -1.
         15    1    1    2    0    0 -0.90611737445E+01 -0.11116270617E+02 -0.11041583372E+00  0.14451514201E+02  0.17770000000E+01 0.  1.
</event>
<event>
 6    1  0.6506903E-004  0.5000327E+03  0.7546771E-02  0.9399737E-01
        -11   -1    0    0    0    0  0.00000000000E+00  0.00000000000E+00  0.50000000000E+03  0.50000000000E+03  0.00000000000E+00 0.  1.
         11   -1    0    0    0    0 -0.00000000000E+00 -0.00000000000E+00 -0.50000000000E+03  0.50000000000E+03  0.00000000000E+00 0.  1.
        -11    1    1    2    0    0  0.19964566590E+01 -0.11749034228E+02  0.49982526302E+03  0.49996731813E+03  0.00000000000E+00 0.  1.
         11    1    1    2    0    0 -0.11563260975E+00  0.25467725689E+01 -0.38666337968E+02  0.38750291784E+02  0.00000000000E+00 0.  1.
        -15    1    1    2    0    0  0.44065993497E+00  0.30726327049E+01 -0.11098422627E+03  0.11104184554E+03  0.17770000000E+01 0.  1.
         15    1    1    2    0    0 -0.23214839843E+01  0.61296289538E+01 -0.35017469879E+03  0.35024054454E+03  0.17770000000E+01 0.  1.
</event>
<event>
 6    1  0.6506903E-004  0.4939147E+03  0.7546771E-02  0.9413530E-01
        -11   -1    0    0    0    0  0.00000000000E+00  0.00000000000E+00  0.50000000000E+03  0.50000000000E+03  0.00000000000E+00 0.  1.
         11   -1    0    0    0    0 -0.00000000000E+00 -0.00000000000E+00 -0.50000000000E+03  0.50000000000E+03  0.00000000000E+00 0.  1.
        -11    1    1    2    0    0  0.18644999846E+01 -0.69570309328E+01  0.49721369916E+03  0.49726586377E+03  0.00000000000E+00 0.  1.
         11    1    1    2    0    0  0.85404780490E+01  0.36592867946E+01 -0.10318393061E+02  0.13885221659E+02  0.00000000000E+00 0.  1.
        -15    1    1    2    0    0 -0.15594420260E+02 -0.13058248462E+02 -0.13541989174E+03  0.13695038738E+03  0.17770000000E+01 0. -1.
         15    1    1    2    0    0  0.51894422265E+01  0.16355992600E+02 -0.35147541436E+03  0.35189852718E+03  0.17770000000E+01 0.  1.
</event>
<event>
 6    1  0.6506903E-004  0.5008030E+03  0.7546771E-02  0.9398015E-01
        -11   -1    0    0    0    0  0.00000000000E+00  0.00000000000E+00  0.50000000000E+03  0.50000000000E+03  0.00000000000E+00 0.  1.
         11   -1    0    0    0    0 -0.00000000000E+00 -0.00000000000E+00 -0.50000000000E+03  0.50000000000E+03  0.00000000000E+00 0. -1.
        -11    1    1    2    0    0 -0.29261578683E+01  0.45603441013E+01  0.39337438426E+03  0.39341169953E+03  0.00000000000E+00 0.  1.
         11    1    1    2    0    0  0.79994413876E+01  0.76787019600E+00 -0.49913232134E+03  0.49919701010E+03  0.00000000000E+00 0. -1.
        -15    1    1    2    0    0  0.28447932791E+01 -0.89603467834E+01  0.46933532516E+02  0.47898798176E+02  0.17770000000E+01 0. -1.
         15    1    1    2    0    0 -0.79180767984E+01  0.36321324861E+01  0.58824404562E+02  0.59492492196E+02  0.17770000000E+01 0.  1.
</event>
<event>
 6    1  0.6506903E-004  0.5002009E+03  0.7546771E-02  0.9399360E-01
        -11   -1    0    0    0    0  0.00000000000E+00  0.00000000000E+00  0.50000000000E+03  0.50000000000E+03  0.00000000000E+00 0.  1.
         11   -1    0    0    0    0 -0.00000000000E+00 -0.00000000000E+00 -0.50000000000E+03  0.50000000000E+03  0.00000000000E+00 0. -1.
        -11    1    1    2    0    0 -0.16761760545E+02  0.14522909917E+02  0.31967243658E+03  0.32044084983E+03  0.00000000000E+00 0.  1.
         11    1    1    2    0    0  0.20324403368E+02 -0.10035179963E+02 -0.49928487016E+03  0.49979912743E+03  0.00000000000E+00 0. -1.
        -15    1    1    2    0    0 -0.23414532262E+01 -0.14203336002E+01  0.59906640037E+02  0.59995524836E+02  0.17770000000E+01 0.  1.
         15    1    1    2    0    0 -0.12211895967E+01 -0.30673963534E+01  0.11970579354E+03  0.11976449791E+03  0.17770000000E+01 0.  1.
</event>
<event>
 6    1  0.6506903E-004  0.5121045E+03  0.7546771E-02  0.9373125E-01
        -11   -1    0    0    0    0  0.00000000000E+00  0.00000000000E+00  0.50000000000E+03  0.50000000000E+03  0.00000000000E+00 0.  1.
         11   -1    0    0    0    0 -0.00000000000E+00 -0.00000000000E+00 -0.50000000000E+03  0.50000000000E+03  0.00000000000E+00 0. -1.
        -11    1    1    2    0    0  0.76587883999E+02  0.98883860206E+02  0.47159127612E+03  0.48789553544E+03  0.00000000000E+00 0.  1.
         11    1    1    2    0    0 -0.90376011678E+02 -0.12101651667E+02 -0.14427700149E+03  0.17067550093E+03  0.00000000000E+00 0. -1.
        -15    1    1    2    0    0  0.27392344254E+02 -0.57261502154E+02 -0.19090579927E+03  0.20118996515E+03  0.17770000000E+01 0. -1.
         15    1    1    2    0    0 -0.13604216575E+02 -0.29520706385E+02 -0.13640847536E+03  0.14023899848E+03  0.17770000000E+01 0.  1.
</event>
<event>
 6    1  0.6506903E-004  0.5036652E+03  0.7546771E-02  0.9391646E-01
        -11   -1    0    0    0    0  0.00000000000E+00  0.00000000000E+00  0.50000000000E+03  0.50000000000E+03  0.00000000000E+00 0.  1.
         11   -1    0    0    0    0 -0.00000000000E+00 -0.00000000000E+00 -0.50000000000E+03  0.50000000000E+03  0.00000000000E+00 0.  1.
        -11    1    1    2    0    0 -0.10743850208E+01  0.64574374116E+01  0.27368967049E+03  0.27376794651E+03  0.00000000000E+00 0.  1.
         11    1    1    2    0    0  0.22981745467E+02 -0.67816126791E+02 -0.49114263202E+03  0.49633483927E+03  0.00000000000E+00 0.  1.
        -15    1    1    2    0    0 -0.21512034268E+02  0.65889634047E+02  0.20809373489E+03  0.21934076621E+03  0.17770000000E+01 0.  1.
         15    1    1    2    0    0 -0.39532617787E+00 -0.45309446672E+01  0.93592266443E+01  0.10556448017E+02  0.17770000000E+01 0. -1.
</event>
<event>
 6    1  0.6506903E-004  0.5002214E+03  0.7546771E-02  0.9399314E-01
        -11   -1    0    0    0    0  0.00000000000E+00  0.00000000000E+00  0.50000000000E+03  0.50000000000E+03  0.00000000000E+00 0. -1.
         11   -1    0    0    0    0 -0.00000000000E+00 -0.00000000000E+00 -0.50000000000E+03  0.50000000000E+03  0.00000000000E+00 0.  1.
        -11    1    1    2    0    0  0.72097535014E+00  0.68794770234E+01  0.49973072076E+03  0.49977859125E+03  0.00000000000E+00 0. -1.
         11    1    1    2    0    0 -0.36992433552E+01  0.50117705940E+01 -0.16977247208E+03  0.16988671085E+03  0.00000000000E+00 0.  1.
        -15    1    1    2    0    0  0.76644832515E+00 -0.41189814399E+01 -0.39938818014E+02  0.40197268123E+02  0.17770000000E+01 0. -1.
         15    1    1    2    0    0  0.22118196799E+01 -0.77722661775E+01 -0.29001943066E+03  0.29013742977E+03  0.17770000000E+01 0.  1.
</event>
<event>
 6    1  0.6506903E-004  0.5040246E+03  0.7546771E-02  0.9390849E-01
        -11   -1    0    0    0    0  0.00000000000E+00  0.00000000000E+00  0.50000000000E+03  0.50000000000E+03  0.00000000000E+00 0. -1.
         11   -1    0    0    0    0 -0.00000000000E+00 -0.00000000000E+00 -0.50000000000E+03  0.50000000000E+03  0.00000000000E+00 0.  1.
        -11    1    1    2    0    0  0.62578386819E+01 -0.30076695437E+01  0.49592678775E+03  0.49597538792E+03  0.00000000000E+00 0. -1.
         11    1    1    2    0    0  0.13462088017E-01 -0.80894832495E+01 -0.48251058550E+03  0.48257839264E+03  0.00000000000E+00 0.  1.
        -15    1    1    2    0    0 -0.55375795073E+01  0.91088956451E+01 -0.14822126278E+02  0.18343661659E+02  0.17770000000E+01 0. -1.
         15    1    1    2    0    0 -0.73372126265E+00  0.19882571481E+01  0.14059240337E+01  0.31025577782E+01  0.17770000000E+01 0.  1.
</event>
<event>
 6    1  0.6506903E-004  0.4857112E+03  0.7546771E-02  0.9432362E-01
        -11   -1    0    0    0    0  0.00000000000E+00  0.00000000000E+00  0.50000000000E+03  0.50000000000E+03  0.00000000000E+00 0. -1.
         11   -1    0    0    0    0 -0.00000000000E+00 -0.00000000000E+00 -0.50000000000E+03  0.50000000000E+03  0.00000000000E+00 0. -1.
        -11    1    1    2    0    0 -0.40708029922E+01 -0.67478844772E+01  0.48327969076E+03  0.48334394056E+03  0.00000000000E+00 0. -1.
         11    1    1    2    0    0  0.15663637545E+02 -0.12796977783E+02 -0.48793624758E+03  0.48835529472E+03  0.00000000000E+00 0. -1.
        -15    1    1    2    0    0 -0.59265478105E+01  0.15022035231E+02  0.10039193055E+02  0.19097869976E+02  0.17770000000E+01 0. -1.
         15    1    1    2    0    0 -0.56662867419E+01  0.45228270290E+01 -0.53826362367E+01  0.92028947420E+01  0.17770000000E+01 0.  1.
</event>
<event>
 6    1  0.6506903E-004  0.5032389E+03  0.7546771E-02  0.9392591E-01
        -11   -1    0    0    0    0  0.00000000000E+00  0.00000000000E+00  0.50000000000E+03  0.50000000000E+03  0.00000000000E+00 0.  1.
         11   -1    0    0    0    0 -0.00000000000E+00 -0.00000000000E+00 -0.50000000000E+03  0.50000000000E+03  0.00000000000E+00 0. -1.
        -11    1    1    2    0    0 -0.34922040798E+01  0.74067200798E+01  0.49669359876E+03  0.49676109554E+03  0.00000000000E+00 0.  1.
         11    1    1    2    0    0  0.63526188123E+01 -0.46978941461E+01 -0.48137434961E+03  0.48143918664E+03  0.00000000000E+00 0. -1.
        -15    1    1    2    0    0  0.22686665751E+01 -0.74344497087E+01 -0.57704309140E+01  0.98424332577E+01  0.17770000000E+01 0.  1.
         15    1    1    2    0    0 -0.51290813076E+01  0.47256237749E+01 -0.95488182450E+01  0.11957284558E+02  0.17770000000E+01 0. -1.
</event>
<event>
 6    1  0.6506903E-004  0.5073894E+03  0.7546771E-02  0.9383425E-01
        -11   -1    0    0    0    0  0.00000000000E+00  0.00000000000E+00  0.50000000000E+03  0.50000000000E+03  0.00000000000E+00 0. -1.
         11   -1    0    0    0    0 -0.00000000000E+00 -0.00000000000E+00 -0.50000000000E+03  0.50000000000E+03  0.00000000000E+00 0.  1.
        -11    1    1    2    0    0  0.81585136582E+01 -0.49632655606E+01  0.49251801279E+03  0.49261058481E+03  0.00000000000E+00 0. -1.
         11    1    1    2    0    0  0.11481922362E+02  0.75671416518E+01 -0.48033697053E+03  0.48053376722E+03  0.00000000000E+00 0.  1.
        -15    1    1    2    0    0 -0.12484526152E+02 -0.66581422959E+01 -0.11668471415E+02  0.18425667050E+02  0.17770000000E+01 0.  1.
         15    1    1    2    0    0 -0.71559098676E+01  0.40542662047E+01 -0.51257083829E+00  0.84299809227E+01  0.17770000000E+01 0. -1.
</event>
<event>
 6    1  0.6506903E-004  0.5014360E+03  0.7546771E-02  0.9396602E-01
        -11   -1    0    0    0    0  0.00000000000E+00  0.00000000000E+00  0.50000000000E+03  0.50000000000E+03  0.00000000000E+00 0.  1.
         11   -1    0    0    0    0 -0.00000000000E+00 -0.00000000000E+00 -0.50000000000E+03  0.50000000000E+03  0.00000000000E+00 0. -1.
        -11    1    1    2    0    0 -0.11001092087E+02  0.74211649389E+01  0.49838735549E+03  0.49856399171E+03  0.00000000000E+00 0.  1.
         11    1    1    2    0    0 -0.12871577666E+00 -0.64970571573E+01 -0.67890237796E+01  0.93978275861E+01  0.00000000000E+00 0. -1.
        -15    1    1    2    0    0  0.14433029998E+02  0.33568739323E+01 -0.38320437265E+03  0.38349488902E+03  0.17770000000E+01 0. -1.
         15    1    1    2    0    0 -0.33032221337E+01 -0.42809817139E+01 -0.10839395906E+03  0.10854329168E+03  0.17770000000E+01 0.  1.
</event>
<event>
 6    1  0.6506903E-004  0.5157080E+03  0.7546771E-02  0.9365332E-01
        -11   -1    0    0    0    0  0.00000000000E+00  0.00000000000E+00  0.50000000000E+03  0.50000000000E+03  0.00000000000E+00 0.  1.
         11   -1    0    0    0    0 -0.00000000000E+00 -0.00000000000E+00 -0.50000000000E+03  0.50000000000E+03  0.00000000000E+00 0.  1.
        -11    1    1    2    0    0  0.38441491884E+01 -0.71954096892E+01  0.48422332331E+03  0.48429203817E+03  0.00000000000E+00 0.  1.
         11    1    1    2    0    0 -0.65390939123E+02  0.14228129626E+02 -0.33682629102E+03  0.34340990801E+03  0.00000000000E+00 0.  1.
        -15    1    1    2    0    0  0.72052018342E+02 -0.44082166436E+01 -0.14351812843E+03  0.16065969201E+03  0.17770000000E+01 0.  1.
         15    1    1    2    0    0 -0.10505228408E+02 -0.26245032928E+01 -0.38789038576E+01  0.11638361808E+02  0.17770000000E+01 0. -1.
</event>
<event>
 6    1  0.6506903E-004  0.5004399E+03  0.7546771E-02  0.9398826E-01
        -11   -1    0    0    0    0  0.00000000000E+00  0.00000000000E+00  0.50000000000E+03  0.50000000000E+03  0.00000000000E+00 0. -1.
         11   -1    0    0    0    0 -0.00000000000E+00 -0.00000000000E+00 -0.50000000000E+03  0.50000000000E+03  0.00000000000E+00 0. -1.
        -11    1    1    2    0    0 -0.89940285475E+01  0.10413793235E+01  0.49947805897E+03  0.49956011492E+03  0.00000000000E+00 0. -1.
         11    1    1    2    0    0  0.52760242454E+01  0.30646186811E+01 -0.34631456844E+02  0.35164842138E+02  0.00000000000E+00 0. -1.
        -15    1    1    2    0    0  0.15968274022E+01 -0.11664310223E+02 -0.27121868047E+03  0.27147990047E+03  0.17770000000E+01 0. -1.
         15    1    1    2    0    0  0.21211768999E+01  0.75583122183E+01 -0.19362792165E+03  0.19379514248E+03  0.17770000000E+01 0.  1.
</event>
<event>
 6    1  0.6506903E-004  0.4832874E+03  0.7546771E-02  0.9438002E-01
        -11   -1    0    0    0    0  0.00000000000E+00  0.00000000000E+00  0.50000000000E+03  0.50000000000E+03  0.00000000000E+00 0. -1.
         11   -1    0    0    0    0 -0.00000000000E+00 -0.00000000000E+00 -0.50000000000E+03  0.50000000000E+03  0.00000000000E+00 0.  1.
        -11    1    1    2    0    0  0.38545567577E+01  0.10146226707E+02  0.48111997696E+03  0.48124238774E+03  0.00000000000E+00 0. -1.
         11    1    1    2    0    0 -0.20740802334E+02  0.12986649745E+02 -0.48514826670E+03  0.48576504056E+03  0.00000000000E+00 0.  1.
        -15    1    1    2    0    0  0.11851014260E+02 -0.40730338072E+01 -0.57814854035E+00  0.12669969539E+02  0.17770000000E+01 0. -1.
         15    1    1    2    0    0  0.50352313158E+01 -0.19059842645E+02  0.46064382764E+01  0.20322602162E+02  0.17770000000E+01 0.  1.
</event>
<event>
 6    1  0.6506903E-004  0.5024820E+03  0.7546771E-02  0.9394273E-01
        -11   -1    0    0    0    0  0.00000000000E+00  0.00000000000E+00  0.50000000000E+03  0.50000000000E+03  0.00000000000E+00 0. -1.
         11   -1    0    0    0    0 -0.00000000000E+00 -0.00000000000E+00 -0.50000000000E+03  0.50000000000E+03  0.00000000000E+00 0.  1.
        -11    1    1    2    0    0  0.55700980495E+01 -0.41776145551E+01  0.49746928238E+03  0.49751800507E+03  0.00000000000E+00 0. -1.
         11    1    1    2    0    0  0.47534241351E+01  0.13006826158E+02 -0.47069050040E+03  0.47089417042E+03  0.00000000000E+00 0.  1.
        -15    1    1    2    0    0 -0.86965478382E+01 -0.29475102142E+01 -0.21036824200E+02  0.23022238427E+02  0.17770000000E+01 0.  1.
         15    1    1    2    0    0 -0.16269743464E+01 -0.58817013886E+01 -0.57419577785E+01  0.85655860790E+01  0.17770000000E+01 0. -1.
</event>
<event>
 6    1  0.6506903E-004  0.5026402E+03  0.7546771E-02  0.9393921E-01
        -11   -1    0    0    0    0  0.00000000000E+00  0.00000000000E+00  0.50000000000E+03  0.50000000000E+03  0.00000000000E+00 0.  1.
         11   -1    0    0    0    0 -0.00000000000E+00 -0.00000000000E+00 -0.50000000000E+03  0.50000000000E+03  0.00000000000E+00 0.  1.
        -11    1    1    2    0    0  0.11650908180E+02 -0.35673478831E+01  0.49721050354E+03  0.49735978372E+03  0.00000000000E+00 0.  1.
         11    1    1    2    0    0 -0.92109911797E+01  0.20962989049E+02 -0.46357603139E+03  0.46414117050E+03  0.00000000000E+00 0.  1.
        -15    1    1    2    0    0 -0.15736566559E+01 -0.14893317776E+02 -0.23947629246E+02  0.28300777112E+02  0.17770000000E+01 0.  1.
         15    1    1    2    0    0 -0.86626034423E+00 -0.25023233894E+01 -0.96868429047E+01  0.10198268666E+02  0.17770000000E+01 0. -1.
</event>
<event>
 6    1  0.6506903E-004  0.5018388E+03  0.7546771E-02  0.9395705E-01
        -11   -1    0    0    0    0  0.00000000000E+00  0.00000000000E+00  0.50000000000E+03  0.50000000000E+03  0.00000000000E+00 0. -1.
         11   -1    0    0    0    0 -0.00000000000E+00 -0.00000000000E+00 -0.50000000000E+03  0.50000000000E+03  0.00000000000E+00 0. -1.
        -11    1    1    2    0    0  0.96736097269E+01 -0.29947155087E+01  0.49805829518E+03  0.49816123137E+03  0.00000000000E+00 0. -1.
         11    1    1    2    0    0 -0.80044274325E+01 -0.16493465421E+02 -0.43308011504E+03  0.43346798186E+03  0.00000000000E+00 0. -1.
        -15    1    1    2    0    0  0.16086503652E+01  0.15936713408E+02 -0.49838810726E+02  0.52379684744E+02  0.17770000000E+01 0. -1.
         15    1    1    2    0    0 -0.32778326596E+01  0.35514675218E+01 -0.15139369418E+02  0.15991102022E+02  0.17770000000E+01 0.  1.
</event>
<event>
 6    1  0.6506903E-004  0.5021455E+03  0.7546771E-02  0.9395022E-01
        -11   -1    0    0    0    0  0.00000000000E+00  0.00000000000E+00  0.50000000000E+03  0.50000000000E+03  0.00000000000E+00 0. -1.
         11   -1    0    0    0    0 -0.00000000000E+00 -0.00000000000E+00 -0.50000000000E+03  0.50000000000E+03  0.00000000000E+00 0.  1.
        -11    1    1    2    0    0 -0.24753465661E+02  0.17809884177E+02  0.49691971414E+03  0.49785452527E+03  0.00000000000E+00 0. -1.
         11    1    1    2    0    0  0.21540577895E+02  0.11897601779E+02 -0.24717426513E+03  0.24839618911E+03  0.00000000000E+00 0.  1.
        -15    1    1    2    0    0  0.16415818700E+02 -0.10459504702E+02 -0.77797703989E+02  0.80215464950E+02  0.17770000000E+01 0. -1.
         15    1    1    2    0    0 -0.13202930934E+02 -0.19247981254E+02 -0.17194774502E+03  0.17353382066E+03  0.17770000000E+01 0.  1.
</event>
<event>
 6    1  0.6506903E-004  0.5085953E+03  0.7546771E-02  0.9380780E-01
        -11   -1    0    0    0    0  0.00000000000E+00  0.00000000000E+00  0.50000000000E+03  0.50000000000E+03  0.00000000000E+00 0. -1.
         11   -1    0    0    0    0 -0.00000000000E+00 -0.00000000000E+00 -0.50000000000E+03  0.50000000000E+03  0.00000000000E+00 0.  1.
        -11    1    1    2    0    0 -0.59326372104E+01  0.57535181731E+01  0.49133518785E+03  0.49140468657E+03  0.00000000000E+00 0. -1.
         11    1    1    2    0    0  0.28038618912E+02 -0.94119155739E+01 -0.47033315511E+03  0.47126216176E+03  0.00000000000E+00 0.  1.
        -15    1    1    2    0    0 -0.17656873119E+02  0.11867970924E+02 -0.14059292431E+02  0.25562381244E+02  0.17770000000E+01 0. -1.
         15    1    1    2    0    0 -0.44491085827E+01 -0.82095735231E+01 -0.69427403080E+01  0.11770770433E+02  0.17770000000E+01 0.  1.
</event>
<event>
 6    1  0.6506903E-004  0.5009802E+03  0.7546771E-02  0.9397619E-01
        -11   -1    0    0    0    0  0.00000000000E+00  0.00000000000E+00  0.50000000000E+03  0.50000000000E+03  0.00000000000E+00 0. -1.
         11   -1    0    0    0    0 -0.00000000000E+00 -0.00000000000E+00 -0.50000000000E+03  0.50000000000E+03  0.00000000000E+00 0.  1.
        -11    1    1    2    0    0 -0.12440430147E+02 -0.85557824663E+01  0.49879130408E+03  0.49901976989E+03  0.00000000000E+00 0. -1.
         11    1    1    2    0    0  0.17585479665E+02  0.21917795915E+02 -0.33688419659E+03  0.33805413884E+03  0.00000000000E+00 0.  1.
        -15    1    1    2    0    0 -0.46268057760E+01 -0.39116811552E+01 -0.29442604618E+02  0.30112012169E+02  0.17770000000E+01 0.  1.
         15    1    1    2    0    0 -0.51824374167E+00 -0.94503322935E+01 -0.13246450287E+03  0.13281407910E+03  0.17770000000E+01 0. -1.
</event>
<event>
 6    1  0.6506903E-004  0.4541369E+03  0.7546771E-02  0.9508717E-01
        -11   -1    0    0    0    0  0.00000000000E+00  0.00000000000E+00  0.50000000000E+03  0.50000000000E+03  0.00000000000E+00 0.  1.
         11   -1    0    0    0    0 -0.00000000000E+00 -0.00000000000E+00 -0.50000000000E+03  0.50000000000E+03  0.00000000000E+00 0.  1.
        -11    1    1    2    0    0  0.12345853610E+02  0.73418908033E+01  0.45118382900E+03  0.45141241788E+03  0.00000000000E+00 0.  1.
         11    1    1    2    0    0 -0.44230136455E+02 -0.98257499928E+01 -0.45518370550E+03  0.45743311652E+03  0.00000000000E+00 0.  1.
        -15    1    1    2    0    0  0.58170757352E+02  0.15962800582E+02 -0.40555588325E+01  0.60483496094E+02  0.17770000000E+01 0.  1.
         15    1    1    2    0    0 -0.26286474507E+02 -0.13478941393E+02  0.80554353367E+01  0.30670969507E+02  0.17770000000E+01 0. -1.
</event>
<event>
 6    1  0.6506903E-004  0.5055905E+03  0.7546771E-02  0.9387387E-01
        -11   -1    0    0    0    0  0.00000000000E+00  0.00000000000E+00  0.50000000000E+03  0.50000000000E+03  0.00000000000E+00 0.  1.
         11   -1    0    0    0    0 -0.00000000000E+00 -0.00000000000E+00 -0.50000000000E+03  0.50000000000E+03  0.00000000000E+00 0.  1.
        -11    1    1    2    0    0 -0.10965473089E+01  0.72615917265E+01  0.47936917368E+03  0.47942542465E+03  0.00000000000E+00 0.  1.
         11    1    1    2    0    0  0.13442795783E+02 -0.33565972717E+01 -0.49421533534E+03  0.49440951972E+03  0.00000000000E+00 0.  1.
        -15    1    1    2    0    0 -0.26393616661E+01  0.54179876174E+01  0.98817250200E+01  0.11710125456E+02  0.17770000000E+01 0. -1.
         15    1    1    2    0    0 -0.97068868077E+01 -0.93229820722E+01  0.49644366365E+01  0.14454930174E+02  0.17770000000E+01 0.  1.
</event>
<event>
 6    1  0.6506903E-004  0.5003726E+03  0.7546771E-02  0.9398976E-01
        -11   -1    0    0    0    0  0.00000000000E+00  0.00000000000E+00  0.50000000000E+03  0.50000000000E+03  0.00000000000E+00 0. -1.
         11   -1    0    0    0    0 -0.00000000000E+00 -0.00000000000E+00 -0.50000000000E+03  0.50000000000E+03  0.00000000000E+00 0.  1.
        -11    1    1    2    0    0  0.35083138849E+01 -0.67670286661E+01  0.35913670120E+03  0.35921758182E+03  0.00000000000E+00 0. -1.
         11    1    1    2    0    0 -0.15813739073E+01  0.86478828539E+01 -0.49955000281E+03  0.49962735306E+03  0.00000000000E+00 0.  1.
        -15    1    1    2    0    0  0.47917958892E+01 -0.19197889240E+01  0.28007715046E+02  0.28534833598E+02  0.17770000000E+01 0.  1.
         15    1    1    2    0    0 -0.67187358668E+01  0.38934736245E-01  0.11240558656E+03  0.11262023152E+03  0.17770000000E+01 0. -1.
</event>
<event>
 6    1  0.6506903E-004  0.5029102E+03  0.7546771E-02  0.9393321E-01
        -11   -1    0    0    0    0  0.00000000000E+00  0.00000000000E+00  0.50000000000E+03  0.50000000000E+03  0.00000000000E+00 0. -1.
         11   -1    0    0    0    0 -0.00000000000E+00 -0.00000000000E+00 -0.50000000000E+03  0.50000000000E+03  0.00000000000E+00 0. -1.
        -11    1    1    2    0    0  0.84253262759E+01 -0.42667253662E+02  0.49518356269E+03  0.49708977198E+03  0.00000000000E+00 0. -1.
         11    1    1    2    0    0 -0.92683532355E+01 -0.12181039690E+02 -0.20128125978E+03  0.20186239283E+03  0.00000000000E+00 0. -1.
        -15    1    1    2    0    0  0.79186692111E+01  0.52222507492E+02 -0.28152430830E+03  0.28644194788E+03  0.17770000000E+01 0. -1.
         15    1    1    2    0    0 -0.70756422515E+01  0.26257858597E+01 -0.12377994603E+02  0.14605887308E+02  0.17770000000E+01 0.  1.
</event>
<event>
 6    1  0.6506903E-004  0.5009755E+03  0.7546771E-02  0.9397630E-01
        -11   -1    0    0    0    0  0.00000000000E+00  0.00000000000E+00  0.50000000000E+03  0.50000000000E+03  0.00000000000E+00 0.  1.
         11   -1    0    0    0    0 -0.00000000000E+00 -0.00000000000E+00 -0.50000000000E+03  0.50000000000E+03  0.00000000000E+00 0.  1.
        -11    1    1    2    0    0  0.36023080534E+01 -0.57298653904E+01  0.49897862251E+03  0.49902452214E+03  0.00000000000E+00 0.  1.
         11    1    1    2    0    0 -0.82526337482E+00  0.12858393920E+02 -0.46376158953E+03  0.46394054713E+03  0.00000000000E+00 0.  1.
        -15    1    1    2    0    0 -0.33592212280E+01 -0.22145153514E+01 -0.65503716873E+01  0.78900914914E+01  0.17770000000E+01 0.  1.
         15    1    1    2    0    0  0.58217654942E+00 -0.49140131787E+01 -0.28666661296E+02  0.29144839233E+02  0.17770000000E+01 0. -1.
</event>
<event>
 6    1  0.6506903E-004  0.5021175E+03  0.7546771E-02  0.9395084E-01
        -11   -1    0    0    0    0  0.00000000000E+00  0.00000000000E+00  0.50000000000E+03  0.50000000000E+03  0.00000000000E+00 0.  1.
         11   -1    0    0    0    0 -0.00000000000E+00 -0.00000000000E+00 -0.50000000000E+03  0.50000000000E+03  0.00000000000E+00 0.  1.
        -11    1    1    2    0    0  0.12044164010E+02 -0.71112878129E+01  0.49768604469E+03  0.49788254778E+03  0.00000000000E+00 0.  1.
         11    1    1    2    0    0  0.13184293994E+02 -0.43923820379E+01 -0.37652566386E+03  0.37678202474E+03  0.00000000000E+00 0.  1.
        -15    1    1    2    0    0 -0.44363539290E+01  0.34224323605E+01 -0.76889433694E+01  0.96784223189E+01  0.17770000000E+01 0. -1.
         15    1    1    2    0    0 -0.20792104075E+02  0.80812374904E+01 -0.11347143747E+03  0.11565700516E+03  0.17770000000E+01 0.  1.
</event>
<event>
 6    1  0.6506903E-004  0.5003494E+03  0.7546771E-02  0.9399028E-01
        -11   -1    0    0    0    0  0.00000000000E+00  0.00000000000E+00  0.50000000000E+03  0.50000000000E+03  0.00000000000E+00 0. -1.
         11   -1    0    0    0    0 -0.00000000000E+00 -0.00000000000E+00 -0.50000000000E+03  0.50000000000E+03  0.00000000000E+00 0.  1.
        -11    1    1    2    0    0  0.14634704126E+02  0.61617692512E+01  0.20331008293E+03  0.20392923230E+03  0.00000000000E+00 0. -1.
         11    1    1    2    0    0 -0.33696088118E+02 -0.32614338590E+02 -0.49744510086E+03  0.49965062775E+03  0.00000000000E+00 0.  1.
        -15    1    1    2    0    0  0.12911389844E+01  0.77778159003E+01  0.13122091012E+03  0.13146956470E+03  0.17770000000E+01 0. -1.
         15    1    1    2    0    0  0.17770245007E+02  0.18674753439E+02  0.16291410780E+03  0.16495057525E+03  0.17770000000E+01 0.  1.
</event>
<event>
 6    1  0.6506903E-004  0.5004407E+03  0.7546771E-02  0.9398824E-01
        -11   -1    0    0    0    0  0.00000000000E+00  0.00000000000E+00  0.50000000000E+03  0.50000000000E+03  0.00000000000E+00 0.  1.
         11   -1    0    0    0    0 -0.00000000000E+00 -0.00000000000E+00 -0.50000000000E+03  0.50000000000E+03  0.00000000000E+00 0. -1.
        -11    1    1    2    0    0 -0.11986552722E+00  0.74861664831E+01  0.49950320581E+03  0.49955931547E+03  0.00000000000E+00 0.  1.
         11    1    1    2    0    0  0.28054869457E+01 -0.30258775222E+01 -0.99590352400E+01  0.10780031294E+02  0.00000000000E+00 0. -1.
        -15    1    1    2    0    0  0.47576230383E+00  0.23046295302E+01 -0.11466178470E+03  0.11469969601E+03  0.17770000000E+01 0. -1.
         15    1    1    2    0    0 -0.31613837223E+01 -0.67649184911E+01 -0.37488238588E+03  0.37496095722E+03  0.17770000000E+01 0. -1.
</event>
<event>
 6    1  0.6506903E-004  0.3417503E+03  0.7546771E-02  0.9846133E-01
        -11   -1    0    0    0    0  0.00000000000E+00  0.00000000000E+00  0.50000000000E+03  0.50000000000E+03  0.00000000000E+00 0.  1.
         11   -1    0    0    0    0 -0.00000000000E+00 -0.00000000000E+00 -0.50000000000E+03  0.50000000000E+03  0.00000000000E+00 0. -1.
        -11    1    1    2    0    0 -0.37269871507E+02 -0.60763449458E+02  0.33797031371E+03  0.34540580925E+03  0.00000000000E+00 0.  1.
         11    1    1    2    0    0  0.18844936136E+03 -0.99018510754E+02 -0.24278150338E+03  0.32289423292E+03  0.00000000000E+00 0. -1.
        -15    1    1    2    0    0 -0.19233952945E+03  0.16207692494E+03 -0.28310105880E+02  0.25311666087E+03  0.17770000000E+01 0.  1.
         15    1    1    2    0    0  0.41160039599E+02 -0.22949647278E+01 -0.66878704456E+02  0.78583296963E+02  0.17770000000E+01 0. -1.
</event>
<event>
 6    1  0.6506903E-004  0.5008888E+03  0.7546771E-02  0.9397823E-01
        -11   -1    0    0    0    0  0.00000000000E+00  0.00000000000E+00  0.50000000000E+03  0.50000000000E+03  0.00000000000E+00 0.  1.
         11   -1    0    0    0    0 -0.00000000000E+00 -0.00000000000E+00 -0.50000000000E+03  0.50000000000E+03  0.00000000000E+00 0. -1.
        -11    1    1    2    0    0 -0.35079712627E+01  0.89032144080E+01  0.49901946040E+03  0.49911120499E+03  0.00000000000E+00 0.  1.
         11    1    1    2    0    0  0.18728300755E+02  0.48757248330E+01 -0.31674990632E+03  0.31734055066E+03  0.00000000000E+00 0. -1.
        -15    1    1    2    0    0 -0.13489154708E+02 -0.13394067567E+02 -0.16376251810E+03  0.16487170286E+03  0.17770000000E+01 0. -1.
         15    1    1    2    0    0 -0.17311747843E+01 -0.38487167433E+00 -0.18507035977E+02  0.18676541489E+02  0.17770000000E+01 0.  1.
</event>
<event>
 6    1  0.6506903E-004  0.5001212E+03  0.7546771E-02  0.9399539E-01
        -11   -1    0    0    0    0  0.00000000000E+00  0.00000000000E+00  0.50000000000E+03  0.50000000000E+03  0.00000000000E+00 0.  1.
         11   -1    0    0    0    0 -0.00000000000E+00 -0.00000000000E+00 -0.50000000000E+03  0.50000000000E+03  0.00000000000E+00 0. -1.
        -11    1    1    2    0    0  0.10687825879E+02  0.63796209828E+01  0.49972381574E+03  0.49987880651E+03  0.00000000000E+00 0.  1.
         11    1    1    2    0    0 -0.75466924443E+01 -0.86339074306E+01 -0.21789790347E+03  0.21819943461E+03  0.00000000000E+00 0. -1.
        -15    1    1    2    0    0 -0.31196091723E+01  0.11896914601E+01 -0.24994335195E+03  0.24997196691E+03  0.17770000000E+01 0.  1.
         15    1    1    2    0    0 -0.21524262638E-01  0.10645949877E+01 -0.31882560312E+02  0.31949791968E+02  0.17770000000E+01 0. -1.
</event>
<event>
 6    1  0.6506903E-004  0.5005195E+03  0.7546771E-02  0.9398648E-01
        -11   -1    0    0    0    0  0.00000000000E+00  0.00000000000E+00  0.50000000000E+03  0.50000000000E+03  0.00000000000E+00 0.  1.
         11   -1    0    0    0    0 -0.00000000000E+00 -0.00000000000E+00 -0.50000000000E+03  0.50000000000E+03  0.00000000000E+00 0. -1.
        -11    1    1    2    0    0  0.10032890035E+01 -0.67392289765E+01  0.49943405932E+03  0.49948053356E+03  0.00000000000E+00 0.  1.
         11    1    1    2    0    0 -0.47497033060E+01 -0.59209792728E+01 -0.17874535917E+03  0.17890645909E+03  0.00000000000E+00 0. -1.
        -15    1    1    2    0    0  0.46342337248E+01 -0.79578578843E+00 -0.20179504643E+02  0.20796142284E+02  0.17770000000E+01 0.  1.
         15    1    1    2    0    0 -0.88781942219E+00  0.13455994038E+02 -0.30050919551E+03  0.30081686507E+03  0.17770000000E+01 0. -1.
</event>
<event>
 6    1  0.6506903E-004  0.5013436E+03  0.7546771E-02  0.9396808E-01
        -11   -1    0    0    0    0  0.00000000000E+00  0.00000000000E+00  0.50000000000E+03  0.50000000000E+03  0.00000000000E+00 0. -1.
         11   -1    0    0    0    0 -0.00000000000E+00 -0.00000000000E+00 -0.50000000000E+03  0.50000000000E+03  0.00000000000E+00 0. -1.
        -11    1    1    2    0    0 -0.53282084515E+01  0.10557291525E+02  0.31381060692E+03  0.31403334732E+03  0.00000000000E+00 0. -1.
         11    1    1    2    0    0 -0.40150569492E+01  0.15063051040E+02 -0.49841262851E+03  0.49865635907E+03  0.00000000000E+00 0. -1.
        -15    1    1    2    0    0  0.15073433983E+01 -0.61796165548E+01  0.96740983745E+02  0.96966156002E+02  0.17770000000E+01 0.  1.
         15    1    1    2    0    0  0.78359220024E+01 -0.19440726010E+02  0.87861037837E+02  0.90344137608E+02  0.17770000000E+01 0. -1.
</event>
<event>
 6    1  0.6506903E-004  0.5019811E+03  0.7546771E-02  0.9395388E-01
        -11   -1    0    0    0    0  0.00000000000E+00  0.00000000000E+00  0.50000000000E+03  0.50000000000E+03  0.00000000000E+00 0.  1.
         11   -1    0    0    0    0 -0.00000000000E+00 -0.00000000000E+00 -0.50000000000E+03  0.50000000000E+03  0.00000000000E+00 0. -1.
        -11    1    1    2    0    0  0.14432681898E+02  0.71779643649E+01  0.26430629281E+03  0.26479736006E+03  0.00000000000E+00 0.  1.
         11    1    1    2    0    0 -0.49623741928E+02  0.62062759999E+00 -0.49554004648E+03  0.49801891390E+03  0.00000000000E+00 0. -1.
        -15    1    1    2    0    0  0.42804486215E+02 -0.63645771809E+01  0.16975057560E+03  0.17518889100E+03  0.17770000000E+01 0.  1.
         15    1    1    2    0    0 -0.76134261847E+01 -0.14340147840E+01  0.61483178067E+02  0.61994835034E+02  0.17770000000E+01 0. -1.
</event>
<event>
 6    1  0.6506903E-004  0.5057520E+03  0.7546771E-02  0.9387030E-01
        -11   -1    0    0    0    0  0.00000000000E+00  0.00000000000E+00  0.50000000000E+03  0.50000000000E+03  0.00000000000E+00 0.  1.
         11   -1    0    0    0    0 -0.00000000000E+00 -0.00000000000E+00 -0.50000000000E+03  0.50000000000E+03  0.00000000000E+00 0.  1.
        -11    1    1    2    0    0 -0.27993409981E+00  0.79110492208E+01  0.46414139203E+03  0.46420889140E+03  0.00000000000E+00 0.  1.
         11    1    1    2    0    0  0.10054083373E+02  0.11148618210E+02 -0.49401997043E+03  0.49424802222E+03  0.00000000000E+00 0.  1.
        -15    1    1    2    0    0 -0.76032612222E+00 -0.14912092957E+02  0.70897175688E+01  0.16624392812E+02  0.17770000000E+01 0. -1.
         15    1    1    2    0    0 -0.90138231511E+01 -0.41475744736E+01  0.22788860837E+02  0.24918693566E+02  0.17770000000E+01 0.  1.
</event>
<event>
 6    1  0.6506903E-004  0.5067007E+03  0.7546771E-02  0.9384940E-01
        -11   -1    0    0    0    0  0.00000000000E+00  0.00000000000E+00  0.50000000000E+03  0.50000000000E+03  0.00000000000E+00 0.  1.
         11   -1    0    0    0    0 -0.00000000000E+00 -0.00000000000E+00 -0.50000000000E+03  0.50000000000E+03  0.00000000000E+00 0. -1.
        -11    1    1    2    0    0  0.62901096086E+01 -0.53498708225E+01  0.49323021048E+03  0.49329932813E+03  0.00000000000E+00 0.  1.
         11    1    1    2    0    0 -0.59620393974E+01  0.27513080668E+02 -0.47314871685E+03  0.47398546790E+03  0.00000000000E+00 0. -1.
        -15    1    1    2    0    0 -0.11861193554E+01  0.96329663211E+00 -0.61729904341E+00  0.24235524825E+01  0.17770000000E+01 0.  1.
         15    1    1    2    0    0  0.85804914424E+00 -0.23126506478E+02 -0.19464194590E+02  0.30291651494E+02  0.17770000000E+01 0. -1.
</event>
<event>
 6    1  0.6506903E-004  0.5000494E+03  0.7546771E-02  0.9399699E-01
        -11   -1    0    0    0    0  0.00000000000E+00  0.00000000000E+00  0.50000000000E+03  0.50000000000E+03  0.00000000000E+00 0.  1.
         11   -1    0    0    0    0 -0.00000000000E+00 -0.00000000000E+00 -0.50000000000E+03  0.50000000000E+03  0.00000000000E+00 0. -1.
        -11    1    1    2    0    0  0.59896360686E+01 -0.97096444495E+01  0.49982037630E+03  0.49995055906E+03  0.00000000000E+00 0.  1.
         11    1    1    2    0    0 -0.53749174887E+01  0.30540549562E+01 -0.17148122118E+03  0.17159261699E+03  0.00000000000E+00 0. -1.
        -15    1    1    2    0    0  0.16332061067E+01  0.16123290810E+01 -0.13249819938E+03  0.13252998730E+03  0.17770000000E+01 0. -1.
         15    1    1    2    0    0 -0.22479246866E+01  0.50432604123E+01 -0.19584095575E+03  0.19592683665E+03  0.17770000000E+01 0. -1.
</event>
<event>
 6    1  0.6506903E-004  0.5031969E+03  0.7546771E-02  0.9392685E-01
        -11   -1    0    0    0    0  0.00000000000E+00  0.00000000000E+00  0.50000000000E+03  0.50000000000E+03  0.00000000000E+00 0. -1.
         11   -1    0    0    0    0 -0.00000000000E+00 -0.00000000000E+00 -0.50000000000E+03  0.50000000000E+03  0.00000000000E+00 0.  1.
        -11    1    1    2    0    0 -0.98387392492E+02 -0.55256057189E+02  0.48381816707E+03  0.49680310954E+03  0.00000000000E+00 0. -1.
         11    1    1    2    0    0  0.83082909297E+02  0.60075936901E+02 -0.27324111036E+03  0.29184343817E+03  0.00000000000E+00 0.  1.
        -15    1    1    2    0    0  0.11406860872E+02 -0.67399388156E+01 -0.16158312164E+03  0.16213514788E+03  0.17770000000E+01 0. -1.
         15    1    1    2    0    0  0.38976223223E+01  0.19200591039E+01 -0.48993935072E+02  0.49218304416E+02  0.17770000000E+01 0. -1.
</event>
<event>
 6    1  0.6506903E-004  0.5004346E+03  0.7546771E-02  0.9398838E-01
        -11   -1    0    0    0    0  0.00000000000E+00  0.00000000000E+00  0.50000000000E+03  0.50000000000E+03  0.00000000000E+00 0. -1.
         11   -1    0    0    0    0 -0.00000000000E+00 -0.00000000000E+00 -0.50000000000E+03  0.50000000000E+03  0.00000000000E+00 0. -1.
        -11    1    1    2    0    0  0.12775502037E+01  0.13292007194E+01  0.10221301841E+03  0.10222964365E+03  0.00000000000E+00 0. -1.
         11    1    1    2    0    0 -0.25353977200E+02 -0.86758179774E+01 -0.49884614979E+03  0.49956538625E+03  0.00000000000E+00 0. -1.
        -15    1    1    2    0    0  0.17446198670E+02  0.11884522831E+02  0.15607113343E+03  0.15750227982E+03  0.17770000000E+01 0.  1.
         15    1    1    2    0    0  0.66302283264E+01 -0.45379055730E+01  0.24056199796E+03  0.24070269027E+03  0.17770000000E+01 0. -1.
</event>
<event>
 6    1  0.6506903E-004  0.5022057E+03  0.7546771E-02  0.9394888E-01
        -11   -1    0    0    0    0  0.00000000000E+00  0.00000000000E+00  0.50000000000E+03  0.50000000000E+03  0.00000000000E+00 0. -1.
         11   -1    0    0    0    0 -0.00000000000E+00 -0.00000000000E+00 -0.50000000000E+03  0.50000000000E+03  0.00000000000E+00 0.  1.
        -11    1    1    2    0    0  0.37990007786E+01 -0.32953204359E+01  0.22127644186E+03  0.22133358369E+03  0.00000000000E+00 0. -1.
         11    1    1    2    0    0  0.58986119557E+01  0.58430175535E+02 -0.49431803762E+03  0.49779433641E+03  0.00000000000E+00 0.  1.
        -15    1    1    2    0    0 -0.11321026093E+02 -0.40340862883E+02  0.24924566358E+03  0.25274910364E+03  0.17770000000E+01 0. -1.
         15    1    1    2    0    0  0.16234133583E+01 -0.14793992216E+02  0.23795932182E+02  0.28122976265E+02  0.17770000000E+01 0.  1.
</event>
<event>
 6    1  0.6506903E-004  0.5000581E+03  0.7546771E-02  0.9399680E-01
        -11   -1    0    0    0    0  0.00000000000E+00  0.00000000000E+00  0.50000000000E+03  0.50000000000E+03  0.00000000000E+00 0. -1.
         11   -1    0    0    0    0 -0.00000000000E+00 -0.00000000000E+00 -0.50000000000E+03  0.50000000000E+03  0.00000000000E+00 0. -1.
        -11    1    1    2    0    0 -0.59312405916E+01  0.33829851574E+01  0.20271487617E+03  0.20282984303E+03  0.00000000000E+00 0. -1.
         11    1    1    2    0    0  0.59059376961E+01 -0.11725544789E+02 -0.49976949393E+03  0.49994191218E+03  0.00000000000E+00 0. -1.
        -15    1    1    2    0    0 -0.22267754016E+01  0.40835472828E+01  0.16003525200E+03  0.16011269000E+03  0.17770000000E+01 0.  1.
         15    1    1    2    0    0  0.22520782970E+01  0.42590123484E+01  0.13701936576E+03  0.13711555478E+03  0.17770000000E+01 0. -1.
</event>
<event>
 6    1  0.6506903E-004  0.5002303E+03  0.7546771E-02  0.9399295E-01
        -11   -1    0    0    0    0  0.00000000000E+00  0.00000000000E+00  0.50000000000E+03  0.50000000000E+03  0.00000000000E+00 0. -1.
         11   -1    0    0    0    0 -0.00000000000E+00 -0.00000000000E+00 -0.50000000000E+03  0.50000000000E+03  0.00000000000E+00 0.  1.
        -11    1    1    2    0    0 -0.63681942799E+01 -0.20558687689E+01  0.39200308472E+03  0.39206019809E+03  0.00000000000E+00 0. -1.
         11    1    1    2    0    0  0.63094480973E+01  0.26944268939E+01 -0.49972261808E+03  0.49976971106E+03  0.00000000000E+00 0.  1.
        -15    1    1    2    0    0  0.24894610418E+01  0.23158655517E+01  0.20969753749E+02  0.21317808303E+02  0.17770000000E+01 0.  1.
         15    1    1    2    0    0 -0.24307148592E+01 -0.29544236767E+01  0.86749779610E+02  0.86852282557E+02  0.17770000000E+01 0. -1.
</event>
<event>
 6    1  0.6506903E-004  0.5047509E+03  0.7546771E-02  0.9389242E-01
        -11   -1    0    0    0    0  0.00000000000E+00  0.00000000000E+00  0.50000000000E+03  0.50000000000E+03  0.00000000000E+00 0. -1.
         11   -1    0    0    0    0 -0.00000000000E+00 -0.00000000000E+00 -0.50000000000E+03  0.50000000000E+03  0.00000000000E+00 0. -1.
        -11    1    1    2    0    0 -0.10268150350E-01  0.11066048731E+02  0.49512547368E+03  0.49524912138E+03  0.00000000000E+00 0. -1.
         11    1    1    2    0    0  0.19164727947E+02 -0.20312609340E+02 -0.46807579756E+03  0.46890813723E+03  0.00000000000E+00 0. -1.
        -15    1    1    2    0    0 -0.18065478586E+02  0.87608273093E+01 -0.19686843460E+02  0.28175222201E+02  0.17770000000E+01 0. -1.
         15    1    1    2    0    0 -0.10889812109E+01  0.48573330018E+00 -0.73628326562E+01  0.76675191972E+01  0.17770000000E+01 0.  1.
</event>
<event>
 6    1  0.6506903E-004  0.5005214E+03  0.7546771E-02  0.9398644E-01
        -11   -1    0    0    0    0  0.00000000000E+00  0.00000000000E+00  0.50000000000E+03  0.50000000000E+03  0.00000000000E+00 0. -1.
         11   -1    0    0    0    0 -0.00000000000E+00 -0.00000000000E+00 -0.50000000000E+03  0.50000000000E+03  0.00000000000E+00 0. -1.
        -11    1    1    2    0    0  0.45159402815E+01 -0.66583558722E+01  0.49941384673E+03  0.49947864592E+03  0.00000000000E+00 0. -1.
         11    1    1    2    0    0 -0.49385202235E+01 -0.91093340961E+01 -0.23507269425E+03  0.23530095736E+03  0.00000000000E+00 0. -1.
        -15    1    1    2    0    0 -0.40951713448E+01  0.16881884659E+01 -0.27469937197E+02  0.27881455975E+02  0.17770000000E+01 0.  1.
         15    1    1    2    0    0  0.45177512868E+01  0.14079501502E+02 -0.23687121528E+03  0.23733894075E+03  0.17770000000E+01 0. -1.
</event>
<event>
 6    1  0.6506903E-004  0.5024945E+03  0.7546771E-02  0.9394245E-01
        -11   -1    0    0    0    0  0.00000000000E+00  0.00000000000E+00  0.50000000000E+03  0.50000000000E+03  0.00000000000E+00 0. -1.
         11   -1    0    0    0    0 -0.00000000000E+00 -0.00000000000E+00 -0.50000000000E+03  0.50000000000E+03  0.00000000000E+00 0. -1.
        -11    1    1    2    0    0  0.88332520936E+01  0.10911456486E+02  0.46546320201E+03  0.46567486367E+03  0.00000000000E+00 0. -1.
         11    1    1    2    0    0  0.39921624638E+01 -0.83694678686E+01 -0.49741908841E+03  0.49750551240E+03  0.00000000000E+00 0. -1.
        -15    1    1    2    0    0 -0.57596515981E+00 -0.59476741902E-01  0.17614910483E+02  0.17713782026E+02  0.17770000000E+01 0.  1.
         15    1    1    2    0    0 -0.12249449398E+02 -0.24825118751E+01  0.14340975913E+02  0.19105841905E+02  0.17770000000E+01 0. -1.
</event>
<event>
 6    1  0.6506903E-004  0.5007293E+03  0.7546771E-02  0.9398179E-01
        -11   -1    0    0    0    0  0.00000000000E+00  0.00000000000E+00  0.50000000000E+03  0.50000000000E+03  0.00000000000E+00 0. -1.
         11   -1    0    0    0    0 -0.00000000000E+00 -0.00000000000E+00 -0.50000000000E+03  0.50000000000E+03  0.00000000000E+00 0.  1.
        -11    1    1    2    0    0  0.22129599067E+02 -0.32457373305E+01  0.49876945731E+03  0.49927069362E+03  0.00000000000E+00 0. -1.
         11    1    1    2    0    0 -0.12131340377E+02  0.15061304113E+02 -0.39029113096E+03  0.39076998248E+03  0.00000000000E+00 0.  1.
        -15    1    1    2    0    0 -0.66800230605E+01 -0.11034290974E+02 -0.96620889607E+02  0.97494268154E+02  0.17770000000E+01 0.  1.
         15    1    1    2    0    0 -0.33182356294E+01 -0.78127580892E+00 -0.11857436743E+02  0.12465055744E+02  0.17770000000E+01 0.  1.
</event>
<event>
 6    1  0.6506903E-004  0.5005356E+03  0.7546771E-02  0.9398612E-01
        -11   -1    0    0    0    0  0.00000000000E+00  0.00000000000E+00  0.50000000000E+03  0.50000000000E+03  0.00000000000E+00 0.  1.
         11   -1    0    0    0    0 -0.00000000000E+00 -0.00000000000E+00 -0.50000000000E+03  0.50000000000E+03  0.00000000000E+00 0. -1.
        -11    1    1    2    0    0 -0.86195308385E+01 -0.84917799190E+01  0.49931782852E+03  0.49946441367E+03  0.00000000000E+00 0.  1.
         11    1    1    2    0    0  0.97540767809E+01 -0.42331810816E+01 -0.60583242397E+02  0.61509276498E+02  0.00000000000E+00 0. -1.
        -15    1    1    2    0    0  0.16402461881E+01  0.32748586078E+01 -0.50872861905E+02  0.51035486809E+02  0.17770000000E+01 0.  1.
         15    1    1    2    0    0 -0.27747921305E+01  0.94501023928E+01 -0.38786172422E+03  0.38799082303E+03  0.17770000000E+01 0. -1.
</event>
<event>
 6    1  0.6506903E-004  0.5004842E+03  0.7546771E-02  0.9398727E-01
        -11   -1    0    0    0    0  0.00000000000E+00  0.00000000000E+00  0.50000000000E+03  0.50000000000E+03  0.00000000000E+00 0. -1.
         11   -1    0    0    0    0 -0.00000000000E+00 -0.00000000000E+00 -0.50000000000E+03  0.50000000000E+03  0.00000000000E+00 0.  1.
        -11    1    1    2    0    0  0.76901524653E+01 -0.57536311983E+01  0.49942341416E+03  0.49951575484E+03  0.00000000000E+00 0. -1.
         11    1    1    2    0    0 -0.17682296462E+02 -0.11361281724E+00 -0.29073140330E+03  0.29126864813E+03  0.00000000000E+00 0.  1.
        -15    1    1    2    0    0  0.88884532043E+01  0.52231965760E+01 -0.10930662624E+03  0.10980611391E+03  0.17770000000E+01 0.  1.
         15    1    1    2    0    0  0.11036907926E+01  0.64404743956E+00 -0.99385384620E+02  0.99409483127E+02  0.17770000000E+01 0. -1.
</event>
<event>
 6    1  0.6506903E-004  0.5009096E+03  0.7546771E-02  0.9397777E-01
        -11   -1    0    0    0    0  0.00000000000E+00  0.00000000000E+00  0.50000000000E+03  0.50000000000E+03  0.00000000000E+00 0.  1.
         11   -1    0    0    0    0 -0.00000000000E+00 -0.00000000000E+00 -0.50000000000E+03  0.50000000000E+03  0.00000000000E+00 0. -1.
        -11    1    1    2    0    0 -0.55177680126E-01  0.40712248845E+01  0.18375925220E+03  0.18380435438E+03  0.00000000000E+00 0.  1.
         11    1    1    2    0    0  0.23005224988E+02  0.29520125070E+01 -0.49855122123E+03  0.49909044766E+03  0.00000000000E+00 0. -1.
        -15    1    1    2    0    0 -0.11742573026E+02  0.62871149104E+01  0.51216166325E+02  0.52949686092E+02  0.17770000000E+01 0. -1.
         15    1    1    2    0    0 -0.11207474282E+02 -0.13310352302E+02  0.26357580270E+03  0.26415551188E+03  0.17770000000E+01 0.  1.
</event>
<event>
 6    1  0.6506903E-004  0.5001098E+03  0.7546771E-02  0.9399564E-01
        -11   -1    0    0    0    0  0.00000000000E+00  0.00000000000E+00  0.50000000000E+03  0.50000000000E+03  0.00000000000E+00 0. -1.
         11   -1    0    0    0    0 -0.00000000000E+00 -0.00000000000E+00 -0.50000000000E+03  0.50000000000E+03  0.00000000000E+00 0.  1.
        -11    1    1    2    0    0 -0.46919131517E+01  0.78989869443E+01  0.29443235371E+03  0.29457565914E+03  0.00000000000E+00 0. -1.
         11    1    1    2    0    0  0.11641797252E+02 -0.59248280391E+01 -0.49971954520E+03  0.49989024684E+03  0.00000000000E+00 0.  1.
        -15    1    1    2    0    0 -0.25195694044E+01  0.96696202418E+00  0.12928604451E+03  0.12932641757E+03  0.17770000000E+01 0. -1.
         15    1    1    2    0    0 -0.44303146961E+01 -0.29411209294E+01  0.76001146974E+02  0.76207676458E+02  0.17770000000E+01 0.  1.
</event>
<event>
 6    1  0.6506903E-004  0.5017657E+03  0.7546771E-02  0.9395868E-01
        -11   -1    0    0    0    0  0.00000000000E+00  0.00000000000E+00  0.50000000000E+03  0.50000000000E+03  0.00000000000E+00 0.  1.
         11   -1    0    0    0    0 -0.00000000000E+00 -0.00000000000E+00 -0.50000000000E+03  0.50000000000E+03  0.00000000000E+00 0.  1.
        -11    1    1    2    0    0  0.99815341350E+01 -0.15782724074E+01  0.49813184656E+03  0.49823434097E+03  0.00000000000E+00 0.  1.
         11    1    1    2    0    0 -0.11602436970E+02  0.23514126910E+01 -0.36511663013E+03  0.36530849878E+03  0.00000000000E+00 0.  1.
        -15    1    1    2    0    0 -0.30514467308E+01 -0.12204117323E+01 -0.41171911578E+00  0.37587196727E+01  0.17770000000E+01 0.  1.
         15    1    1    2    0    0  0.46723495664E+01  0.44727144867E+00 -0.13260349731E+03  0.13269844057E+03  0.17770000000E+01 0. -1.
</event>
<event>
 6    1  0.6506903E-004  0.5021664E+03  0.7546771E-02  0.9394975E-01
        -11   -1    0    0    0    0  0.00000000000E+00  0.00000000000E+00  0.50000000000E+03  0.50000000000E+03  0.00000000000E+00 0. -1.
         11   -1    0    0    0    0 -0.00000000000E+00 -0.00000000000E+00 -0.50000000000E+03  0.50000000000E+03  0.00000000000E+00 0. -1.
        -11    1    1    2    0    0 -0.52594003643E+01  0.46030687108E+01  0.47499063716E+03  0.47504205595E+03  0.00000000000E+00 0. -1.
         11    1    1    2    0    0 -0.67848957326E+01 -0.88217324985E+01 -0.49770923710E+03  0.49783364939E+03  0.00000000000E+00 0. -1.
        -15    1    1    2    0    0  0.21470084991E+01  0.21402553841E+01  0.10979575335E+02  0.11528189023E+02  0.17770000000E+01 0. -1.
         15    1    1    2    0    0  0.98972875978E+01  0.20784084037E+01  0.11739024600E+02  0.15596105631E+02  0.17770000000E+01 0.  1.
</event>
<event>
 6    1  0.6506903E-004  0.5007748E+03  0.7546771E-02  0.9398078E-01
        -11   -1    0    0    0    0  0.00000000000E+00  0.00000000000E+00  0.50000000000E+03  0.50000000000E+03  0.00000000000E+00 0.  1.
         11   -1    0    0    0    0 -0.00000000000E+00 -0.00000000000E+00 -0.50000000000E+03  0.50000000000E+03  0.00000000000E+00 0.  1.
        -11    1    1    2    0    0  0.87216043574E+01 -0.51047751601E+01  0.48885963132E+03  0.48896407256E+03  0.00000000000E+00 0.  1.
         11    1    1    2    0    0 -0.48149929011E+01  0.52657741675E+01  0.94117059497E+01  0.11810704598E+02  0.00000000000E+00 0.  1.
        -15    1    1    2    0    0  0.49498513561E+01  0.87180575882E+01 -0.67116046502E+02  0.67883922866E+02  0.17770000000E+01 0. -1.
         15    1    1    2    0    0 -0.88564628123E+01 -0.88790565956E+01 -0.43115529077E+03  0.43134129998E+03  0.17770000000E+01 0.  1.
</event>
<event>
 6    1  0.6506903E-004  0.5061874E+03  0.7546771E-02  0.9386070E-01
        -11   -1    0    0    0    0  0.00000000000E+00  0.00000000000E+00  0.50000000000E+03  0.50000000000E+03  0.00000000000E+00 0.  1.
         11   -1    0    0    0    0 -0.00000000000E+00 -0.00000000000E+00 -0.50000000000E+03  0.50000000000E+03  0.00000000000E+00 0.  1.
        -11    1    1    2    0    0 -0.13803583373E+02 -0.59201482705E+00  0.31057623874E+03  0.31088340172E+03  0.00000000000E+00 0.  1.
         11    1    1    2    0    0  0.85820640062E+01 -0.78907985636E+02 -0.48739182612E+03  0.49381263065E+03  0.00000000000E+00 0.  1.
        -15    1    1    2    0    0  0.25782167408E+01  0.28841720222E+02  0.91941440943E+02  0.96409949272E+02  0.17770000000E+01 0. -1.
         15    1    1    2    0    0  0.26433026263E+01  0.50658280241E+02  0.84874146438E+02  0.98894018364E+02  0.17770000000E+01 0.  1.
</event>
<event>
 6    1  0.6506903E-004  0.4772825E+03  0.7546771E-02  0.9452128E-01
        -11   -1    0    0    0    0  0.00000000000E+00  0.00000000000E+00  0.50000000000E+03  0.50000000000E+03  0.00000000000E+00 0. -1.
         11   -1    0    0    0    0 -0.00000000000E+00 -0.00000000000E+00 -0.50000000000E+03  0.50000000000E+03  0.00000000000E+00 0. -1.
        -11    1    1    2    0    0 -0.37114080102E+01  0.53854913867E+01  0.48345775244E+03  0.48350199220E+03  0.00000000000E+00 0. -1.
         11    1    1    2    0    0 -0.13186796985E+02 -0.36934767541E+02 -0.47019300715E+03  0.47182574393E+03  0.00000000000E+00 0. -1.
        -15    1    1    2    0    0  0.61030134278E+01 -0.16432881853E+01 -0.61713381835E+01  0.90105667377E+01  0.17770000000E+01 0.  1.
         15    1    1    2    0    0  0.10795191567E+02  0.33192564339E+02 -0.70934071121E+01  0.35661697125E+02  0.17770000000E+01 0. -1.
</event>
<event>
 6    1  0.6506903E-004  0.5006299E+03  0.7546771E-02  0.9398401E-01
        -11   -1    0    0    0    0  0.00000000000E+00  0.00000000000E+00  0.50000000000E+03  0.50000000000E+03  0.00000000000E+00 0. -1.
         11   -1    0    0    0    0 -0.00000000000E+00 -0.00000000000E+00 -0.50000000000E+03  0.50000000000E+03  0.00000000000E+00 0.  1.
        -11    1    1    2    0    0 -0.84933321335E+01 -0.13433986510E+02  0.49911708522E+03  0.49937007664E+03  0.00000000000E+00 0. -1.
         11    1    1    2    0    0  0.23027671937E+01  0.23401473877E+02 -0.22907132255E+03  0.23027505842E+03  0.00000000000E+00 0.  1.
        -15    1    1    2    0    0  0.51763387529E+01 -0.92080905795E+01 -0.23085868242E+03  0.23110705829E+03  0.17770000000E+01 0.  1.
         15    1    1    2    0    0  0.10142261869E+01 -0.75939678679E+00 -0.39187080259E+02  0.39247806646E+02  0.17770000000E+01 0. -1.
</event>
<event>
 6    1  0.6506903E-004  0.5038809E+03  0.7546771E-02  0.9391168E-01
        -11   -1    0    0    0    0  0.00000000000E+00  0.00000000000E+00  0.50000000000E+03  0.50000000000E+03  0.00000000000E+00 0.  1.
         11   -1    0    0    0    0 -0.00000000000E+00 -0.00000000000E+00 -0.50000000000E+03  0.50000000000E+03  0.00000000000E+00 0.  1.
        -11    1    1    2    0    0 -0.13891049942E+02 -0.28219894268E+01  0.45382011180E+03  0.45404142847E+03  0.00000000000E+00 0.  1.
         11    1    1    2    0    0  0.97597490476E+01  0.95325867445E+01 -0.49593152242E+03  0.49611913674E+03  0.00000000000E+00 0.  1.
        -15    1    1    2    0    0 -0.93786303518E+01 -0.30786432212E+01  0.28606585000E+02  0.30313877774E+02  0.17770000000E+01 0.  1.
         15    1    1    2    0    0  0.13509931246E+02 -0.36319540965E+01  0.13504825622E+02  0.19525557019E+02  0.17770000000E+01 0. -1.
</event>
<event>
 6    1  0.6506903E-004  0.5007031E+03  0.7546771E-02  0.9398238E-01
        -11   -1    0    0    0    0  0.00000000000E+00  0.00000000000E+00  0.50000000000E+03  0.50000000000E+03  0.00000000000E+00 0.  1.
         11   -1    0    0    0    0 -0.00000000000E+00 -0.00000000000E+00 -0.50000000000E+03  0.50000000000E+03  0.00000000000E+00 0. -1.
        -11    1    1    2    0    0  0.80967805394E+01 -0.43189339784E+01  0.33161921851E+03  0.33174616370E+03  0.00000000000E+00 0.  1.
         11    1    1    2    0    0  0.26637455939E+01 -0.98405726013E+01 -0.49919278794E+03  0.49929687756E+03  0.00000000000E+00 0. -1.
        -15    1    1    2    0    0 -0.27769652240E+01 -0.34059117677E-01  0.64996789971E+02  0.65080359030E+02  0.17770000000E+01 0. -1.
         15    1    1    2    0    0 -0.79835609093E+01  0.14193565697E+02  0.10257677946E+03  0.10387659970E+03  0.17770000000E+01 0.  1.
</event>
<event>
 6    1  0.6506903E-004  0.4454692E+03  0.7546771E-02  0.9530841E-01
        -11   -1    0    0    0    0  0.00000000000E+00  0.00000000000E+00  0.50000000000E+03  0.50000000000E+03  0.00000000000E+00 0.  1.
         11   -1    0    0    0    0 -0.00000000000E+00 -0.00000000000E+00 -0.50000000000E+03  0.50000000000E+03  0.00000000000E+00 0. -1.
        -11    1    1    2    0    0  0.14491066008E+01 -0.10352520478E+02  0.46347355073E+03  0.46359142228E+03  0.00000000000E+00 0.  1.
         11    1    1    2    0    0 -0.89444213274E+02  0.31356084129E+01 -0.42325478760E+03  0.43261381688E+03  0.00000000000E+00 0. -1.
        -15    1    1    2    0    0  0.90969636931E+02  0.75697939774E+01 -0.35568747066E+02  0.97985050498E+02  0.17770000000E+01 0.  1.
         15    1    1    2    0    0 -0.29745302582E+01 -0.35288191185E+00 -0.46500160595E+01  0.58097103417E+01  0.17770000000E+01 0. -1.
</event>
<event>
 6    1  0.6506903E-004  0.5001272E+03  0.7546771E-02  0.9399525E-01
        -11   -1    0    0    0    0  0.00000000000E+00  0.00000000000E+00  0.50000000000E+03  0.50000000000E+03  0.00000000000E+00 0.  1.
         11   -1    0    0    0    0 -0.00000000000E+00 -0.00000000000E+00 -0.50000000000E+03  0.50000000000E+03  0.00000000000E+00 0.  1.
        -11    1    1    2    0    0 -0.50841936662E+01  0.45206824485E+01  0.49982650117E+03  0.49987280069E+03  0.00000000000E+00 0.  1.
         11    1    1    2    0    0  0.44594694202E+01  0.14898427813E+01 -0.49096990072E+02  0.49321607163E+02  0.00000000000E+00 0.  1.
        -15    1    1    2    0    0 -0.12500397017E+01 -0.50959242843E+01 -0.29698485717E+03  0.29703651992E+03  0.17770000000E+01 0.  1.
         15    1    1    2    0    0  0.18747639477E+01 -0.91460094554E+00 -0.15374465393E+03  0.15376907223E+03  0.17770000000E+01 0.  1.
</event>
<event>
 6    1  0.6506903E-004  0.5025501E+03  0.7546771E-02  0.9394122E-01
        -11   -1    0    0    0    0  0.00000000000E+00  0.00000000000E+00  0.50000000000E+03  0.50000000000E+03  0.00000000000E+00 0. -1.
         11   -1    0    0    0    0 -0.00000000000E+00 -0.00000000000E+00 -0.50000000000E+03  0.50000000000E+03  0.00000000000E+00 0.  1.
        -11    1    1    2    0    0 -0.52869143928E+01 -0.23391715998E+00  0.34728619381E+03  0.34732651294E+03  0.00000000000E+00 0. -1.
         11    1    1    2    0    0  0.15359125644E+01  0.24303540643E+02 -0.49685345534E+03  0.49744987406E+03  0.00000000000E+00 0.  1.
        -15    1    1    2    0    0 -0.60490681224E+01 -0.15910851380E+02  0.26901888088E+02  0.31884411998E+02  0.17770000000E+01 0. -1.
         15    1    1    2    0    0  0.98000699508E+01 -0.81587721034E+01  0.12266537345E+03  0.12333920101E+03  0.17770000000E+01 0.  1.
</event>
<event>
 6    1  0.6506903E-004  0.4900406E+03  0.7546771E-02  0.9422374E-01
        -11   -1    0    0    0    0  0.00000000000E+00  0.00000000000E+00  0.50000000000E+03  0.50000000000E+03  0.00000000000E+00 0.  1.
         11   -1    0    0    0    0 -0.00000000000E+00 -0.00000000000E+00 -0.50000000000E+03  0.50000000000E+03  0.00000000000E+00 0.  1.
        -11    1    1    2    0    0  0.64171019324E+01  0.31632239300E+01  0.48987822359E+03  0.48993046357E+03  0.00000000000E+00 0.  1.
         11    1    1    2    0    0 -0.24135548897E+01  0.13998850897E+02 -0.49010345197E+03  0.49030927658E+03  0.00000000000E+00 0.  1.
        -15    1    1    2    0    0  0.16096841393E+01 -0.17122772118E+01  0.12374741016E+01  0.31956294264E+01  0.17770000000E+01 0.  1.
         15    1    1    2    0    0 -0.56132311821E+01 -0.15449797615E+02 -0.10122457221E+01  0.16564630423E+02  0.17770000000E+01 0. -1.
</event>
<event>
 6    1  0.6506903E-004  0.4652614E+03  0.7546771E-02  0.9481082E-01
        -11   -1    0    0    0    0  0.00000000000E+00  0.00000000000E+00  0.50000000000E+03  0.50000000000E+03  0.00000000000E+00 0.  1.
         11   -1    0    0    0    0 -0.00000000000E+00 -0.00000000000E+00 -0.50000000000E+03  0.50000000000E+03  0.00000000000E+00 0. -1.
        -11    1    1    2    0    0 -0.79446377474E+01  0.11143536327E+02  0.46096972798E+03  0.46117283721E+03  0.00000000000E+00 0.  1.
         11    1    1    2    0    0 -0.27739542470E+02  0.24311293964E+02 -0.46929848997E+03  0.47074578482E+03  0.00000000000E+00 0. -1.
        -15    1    1    2    0    0  0.11257890824E+02 -0.10663091215E+02 -0.18425247313E+02  0.24147237680E+02  0.17770000000E+01 0.  1.
         15    1    1    2    0    0  0.24426289394E+02 -0.24791739076E+02  0.26754009311E+02  0.43934140292E+02  0.17770000000E+01 0. -1.
</event>
<event>
 6    1  0.6506903E-004  0.5049236E+03  0.7546771E-02  0.9388860E-01
        -11   -1    0    0    0    0  0.00000000000E+00  0.00000000000E+00  0.50000000000E+03  0.50000000000E+03  0.00000000000E+00 0. -1.
         11   -1    0    0    0    0 -0.00000000000E+00 -0.00000000000E+00 -0.50000000000E+03  0.50000000000E+03  0.00000000000E+00 0.  1.
        -11    1    1    2    0    0 -0.19564548631E+02  0.68181382274E+01  0.47944514994E+03  0.47989260296E+03  0.00000000000E+00 0. -1.
         11    1    1    2    0    0  0.19074644532E+02 -0.90544704018E+00 -0.49470800261E+03  0.49507642819E+03  0.00000000000E+00 0.  1.
        -15    1    1    2    0    0  0.56898019938E+01 -0.46512929243E+01 -0.11763671623E+01  0.76517933386E+01  0.17770000000E+01 0. -1.
         15    1    1    2    0    0 -0.51998978954E+01 -0.12613982629E+01  0.16439219836E+02  0.17379175513E+02  0.17770000000E+01 0.  1.
</event>
<event>
 6    1  0.6506903E-004  0.5006873E+03  0.7546771E-02  0.9398273E-01
        -11   -1    0    0    0    0  0.00000000000E+00  0.00000000000E+00  0.50000000000E+03  0.50000000000E+03  0.00000000000E+00 0. -1.
         11   -1    0    0    0    0 -0.00000000000E+00 -0.00000000000E+00 -0.50000000000E+03  0.50000000000E+03  0.00000000000E+00 0.  1.
        -11    1    1    2    0    0 -0.66877872364E+01 -0.13993981228E+02  0.49907180157E+03  0.49931274882E+03  0.00000000000E+00 0. -1.
         11    1    1    2    0    0 -0.10306219249E+02  0.10245751746E+02 -0.30265835539E+03  0.30300705218E+03  0.00000000000E+00 0.  1.
        -15    1    1    2    0    0  0.15989850269E+02  0.68276113895E+00 -0.18471936284E+03  0.18541990780E+03  0.17770000000E+01 0. -1.
         15    1    1    2    0    0  0.10041562165E+01  0.30654683433E+01 -0.11694083345E+02  0.12260291193E+02  0.17770000000E+01 0.  1.
</event>
<event>
 6    1  0.6506903E-004  0.4906580E+03  0.7546771E-02  0.9420959E-01
        -11   -1    0    0    0    0  0.00000000000E+00  0.00000000000E+00  0.50000000000E+03  0.50000000000E+03  0.00000000000E+00 0.  1.
         11   -1    0    0    0    0 -0.00000000000E+00 -0.00000000000E+00 -0.50000000000E+03  0.50000000000E+03  0.00000000000E+00 0. -1.
        -11    1    1    2    0    0 -0.13245920957E+01 -0.65057528338E+01  0.49191379480E+03  0.49195859671E+03  0.00000000000E+00 0.  1.
         11    1    1    2    0    0  0.87380705064E+01  0.11309143245E+02 -0.48919215332E+03  0.48940087195E+03  0.00000000000E+00 0. -1.
        -15    1    1    2    0    0 -0.47631128217E+01 -0.70081594568E+01 -0.82022953331E+01  0.11926312106E+02  0.17770000000E+01 0.  1.
         15    1    1    2    0    0 -0.26503655889E+01  0.22047690456E+01  0.54806538548E+01  0.67142192380E+01  0.17770000000E+01 0. -1.
</event>
<event>
 6    1  0.6506903E-004  0.5005424E+03  0.7546771E-02  0.9398597E-01
        -11   -1    0    0    0    0  0.00000000000E+00  0.00000000000E+00  0.50000000000E+03  0.50000000000E+03  0.00000000000E+00 0. -1.
         11   -1    0    0    0    0 -0.00000000000E+00 -0.00000000000E+00 -0.50000000000E+03  0.50000000000E+03  0.00000000000E+00 0. -1.
        -11    1    1    2    0    0  0.33056700308E+01  0.60232059491E+01  0.49941035523E+03  0.49945761520E+03  0.00000000000E+00 0. -1.
         11    1    1    2    0    0 -0.43423213049E+01 -0.90744714913E+01 -0.46083387441E+03  0.46094366422E+03  0.00000000000E+00 0. -1.
        -15    1    1    2    0    0 -0.63449559520E+00 -0.21461799068E+01 -0.81811135937E+01  0.86658537655E+01  0.17770000000E+01 0. -1.
         15    1    1    2    0    0  0.16711468693E+01  0.51974454490E+01 -0.30395367233E+02  0.30932866813E+02  0.17770000000E+01 0.  1.
</event>
<event>
 6    1  0.6506903E-004  0.4947195E+03  0.7546771E-02  0.9411703E-01
        -11   -1    0    0    0    0  0.00000000000E+00  0.00000000000E+00  0.50000000000E+03  0.50000000000E+03  0.00000000000E+00 0.  1.
         11   -1    0    0    0    0 -0.00000000000E+00 -0.00000000000E+00 -0.50000000000E+03  0.50000000000E+03  0.00000000000E+00 0. -1.
        -11    1    1    2    0    0  0.44203692714E+01 -0.69911470210E+01  0.49414062508E+03  0.49420984728E+03  0.00000000000E+00 0.  1.
         11    1    1    2    0    0 -0.10049217112E+02  0.29471503600E+01  0.10550519078E+01  0.10525473592E+02  0.00000000000E+00 0. -1.
        -15    1    1    2    0    0  0.48008361332E+01  0.24149256044E+01 -0.31302149748E+03  0.31307266810E+03  0.17770000000E+01 0. -1.
         15    1    1    2    0    0  0.82801170704E+00  0.16290710566E+01 -0.18217417950E+03  0.18219201103E+03  0.17770000000E+01 0. -1.
</event>
<event>
 6    1  0.6506903E-004  0.4489332E+03  0.7546771E-02  0.9521936E-01
        -11   -1    0    0    0    0  0.00000000000E+00  0.00000000000E+00  0.50000000000E+03  0.50000000000E+03  0.00000000000E+00 0.  1.
         11   -1    0    0    0    0 -0.00000000000E+00 -0.00000000000E+00 -0.50000000000E+03  0.50000000000E+03  0.00000000000E+00 0. -1.
        -11    1    1    2    0    0  0.34648094012E+02 -0.49076195316E+02  0.45819455961E+03  0.46211602203E+03  0.00000000000E+00 0.  1.
         11    1    1    2    0    0  0.34466762092E+02 -0.44340857644E+01 -0.43882892726E+03  0.44020273308E+03  0.00000000000E+00 0. -1.
        -15    1    1    2    0    0 -0.13901455295E+02  0.29498400770E+02 -0.18301878097E+02  0.37436914646E+02  0.17770000000E+01 0.  1.
         15    1    1    2    0    0 -0.55213400808E+02  0.24011880310E+02 -0.10637542466E+01  0.60244330247E+02  0.17770000000E+01 0. -1.
</event>
<event>
 6    1  0.6506903E-004  0.5064056E+03  0.7546771E-02  0.9385590E-01
        -11   -1    0    0    0    0  0.00000000000E+00  0.00000000000E+00  0.50000000000E+03  0.50000000000E+03  0.00000000000E+00 0.  1.
         11   -1    0    0    0    0 -0.00000000000E+00 -0.00000000000E+00 -0.50000000000E+03  0.50000000000E+03  0.00000000000E+00 0.  1.
        -11    1    1    2    0    0  0.23045884469E+01  0.92992416892E+01  0.45570221725E+03  0.45580291555E+03  0.00000000000E+00 0.  1.
         11    1    1    2    0    0 -0.27995304414E+02  0.57207427109E+01 -0.49276661872E+03  0.49359437243E+03  0.00000000000E+00 0.  1.
        -15    1    1    2    0    0  0.41818662896E+01 -0.98798310750E+01  0.59718968532E+01  0.12406463991E+02  0.17770000000E+01 0. -1.
         15    1    1    2    0    0  0.21508849678E+02 -0.51401533250E+01  0.31092504621E+02  0.38196248026E+02  0.17770000000E+01 0.  1.
</event>
<event>
 6    1  0.6506903E-004  0.5031786E+03  0.7546771E-02  0.9392725E-01
        -11   -1    0    0    0    0  0.00000000000E+00  0.00000000000E+00  0.50000000000E+03  0.50000000000E+03  0.00000000000E+00 0. -1.
         11   -1    0    0    0    0 -0.00000000000E+00 -0.00000000000E+00 -0.50000000000E+03  0.50000000000E+03  0.00000000000E+00 0. -1.
        -11    1    1    2    0    0 -0.24651744265E+01 -0.89461338002E+01  0.48255323327E+03  0.48264244875E+03  0.00000000000E+00 0. -1.
         11    1    1    2    0    0 -0.86708630606E+01  0.42164109850E+01 -0.49672781870E+03  0.49682138426E+03  0.00000000000E+00 0. -1.
        -15    1    1    2    0    0  0.93792896253E+01  0.24565058244E+00  0.10678132317E+02  0.14325210535E+02  0.17770000000E+01 0. -1.
         15    1    1    2    0    0  0.17567478618E+01  0.44840722328E+01  0.34964531106E+01  0.62109564637E+01  0.17770000000E+01 0.  1.
</event>
<event>
 6    1  0.6506903E-004  0.4632938E+03  0.7546771E-02  0.9485909E-01
        -11   -1    0    0    0    0  0.00000000000E+00  0.00000000000E+00  0.50000000000E+03  0.50000000000E+03  0.00000000000E+00 0. -1.
         11   -1    0    0    0    0 -0.00000000000E+00 -0.00000000000E+00 -0.50000000000E+03  0.50000000000E+03  0.00000000000E+00 0. -1.
        -11    1    1    2    0    0 -0.75007388944E+01 -0.50628695431E+02  0.44855984327E+03  0.45147033001E+03  0.00000000000E+00 0. -1.
         11    1    1    2    0    0  0.33225194708E+02 -0.71570470998E+01 -0.47648281972E+03  0.47769343137E+03  0.00000000000E+00 0. -1.
        -15    1    1    2    0    0 -0.20831085628E+02  0.33294178141E+02  0.11765409502E+02  0.41036800756E+02  0.17770000000E+01 0. -1.
         15    1    1    2    0    0 -0.48933701861E+01  0.24491564390E+02  0.16157566955E+02  0.29799437863E+02  0.17770000000E+01 0.  1.
</event>
<event>
 6    1  0.6506903E-004  0.5003037E+03  0.7546771E-02  0.9399130E-01
        -11   -1    0    0    0    0  0.00000000000E+00  0.00000000000E+00  0.50000000000E+03  0.50000000000E+03  0.00000000000E+00 0. -1.
         11   -1    0    0    0    0 -0.00000000000E+00 -0.00000000000E+00 -0.50000000000E+03  0.50000000000E+03  0.00000000000E+00 0. -1.
        -11    1    1    2    0    0 -0.89285486613E+00  0.50286496751E+01  0.36477736937E+03  0.36481312163E+03  0.00000000000E+00 0. -1.
         11    1    1    2    0    0  0.91228461806E+01 -0.79749810622E+01 -0.49954934987E+03  0.49969628736E+03  0.00000000000E+00 0. -1.
        -15    1    1    2    0    0 -0.96398328037E+00  0.45061411552E+01  0.84188678485E+02  0.84333420931E+02  0.17770000000E+01 0.  1.
         15    1    1    2    0    0 -0.72660080341E+01 -0.15598097682E+01  0.50583302016E+02  0.51157170085E+02  0.17770000000E+01 0. -1.
</event>
<event>
 6    1  0.6506903E-004  0.5040371E+03  0.7546771E-02  0.9390821E-01
        -11   -1    0    0    0    0  0.00000000000E+00  0.00000000000E+00  0.50000000000E+03  0.50000000000E+03  0.00000000000E+00 0. -1.
         11   -1    0    0    0    0 -0.00000000000E+00 -0.00000000000E+00 -0.50000000000E+03  0.50000000000E+03  0.00000000000E+00 0. -1.
        -11    1    1    2    0    0  0.61940129910E+01 -0.76482202843E+01  0.49586526665E+03  0.49596292577E+03  0.00000000000E+00 0. -1.
         11    1    1    2    0    0  0.12563422113E+02 -0.73605428582E+00 -0.46132442041E+03  0.46149604789E+03  0.00000000000E+00 0. -1.
        -15    1    1    2    0    0 -0.11078623050E+02  0.97503287520E+01 -0.13689885602E+02  0.20208302656E+02  0.17770000000E+01 0. -1.
         15    1    1    2    0    0 -0.76788120538E+01 -0.13660541818E+01 -0.20850960640E+02  0.22332723685E+02  0.17770000000E+01 0.  1.
</event>
<event>
 6    1  0.6506903E-004  0.5078805E+03  0.7546771E-02  0.9382347E-01
        -11   -1    0    0    0    0  0.00000000000E+00  0.00000000000E+00  0.50000000000E+03  0.50000000000E+03  0.00000000000E+00 0.  1.
         11   -1    0    0    0    0 -0.00000000000E+00 -0.00000000000E+00 -0.50000000000E+03  0.50000000000E+03  0.00000000000E+00 0. -1.
        -11    1    1    2    0    0  0.54350426363E+01  0.11263546270E+02  0.48538004926E+03  0.48554114077E+03  0.00000000000E+00 0.  1.
         11    1    1    2    0    0  0.53597584878E+01 -0.12131271065E+02 -0.49194079759E+03  0.49211954146E+03  0.00000000000E+00 0. -1.
        -15    1    1    2    0    0 -0.90840661343E+01 -0.78288502497E+01  0.22729049216E+01  0.12334300935E+02  0.17770000000E+01 0. -1.
         15    1    1    2    0    0 -0.17107349899E+01  0.86965750447E+01  0.42878434092E+01  0.10005016832E+02  0.17770000000E+01 0.  1.
</event>
<event>
 6    1  0.6506903E-004  0.5001614E+03  0.7546771E-02  0.9399449E-01
        -11   -1    0    0    0    0  0.00000000000E+00  0.00000000000E+00  0.50000000000E+03  0.50000000000E+03  0.00000000000E+00 0. -1.
         11   -1    0    0    0    0 -0.00000000000E+00 -0.00000000000E+00 -0.50000000000E+03  0.50000000000E+03  0.00000000000E+00 0. -1.
        -11    1    1    2    0    0 -0.34259117384E+01 -0.64130696418E+01  0.49978569771E+03  0.49983858192E+03  0.00000000000E+00 0. -1.
         11    1    1    2    0    0  0.49048118007E+01 -0.44659323566E+01 -0.12367808938E+03  0.12385584977E+03  0.00000000000E+00 0. -1.
        -15    1    1    2    0    0 -0.83176252613E+00  0.87497030588E+01 -0.23852967119E+03  0.23869815856E+03  0.17770000000E+01 0. -1.
         15    1    1    2    0    0 -0.64713753622E+00  0.21292989397E+01 -0.13757793714E+03  0.13760740975E+03  0.17770000000E+01 0.  1.
</event>
<event>
 6    1  0.6506904E-004  0.5000563E+03  0.7546771E-02  0.9399684E-01
        -11   -1    0    0    0    0  0.00000000000E+00  0.00000000000E+00  0.50000000000E+03  0.50000000000E+03  0.00000000000E+00 0.  1.
         11   -1    0    0    0    0 -0.00000000000E+00 -0.00000000000E+00 -0.50000000000E+03  0.50000000000E+03  0.00000000000E+00 0.  1.
        -11    1    1    2    0    0 -0.13637883826E+01  0.15280557043E+01  0.45680367881E+02  0.45726260319E+02  0.00000000000E+00 0.  1.
         11    1    1    2    0    0  0.93608910402E+01  0.69328401306E+01 -0.49980794934E+03  0.49994367361E+03  0.00000000000E+00 0.  1.
        -15    1    1    2    0    0 -0.51600270129E+01 -0.21367894633E+01  0.26980210620E+03  0.26986575549E+03  0.17770000000E+01 0. -1.
         15    1    1    2    0    0 -0.28370756446E+01 -0.63241063716E+01  0.18432547526E+03  0.18446431058E+03  0.17770000000E+01 0.  1.
</event>
<event>
 6    1  0.6506903E-004  0.4587076E+03  0.7546771E-02  0.9497262E-01
        -11   -1    0    0    0    0  0.00000000000E+00  0.00000000000E+00  0.50000000000E+03  0.50000000000E+03  0.00000000000E+00 0.  1.
         11   -1    0    0    0    0 -0.00000000000E+00 -0.00000000000E+00 -0.50000000000E+03  0.50000000000E+03  0.00000000000E+00 0.  1.
        -11    1    1    2    0    0 -0.59668443321E+01 -0.78052487271E+01  0.45282355547E+03  0.45293012433E+03  0.00000000000E+00 0.  1.
         11    1    1    2    0    0 -0.55768105148E+01 -0.21871975913E+02 -0.46456459078E+03  0.46511261341E+03  0.00000000000E+00 0.  1.
        -15    1    1    2    0    0  0.67995890010E+01  0.25850542897E+02 -0.29720833933E+02  0.40012131627E+02  0.17770000000E+01 0. -1.
         15    1    1    2    0    0  0.47440658460E+01  0.38266817428E+01  0.41461869239E+02  0.41945130632E+02  0.17770000000E+01 0.  1.
</event>
<event>
 6    1  0.6506903E-004  0.5002037E+03  0.7546771E-02  0.9399354E-01
        -11   -1    0    0    0    0  0.00000000000E+00  0.00000000000E+00  0.50000000000E+03  0.50000000000E+03  0.00000000000E+00 0.  1.
         11   -1    0    0    0    0 -0.00000000000E+00 -0.00000000000E+00 -0.50000000000E+03  0.50000000000E+03  0.00000000000E+00 0. -1.
        -11    1    1    2    0    0 -0.88476843717E+00  0.47271246730E+01  0.15153435855E+03  0.15161065379E+03  0.00000000000E+00 0.  1.
         11    1    1    2    0    0  0.14542372594E+02  0.64142397380E+01 -0.49954349540E+03  0.49979628537E+03  0.00000000000E+00 0. -1.
        -15    1    1    2    0    0 -0.82946347525E+01 -0.11391471813E+02  0.27419641374E+03  0.27456401372E+03  0.17770000000E+01 0.  1.
         15    1    1    2    0    0 -0.53629694048E+01  0.25010740172E+00  0.73812723115E+02  0.74029047118E+02  0.17770000000E+01 0. -1.
</event>
<event>
 6    1  0.6506903E-004  0.5015979E+03  0.7546771E-02  0.9396241E-01
        -11   -1    0    0    0    0  0.00000000000E+00  0.00000000000E+00  0.50000000000E+03  0.50000000000E+03  0.00000000000E+00 0. -1.
         11   -1    0    0    0    0 -0.00000000000E+00 -0.00000000000E+00 -0.50000000000E+03  0.50000000000E+03  0.00000000000E+00 0. -1.
        -11    1    1    2    0    0 -0.86945309255E+01  0.34592580829E+01  0.49831428633E+03  0.49840213612E+03  0.00000000000E+00 0. -1.
         11    1    1    2    0    0 -0.11575585535E+02 -0.17785347116E+02 -0.11154519595E+03  0.11354577708E+03  0.00000000000E+00 0. -1.
        -15    1    1    2    0    0  0.17045613424E+02  0.16972218850E+02 -0.23911959939E+03  0.24033299751E+03  0.17770000000E+01 0.  1.
         15    1    1    2    0    0  0.32245030362E+01 -0.26461298167E+01 -0.14764949099E+03  0.14771908929E+03  0.17770000000E+01 0. -1.
</event>
<event>
 6    1  0.6506903E-004  0.5016336E+03  0.7546771E-02  0.9396162E-01
        -11   -1    0    0    0    0  0.00000000000E+00  0.00000000000E+00  0.50000000000E+03  0.50000000000E+03  0.00000000000E+00 0.  1.
         11   -1    0    0    0    0 -0.00000000000E+00 -0.00000000000E+00 -0.50000000000E+03  0.50000000000E+03  0.00000000000E+00 0.  1.
        -11    1    1    2    0    0  0.48483845448E+01 -0.83320353882E+01  0.41447898603E+03  0.41459107504E+03  0.00000000000E+00 0.  1.
         11    1    1    2    0    0  0.14645304592E+02 -0.27356495008E+01 -0.49814364307E+03  0.49836638918E+03  0.00000000000E+00 0.  1.
        -15    1    1    2    0    0 -0.54847419573E+01  0.27578120757E+01  0.37858022831E+02  0.38393691453E+02  0.17770000000E+01 0. -1.
         15    1    1    2    0    0 -0.14008947180E+02  0.83098728133E+01  0.45806634219E+02  0.48648844331E+02  0.17770000000E+01 0.  1.
</event>
<event>
 6    1  0.6506903E-004  0.5002828E+03  0.7546771E-02  0.9399177E-01
        -11   -1    0    0    0    0  0.00000000000E+00  0.00000000000E+00  0.50000000000E+03  0.50000000000E+03  0.00000000000E+00 0.  1.
         11   -1    0    0    0    0 -0.00000000000E+00 -0.00000000000E+00 -0.50000000000E+03  0.50000000000E+03  0.00000000000E+00 0.  1.
        -11    1    1    2    0    0 -0.27043847709E+01 -0.28834030401E+01  0.27241025064E+03  0.27243893327E+03  0.00000000000E+00 0.  1.
         11    1    1    2    0    0  0.13293900912E+02  0.35136937257E+01 -0.49952794335E+03  0.49971716004E+03  0.00000000000E+00 0.  1.
        -15    1    1    2    0    0 -0.20268088151E+01  0.35544023040E+01  0.15653111721E+03  0.15659466822E+03  0.17770000000E+01 0.  1.
         15    1    1    2    0    0 -0.85627073261E+01 -0.41846929895E+01  0.70586575507E+02  0.71249238472E+02  0.17770000000E+01 0. -1.
</event>
<event>
 6    1  0.6506903E-004  0.5044622E+03  0.7546771E-02  0.9389880E-01
        -11   -1    0    0    0    0  0.00000000000E+00  0.00000000000E+00  0.50000000000E+03  0.50000000000E+03  0.00000000000E+00 0.  1.
         11   -1    0    0    0    0 -0.00000000000E+00 -0.00000000000E+00 -0.50000000000E+03  0.50000000000E+03  0.00000000000E+00 0. -1.
        -11    1    1    2    0    0 -0.82297123174E+01  0.18057662883E+01  0.49546616883E+03  0.49553780221E+03  0.00000000000E+00 0.  1.
         11    1    1    2    0    0  0.26561567238E+01 -0.13726200921E+02 -0.46539925443E+03  0.46560920285E+03  0.00000000000E+00 0. -1.
        -15    1    1    2    0    0  0.41151781838E+01 -0.37198365399E+01 -0.18133828567E+02  0.19046399735E+02  0.17770000000E+01 0. -1.
         15    1    1    2    0    0  0.14583774098E+01  0.15640271173E+02 -0.11933085837E+02  0.19806595205E+02  0.17770000000E+01 0.  1.
</event>
<event>
 6    1  0.6506903E-004  0.5022618E+03  0.7546771E-02  0.9394763E-01
        -11   -1    0    0    0    0  0.00000000000E+00  0.00000000000E+00  0.50000000000E+03  0.50000000000E+03  0.00000000000E+00 0. -1.
         11   -1    0    0    0    0 -0.00000000000E+00 -0.00000000000E+00 -0.50000000000E+03  0.50000000000E+03  0.00000000000E+00 0.  1.
        -11    1    1    2    0    0  0.11793863132E+02 -0.30938715435E+01  0.38668156178E+03  0.38687374875E+03  0.00000000000E+00 0. -1.
         11    1    1    2    0    0 -0.22219692098E+01 -0.18652313438E+02 -0.49738364736E+03  0.49773822297E+03  0.00000000000E+00 0.  1.
        -15    1    1    2    0    0  0.52260835465E+01  0.14930955982E+02  0.47537633905E+02  0.50132123055E+02  0.17770000000E+01 0.  1.
         15    1    1    2    0    0 -0.14797977469E+02  0.68152289990E+01  0.63164451669E+02  0.65255905228E+02  0.17770000000E+01 0. -1.
</event>
<event>
 6    1  0.6506903E-004  0.5011543E+03  0.7546771E-02  0.9397231E-01
        -11   -1    0    0    0    0  0.00000000000E+00  0.00000000000E+00  0.50000000000E+03  0.50000000000E+03  0.00000000000E+00 0.  1.
         11   -1    0    0    0    0 -0.00000000000E+00 -0.00000000000E+00 -0.50000000000E+03  0.50000000000E+03  0.00000000000E+00 0.  1.
        -11    1    1    2    0    0  0.99858830573E+01  0.13379582714E+02  0.49856625355E+03  0.49884570788E+03  0.00000000000E+00 0.  1.
         11    1    1    2    0    0  0.53948129011E+01 -0.24346761811E+02 -0.22719337155E+03  0.22855786333E+03  0.00000000000E+00 0.  1.
        -15    1    1    2    0    0 -0.29925573086E+01  0.97598905125E+01 -0.63164549836E+02  0.64008819291E+02  0.17770000000E+01 0. -1.
         15    1    1    2    0    0 -0.12388138650E+02  0.12072885845E+01 -0.20820833216E+03  0.20858760950E+03  0.17770000000E+01 0.  1.
</event>
<event>
 6    1  0.6506903E-004  0.5003018E+03  0.7546771E-02  0.9399135E-01
        -11   -1    0    0    0    0  0.00000000000E+00  0.00000000000E+00  0.50000000000E+03  0.50000000000E+03  0.00000000000E+00 0. -1.
         11   -1    0    0    0    0 -0.00000000000E+00 -0.00000000000E+00 -0.50000000000E+03  0.50000000000E+03  0.00000000000E+00 0. -1.
        -11    1    1    2    0    0  0.73791552956E+01  0.75044948426E+01  0.49958734678E+03  0.49969819535E+03  0.00000000000E+00 0. -1.
         11    1    1    2    0    0 -0.80690212730E+01 -0.88782267958E+01 -0.12571103031E+03  0.12628220443E+03  0.00000000000E+00 0. -1.
        -15    1    1    2    0    0  0.43625371751E+01  0.13569873712E+00 -0.28703186722E+03  0.28707055000E+03  0.17770000000E+01 0.  1.
         15    1    1    2    0    0 -0.36726711977E+01  0.12380332161E+01 -0.86844449247E+02  0.86949050219E+02  0.17770000000E+01 0. -1.
</event>
<event>
 6    1  0.6506903E-004  0.5071521E+03  0.7546771E-02  0.9383947E-01
        -11   -1    0    0    0    0  0.00000000000E+00  0.00000000000E+00  0.50000000000E+03  0.50000000000E+03  0.00000000000E+00 0.  1.
         11   -1    0    0    0    0 -0.00000000000E+00 -0.00000000000E+00 -0.50000000000E+03  0.50000000000E+03  0.00000000000E+00 0.  1.
        -11    1    1    2    0    0  0.82427334854E+01  0.97053456226E+00  0.49277801702E+03  0.49284790621E+03  0.00000000000E+00 0.  1.
         11    1    1    2    0    0 -0.20583047553E+01  0.14593390641E+02 -0.45723490554E+03  0.45747236256E+03  0.00000000000E+00 0.  1.
        -15    1    1    2    0    0 -0.49900368566E+01  0.76495338583E+01 -0.32590276347E+01  0.98587436422E+01  0.17770000000E+01 0.  1.
         15    1    1    2    0    0 -0.11943918735E+01 -0.23213459061E+02 -0.32284083849E+02  0.39820987588E+02  0.17770000000E+01 0. -1.
</event>
<event>
 6    1  0.6506903E-004  0.5000488E+03  0.7546771E-02  0.9399701E-01
        -11   -1    0    0    0    0  0.00000000000E+00  0.00000000000E+00  0.50000000000E+03  0.50000000000E+03  0.00000000000E+00 0. -1.
         11   -1    0    0    0    0 -0.00000000000E+00 -0.00000000000E+00 -0.50000000000E+03  0.50000000000E+03  0.00000000000E+00 0.  1.
        -11    1    1    2    0    0  0.34095620826E+01  0.12846099546E+02  0.49977452776E+03  0.49995122360E+03  0.00000000000E+00 0. -1.
         11    1    1    2    0    0 -0.13545403719E+01 -0.42816176002E+01 -0.67561811667E+02  0.67710895908E+02  0.00000000000E+00 0.  1.
        -15    1    1    2    0    0  0.73137229617E+00 -0.48634679356E+01 -0.26488975369E+03  0.26494136628E+03  0.17770000000E+01 0.  1.
         15    1    1    2    0    0 -0.27863940069E+01 -0.37010140101E+01 -0.16732296239E+03  0.16739651421E+03  0.17770000000E+01 0. -1.
</event>
<event>
 6    1  0.6506903E-004  0.4993633E+03  0.7546771E-02  0.9401236E-01
        -11   -1    0    0    0    0  0.00000000000E+00  0.00000000000E+00  0.50000000000E+03  0.50000000000E+03  0.00000000000E+00 0.  1.
         11   -1    0    0    0    0 -0.00000000000E+00 -0.00000000000E+00 -0.50000000000E+03  0.50000000000E+03  0.00000000000E+00 0.  1.
        -11    1    1    2    0    0 -0.11329852499E+02  0.24521735297E+01  0.49972291886E+03  0.49985735400E+03  0.00000000000E+00 0.  1.
         11    1    1    2    0    0  0.67779004457E+00 -0.40597564627E+00 -0.10436206463E+01  0.13089536368E+01  0.00000000000E+00 0.  1.
        -15    1    1    2    0    0  0.58028232632E+01 -0.18964162726E+01 -0.17949221087E+03  0.17960479015E+03  0.17770000000E+01 0.  1.
         15    1    1    2    0    0  0.48492391913E+01 -0.14978161086E+00 -0.31918708734E+03  0.31922890221E+03  0.17770000000E+01 0.  1.
</event>
<event>
 6    1  0.6506903E-004  0.5000532E+03  0.7546771E-02  0.9399691E-01
        -11   -1    0    0    0    0  0.00000000000E+00  0.00000000000E+00  0.50000000000E+03  0.50000000000E+03  0.00000000000E+00 0. -1.
         11   -1    0    0    0    0 -0.00000000000E+00 -0.00000000000E+00 -0.50000000000E+03  0.50000000000E+03  0.00000000000E+00 0. -1.
        -11    1    1    2    0    0  0.15617420100E+02  0.13156320506E+02  0.49952961776E+03  0.49994682877E+03  0.00000000000E+00 0. -1.
         11    1    1    2    0    0 -0.99428824060E+01 -0.69298135530E+01 -0.22249410198E+03  0.22282394091E+03  0.00000000000E+00 0. -1.
        -15    1    1    2    0    0 -0.13601348075E+01 -0.37155921380E+01 -0.75823835618E+02  0.75947793703E+02  0.17770000000E+01 0.  1.
         15    1    1    2    0    0 -0.43144028866E+01 -0.25109148150E+01 -0.20121168016E+03  0.20128143661E+03  0.17770000000E+01 0. -1.
</event>
<event>
 6    1  0.6506903E-004  0.5026018E+03  0.7546771E-02  0.9394007E-01
        -11   -1    0    0    0    0  0.00000000000E+00  0.00000000000E+00  0.50000000000E+03  0.50000000000E+03  0.00000000000E+00 0. -1.
         11   -1    0    0    0    0 -0.00000000000E+00 -0.00000000000E+00 -0.50000000000E+03  0.50000000000E+03  0.00000000000E+00 0.  1.
        -11    1    1    2    0    0 -0.10098956671E+02 -0.61331738762E+01  0.49725787720E+03  0.49739823199E+03  0.00000000000E+00 0. -1.
         11    1    1    2    0    0 -0.16655646766E+02  0.17463528913E+02 -0.40288290883E+03  0.40360503421E+03  0.00000000000E+00 0.  1.
        -15    1    1    2    0    0  0.10285403963E+02 -0.74865122012E+01 -0.37938021081E+02  0.40053571278E+02  0.17770000000E+01 0. -1.
         15    1    1    2    0    0  0.16469199474E+02 -0.38438428357E+01 -0.56436947289E+02  0.58943162516E+02  0.17770000000E+01 0.  1.
</event>
<event>
 6    1  0.6506903E-004  0.5004102E+03  0.7546771E-02  0.9398892E-01
        -11   -1    0    0    0    0  0.00000000000E+00  0.00000000000E+00  0.50000000000E+03  0.50000000000E+03  0.00000000000E+00 0.  1.
         11   -1    0    0    0    0 -0.00000000000E+00 -0.00000000000E+00 -0.50000000000E+03  0.50000000000E+03  0.00000000000E+00 0. -1.
        -11    1    1    2    0    0 -0.78360464020E+01 -0.67488647354E+01  0.49948277205E+03  0.49958982212E+03  0.00000000000E+00 0.  1.
         11    1    1    2    0    0  0.11985588702E+02 -0.32472200431E+01 -0.16896220792E+03  0.16941790484E+03  0.00000000000E+00 0. -1.
        -15    1    1    2    0    0 -0.62168106778E+01  0.12412438593E+02 -0.25464896698E+03  0.25503327524E+03  0.17770000000E+01 0. -1.
         15    1    1    2    0    0  0.20672683779E+01 -0.24163538146E+01 -0.75871597149E+02  0.75958997803E+02  0.17770000000E+01 0.  1.
</event>
<event>
 6    1  0.6506903E-004  0.5006806E+03  0.7546771E-02  0.9398288E-01
        -11   -1    0    0    0    0  0.00000000000E+00  0.00000000000E+00  0.50000000000E+03  0.50000000000E+03  0.00000000000E+00 0.  1.
         11   -1    0    0    0    0 -0.00000000000E+00 -0.00000000000E+00 -0.50000000000E+03  0.50000000000E+03  0.00000000000E+00 0.  1.
        -11    1    1    2    0    0  0.14353364474E+02  0.34774624524E+01  0.49910096477E+03  0.49931942167E+03  0.00000000000E+00 0.  1.
         11    1    1    2    0    0 -0.23082140333E+02 -0.10651878314E+02 -0.32018787390E+03  0.32119545810E+03  0.00000000000E+00 0.  1.
        -15    1    1    2    0    0  0.69500199247E+01  0.79267428868E+01 -0.16358567626E+03  0.16393464319E+03  0.17770000000E+01 0.  1.
         15    1    1    2    0    0  0.17787559335E+01 -0.75232702541E+00 -0.15327414614E+02  0.15550477046E+02  0.17770000000E+01 0. -1.
</event>
<event>
 6    1  0.6506903E-004  0.4664964E+03  0.7546771E-02  0.9478064E-01
        -11   -1    0    0    0    0  0.00000000000E+00  0.00000000000E+00  0.50000000000E+03  0.50000000000E+03  0.00000000000E+00 0. -1.
         11   -1    0    0    0    0 -0.00000000000E+00 -0.00000000000E+00 -0.50000000000E+03  0.50000000000E+03  0.00000000000E+00 0.  1.
        -11    1    1    2    0    0  0.12925083283E+02 -0.19207333615E+02  0.47225040354E+03  0.47281753678E+03  0.00000000000E+00 0. -1.
         11    1    1    2    0    0 -0.25299336232E+02 -0.41888805263E+02 -0.45974193717E+03  0.46233902843E+03  0.00000000000E+00 0.  1.
        -15    1    1    2    0    0 -0.13205922329E+01  0.22781460972E+02 -0.50345582727E+01  0.23435943204E+02  0.17770000000E+01 0. -1.
         15    1    1    2    0    0  0.13694845182E+02  0.38314677907E+02 -0.74739081042E+01  0.41407491581E+02  0.17770000000E+01 0.  1.
</event>
<event>
 6    1  0.6506903E-004  0.5002599E+03  0.7546771E-02  0.9399228E-01
        -11   -1    0    0    0    0  0.00000000000E+00  0.00000000000E+00  0.50000000000E+03  0.50000000000E+03  0.00000000000E+00 0.  1.
         11   -1    0    0    0    0 -0.00000000000E+00 -0.00000000000E+00 -0.50000000000E+03  0.50000000000E+03  0.00000000000E+00 0.  1.
        -11    1    1    2    0    0 -0.45503684992E+01  0.69602586149E+01  0.49967087724E+03  0.49974006905E+03  0.00000000000E+00 0.  1.
         11    1    1    2    0    0  0.41616229852E+01  0.47170852273E+01 -0.27955828295E+03  0.27962904635E+03  0.00000000000E+00 0.  1.
        -15    1    1    2    0    0 -0.30678644314E+01 -0.14520732704E+01 -0.38829570282E+02  0.39018118435E+02  0.17770000000E+01 0.  1.
         15    1    1    2    0    0  0.34566099454E+01 -0.10225270572E+02 -0.18128302401E+03  0.18161276616E+03  0.17770000000E+01 0. -1.
</event>
<event>
 6    1  0.6506903E-004  0.5001582E+03  0.7546771E-02  0.9399456E-01
        -11   -1    0    0    0    0  0.00000000000E+00  0.00000000000E+00  0.50000000000E+03  0.50000000000E+03  0.00000000000E+00 0. -1.
         11   -1    0    0    0    0 -0.00000000000E+00 -0.00000000000E+00 -0.50000000000E+03  0.50000000000E+03  0.00000000000E+00 0.  1.
        -11    1    1    2    0    0 -0.58110924657E+01  0.54094339681E+01  0.20673032486E+03  0.20688271554E+03  0.00000000000E+00 0. -1.
         11    1    1    2    0    0  0.16624943844E+02 -0.10736184356E+00 -0.49956526098E+03  0.49984182525E+03  0.00000000000E+00 0.  1.
        -15    1    1    2    0    0 -0.12413376145E+02 -0.43506857989E+01  0.26069367003E+03  0.26103135386E+03  0.17770000000E+01 0. -1.
         15    1    1    2    0    0  0.15995247669E+01 -0.95138632569E+00  0.32141266086E+02  0.32244105353E+02  0.17770000000E+01 0. -1.
</event>
<event>
 6    1  0.6506903E-004  0.4914602E+03  0.7546771E-02  0.9419124E-01
        -11   -1    0    0    0    0  0.00000000000E+00  0.00000000000E+00  0.50000000000E+03  0.50000000000E+03  0.00000000000E+00 0.  1.
         11   -1    0    0    0    0 -0.00000000000E+00 -0.00000000000E+00 -0.50000000000E+03  0.50000000000E+03  0.00000000000E+00 0. -1.
        -11    1    1    2    0    0 -0.75306813821E+01  0.49087629276E+01  0.49327234890E+03  0.49335425133E+03  0.00000000000E+00 0.  1.
         11    1    1    2    0    0 -0.39080274368E+01 -0.75361121951E+01 -0.48956960349E+03  0.48964319900E+03  0.00000000000E+00 0. -1.
        -15    1    1    2    0    0  0.24627191802E+00  0.34716000394E+01 -0.40571263706E+01  0.56329974328E+01  0.17770000000E+01 0.  1.
         15    1    1    2    0    0  0.11192436901E+02 -0.84425077194E+00  0.35438096086E+00  0.11369552234E+02  0.17770000000E+01 0. -1.
</event>
<event>
 6    1  0.6506903E-004  0.5014130E+03  0.7546771E-02  0.9396654E-01
        -11   -1    0    0    0    0  0.00000000000E+00  0.00000000000E+00  0.50000000000E+03  0.50000000000E+03  0.00000000000E+00 0. -1.
         11   -1    0    0    0    0 -0.00000000000E+00 -0.00000000000E+00 -0.50000000000E+03  0.50000000000E+03  0.00000000000E+00 0. -1.
        -11    1    1    2    0    0  0.17759263160E+02 -0.25329680352E+01  0.49826421292E+03  0.49858703676E+03  0.00000000000E+00 0. -1.
         11    1    1    2    0    0  0.90194072764E+01  0.52816119987E+01 -0.35491354411E+03  0.35506741462E+03  0.00000000000E+00 0. -1.
        -15    1    1    2    0    0 -0.13329783925E+02 -0.12625177947E+01 -0.43006804577E+02  0.45077933178E+02  0.17770000000E+01 0. -1.
         15    1    1    2    0    0 -0.13448886512E+02 -0.14861261688E+01 -0.10034386423E+03  0.10126761544E+03  0.17770000000E+01 0.  1.
</event>
<event>
 6    1  0.6506903E-004  0.5028497E+03  0.7546771E-02  0.9393456E-01
        -11   -1    0    0    0    0  0.00000000000E+00  0.00000000000E+00  0.50000000000E+03  0.50000000000E+03  0.00000000000E+00 0. -1.
         11   -1    0    0    0    0 -0.00000000000E+00 -0.00000000000E+00 -0.50000000000E+03  0.50000000000E+03  0.00000000000E+00 0. -1.
        -11    1    1    2    0    0 -0.35910452251E+01 -0.79807153114E+01  0.47452507634E+03  0.47460576850E+03  0.00000000000E+00 0. -1.
         11    1    1    2    0    0  0.13376768465E+02 -0.51334196727E+01 -0.49694374957E+03  0.49715025914E+03  0.00000000000E+00 0. -1.
        -15    1    1    2    0    0 -0.57390908069E+01  0.89053098759E+01  0.11510502293E+02  0.15744557768E+02  0.17770000000E+01 0.  1.
         15    1    1    2    0    0 -0.40466324333E+01  0.42088251082E+01  0.10908170934E+02  0.12499414585E+02  0.17770000000E+01 0. -1.
</event>
<event>
 6    1  0.6506903E-004  0.5106897E+03  0.7546771E-02  0.9376203E-01
        -11   -1    0    0    0    0  0.00000000000E+00  0.00000000000E+00  0.50000000000E+03  0.50000000000E+03  0.00000000000E+00 0.  1.
         11   -1    0    0    0    0 -0.00000000000E+00 -0.00000000000E+00 -0.50000000000E+03  0.50000000000E+03  0.00000000000E+00 0.  1.
        -11    1    1    2    0    0  0.39966778500E+01 -0.11171586299E+02  0.48916642042E+03  0.48931029484E+03  0.00000000000E+00 0.  1.
         11    1    1    2    0    0  0.47746509772E+02 -0.20181204428E+01 -0.38925398946E+03  0.39217658053E+03  0.00000000000E+00 0.  1.
        -15    1    1    2    0    0 -0.34125225017E+01  0.74383650980E+01 -0.12274497335E+01  0.84639793835E+01  0.17770000000E+01 0. -1.
         15    1    1    2    0    0 -0.48330665120E+02  0.57513416433E+01 -0.98684981221E+02  0.11004914525E+03  0.17770000000E+01 0.  1.
</event>
<event>
 6    1  0.6506903E-004  0.5023845E+03  0.7546771E-02  0.9394490E-01
        -11   -1    0    0    0    0  0.00000000000E+00  0.00000000000E+00  0.50000000000E+03  0.50000000000E+03  0.00000000000E+00 0.  1.
         11   -1    0    0    0    0 -0.00000000000E+00 -0.00000000000E+00 -0.50000000000E+03  0.50000000000E+03  0.00000000000E+00 0.  1.
        -11    1    1    2    0    0  0.52857169901E+00 -0.80012009838E+01  0.30825634750E+03  0.30836062392E+03  0.00000000000E+00 0.  1.
         11    1    1    2    0    0 -0.35514712731E+02  0.28495602615E+02 -0.49552793403E+03  0.49761554195E+03  0.00000000000E+00 0.  1.
        -15    1    1    2    0    0  0.10967496276E+02 -0.14647215910E+02  0.13416563962E+03  0.13541936158E+03  0.17770000000E+01 0. -1.
         15    1    1    2    0    0  0.24018644756E+02 -0.58471857214E+01  0.53105946907E+02  0.58604472548E+02  0.17770000000E+01 0.  1.
</event>
<event>
 6    1  0.6506903E-004  0.4856343E+03  0.7546771E-02  0.9432541E-01
        -11   -1    0    0    0    0  0.00000000000E+00  0.00000000000E+00  0.50000000000E+03  0.50000000000E+03  0.00000000000E+00 0.  1.
         11   -1    0    0    0    0 -0.00000000000E+00 -0.00000000000E+00 -0.50000000000E+03  0.50000000000E+03  0.00000000000E+00 0. -1.
        -11    1    1    2    0    0 -0.14311951204E+02 -0.58214069773E+01  0.48226339096E+03  0.48251082784E+03  0.00000000000E+00 0.  1.
         11    1    1    2    0    0  0.51887611667E+01 -0.16580506637E+02 -0.48877201779E+03  0.48908069050E+03  0.00000000000E+00 0. -1.
        -15    1    1    2    0    0 -0.87919371472E+00  0.21934830600E+01  0.49129016613E+01  0.57339934824E+01  0.17770000000E+01 0.  1.
         15    1    1    2    0    0  0.10002383752E+02  0.20208430555E+02  0.15957251706E+01  0.22674488176E+02  0.17770000000E+01 0. -1.
</event>
<event>
 6    1  0.6506903E-004  0.5050412E+03  0.7546771E-02  0.9388600E-01
        -11   -1    0    0    0    0  0.00000000000E+00  0.00000000000E+00  0.50000000000E+03  0.50000000000E+03  0.00000000000E+00 0.  1.
         11   -1    0    0    0    0 -0.00000000000E+00 -0.00000000000E+00 -0.50000000000E+03  0.50000000000E+03  0.00000000000E+00 0.  1.
        -11    1    1    2    0    0 -0.48059593779E+01 -0.36288624027E+01  0.41477520476E+03  0.41481891998E+03  0.00000000000E+00 0.  1.
         11    1    1    2    0    0  0.86431278030E+01 -0.31583048171E+02 -0.49387446536E+03  0.49495876609E+03  0.00000000000E+00 0.  1.
        -15    1    1    2    0    0 -0.12846060700E+01  0.17501257986E+02  0.13523449545E+02  0.22225788185E+02  0.17770000000E+01 0.  1.
         15    1    1    2    0    0 -0.25525623551E+01  0.17710652588E+02  0.65575811054E+02  0.67996525750E+02  0.17770000000E+01 0. -1.
</event>
<event>
 6    1  0.6506903E-004  0.5005356E+03  0.7546771E-02  0.9398612E-01
        -11   -1    0    0    0    0  0.00000000000E+00  0.00000000000E+00  0.50000000000E+03  0.50000000000E+03  0.00000000000E+00 0. -1.
         11   -1    0    0    0    0 -0.00000000000E+00 -0.00000000000E+00 -0.50000000000E+03  0.50000000000E+03  0.00000000000E+00 0.  1.
        -11    1    1    2    0    0  0.21315347334E+01  0.93389520365E+01  0.27169864290E+03  0.27186745304E+03  0.00000000000E+00 0. -1.
         11    1    1    2    0    0 -0.12439750963E+02  0.74959229816E+01 -0.49925324027E+03  0.49946444737E+03  0.00000000000E+00 0.  1.
        -15    1    1    2    0    0 -0.28518897616E+00  0.71470051301E+00  0.16670734895E+02  0.16782826357E+02  0.17770000000E+01 0. -1.
         15    1    1    2    0    0  0.10593405206E+02 -0.17549575531E+02  0.21088386247E+03  0.21188527324E+03  0.17770000000E+01 0.  1.
</event>
<event>
 6    1  0.6506903E-004  0.5048379E+03  0.7546771E-02  0.9389049E-01
        -11   -1    0    0    0    0  0.00000000000E+00  0.00000000000E+00  0.50000000000E+03  0.50000000000E+03  0.00000000000E+00 0. -1.
         11   -1    0    0    0    0 -0.00000000000E+00 -0.00000000000E+00 -0.50000000000E+03  0.50000000000E+03  0.00000000000E+00 0.  1.
        -11    1    1    2    0    0 -0.25395937938E+02 -0.62874193701E+01  0.30980475098E+03  0.31090749274E+03  0.00000000000E+00 0. -1.
         11    1    1    2    0    0 -0.20968526015E+02 -0.16662492124E+02 -0.49443724417E+03  0.49516210088E+03  0.00000000000E+00 0.  1.
        -15    1    1    2    0    0  0.46837325307E+02  0.19850853786E+02  0.13681010611E+03  0.14597244363E+03  0.17770000000E+01 0.  1.
         15    1    1    2    0    0 -0.47286135391E+00  0.30990577083E+01  0.47822387078E+02  0.47957962753E+02  0.17770000000E+01 0. -1.
</event>
<event>
 6    1  0.6506903E-004  0.5002766E+03  0.7546771E-02  0.9399191E-01
        -11   -1    0    0    0    0  0.00000000000E+00  0.00000000000E+00  0.50000000000E+03  0.50000000000E+03  0.00000000000E+00 0. -1.
         11   -1    0    0    0    0 -0.00000000000E+00 -0.00000000000E+00 -0.50000000000E+03  0.50000000000E+03  0.00000000000E+00 0.  1.
        -11    1    1    2    0    0 -0.36947725900E+02  0.37298853567E+02  0.49695790053E+03  0.49972341732E+03  0.00000000000E+00 0. -1.
         11    1    1    2    0    0  0.33659453539E+02 -0.37915039566E+02 -0.40566164097E+03  0.40881765617E+03  0.00000000000E+00 0.  1.
        -15    1    1    2    0    0  0.21646281934E+01  0.18789455818E+00 -0.69662458920E+02  0.69718984727E+02  0.17770000000E+01 0.  1.
         15    1    1    2    0    0  0.11236441675E+01  0.42829144086E+00 -0.21633800633E+02  0.21739941780E+02  0.17770000000E+01 0.  1.
</event>
<event>
 6    1  0.6506903E-004  0.5058593E+03  0.7546771E-02  0.9386794E-01
        -11   -1    0    0    0    0  0.00000000000E+00  0.00000000000E+00  0.50000000000E+03  0.50000000000E+03  0.00000000000E+00 0.  1.
         11   -1    0    0    0    0 -0.00000000000E+00 -0.00000000000E+00 -0.50000000000E+03  0.50000000000E+03  0.00000000000E+00 0. -1.
        -11    1    1    2    0    0  0.64581738898E+01 -0.20702018152E+01  0.49409411010E+03  0.49414065142E+03  0.00000000000E+00 0.  1.
         11    1    1    2    0    0  0.24822287539E+01  0.10590992902E+02 -0.48440589396E+03  0.48452801848E+03  0.00000000000E+00 0. -1.
        -15    1    1    2    0    0  0.36789999027E+00 -0.90219143844E+01 -0.66968285919E+01  0.11381367745E+02  0.17770000000E+01 0.  1.
         15    1    1    2    0    0 -0.93083026340E+01  0.50112329801E+00 -0.29913875511E+01  0.99499623600E+01  0.17770000000E+01 0. -1.
</event>
<event>
 6    1  0.6506903E-004  0.5003866E+03  0.7546771E-02  0.9398945E-01
        -11   -1    0    0    0    0  0.00000000000E+00  0.00000000000E+00  0.50000000000E+03  0.50000000000E+03  0.00000000000E+00 0. -1.
         11   -1    0    0    0    0 -0.00000000000E+00 -0.00000000000E+00 -0.50000000000E+03  0.50000000000E+03  0.00000000000E+00 0. -1.
        -11    1    1    2    0    0 -0.34139922815E+01  0.20264810763E+02  0.23846304868E+03  0.23934691033E+03  0.00000000000E+00 0. -1.
         11    1    1    2    0    0  0.10452267191E+02 -0.15151283072E+02 -0.49927424972E+03  0.49961343827E+03  0.00000000000E+00 0. -1.
        -15    1    1    2    0    0 -0.46999273675E+00 -0.10591199802E+01  0.11011463192E+03  0.11013506490E+03  0.17770000000E+01 0.  1.
         15    1    1    2    0    0 -0.65682821725E+01 -0.40544077105E+01  0.15069656912E+03  0.15090458650E+03  0.17770000000E+01 0. -1.
</event>
<event>
 6    1  0.6506903E-004  0.5009031E+03  0.7546771E-02  0.9397791E-01
        -11   -1    0    0    0    0  0.00000000000E+00  0.00000000000E+00  0.50000000000E+03  0.50000000000E+03  0.00000000000E+00 0. -1.
         11   -1    0    0    0    0 -0.00000000000E+00 -0.00000000000E+00 -0.50000000000E+03  0.50000000000E+03  0.00000000000E+00 0.  1.
        -11    1    1    2    0    0  0.17268931274E+01  0.52420651023E+01  0.25695391539E+03  0.25701318262E+03  0.00000000000E+00 0. -1.
         11    1    1    2    0    0 -0.20057989982E+02  0.20161848225E+02 -0.49828592422E+03  0.49909686971E+03  0.00000000000E+00 0.  1.
        -15    1    1    2    0    0  0.36024677236E+01 -0.49244562943E+01  0.17211159300E+02  0.18346928270E+02  0.17770000000E+01 0.  1.
         15    1    1    2    0    0  0.14728629131E+02 -0.20479457033E+02  0.22412084953E+03  0.22554301940E+03  0.17770000000E+01 0. -1.
</event>
<event>
 6    1  0.6506903E-004  0.5063317E+03  0.7546771E-02  0.9385752E-01
        -11   -1    0    0    0    0  0.00000000000E+00  0.00000000000E+00  0.50000000000E+03  0.50000000000E+03  0.00000000000E+00 0. -1.
         11   -1    0    0    0    0 -0.00000000000E+00 -0.00000000000E+00 -0.50000000000E+03  0.50000000000E+03  0.00000000000E+00 0. -1.
        -11    1    1    2    0    0  0.78989494711E+01 -0.66102869902E+01  0.49356082839E+03  0.49366829007E+03  0.00000000000E+00 0. -1.
         11    1    1    2    0    0  0.49237005383E+02  0.16364433030E+02 -0.24662635634E+03  0.25202507218E+03  0.00000000000E+00 0. -1.
        -15    1    1    2    0    0 -0.57689059579E+02 -0.93213103724E+01 -0.23212312682E+03  0.23937255096E+03  0.17770000000E+01 0.  1.
         15    1    1    2    0    0  0.55310472462E+00 -0.43283566769E+00 -0.14811345232E+02  0.14934086786E+02  0.17770000000E+01 0. -1.
</event>
<event>
 6    1  0.6506903E-004  0.5089217E+03  0.7546771E-02  0.9380065E-01
        -11   -1    0    0    0    0  0.00000000000E+00  0.00000000000E+00  0.50000000000E+03  0.50000000000E+03  0.00000000000E+00 0.  1.
         11   -1    0    0    0    0 -0.00000000000E+00 -0.00000000000E+00 -0.50000000000E+03  0.50000000000E+03  0.00000000000E+00 0. -1.
        -11    1    1    2    0    0 -0.80215401732E+01  0.17393441359E+01  0.47480873937E+03  0.47487967888E+03  0.00000000000E+00 0.  1.
         11    1    1    2    0    0  0.55629514461E+01 -0.22339177006E+02 -0.49053834263E+03  0.49107825328E+03  0.00000000000E+00 0. -1.
        -15    1    1    2    0    0  0.92058168727E+01  0.13988610088E+02  0.17479810430E+02  0.24271995760E+02  0.17770000000E+01 0.  1.
         15    1    1    2    0    0 -0.67472281456E+01  0.66112227819E+01 -0.17502071713E+01  0.97700720807E+01  0.17770000000E+01 0. -1.
</event>
<event>
 6    1  0.6506903E-004  0.4920799E+03  0.7546771E-02  0.9417708E-01
        -11   -1    0    0    0    0  0.00000000000E+00  0.00000000000E+00  0.50000000000E+03  0.50000000000E+03  0.00000000000E+00 0.  1.
         11   -1    0    0    0    0 -0.00000000000E+00 -0.00000000000E+00 -0.50000000000E+03  0.50000000000E+03  0.00000000000E+00 0.  1.
        -11    1    1    2    0    0 -0.73573348391E+01  0.14155375698E+02  0.48986625501E+03  0.49012595609E+03  0.00000000000E+00 0.  1.
         11    1    1    2    0    0 -0.49910059713E+01 -0.14757923869E+02 -0.49387392375E+03  0.49411957967E+03  0.00000000000E+00 0.  1.
        -15    1    1    2    0    0  0.63232538828E+01 -0.17113510241E-01 -0.21748399348E+01  0.69189226242E+01  0.17770000000E+01 0. -1.
         15    1    1    2    0    0  0.60250869276E+01  0.61966168184E+00  0.61825086723E+01  0.88355416115E+01  0.17770000000E+01 0.  1.
</event>
<event>
 6    1  0.6506903E-004  0.5050846E+03  0.7546771E-02  0.9388504E-01
        -11   -1    0    0    0    0  0.00000000000E+00  0.00000000000E+00  0.50000000000E+03  0.50000000000E+03  0.00000000000E+00 0. -1.
         11   -1    0    0    0    0 -0.00000000000E+00 -0.00000000000E+00 -0.50000000000E+03  0.50000000000E+03  0.00000000000E+00 0.  1.
        -11    1    1    2    0    0  0.19054825527E+01  0.12752486734E+02  0.40845792204E+03  0.40866138900E+03  0.00000000000E+00 0. -1.
         11    1    1    2    0    0 -0.21963362477E+02 -0.33957889586E+02 -0.49326030219E+03  0.49491540012E+03  0.00000000000E+00 0.  1.
        -15    1    1    2    0    0  0.15939825239E+02  0.27011539944E+02  0.39200100925E+02  0.50234519609E+02  0.17770000000E+01 0.  1.
         15    1    1    2    0    0  0.41180546851E+01 -0.58061370926E+01  0.45602279222E+02  0.46188691273E+02  0.17770000000E+01 0. -1.
</event>
<event>
 6    1  0.6506903E-004  0.5002606E+03  0.7546771E-02  0.9399227E-01
        -11   -1    0    0    0    0  0.00000000000E+00  0.00000000000E+00  0.50000000000E+03  0.50000000000E+03  0.00000000000E+00 0. -1.
         11   -1    0    0    0    0 -0.00000000000E+00 -0.00000000000E+00 -0.50000000000E+03  0.50000000000E+03  0.00000000000E+00 0.  1.
        -11    1    1    2    0    0 -0.59610079264E+01  0.54208217583E+01  0.49967443673E+03  0.49973939373E+03  0.00000000000E+00 0. -1.
         11    1    1    2    0    0 -0.11202242226E+01 -0.97059081264E+01 -0.26235432868E+03  0.26253619433E+03  0.00000000000E+00 0.  1.
        -15    1    1    2    0    0  0.38706139497E+01 -0.53986679859E+00 -0.28992686096E+02  0.29308815817E+02  0.17770000000E+01 0. -1.
         15    1    1    2    0    0  0.32106181994E+01  0.48249531667E+01 -0.20832742195E+03  0.20841559612E+03  0.17770000000E+01 0.  1.
</event>
<event>
 6    1  0.6506903E-004  0.5001905E+03  0.7546771E-02  0.9399384E-01
        -11   -1    0    0    0    0  0.00000000000E+00  0.00000000000E+00  0.50000000000E+03  0.50000000000E+03  0.00000000000E+00 0. -1.
         11   -1    0    0    0    0 -0.00000000000E+00 -0.00000000000E+00 -0.50000000000E+03  0.50000000000E+03  0.00000000000E+00 0.  1.
        -11    1    1    2    0    0 -0.64327611258E+01 -0.10601416903E+01  0.35111396502E+03  0.35117448761E+03  0.00000000000E+00 0. -1.
         11    1    1    2    0    0  0.68250738951E+01  0.66096285656E+01 -0.49971916681E+03  0.49980947820E+03  0.00000000000E+00 0.  1.
        -15    1    1    2    0    0 -0.36504118544E+01 -0.49891880435E+01  0.62747321573E+02  0.63076157125E+02  0.17770000000E+01 0.  1.
         15    1    1    2    0    0  0.32580990851E+01 -0.56029883177E+00  0.85857880223E+02  0.85939877064E+02  0.17770000000E+01 0. -1.
</event>
<event>
 6    1  0.6506903E-004  0.5078690E+03  0.7546771E-02  0.9382372E-01
        -11   -1    0    0    0    0  0.00000000000E+00  0.00000000000E+00  0.50000000000E+03  0.50000000000E+03  0.00000000000E+00 0. -1.
         11   -1    0    0    0    0 -0.00000000000E+00 -0.00000000000E+00 -0.50000000000E+03  0.50000000000E+03  0.00000000000E+00 0.  1.
        -11    1    1    2    0    0  0.10829707060E+02 -0.14396018416E+02  0.31600681442E+03  0.31651988036E+03  0.00000000000E+00 0. -1.
         11    1    1    2    0    0  0.72671751072E+02  0.12798572188E+01 -0.48673413486E+03  0.49213101860E+03  0.00000000000E+00 0.  1.
        -15    1    1    2    0    0 -0.10316886231E+02  0.77073590031E+01  0.25018851471E+02  0.28194719049E+02  0.17770000000E+01 0.  1.
         15    1    1    2    0    0 -0.73184571901E+02  0.54088021939E+01  0.14570846896E+03  0.16315438199E+03  0.17770000000E+01 0. -1.
</event>
<event>
 6    1  0.6506903E-004  0.5005429E+03  0.7546771E-02  0.9398596E-01
        -11   -1    0    0    0    0  0.00000000000E+00  0.00000000000E+00  0.50000000000E+03  0.50000000000E+03  0.00000000000E+00 0. -1.
         11   -1    0    0    0    0 -0.00000000000E+00 -0.00000000000E+00 -0.50000000000E+03  0.50000000000E+03  0.00000000000E+00 0.  1.
        -11    1    1    2    0    0  0.25943942433E+01  0.84450934798E+01  0.49937892053E+03  0.49945706198E+03  0.00000000000E+00 0. -1.
         11    1    1    2    0    0 -0.12511770775E+02 -0.11534208355E+02 -0.24960085491E+03  0.25018027328E+03  0.00000000000E+00 0.  1.
        -15    1    1    2    0    0  0.60173132675E+01  0.82225917153E+01 -0.14051802615E+03  0.14089816350E+03  0.17770000000E+01 0.  1.
         15    1    1    2    0    0  0.39000632639E+01 -0.51334768398E+01 -0.10926003947E+03  0.10946450124E+03  0.17770000000E+01 0. -1.
</event>
<event>
 6    1  0.6506903E-004  0.5001659E+03  0.7546771E-02  0.9399439E-01
        -11   -1    0    0    0    0  0.00000000000E+00  0.00000000000E+00  0.50000000000E+03  0.50000000000E+03  0.00000000000E+00 0. -1.
         11   -1    0    0    0    0 -0.00000000000E+00 -0.00000000000E+00 -0.50000000000E+03  0.50000000000E+03  0.00000000000E+00 0. -1.
        -11    1    1    2    0    0  0.71864163885E+01 -0.15845562902E+00  0.49978240598E+03  0.49983409549E+03  0.00000000000E+00 0. -1.
         11    1    1    2    0    0  0.21497434885E+01 -0.22769368736E+01 -0.19770133732E+03  0.19772613539E+03  0.00000000000E+00 0. -1.
        -15    1    1    2    0    0 -0.55102457416E+01  0.20277316804E+01 -0.27118527470E+03  0.27125465055E+03  0.17770000000E+01 0. -1.
         15    1    1    2    0    0 -0.38259141354E+01  0.40766082220E+00 -0.30895793965E+02  0.31185118567E+02  0.17770000000E+01 0.  1.
</event>
<event>
 6    1  0.6506903E-004  0.5002233E+03  0.7546771E-02  0.9399310E-01
        -11   -1    0    0    0    0  0.00000000000E+00  0.00000000000E+00  0.50000000000E+03  0.50000000000E+03  0.00000000000E+00 0.  1.
         11   -1    0    0    0    0 -0.00000000000E+00 -0.00000000000E+00 -0.50000000000E+03  0.50000000000E+03  0.00000000000E+00 0.  1.
        -11    1    1    2    0    0 -0.31397337578E+01  0.48391186423E+01  0.23473588408E+03  0.23480675091E+03  0.00000000000E+00 0.  1.
         11    1    1    2    0    0  0.10462176570E+02 -0.53151506640E+01 -0.49963886836E+03  0.49977665686E+03  0.00000000000E+00 0.  1.
        -15    1    1    2    0    0  0.50877418464E+00  0.56215880390E+01  0.15066608865E+03  0.15078225725E+03  0.17770000000E+01 0.  1.
         15    1    1    2    0    0 -0.78312169967E+01 -0.51455560173E+01  0.11423689562E+03  0.11463433498E+03  0.17770000000E+01 0. -1.
</event>
<event>
 6    1  0.6506903E-004  0.5001735E+03  0.7546771E-02  0.9399422E-01
        -11   -1    0    0    0    0  0.00000000000E+00  0.00000000000E+00  0.50000000000E+03  0.50000000000E+03  0.00000000000E+00 0.  1.
         11   -1    0    0    0    0 -0.00000000000E+00 -0.00000000000E+00 -0.50000000000E+03  0.50000000000E+03  0.00000000000E+00 0.  1.
        -11    1    1    2    0    0  0.50703563432E+01 -0.63079565263E+01  0.29245676554E+03  0.29256872447E+03  0.00000000000E+00 0.  1.
         11    1    1    2    0    0 -0.88603821002E+01  0.21535858172E+01 -0.49974334485E+03  0.49982652493E+03  0.00000000000E+00 0.  1.
        -15    1    1    2    0    0 -0.10433567665E+01 -0.28638647804E+00  0.13078651286E+03  0.13080305916E+03  0.17770000000E+01 0.  1.
         15    1    1    2    0    0  0.48333825235E+01  0.44407571872E+01  0.76500066456E+02  0.76801691438E+02  0.17770000000E+01 0. -1.
</event>
<event>
 6    1  0.6506903E-004  0.5006640E+03  0.7546771E-02  0.9398325E-01
        -11   -1    0    0    0    0  0.00000000000E+00  0.00000000000E+00  0.50000000000E+03  0.50000000000E+03  0.00000000000E+00 0. -1.
         11   -1    0    0    0    0 -0.00000000000E+00 -0.00000000000E+00 -0.50000000000E+03  0.50000000000E+03  0.00000000000E+00 0.  1.
        -11    1    1    2    0    0  0.69906332513E+01 -0.14058065874E+01  0.22914550060E+03  0.22925641909E+03  0.00000000000E+00 0. -1.
         11    1    1    2    0    0 -0.20357828736E+02  0.84248321212E+01 -0.49884967953E+03  0.49933598084E+03  0.00000000000E+00 0.  1.
        -15    1    1    2    0    0  0.18337398236E+02 -0.12851361808E+02  0.19422159788E+03  0.19551625121E+03  0.17770000000E+01 0. -1.
         15    1    1    2    0    0 -0.49702027513E+01  0.58323362741E+01  0.75482581054E+02  0.75891348870E+02  0.17770000000E+01 0.  1.
</event>
<event>
 6    1  0.6506903E-004  0.5006560E+03  0.7546771E-02  0.9398343E-01
        -11   -1    0    0    0    0  0.00000000000E+00  0.00000000000E+00  0.50000000000E+03  0.50000000000E+03  0.00000000000E+00 0.  1.
         11   -1    0    0    0    0 -0.00000000000E+00 -0.00000000000E+00 -0.50000000000E+03  0.50000000000E+03  0.00000000000E+00 0. -1.
        -11    1    1    2    0    0  0.67115059345E+01 -0.66805076735E+01  0.49925419097E+03  0.49934399035E+03  0.00000000000E+00 0.  1.
         11    1    1    2    0    0  0.62015999349E+01 -0.76642209442E+01 -0.23824561451E+03  0.23844951868E+03  0.00000000000E+00 0. -1.
        -15    1    1    2    0    0 -0.16397705902E+02  0.11749108924E+02 -0.22002323478E+03  0.22095318031E+03  0.17770000000E+01 0. -1.
         15    1    1    2    0    0  0.34846000321E+01  0.25956196936E+01 -0.40985341680E+02  0.41253310663E+02  0.17770000000E+01 0.  1.
</event>
<event>
 6    1  0.6506903E-004  0.5018376E+03  0.7546771E-02  0.9395707E-01
        -11   -1    0    0    0    0  0.00000000000E+00  0.00000000000E+00  0.50000000000E+03  0.50000000000E+03  0.00000000000E+00 0.  1.
         11   -1    0    0    0    0 -0.00000000000E+00 -0.00000000000E+00 -0.50000000000E+03  0.50000000000E+03  0.00000000000E+00 0.  1.
        -11    1    1    2    0    0 -0.26423215478E+01  0.54579190631E+01  0.25526967756E+03  0.25534169073E+03  0.00000000000E+00 0.  1.
         11    1    1    2    0    0  0.28313418133E+02 -0.21329765352E+02 -0.49689957426E+03  0.49816241873E+03  0.00000000000E+00 0.  1.
        -15    1    1    2    0    0 -0.32038507771E+02  0.91614676229E+01  0.12156077899E+03  0.12605784064E+03  0.17770000000E+01 0. -1.
         15    1    1    2    0    0  0.63674111865E+01  0.67103786661E+01  0.12006911772E+03  0.12043804991E+03  0.17770000000E+01 0.  1.
</event>
<event>
 6    1  0.6506903E-004  0.4780658E+03  0.7546771E-02  0.9450273E-01
        -11   -1    0    0    0    0  0.00000000000E+00  0.00000000000E+00  0.50000000000E+03  0.50000000000E+03  0.00000000000E+00 0.  1.
         11   -1    0    0    0    0 -0.00000000000E+00 -0.00000000000E+00 -0.50000000000E+03  0.50000000000E+03  0.00000000000E+00 0. -1.
        -11    1    1    2    0    0 -0.72137757990E+01 -0.95032451083E+01  0.47411312967E+03  0.47426322855E+03  0.00000000000E+00 0.  1.
         11    1    1    2    0    0  0.61089030836E+01 -0.24208930577E+02 -0.48184789502E+03  0.48249433670E+03  0.00000000000E+00 0. -1.
        -15    1    1    2    0    0 -0.32043684007E+01  0.34092060968E+01  0.11317206365E+02  0.12374471786E+02  0.17770000000E+01 0. -1.
         15    1    1    2    0    0  0.43092411161E+01  0.30302969589E+02 -0.35824410155E+01  0.30867962964E+02  0.17770000000E+01 0.  1.
</event>
<event>
 6    1  0.6506903E-004  0.5049847E+03  0.7546771E-02  0.9388725E-01
        -11   -1    0    0    0    0  0.00000000000E+00  0.00000000000E+00  0.50000000000E+03  0.50000000000E+03  0.00000000000E+00 0. -1.
         11   -1    0    0    0    0 -0.00000000000E+00 -0.00000000000E+00 -0.50000000000E+03  0.50000000000E+03  0.00000000000E+00 0. -1.
        -11    1    1    2    0    0 -0.50101589124E+01  0.21475468601E+01  0.36896584405E+03  0.36900610798E+03  0.00000000000E+00 0. -1.
         11    1    1    2    0    0 -0.44610246782E+02 -0.23424925506E+02 -0.49244430602E+03  0.49501534904E+03  0.00000000000E+00 0. -1.
        -15    1    1    2    0    0  0.48031930460E+02  0.23117164070E+02  0.11109705512E+03  0.12323628931E+03  0.17770000000E+01 0. -1.
         15    1    1    2    0    0  0.15884752345E+01 -0.18397854250E+01  0.12381406851E+02  0.12742253670E+02  0.17770000000E+01 0.  1.
</event>
<event>
 6    1  0.6506903E-004  0.5040389E+03  0.7546771E-02  0.9390817E-01
        -11   -1    0    0    0    0  0.00000000000E+00  0.00000000000E+00  0.50000000000E+03  0.50000000000E+03  0.00000000000E+00 0.  1.
         11   -1    0    0    0    0 -0.00000000000E+00 -0.00000000000E+00 -0.50000000000E+03  0.50000000000E+03  0.00000000000E+00 0.  1.
        -11    1    1    2    0    0 -0.71562516843E+01 -0.55628313777E+01  0.48427539001E+03  0.48436020728E+03  0.00000000000E+00 0.  1.
         11    1    1    2    0    0  0.94095855093E+01 -0.59067193277E+01 -0.49583661911E+03  0.49596106952E+03  0.00000000000E+00 0.  1.
        -15    1    1    2    0    0  0.28720498575E+01  0.23281502129E+01  0.18068135317E+00  0.41060112700E+01  0.17770000000E+01 0. -1.
         15    1    1    2    0    0 -0.51253836825E+01  0.91414004925E+01  0.11380547746E+02  0.15572711930E+02  0.17770000000E+01 0.  1.
</event>
<event>
 6    1  0.6506903E-004  0.5171942E+03  0.7546771E-02  0.9362138E-01
        -11   -1    0    0    0    0  0.00000000000E+00  0.00000000000E+00  0.50000000000E+03  0.50000000000E+03  0.00000000000E+00 0.  1.
         11   -1    0    0    0    0 -0.00000000000E+00 -0.00000000000E+00 -0.50000000000E+03  0.50000000000E+03  0.00000000000E+00 0.  1.
        -11    1    1    2    0    0  0.67407551078E+01  0.13553111012E+00  0.45554274727E+03  0.45559263683E+03  0.00000000000E+00 0.  1.
         11    1    1    2    0    0  0.25725424984E+02 -0.14342260181E+02 -0.48190658426E+03  0.48280581383E+03  0.00000000000E+00 0.  1.
        -15    1    1    2    0    0 -0.28971536060E+01 -0.12479643676E+02  0.15676716217E+02  0.20323684844E+02  0.17770000000E+01 0. -1.
         15    1    1    2    0    0 -0.29569026486E+02  0.26686372747E+02  0.10687120771E+02  0.41277864493E+02  0.17770000000E+01 0.  1.
</event>
<event>
 6    1  0.6506903E-004  0.5008478E+03  0.7546771E-02  0.9397915E-01
        -11   -1    0    0    0    0  0.00000000000E+00  0.00000000000E+00  0.50000000000E+03  0.50000000000E+03  0.00000000000E+00 0. -1.
         11   -1    0    0    0    0 -0.00000000000E+00 -0.00000000000E+00 -0.50000000000E+03  0.50000000000E+03  0.00000000000E+00 0.  1.
        -11    1    1    2    0    0  0.55770465952E+01  0.52463017449E+01  0.49909346374E+03  0.49915219391E+03  0.00000000000E+00 0. -1.
         11    1    1    2    0    0  0.10976994138E+02 -0.43315385184E+01 -0.54716286189E+02  0.55974356634E+02  0.00000000000E+00 0.  1.
        -15    1    1    2    0    0 -0.45011428486E+01 -0.80406238941E-01 -0.37242151360E+02  0.37555323444E+02  0.17770000000E+01 0. -1.
         15    1    1    2    0    0 -0.12052897885E+02 -0.83435698761E+00 -0.40713502619E+03  0.40731812602E+03  0.17770000000E+01 0.  1.
</event>
<event>
 6    1  0.6506903E-004  0.5021167E+03  0.7546771E-02  0.9395086E-01
        -11   -1    0    0    0    0  0.00000000000E+00  0.00000000000E+00  0.50000000000E+03  0.50000000000E+03  0.00000000000E+00 0.  1.
         11   -1    0    0    0    0 -0.00000000000E+00 -0.00000000000E+00 -0.50000000000E+03  0.50000000000E+03  0.00000000000E+00 0. -1.
        -11    1    1    2    0    0  0.47819454860E+01 -0.65049388231E+01  0.49781783223E+03  0.49788329488E+03  0.00000000000E+00 0.  1.
         11    1    1    2    0    0 -0.88616213011E+00  0.18142238877E+02 -0.46597746265E+03  0.46633134337E+03  0.00000000000E+00 0. -1.
        -15    1    1    2    0    0 -0.40618449216E+01 -0.69045499695E+01 -0.81648956936E+01  0.11575605606E+02  0.17770000000E+01 0.  1.
         15    1    1    2    0    0  0.16606156573E+00 -0.47327500849E+01 -0.23675473888E+02  0.24209756146E+02  0.17770000000E+01 0. -1.
</event>
<event>
 6    1  0.6506903E-004  0.5015696E+03  0.7546771E-02  0.9396304E-01
        -11   -1    0    0    0    0  0.00000000000E+00  0.00000000000E+00  0.50000000000E+03  0.50000000000E+03  0.00000000000E+00 0.  1.
         11   -1    0    0    0    0 -0.00000000000E+00 -0.00000000000E+00 -0.50000000000E+03  0.50000000000E+03  0.00000000000E+00 0. -1.
        -11    1    1    2    0    0 -0.72342761138E+01 -0.11261321894E+02  0.49825061042E+03  0.49843035913E+03  0.00000000000E+00 0.  1.
         11    1    1    2    0    0 -0.18724271601E+02 -0.93397404597E+01 -0.14103163117E+03  0.14257541895E+03  0.00000000000E+00 0. -1.
        -15    1    1    2    0    0  0.26506537570E+02  0.17349156903E+02 -0.30683434361E+03  0.30847052035E+03  0.17770000000E+01 0.  1.
         15    1    1    2    0    0 -0.54798985523E+00  0.32519054512E+01 -0.50384635640E+02  0.50523701562E+02  0.17770000000E+01 0. -1.
</event>
<event>
 6    1  0.6506903E-004  0.5007773E+03  0.7546771E-02  0.9398072E-01
        -11   -1    0    0    0    0  0.00000000000E+00  0.00000000000E+00  0.50000000000E+03  0.50000000000E+03  0.00000000000E+00 0.  1.
         11   -1    0    0    0    0 -0.00000000000E+00 -0.00000000000E+00 -0.50000000000E+03  0.50000000000E+03  0.00000000000E+00 0. -1.
        -11    1    1    2    0    0 -0.52090874325E+01 -0.47396044463E+01  0.47121858787E+03  0.47127121279E+03  0.00000000000E+00 0.  1.
         11    1    1    2    0    0 -0.19681024534E+01  0.76123398446E+01 -0.49916074518E+03  0.49922266642E+03  0.00000000000E+00 0. -1.
        -15    1    1    2    0    0  0.47417101489E+01 -0.25048924387E+01  0.23175020375E+02  0.23853670570E+02  0.17770000000E+01 0. -1.
         15    1    1    2    0    0  0.24354797371E+01 -0.36784295955E+00  0.47671369282E+01  0.56524502196E+01  0.17770000000E+01 0.  1.
</event>
<event>
 6    1  0.6506903E-004  0.5003822E+03  0.7546771E-02  0.9398955E-01
        -11   -1    0    0    0    0  0.00000000000E+00  0.00000000000E+00  0.50000000000E+03  0.50000000000E+03  0.00000000000E+00 0.  1.
         11   -1    0    0    0    0 -0.00000000000E+00 -0.00000000000E+00 -0.50000000000E+03  0.50000000000E+03  0.00000000000E+00 0. -1.
        -11    1    1    2    0    0 -0.21047593707E+02 -0.17315949557E+02  0.34768020470E+03  0.34874685382E+03  0.00000000000E+00 0.  1.
         11    1    1    2    0    0  0.20973798354E+02  0.11584740151E+02 -0.49904293063E+03  0.49961780696E+03  0.00000000000E+00 0. -1.
        -15    1    1    2    0    0  0.30737878068E+01  0.28839884349E+01  0.80296899788E+02  0.80427081293E+02  0.17770000000E+01 0. -1.
         15    1    1    2    0    0 -0.29999924540E+01  0.28472209708E+01  0.71065826143E+02  0.71208257922E+02  0.17770000000E+01 0.  1.
</event>
<event>
 6    1  0.6506903E-004  0.5073472E+03  0.7546771E-02  0.9383518E-01
        -11   -1    0    0    0    0  0.00000000000E+00  0.00000000000E+00  0.50000000000E+03  0.50000000000E+03  0.00000000000E+00 0.  1.
         11   -1    0    0    0    0 -0.00000000000E+00 -0.00000000000E+00 -0.50000000000E+03  0.50000000000E+03  0.00000000000E+00 0. -1.
        -11    1    1    2    0    0 -0.60774503847E+01 -0.74829794488E+01  0.46468227055E+03  0.46478225326E+03  0.00000000000E+00 0.  1.
         11    1    1    2    0    0 -0.11892856830E+02 -0.86024960970E+01 -0.49243405140E+03  0.49265275597E+03  0.00000000000E+00 0. -1.
        -15    1    1    2    0    0  0.10170683003E+02  0.89843628817E+01  0.28730282908E+02  0.31823708994E+02  0.17770000000E+01 0. -1.
         15    1    1    2    0    0  0.77996242119E+01  0.71011126641E+01 -0.97850205607E+00  0.10741281776E+02  0.17770000000E+01 0.  1.
</event>
<event>
 6    1  0.6506903E-004  0.5013962E+03  0.7546771E-02  0.9396691E-01
        -11   -1    0    0    0    0  0.00000000000E+00  0.00000000000E+00  0.50000000000E+03  0.50000000000E+03  0.00000000000E+00 0.  1.
         11   -1    0    0    0    0 -0.00000000000E+00 -0.00000000000E+00 -0.50000000000E+03  0.50000000000E+03  0.00000000000E+00 0. -1.
        -11    1    1    2    0    0  0.11175723329E+02 -0.31317866509E+02  0.49749374319E+03  0.49860378064E+03  0.00000000000E+00 0.  1.
         11    1    1    2    0    0  0.11068417244E+02  0.32244477154E+02 -0.19677289666E+03  0.19970425391E+03  0.00000000000E+00 0. -1.
        -15    1    1    2    0    0 -0.16357702281E+02 -0.35065113775E+01 -0.17908067013E+03  0.17986915852E+03  0.17770000000E+01 0.  1.
         15    1    1    2    0    0 -0.58864382910E+01  0.25799007324E+01 -0.12164017640E+03  0.12182280693E+03  0.17770000000E+01 0. -1.
</event>
<event>
 6    1  0.6506903E-004  0.5004194E+03  0.7546771E-02  0.9398872E-01
        -11   -1    0    0    0    0  0.00000000000E+00  0.00000000000E+00  0.50000000000E+03  0.50000000000E+03  0.00000000000E+00 0.  1.
         11   -1    0    0    0    0 -0.00000000000E+00 -0.00000000000E+00 -0.50000000000E+03  0.50000000000E+03  0.00000000000E+00 0.  1.
        -11    1    1    2    0    0  0.14957764726E+01  0.40387566074E+02  0.28525034687E+03  0.28809920727E+03  0.00000000000E+00 0.  1.
         11    1    1    2    0    0  0.61500411422E+01 -0.47921325498E+02 -0.49723888056E+03  0.49958060489E+03  0.00000000000E+00 0.  1.
        -15    1    1    2    0    0 -0.54733634368E+01  0.53803224017E+01  0.11644662510E+03  0.11671280908E+03  0.17770000000E+01 0. -1.
         15    1    1    2    0    0 -0.21724541780E+01  0.21534370225E+01  0.95541908580E+02  0.95607378754E+02  0.17770000000E+01 0. -1.
</event>
<event>
 6    1  0.6506903E-004  0.5005798E+03  0.7546771E-02  0.9398513E-01
        -11   -1    0    0    0    0  0.00000000000E+00  0.00000000000E+00  0.50000000000E+03  0.50000000000E+03  0.00000000000E+00 0.  1.
         11   -1    0    0    0    0 -0.00000000000E+00 -0.00000000000E+00 -0.50000000000E+03  0.50000000000E+03  0.00000000000E+00 0.  1.
        -11    1    1    2    0    0 -0.23156371783E+02 -0.97564093034E+01  0.49878770434E+03  0.49942024296E+03  0.00000000000E+00 0.  1.
         11    1    1    2    0    0  0.16115243362E+02  0.11900317254E+02 -0.23006113320E+03  0.23093168607E+03  0.00000000000E+00 0.  1.
        -15    1    1    2    0    0  0.74932060135E+01  0.62701039789E+01 -0.66419192154E+02  0.67157495156E+02  0.17770000000E+01 0. -1.
         15    1    1    2    0    0 -0.45207759274E+00 -0.84140119300E+01 -0.20230737899E+03  0.20249057581E+03  0.17770000000E+01 0.  1.
</event>
<event>
 6    1  0.6506903E-004  0.5008360E+03  0.7546771E-02  0.9397941E-01
        -11   -1    0    0    0    0  0.00000000000E+00  0.00000000000E+00  0.50000000000E+03  0.50000000000E+03  0.00000000000E+00 0.  1.
         11   -1    0    0    0    0 -0.00000000000E+00 -0.00000000000E+00 -0.50000000000E+03  0.50000000000E+03  0.00000000000E+00 0. -1.
        -11    1    1    2    0    0 -0.60397218275E+01 -0.16999755497E+01  0.34179601609E+03  0.34185360137E+03  0.00000000000E+00 0.  1.
         11    1    1    2    0    0  0.10380337284E+02 -0.20071499672E+02 -0.49865229590E+03  0.49916402986E+03  0.00000000000E+00 0. -1.
        -15    1    1    2    0    0 -0.31574905459E+01  0.11713550470E+02  0.44552094494E+02  0.46208482597E+02  0.17770000000E+01 0.  1.
         15    1    1    2    0    0 -0.11831249106E+01  0.10057924752E+02  0.11230418531E+03  0.11277388617E+03  0.17770000000E+01 0. -1.
</event>
<event>
 6    1  0.6506903E-004  0.5025278E+03  0.7546771E-02  0.9394171E-01
        -11   -1    0    0    0    0  0.00000000000E+00  0.00000000000E+00  0.50000000000E+03  0.50000000000E+03  0.00000000000E+00 0. -1.
         11   -1    0    0    0    0 -0.00000000000E+00 -0.00000000000E+00 -0.50000000000E+03  0.50000000000E+03  0.00000000000E+00 0.  1.
        -11    1    1    2    0    0 -0.40326567792E+01 -0.54405948137E+01  0.49742614175E+03  0.49747223931E+03  0.00000000000E+00 0. -1.
         11    1    1    2    0    0  0.60947992042E+01  0.12962625115E+02 -0.47696698991E+03  0.47718202575E+03  0.00000000000E+00 0.  1.
        -15    1    1    2    0    0 -0.31289351672E+00 -0.98864844929E+01 -0.19227241334E+02  0.21695276359E+02  0.17770000000E+01 0.  1.
         15    1    1    2    0    0 -0.17492489082E+01  0.23644541914E+01 -0.12319105002E+01  0.36504585803E+01  0.17770000000E+01 0. -1.
</event>
<event>
 6    1  0.6506903E-004  0.5036917E+03  0.7546771E-02  0.9391587E-01
        -11   -1    0    0    0    0  0.00000000000E+00  0.00000000000E+00  0.50000000000E+03  0.50000000000E+03  0.00000000000E+00 0.  1.
         11   -1    0    0    0    0 -0.00000000000E+00 -0.00000000000E+00 -0.50000000000E+03  0.50000000000E+03  0.00000000000E+00 0. -1.
        -11    1    1    2    0    0  0.15999787785E+02  0.39029424949E+01  0.47683658396E+03  0.47712090079E+03  0.00000000000E+00 0.  1.
         11    1    1    2    0    0 -0.13967186629E+02 -0.70353566157E+00 -0.49611124366E+03  0.49630831481E+03  0.00000000000E+00 0. -1.
        -15    1    1    2    0    0 -0.92522683665E+01 -0.48356901955E+01  0.99273187546E+01  0.14515431659E+02  0.17770000000E+01 0.  1.
         15    1    1    2    0    0  0.72196672102E+01  0.16362833622E+01  0.93473409427E+01  0.12055352735E+02  0.17770000000E+01 0. -1.
</event>
<event>
 6    1  0.6506903E-004  0.5000094E+03  0.7546771E-02  0.9399789E-01
        -11   -1    0    0    0    0  0.00000000000E+00  0.00000000000E+00  0.50000000000E+03  0.50000000000E+03  0.00000000000E+00 0. -1.
         11   -1    0    0    0    0 -0.00000000000E+00 -0.00000000000E+00 -0.50000000000E+03  0.50000000000E+03  0.00000000000E+00 0.  1.
        -11    1    1    2    0    0 -0.81645954310E+00  0.75630252686E+01  0.49726846243E+03  0.49732664285E+03  0.00000000000E+00 0. -1.
         11    1    1    2    0    0 -0.14124167153E+00 -0.70174752762E+00  0.25659358565E+01  0.26639117144E+01  0.00000000000E+00 0.  1.
        -15    1    1    2    0    0  0.13957381678E+01  0.20472195643E+01 -0.56856451365E+02  0.56938150513E+02  0.17770000000E+01 0. -1.
         15    1    1    2    0    0 -0.43803695312E+00 -0.89084973052E+01 -0.44297794692E+03  0.44307129493E+03  0.17770000000E+01 0.  1.
</event>
<event>
 6    1  0.6506903E-004  0.5011753E+03  0.7546771E-02  0.9397184E-01
        -11   -1    0    0    0    0  0.00000000000E+00  0.00000000000E+00  0.50000000000E+03  0.50000000000E+03  0.00000000000E+00 0.  1.
         11   -1    0    0    0    0 -0.00000000000E+00 -0.00000000000E+00 -0.50000000000E+03  0.50000000000E+03  0.00000000000E+00 0. -1.
        -11    1    1    2    0    0  0.84498488494E+01 -0.47599695374E+01  0.49873043635E+03  0.49882472412E+03  0.00000000000E+00 0.  1.
         11    1    1    2    0    0  0.39958697709E+01  0.50315021050E+01 -0.86264519216E+01  0.10756331225E+02  0.00000000000E+00 0. -1.
        -15    1    1    2    0    0 -0.15352722574E+01 -0.49067871675E+01 -0.12515686984E+03  0.12527503110E+03  0.17770000000E+01 0. -1.
         15    1    1    2    0    0 -0.10910446363E+02  0.46352545999E+01 -0.36494711459E+03  0.36514391355E+03  0.17770000000E+01 0.  1.
</event>
<event>
 6    1  0.6506903E-004  0.5071117E+03  0.7546771E-02  0.9384036E-01
        -11   -1    0    0    0    0  0.00000000000E+00  0.00000000000E+00  0.50000000000E+03  0.50000000000E+03  0.00000000000E+00 0.  1.
         11   -1    0    0    0    0 -0.00000000000E+00 -0.00000000000E+00 -0.50000000000E+03  0.50000000000E+03  0.00000000000E+00 0.  1.
        -11    1    1    2    0    0  0.66183970828E+01 -0.11451658971E+01  0.49284255393E+03  0.49288832158E+03  0.00000000000E+00 0.  1.
         11    1    1    2    0    0  0.23164605774E+01  0.17178280360E+02 -0.46793294393E+03  0.46825388340E+03  0.00000000000E+00 0.  1.
        -15    1    1    2    0    0 -0.30808227804E+01 -0.18851655700E+02 -0.25705578634E+02  0.32075082129E+02  0.17770000000E+01 0. -1.
         15    1    1    2    0    0 -0.58540348798E+01  0.28185412378E+01  0.79596863954E+00  0.67827128908E+01  0.17770000000E+01 0.  1.
</event>
<event>
 6    1  0.6506903E-004  0.4884048E+03  0.7546771E-02  0.9426135E-01
        -11   -1    0    0    0    0  0.00000000000E+00  0.00000000000E+00  0.50000000000E+03  0.50000000000E+03  0.00000000000E+00 0. -1.
         11   -1    0    0    0    0 -0.00000000000E+00 -0.00000000000E+00 -0.50000000000E+03  0.50000000000E+03  0.00000000000E+00 0.  1.
        -11    1    1    2    0    0 -0.70213743126E+01 -0.27977588678E+01  0.48542863642E+03  0.48548747482E+03  0.00000000000E+00 0. -1.
         11    1    1    2    0    0 -0.81043742394E+01  0.14438549911E+02 -0.49124703696E+03  0.49152599517E+03  0.00000000000E+00 0.  1.
        -15    1    1    2    0    0  0.95992737432E+01 -0.13017820533E+02  0.42800715318E+01  0.16825173079E+02  0.17770000000E+01 0.  1.
         15    1    1    2    0    0  0.55264748088E+01  0.13770294891E+01  0.15383290085E+01  0.61613569256E+01  0.17770000000E+01 0. -1.
</event>
<event>
 6    1  0.6506903E-004  0.5002036E+03  0.7546771E-02  0.9399354E-01
        -11   -1    0    0    0    0  0.00000000000E+00  0.00000000000E+00  0.50000000000E+03  0.50000000000E+03  0.00000000000E+00 0. -1.
         11   -1    0    0    0    0 -0.00000000000E+00 -0.00000000000E+00 -0.50000000000E+03  0.50000000000E+03  0.00000000000E+00 0.  1.
        -11    1    1    2    0    0 -0.32349350493E+01  0.17790988362E+00  0.19484033789E+03  0.19486727208E+03  0.00000000000E+00 0. -1.
         11    1    1    2    0    0  0.12272586676E+02 -0.33128007775E+01 -0.49963469277E+03  0.49979637579E+03  0.00000000000E+00 0.  1.
        -15    1    1    2    0    0  0.33982868896E+01  0.40489718686E+01  0.88369621860E+02  0.88545413905E+02  0.17770000000E+01 0. -1.
         15    1    1    2    0    0 -0.12435938516E+02 -0.91408097475E+00  0.21642473302E+03  0.21679093823E+03  0.17770000000E+01 0.  1.
</event>
<event>
 6    1  0.6506903E-004  0.5003938E+03  0.7546771E-02  0.9398929E-01
        -11   -1    0    0    0    0  0.00000000000E+00  0.00000000000E+00  0.50000000000E+03  0.50000000000E+03  0.00000000000E+00 0. -1.
         11   -1    0    0    0    0 -0.00000000000E+00 -0.00000000000E+00 -0.50000000000E+03  0.50000000000E+03  0.00000000000E+00 0. -1.
        -11    1    1    2    0    0 -0.11287962311E+02 -0.26370955653E+01  0.49947172658E+03  0.49960622295E+03  0.00000000000E+00 0. -1.
         11    1    1    2    0    0  0.17030434210E+02  0.10234641149E+02 -0.30716141049E+03  0.30780337175E+03  0.00000000000E+00 0. -1.
        -15    1    1    2    0    0 -0.31572788749E+01 -0.25888904458E+01 -0.88620101032E+02  0.88731904068E+02  0.17770000000E+01 0. -1.
         15    1    1    2    0    0 -0.25851930242E+01 -0.50086551383E+01 -0.10369021506E+03  0.10385850122E+03  0.17770000000E+01 0.  1.
</event>
<event>
 6    1  0.6506903E-004  0.5001926E+03  0.7546771E-02  0.9399379E-01
        -11   -1    0    0    0    0  0.00000000000E+00  0.00000000000E+00  0.50000000000E+03  0.50000000000E+03  0.00000000000E+00 0. -1.
         11   -1    0    0    0    0 -0.00000000000E+00 -0.00000000000E+00 -0.50000000000E+03  0.50000000000E+03  0.00000000000E+00 0. -1.
        -11    1    1    2    0    0  0.26291554757E+01  0.13518911776E+02  0.49961763977E+03  0.49980742232E+03  0.00000000000E+00 0. -1.
         11    1    1    2    0    0 -0.36502868504E+01  0.37573246011E+01 -0.17034774289E+03  0.17042827110E+03  0.00000000000E+00 0. -1.
        -15    1    1    2    0    0  0.18315369386E+01 -0.49341616361E+01 -0.10200240091E+03  0.10215355108E+03  0.17770000000E+01 0.  1.
         15    1    1    2    0    0 -0.81040556382E+00 -0.12342074741E+02 -0.22726749597E+03  0.22761075550E+03  0.17770000000E+01 0. -1.
</event>
<event>
 6    1  0.6506903E-004  0.5050333E+03  0.7546771E-02  0.9388617E-01
        -11   -1    0    0    0    0  0.00000000000E+00  0.00000000000E+00  0.50000000000E+03  0.50000000000E+03  0.00000000000E+00 0.  1.
         11   -1    0    0    0    0 -0.00000000000E+00 -0.00000000000E+00 -0.50000000000E+03  0.50000000000E+03  0.00000000000E+00 0.  1.
        -11    1    1    2    0    0 -0.15709372504E+00  0.95502028597E+01  0.49487457366E+03  0.49496674101E+03  0.00000000000E+00 0.  1.
         11    1    1    2    0    0  0.23276513304E+02 -0.17839842497E+00 -0.26518390472E+02  0.35285307578E+02  0.00000000000E+00 0.  1.
        -15    1    1    2    0    0 -0.25081572913E+02 -0.15409796777E+02 -0.37283313092E+03  0.37399765825E+03  0.17770000000E+01 0.  1.
         15    1    1    2    0    0  0.19621533339E+01  0.60379923425E+01 -0.95523052270E+02  0.95750293165E+02  0.17770000000E+01 0. -1.
</event>
<event>
 6    1  0.6506903E-004  0.5000520E+03  0.7546771E-02  0.9399693E-01
        -11   -1    0    0    0    0  0.00000000000E+00  0.00000000000E+00  0.50000000000E+03  0.50000000000E+03  0.00000000000E+00 0. -1.
         11   -1    0    0    0    0 -0.00000000000E+00 -0.00000000000E+00 -0.50000000000E+03  0.50000000000E+03  0.00000000000E+00 0. -1.
        -11    1    1    2    0    0 -0.72855027991E+01 -0.35505886271E+01  0.49988230234E+03  0.49994799872E+03  0.00000000000E+00 0. -1.
         11    1    1    2    0    0 -0.13268238395E+01 -0.73252096411E+00 -0.81622969050E+02  0.81637038928E+02  0.00000000000E+00 0. -1.
        -15    1    1    2    0    0  0.58220375621E+00  0.16452050458E+01 -0.13831012118E+03  0.13833254502E+03  0.17770000000E+01 0. -1.
         15    1    1    2    0    0  0.80301228824E+01  0.26379045455E+01 -0.27994921211E+03  0.28008241734E+03  0.17770000000E+01 0. -1.
</event>
<event>
 6    1  0.6506903E-004  0.5015517E+03  0.7546771E-02  0.9396344E-01
        -11   -1    0    0    0    0  0.00000000000E+00  0.00000000000E+00  0.50000000000E+03  0.50000000000E+03  0.00000000000E+00 0.  1.
         11   -1    0    0    0    0 -0.00000000000E+00 -0.00000000000E+00 -0.50000000000E+03  0.50000000000E+03  0.00000000000E+00 0. -1.
        -11    1    1    2    0    0  0.30285305057E+01 -0.26027135867E+02  0.49775913390E+03  0.49844833150E+03  0.00000000000E+00 0.  1.
         11    1    1    2    0    0 -0.16312139366E+02  0.45124557324E+01 -0.37509314465E+03  0.37547478652E+03  0.00000000000E+00 0. -1.
        -15    1    1    2    0    0  0.10297639537E+02  0.17747588025E+02 -0.65029398981E+02  0.68212892634E+02  0.17770000000E+01 0.  1.
         15    1    1    2    0    0  0.29859693233E+01  0.37670921095E+01 -0.57636590273E+02  0.57863989346E+02  0.17770000000E+01 0. -1.
</event>
<event>
 6    1  0.6506903E-004  0.4674025E+03  0.7546771E-02  0.9475857E-01
        -11   -1    0    0    0    0  0.00000000000E+00  0.00000000000E+00  0.50000000000E+03  0.50000000000E+03  0.00000000000E+00 0. -1.
         11   -1    0    0    0    0 -0.00000000000E+00 -0.00000000000E+00 -0.50000000000E+03  0.50000000000E+03  0.00000000000E+00 0.  1.
        -11    1    1    2    0    0  0.71746460495E+01  0.46003565368E+01  0.47019680187E+03  0.47027403853E+03  0.00000000000E+00 0. -1.
         11    1    1    2    0    0 -0.52892346714E+01 -0.34790191464E+02 -0.46370944909E+03  0.46504277932E+03  0.00000000000E+00 0.  1.
        -15    1    1    2    0    0 -0.79476425787E+00 -0.46702556434E+01  0.20141036827E+02  0.20766849339E+02  0.17770000000E+01 0.  1.
         15    1    1    2    0    0 -0.10906471202E+01  0.34860090571E+02 -0.26628389609E+02  0.43916332815E+02  0.17770000000E+01 0. -1.
</event>
<event>
 6    1  0.6506903E-004  0.5057806E+03  0.7546771E-02  0.9386967E-01
        -11   -1    0    0    0    0  0.00000000000E+00  0.00000000000E+00  0.50000000000E+03  0.50000000000E+03  0.00000000000E+00 0.  1.
         11   -1    0    0    0    0 -0.00000000000E+00 -0.00000000000E+00 -0.50000000000E+03  0.50000000000E+03  0.00000000000E+00 0. -1.
        -11    1    1    2    0    0 -0.19886554458E+02 -0.32577236052E+02  0.49274339007E+03  0.49421938429E+03  0.00000000000E+00 0.  1.
         11    1    1    2    0    0  0.26478643943E+02  0.33478511537E+02 -0.64028160024E+02  0.76951508080E+02  0.00000000000E+00 0. -1.
        -15    1    1    2    0    0 -0.46061245732E+01 -0.35724312333E+01 -0.25317485235E+03  0.25324818309E+03  0.17770000000E+01 0. -1.
         15    1    1    2    0    0 -0.19859649120E+01  0.26711557486E+01 -0.17554037769E+03  0.17558092453E+03  0.17770000000E+01 0.  1.
</event>
<event>
 6    1  0.6506903E-004  0.5001426E+03  0.7546771E-02  0.9399491E-01
        -11   -1    0    0    0    0  0.00000000000E+00  0.00000000000E+00  0.50000000000E+03  0.50000000000E+03  0.00000000000E+00 0.  1.
         11   -1    0    0    0    0 -0.00000000000E+00 -0.00000000000E+00 -0.50000000000E+03  0.50000000000E+03  0.00000000000E+00 0.  1.
        -11    1    1    2    0    0 -0.10896573473E+01  0.18285467560E+01  0.15658602383E+03  0.15660049104E+03  0.00000000000E+00 0.  1.
         11    1    1    2    0    0  0.21081434941E+02  0.54181198407E+01 -0.49938324782E+03  0.49985739079E+03  0.00000000000E+00 0.  1.
        -15    1    1    2    0    0 -0.18119744190E+02 -0.65068125640E+01  0.26790142485E+03  0.26859820347E+03  0.17770000000E+01 0.  1.
         15    1    1    2    0    0 -0.18720334041E+01 -0.73985403271E+00  0.74895799142E+02  0.74943914704E+02  0.17770000000E+01 0.  1.
</event>
<event>
 6    1  0.6506903E-004  0.5006623E+03  0.7546771E-02  0.9398329E-01
        -11   -1    0    0    0    0  0.00000000000E+00  0.00000000000E+00  0.50000000000E+03  0.50000000000E+03  0.00000000000E+00 0. -1.
         11   -1    0    0    0    0 -0.00000000000E+00 -0.00000000000E+00 -0.50000000000E+03  0.50000000000E+03  0.00000000000E+00 0.  1.
        -11    1    1    2    0    0  0.78083326678E+01  0.87121686963E+01  0.49920066276E+03  0.49933773505E+03  0.00000000000E+00 0. -1.
         11    1    1    2    0    0  0.74521012196E+01 -0.83089327403E+01 -0.36036151229E+03  0.36053431420E+03  0.00000000000E+00 0.  1.
        -15    1    1    2    0    0 -0.42804039001E+01  0.42643280503E+01 -0.65653583960E+02  0.65954963173E+02  0.17770000000E+01 0.  1.
         15    1    1    2    0    0 -0.10980029987E+02 -0.46675640063E+01 -0.73185566505E+02  0.74172987576E+02  0.17770000000E+01 0. -1.
</event>
<event>
 6    1  0.6506903E-004  0.5007479E+03  0.7546771E-02  0.9398138E-01
        -11   -1    0    0    0    0  0.00000000000E+00  0.00000000000E+00  0.50000000000E+03  0.50000000000E+03  0.00000000000E+00 0.  1.
         11   -1    0    0    0    0 -0.00000000000E+00 -0.00000000000E+00 -0.50000000000E+03  0.50000000000E+03  0.00000000000E+00 0. -1.
        -11    1    1    2    0    0  0.47721951129E+01  0.17458027974E+02  0.49892393229E+03  0.49925208742E+03  0.00000000000E+00 0.  1.
         11    1    1    2    0    0  0.10274229530E+02 -0.10928361647E+02 -0.16362356154E+03  0.16430964296E+03  0.00000000000E+00 0. -1.
        -15    1    1    2    0    0  0.18414904267E+01 -0.11349231705E+01 -0.56379931313E+01  0.62947464717E+01  0.17770000000E+01 0.  1.
         15    1    1    2    0    0 -0.16887915070E+02 -0.53947431563E+01 -0.32966237762E+03  0.33014352314E+03  0.17770000000E+01 0. -1.
</event>
<event>
 6    1  0.6506903E-004  0.4875455E+03  0.7546771E-02  0.9428117E-01
        -11   -1    0    0    0    0  0.00000000000E+00  0.00000000000E+00  0.50000000000E+03  0.50000000000E+03  0.00000000000E+00 0. -1.
         11   -1    0    0    0    0 -0.00000000000E+00 -0.00000000000E+00 -0.50000000000E+03  0.50000000000E+03  0.00000000000E+00 0. -1.
        -11    1    1    2    0    0 -0.77747543719E+01  0.27635139219E+01  0.48553468592E+03  0.48560479306E+03  0.00000000000E+00 0. -1.
         11    1    1    2    0    0  0.63971567504E+01  0.13874555404E+02 -0.48939825124E+03  0.48963667675E+03  0.00000000000E+00 0. -1.
        -15    1    1    2    0    0  0.65446085383E+01 -0.73890277231E+01 -0.46468254011E+01  0.11053521924E+02  0.17770000000E+01 0. -1.
         15    1    1    2    0    0 -0.51670109168E+01 -0.92490416030E+01  0.85103907175E+01  0.13705008265E+02  0.17770000000E+01 0.  1.
</event>
<event>
 6    1  0.6506903E-004  0.5001442E+03  0.7546771E-02  0.9399487E-01
        -11   -1    0    0    0    0  0.00000000000E+00  0.00000000000E+00  0.50000000000E+03  0.50000000000E+03  0.00000000000E+00 0. -1.
         11   -1    0    0    0    0 -0.00000000000E+00 -0.00000000000E+00 -0.50000000000E+03  0.50000000000E+03  0.00000000000E+00 0.  1.
        -11    1    1    2    0    0 -0.63982523664E+01 -0.12346762232E+02  0.49966230359E+03  0.49985577700E+03  0.00000000000E+00 0. -1.
         11    1    1    2    0    0  0.28197017840E+01  0.17174638683E+00 -0.34610033512E+02  0.34725129729E+02  0.00000000000E+00 0.  1.
        -15    1    1    2    0    0  0.82148077494E+01  0.50990672743E+01 -0.24766978123E+03  0.24786480552E+03  0.17770000000E+01 0. -1.
         15    1    1    2    0    0 -0.46362571670E+01  0.70759485712E+01 -0.21738248885E+03  0.21755428775E+03  0.17770000000E+01 0.  1.
</event>
<event>
 6    1  0.6506903E-004  0.5015334E+03  0.7546771E-02  0.9396385E-01
        -11   -1    0    0    0    0  0.00000000000E+00  0.00000000000E+00  0.50000000000E+03  0.50000000000E+03  0.00000000000E+00 0. -1.
         11   -1    0    0    0    0 -0.00000000000E+00 -0.00000000000E+00 -0.50000000000E+03  0.50000000000E+03  0.00000000000E+00 0.  1.
        -11    1    1    2    0    0  0.16375160453E+02 -0.11788281031E+02  0.49805807468E+03  0.49846660390E+03  0.00000000000E+00 0. -1.
         11    1    1    2    0    0  0.55432476710E+01  0.79395973662E+01 -0.14776149133E+02  0.17666334772E+02  0.00000000000E+00 0.  1.
        -15    1    1    2    0    0 -0.21021634628E+02  0.25121811155E+01 -0.44823610311E+03  0.44873932527E+03  0.17770000000E+01 0.  1.
         15    1    1    2    0    0 -0.89677349609E+00  0.13365025495E+01 -0.35045822434E+02  0.35127736062E+02  0.17770000000E+01 0.  1.
</event>
<event>
 6    1  0.6506903E-004  0.5037541E+03  0.7546771E-02  0.9391449E-01
        -11   -1    0    0    0    0  0.00000000000E+00  0.00000000000E+00  0.50000000000E+03  0.50000000000E+03  0.00000000000E+00 0. -1.
         11   -1    0    0    0    0 -0.00000000000E+00 -0.00000000000E+00 -0.50000000000E+03  0.50000000000E+03  0.00000000000E+00 0.  1.
        -11    1    1    2    0    0  0.43858597665E+01 -0.68660000411E+01  0.43142458509E+03  0.43150150677E+03  0.00000000000E+00 0. -1.
         11    1    1    2    0    0  0.24047727858E+02  0.19826969948E+01 -0.49565896781E+03  0.49624594373E+03  0.00000000000E+00 0.  1.
        -15    1    1    2    0    0 -0.98353909484E+01 -0.52915083175E+00  0.39704941667E+02  0.40946978368E+02  0.17770000000E+01 0.  1.
         15    1    1    2    0    0 -0.18598196676E+02  0.54124538780E+01  0.24529441054E+02  0.31305571134E+02  0.17770000000E+01 0. -1.
</event>
<event>
 6    1  0.6506903E-004  0.5054518E+03  0.7546771E-02  0.9387693E-01
        -11   -1    0    0    0    0  0.00000000000E+00  0.00000000000E+00  0.50000000000E+03  0.50000000000E+03  0.00000000000E+00 0. -1.
         11   -1    0    0    0    0 -0.00000000000E+00 -0.00000000000E+00 -0.50000000000E+03  0.50000000000E+03  0.00000000000E+00 0. -1.
        -11    1    1    2    0    0 -0.59220147498E+01 -0.42425230395E+01  0.49449454805E+03  0.49454820525E+03  0.00000000000E+00 0. -1.
         11    1    1    2    0    0  0.12905739486E+01 -0.97506128657E+01 -0.48479081666E+03  0.48489058142E+03  0.00000000000E+00 0. -1.
        -15    1    1    2    0    0  0.58364472394E+01  0.99697624210E+01 -0.23715974292E+01  0.11926545287E+02  0.17770000000E+01 0.  1.
         15    1    1    2    0    0 -0.12050064382E+01  0.40233734842E+01 -0.73321339633E+01  0.86346680402E+01  0.17770000000E+01 0. -1.
</event>
<event>
 6    1  0.6506903E-004  0.5038820E+03  0.7546771E-02  0.9391165E-01
        -11   -1    0    0    0    0  0.00000000000E+00  0.00000000000E+00  0.50000000000E+03  0.50000000000E+03  0.00000000000E+00 0. -1.
         11   -1    0    0    0    0 -0.00000000000E+00 -0.00000000000E+00 -0.50000000000E+03  0.50000000000E+03  0.00000000000E+00 0.  1.
        -11    1    1    2    0    0  0.20556498947E+02  0.70886291735E+01  0.49564124887E+03  0.49611799594E+03  0.00000000000E+00 0. -1.
         11    1    1    2    0    0  0.10090396155E+02  0.15593672702E+02 -0.39105717029E+03  0.39149800658E+03  0.00000000000E+00 0.  1.
        -15    1    1    2    0    0 -0.21143644627E+02 -0.19574256904E+02 -0.90693673903E+02  0.95177231818E+02  0.17770000000E+01 0. -1.
         15    1    1    2    0    0 -0.95032504755E+01 -0.31080449722E+01 -0.13890404682E+02  0.17206765657E+02  0.17770000000E+01 0.  1.
</event>
<event>
 6    1  0.6506903E-004  0.5011360E+03  0.7546771E-02  0.9397271E-01
        -11   -1    0    0    0    0  0.00000000000E+00  0.00000000000E+00  0.50000000000E+03  0.50000000000E+03  0.00000000000E+00 0. -1.
         11   -1    0    0    0    0 -0.00000000000E+00 -0.00000000000E+00 -0.50000000000E+03  0.50000000000E+03  0.00000000000E+00 0.  1.
        -11    1    1    2    0    0  0.55144014967E+01  0.42081530945E+01  0.43289163541E+03  0.43294720831E+03  0.00000000000E+00 0. -1.
         11    1    1    2    0    0  0.70875919057E+01 -0.85845264691E+01 -0.49873976903E+03  0.49886399476E+03  0.00000000000E+00 0.  1.
        -15    1    1    2    0    0 -0.27289150777E+01 -0.17981448703E+01  0.34509204610E+02  0.34709123214E+02  0.17770000000E+01 0. -1.
         15    1    1    2    0    0 -0.98730783248E+01  0.61745182449E+01  0.31338929011E+02  0.33479673710E+02  0.17770000000E+01 0.  1.
</event>
<event>
 6    1  0.6506903E-004  0.5003912E+03  0.7546771E-02  0.9398935E-01
        -11   -1    0    0    0    0  0.00000000000E+00  0.00000000000E+00  0.50000000000E+03  0.50000000000E+03  0.00000000000E+00 0. -1.
         11   -1    0    0    0    0 -0.00000000000E+00 -0.00000000000E+00 -0.50000000000E+03  0.50000000000E+03  0.00000000000E+00 0.  1.
        -11    1    1    2    0    0  0.72074198066E+01 -0.19254525071E+02  0.39810500595E+03  0.39863552199E+03  0.00000000000E+00 0. -1.
         11    1    1    2    0    0 -0.12556718973E+02  0.13720340439E+02 -0.49926249610E+03  0.49960880591E+03  0.00000000000E+00 0.  1.
        -15    1    1    2    0    0 -0.90833198798E+00  0.90843463998E+00  0.42634112504E+02  0.42690462617E+02  0.17770000000E+01 0.  1.
         15    1    1    2    0    0  0.62576311546E+01  0.46257499923E+01  0.58523377646E+02  0.59065209479E+02  0.17770000000E+01 0. -1.
</event>
<event>
 6    1  0.6506903E-004  0.5024510E+03  0.7546771E-02  0.9394342E-01
        -11   -1    0    0    0    0  0.00000000000E+00  0.00000000000E+00  0.50000000000E+03  0.50000000000E+03  0.00000000000E+00 0.  1.
         11   -1    0    0    0    0 -0.00000000000E+00 -0.00000000000E+00 -0.50000000000E+03  0.50000000000E+03  0.00000000000E+00 0.  1.
        -11    1    1    2    0    0 -0.36751977364E+01  0.75748177870E+01  0.49747774608E+03  0.49754898531E+03  0.00000000000E+00 0.  1.
         11    1    1    2    0    0  0.21374602433E+01 -0.20995535901E+02 -0.44965783537E+03  0.45015280758E+03  0.00000000000E+00 0.  1.
        -15    1    1    2    0    0 -0.41286767591E+01  0.74556323267E+01 -0.39555071279E+02  0.40501775493E+02  0.17770000000E+01 0.  1.
         15    1    1    2    0    0  0.56664142523E+01  0.59650857876E+01 -0.82648394320E+01  0.11796431612E+02  0.17770000000E+01 0. -1.
</event>
<event>
 6    1  0.6506903E-004  0.5018058E+03  0.7546771E-02  0.9395778E-01
        -11   -1    0    0    0    0  0.00000000000E+00  0.00000000000E+00  0.50000000000E+03  0.50000000000E+03  0.00000000000E+00 0. -1.
         11   -1    0    0    0    0 -0.00000000000E+00 -0.00000000000E+00 -0.50000000000E+03  0.50000000000E+03  0.00000000000E+00 0.  1.
        -11    1    1    2    0    0  0.78778685815E+01  0.16911652849E+02  0.49784471048E+03  0.49819415950E+03  0.00000000000E+00 0. -1.
         11    1    1    2    0    0 -0.31384780458E+02 -0.65866744110E+01 -0.32843460666E+03  0.32999648419E+03  0.00000000000E+00 0.  1.
        -15    1    1    2    0    0  0.23477244101E+02 -0.11756644309E+02 -0.15726950663E+03  0.15945612287E+03  0.17770000000E+01 0.  1.
         15    1    1    2    0    0  0.29667775233E-01  0.14316658706E+01 -0.12140597177E+02  0.12353233429E+02  0.17770000000E+01 0. -1.
</event>
<event>
 6    1  0.6506903E-004  0.4717001E+03  0.7546771E-02  0.9465459E-01
        -11   -1    0    0    0    0  0.00000000000E+00  0.00000000000E+00  0.50000000000E+03  0.50000000000E+03  0.00000000000E+00 0. -1.
         11   -1    0    0    0    0 -0.00000000000E+00 -0.00000000000E+00 -0.50000000000E+03  0.50000000000E+03  0.00000000000E+00 0. -1.
        -11    1    1    2    0    0 -0.13613494083E+02  0.41597730862E+01  0.46832700156E+03  0.46854328650E+03  0.00000000000E+00 0. -1.
         11    1    1    2    0    0 -0.29836191646E+02  0.17020391289E+02 -0.47487652666E+03  0.47611722047E+03  0.00000000000E+00 0. -1.
        -15    1    1    2    0    0  0.17463047882E+00 -0.37231360061E+01  0.75790417529E+01  0.86308655659E+01  0.17770000000E+01 0. -1.
         15    1    1    2    0    0  0.43275055250E+02 -0.17457028369E+02 -0.10295166516E+01  0.46708627468E+02  0.17770000000E+01 0.  1.
</event>
<event>
 6    1  0.6506903E-004  0.5005456E+03  0.7546771E-02  0.9398590E-01
        -11   -1    0    0    0    0  0.00000000000E+00  0.00000000000E+00  0.50000000000E+03  0.50000000000E+03  0.00000000000E+00 0. -1.
         11   -1    0    0    0    0 -0.00000000000E+00 -0.00000000000E+00 -0.50000000000E+03  0.50000000000E+03  0.00000000000E+00 0.  1.
        -11    1    1    2    0    0 -0.13790521879E+02 -0.10446436222E+01  0.49926284517E+03  0.49945436062E+03  0.00000000000E+00 0. -1.
         11    1    1    2    0    0 -0.75231678454E+01  0.78112269674E+01 -0.11656396086E+03  0.11706737501E+03  0.00000000000E+00 0.  1.
        -15    1    1    2    0    0  0.62282564589E+01 -0.63188239460E+01 -0.12039294334E+03  0.12073250287E+03  0.17770000000E+01 0. -1.
         15    1    1    2    0    0  0.15085433266E+02 -0.44775939916E+00 -0.26230594098E+03  0.26274576150E+03  0.17770000000E+01 0.  1.
</event>
<event>
 6    1  0.6506903E-004  0.5036361E+03  0.7546771E-02  0.9391710E-01
        -11   -1    0    0    0    0  0.00000000000E+00  0.00000000000E+00  0.50000000000E+03  0.50000000000E+03  0.00000000000E+00 0. -1.
         11   -1    0    0    0    0 -0.00000000000E+00 -0.00000000000E+00 -0.50000000000E+03  0.50000000000E+03  0.00000000000E+00 0.  1.
        -11    1    1    2    0    0 -0.73095709041E+01  0.65375975227E+01  0.49626703744E+03  0.49636392139E+03  0.00000000000E+00 0. -1.
         11    1    1    2    0    0 -0.64430572537E+01 -0.10392939809E+02 -0.48420782407E+03  0.48436220236E+03  0.00000000000E+00 0.  1.
        -15    1    1    2    0    0  0.65241553185E+01  0.34180838474E+01 -0.62365469207E+01  0.98132637946E+01  0.17770000000E+01 0. -1.
         15    1    1    2    0    0  0.72284728393E+01  0.43725843934E+00 -0.58226664479E+01  0.94606124587E+01  0.17770000000E+01 0.  1.
</event>
<event>
 6    1  0.6506903E-004  0.4686653E+03  0.7546771E-02  0.9472789E-01
        -11   -1    0    0    0    0  0.00000000000E+00  0.00000000000E+00  0.50000000000E+03  0.50000000000E+03  0.00000000000E+00 0. -1.
         11   -1    0    0    0    0 -0.00000000000E+00 -0.00000000000E+00 -0.50000000000E+03  0.50000000000E+03  0.00000000000E+00 0.  1.
        -11    1    1    2    0    0  0.65535550457E+01 -0.58467337322E+01  0.47862329618E+03  0.47870386778E+03  0.00000000000E+00 0. -1.
         11    1    1    2    0    0 -0.12467727297E+02 -0.35993477344E+02 -0.45822004592E+03  0.45980059277E+03  0.00000000000E+00 0.  1.
        -15    1    1    2    0    0  0.55574027372E+01  0.44884714826E+02 -0.48242631263E+01  0.45518716962E+02  0.17770000000E+01 0.  1.
         15    1    1    2    0    0  0.35676951420E+00 -0.30445037496E+01 -0.15578987137E+02  0.15976822488E+02  0.17770000000E+01 0. -1.
</event>
<event>
 6    1  0.6506903E-004  0.5001164E+03  0.7546771E-02  0.9399549E-01
        -11   -1    0    0    0    0  0.00000000000E+00  0.00000000000E+00  0.50000000000E+03  0.50000000000E+03  0.00000000000E+00 0.  1.
         11   -1    0    0    0    0 -0.00000000000E+00 -0.00000000000E+00 -0.50000000000E+03  0.50000000000E+03  0.00000000000E+00 0.  1.
        -11    1    1    2    0    0  0.14033137603E+01  0.11071659082E+02  0.25921457009E+03  0.25945470563E+03  0.00000000000E+00 0.  1.
         11    1    1    2    0    0  0.91051252435E+01 -0.20146294173E+02 -0.49939446690E+03  0.49988359650E+03  0.00000000000E+00 0.  1.
        -15    1    1    2    0    0 -0.81147674292E+01  0.37670817987E+01  0.13934138783E+03  0.13963960916E+03  0.17770000000E+01 0.  1.
         15    1    1    2    0    0 -0.23936715746E+01  0.53075532922E+01  0.10083850898E+03  0.10102208871E+03  0.17770000000E+01 0. -1.
</event>
<event>
 6    1  0.6506903E-004  0.5007493E+03  0.7546771E-02  0.9398135E-01
        -11   -1    0    0    0    0  0.00000000000E+00  0.00000000000E+00  0.50000000000E+03  0.50000000000E+03  0.00000000000E+00 0.  1.
         11   -1    0    0    0    0 -0.00000000000E+00 -0.00000000000E+00 -0.50000000000E+03  0.50000000000E+03  0.00000000000E+00 0.  1.
        -11    1    1    2    0    0 -0.74006313456E+01  0.98814536756E+01  0.49909807739E+03  0.49925074194E+03  0.00000000000E+00 0.  1.
         11    1    1    2    0    0  0.14771674981E+02 -0.25256662748E+01 -0.75731403727E+02  0.77199915040E+02  0.00000000000E+00 0.  1.
        -15    1    1    2    0    0 -0.36498971541E+01 -0.72348869954E+01 -0.27224304530E+03  0.27236941601E+03  0.17770000000E+01 0.  1.
         15    1    1    2    0    0 -0.37211464808E+01 -0.12090040546E+00 -0.15112362837E+03  0.15117992700E+03  0.17770000000E+01 0. -1.
</event>
<event>
 6    1  0.6506903E-004  0.5010216E+03  0.7546771E-02  0.9397527E-01
        -11   -1    0    0    0    0  0.00000000000E+00  0.00000000000E+00  0.50000000000E+03  0.50000000000E+03  0.00000000000E+00 0. -1.
         11   -1    0    0    0    0 -0.00000000000E+00 -0.00000000000E+00 -0.50000000000E+03  0.50000000000E+03  0.00000000000E+00 0.  1.
        -11    1    1    2    0    0 -0.62240596536E+01 -0.40090101312E+01  0.49892349118E+03  0.49897841751E+03  0.00000000000E+00 0. -1.
         11    1    1    2    0    0 -0.14565382027E+01 -0.66812386480E+01 -0.45203022977E+03  0.45208194952E+03  0.00000000000E+00 0.  1.
        -15    1    1    2    0    0  0.10604434616E+01  0.28780360088E+01 -0.99629071364E+01  0.10574728328E+02  0.17770000000E+01 0. -1.
         15    1    1    2    0    0  0.66201543947E+01  0.78122127704E+01 -0.36930354280E+02  0.38364904650E+02  0.17770000000E+01 0. -1.
</event>
<event>
 6    1  0.6506903E-004  0.5018871E+03  0.7546771E-02  0.9395597E-01
        -11   -1    0    0    0    0  0.00000000000E+00  0.00000000000E+00  0.50000000000E+03  0.50000000000E+03  0.00000000000E+00 0.  1.
         11   -1    0    0    0    0 -0.00000000000E+00 -0.00000000000E+00 -0.50000000000E+03  0.50000000000E+03  0.00000000000E+00 0.  1.
        -11    1    1    2    0    0  0.14594667721E+01 -0.63612158330E+01  0.45559142053E+03  0.45563816518E+03  0.00000000000E+00 0.  1.
         11    1    1    2    0    0  0.14351729714E+02  0.35286679652E+01 -0.49789363186E+03  0.49811293126E+03  0.00000000000E+00 0.  1.
        -15    1    1    2    0    0 -0.11115134528E+02  0.17736696699E+01  0.17232141080E+02  0.20659054549E+02  0.17770000000E+01 0. -1.
         15    1    1    2    0    0 -0.46960619578E+01  0.10588781980E+01  0.25070070248E+02  0.25589849007E+02  0.17770000000E+01 0.  1.
</event>
<event>
 6    1  0.6506903E-004  0.5012570E+03  0.7546771E-02  0.9397002E-01
        -11   -1    0    0    0    0  0.00000000000E+00  0.00000000000E+00  0.50000000000E+03  0.50000000000E+03  0.00000000000E+00 0. -1.
         11   -1    0    0    0    0 -0.00000000000E+00 -0.00000000000E+00 -0.50000000000E+03  0.50000000000E+03  0.00000000000E+00 0. -1.
        -11    1    1    2    0    0 -0.29438301810E+02 -0.14024711205E+02  0.49767588968E+03  0.49874301730E+03  0.00000000000E+00 0. -1.
         11    1    1    2    0    0  0.24527432998E+02  0.14340988856E+01 -0.13032298501E+03  0.13261874691E+03  0.00000000000E+00 0. -1.
        -15    1    1    2    0    0  0.11285137831E+01  0.12809250163E+02 -0.66440620476E+02  0.67696855254E+02  0.17770000000E+01 0.  1.
         15    1    1    2    0    0  0.37823550293E+01 -0.21863784426E+00 -0.30091228419E+03  0.30094138054E+03  0.17770000000E+01 0. -1.
</event>
<event>
 6    1  0.6506903E-004  0.5006894E+03  0.7546771E-02  0.9398269E-01
        -11   -1    0    0    0    0  0.00000000000E+00  0.00000000000E+00  0.50000000000E+03  0.50000000000E+03  0.00000000000E+00 0. -1.
         11   -1    0    0    0    0 -0.00000000000E+00 -0.00000000000E+00 -0.50000000000E+03  0.50000000000E+03  0.00000000000E+00 0.  1.
        -11    1    1    2    0    0  0.15643923249E+02  0.29563080205E+02  0.49818912460E+03  0.49931063670E+03  0.00000000000E+00 0. -1.
         11    1    1    2    0    0  0.24988449708E+00 -0.26257392567E+02 -0.18327569312E+03  0.18514721925E+03  0.00000000000E+00 0.  1.
        -15    1    1    2    0    0 -0.48458074856E+01  0.21375325431E+01 -0.45527748974E+02  0.45869211364E+02  0.17770000000E+01 0.  1.
         15    1    1    2    0    0 -0.11048000260E+02 -0.54432201809E+01 -0.26938568251E+03  0.26967293269E+03  0.17770000000E+01 0. -1.
</event>
<event>
 6    1  0.6506903E-004  0.5141154E+03  0.7546771E-02  0.9368768E-01
        -11   -1    0    0    0    0  0.00000000000E+00  0.00000000000E+00  0.50000000000E+03  0.50000000000E+03  0.00000000000E+00 0.  1.
         11   -1    0    0    0    0 -0.00000000000E+00 -0.00000000000E+00 -0.50000000000E+03  0.50000000000E+03  0.00000000000E+00 0.  1.
        -11    1    1    2    0    0 -0.12743131678E+02 -0.12788172588E+01  0.48571582205E+03  0.48588463915E+03  0.00000000000E+00 0.  1.
         11    1    1    2    0    0  0.26696971233E+02  0.52660711799E+02 -0.42363650299E+03  0.42773094990E+03  0.00000000000E+00 0.  1.
        -15    1    1    2    0    0 -0.16009728693E+01 -0.19810567286E+01  0.25969686101E+01  0.40484163388E+01  0.17770000000E+01 0. -1.
         15    1    1    2    0    0 -0.12352866686E+02 -0.49400837811E+02 -0.64676287670E+02  0.82335994605E+02  0.17770000000E+01 0.  1.
</event>
<event>
 6    1  0.6506903E-004  0.5007105E+03  0.7546771E-02  0.9398221E-01
        -11   -1    0    0    0    0  0.00000000000E+00  0.00000000000E+00  0.50000000000E+03  0.50000000000E+03  0.00000000000E+00 0.  1.
         11   -1    0    0    0    0 -0.00000000000E+00 -0.00000000000E+00 -0.50000000000E+03  0.50000000000E+03  0.00000000000E+00 0. -1.
        -11    1    1    2    0    0  0.52615533343E+01  0.93026753655E+01  0.49917511155E+03  0.49928951091E+03  0.00000000000E+00 0.  1.
         11    1    1    2    0    0 -0.31517626799E+01  0.73198602139E+01 -0.38016705546E+03  0.38025058056E+03  0.00000000000E+00 0. -1.
        -15    1    1    2    0    0 -0.35659556397E+01 -0.56529023588E+01 -0.32413666346E+02  0.33143247272E+02  0.17770000000E+01 0. -1.
         15    1    1    2    0    0  0.14561649853E+01 -0.10969633221E+02 -0.86594389743E+02  0.87316661259E+02  0.17770000000E+01 0.  1.
</event>
<event>
 6    1  0.6506903E-004  0.4894034E+03  0.7546771E-02  0.9423838E-01
        -11   -1    0    0    0    0  0.00000000000E+00  0.00000000000E+00  0.50000000000E+03  0.50000000000E+03  0.00000000000E+00 0. -1.
         11   -1    0    0    0    0 -0.00000000000E+00 -0.00000000000E+00 -0.50000000000E+03  0.50000000000E+03  0.00000000000E+00 0.  1.
        -11    1    1    2    0    0 -0.68163314243E+01  0.51642734819E+01  0.48756749619E+03  0.48764248732E+03  0.00000000000E+00 0. -1.
         11    1    1    2    0    0  0.11151587785E+02  0.62970754888E+01 -0.49108028992E+03  0.49124725162E+03  0.00000000000E+00 0.  1.
        -15    1    1    2    0    0 -0.95105315227E+01 -0.99016011252E+01 -0.95397285363E+00  0.13876588482E+02  0.17770000000E+01 0. -1.
         15    1    1    2    0    0  0.51752751619E+01 -0.15597478455E+01  0.44667665864E+01  0.72336725859E+01  0.17770000000E+01 0.  1.
</event>
<event>
 6    1  0.6506903E-004  0.5030183E+03  0.7546771E-02  0.9393081E-01
        -11   -1    0    0    0    0  0.00000000000E+00  0.00000000000E+00  0.50000000000E+03  0.50000000000E+03  0.00000000000E+00 0.  1.
         11   -1    0    0    0    0 -0.00000000000E+00 -0.00000000000E+00 -0.50000000000E+03  0.50000000000E+03  0.00000000000E+00 0. -1.
        -11    1    1    2    0    0  0.80964324874E+01 -0.10051010987E+01  0.42045850819E+03  0.42053765534E+03  0.00000000000E+00 0.  1.
         11    1    1    2    0    0 -0.16486557637E+02 -0.30018610471E+02 -0.49580023118E+03  0.49698168256E+03  0.00000000000E+00 0. -1.
        -15    1    1    2    0    0  0.71923014853E+01  0.27091170482E+02  0.70483053620E+02  0.75872783628E+02  0.17770000000E+01 0.  1.
         15    1    1    2    0    0  0.11978236642E+01  0.39325410875E+01  0.48586693650E+01  0.66078784745E+01  0.17770000000E+01 0. -1.
</event>
<event>
 6    1  0.1307869E-003  0.5000601E+03  0.7546771E-02  0.9399675E-01
        -11   -1    0    0    0    0  0.00000000000E+00  0.00000000000E+00  0.50000000000E+03  0.50000000000E+03  0.00000000000E+00 0. -1.
         11   -1    0    0    0    0 -0.00000000000E+00 -0.00000000000E+00 -0.50000000000E+03  0.50000000000E+03  0.00000000000E+00 0. -1.
        -11    1    1    2    0    0  0.32054069140E+01  0.10322733308E+01  0.13564462642E+03  0.13568642120E+03  0.00000000000E+00 0. -1.
         11    1    1    2    0    0 -0.45610420800E+00 -0.87067413560E+01 -0.49986383604E+03  0.49993986634E+03  0.00000000000E+00 0. -1.
        -15    1    1    2    0    0 -0.39674862805E+01  0.43186121885E+01  0.27095510763E+03  0.27102438901E+03  0.17770000000E+01 0.  1.
         15    1    1    2    0    0  0.12181835745E+01  0.33558558368E+01  0.93264101993E+02  0.93349323453E+02  0.17770000000E+01 0. -1.
</event>
<event>
 6    1  0.6506903E-004  0.5010482E+03  0.7546771E-02  0.9397467E-01
        -11   -1    0    0    0    0  0.00000000000E+00  0.00000000000E+00  0.50000000000E+03  0.50000000000E+03  0.00000000000E+00 0. -1.
         11   -1    0    0    0    0 -0.00000000000E+00 -0.00000000000E+00 -0.50000000000E+03  0.50000000000E+03  0.00000000000E+00 0.  1.
        -11    1    1    2    0    0  0.63290951544E+01 -0.34132396117E+01  0.49890000999E+03  0.49895182896E+03  0.00000000000E+00 0. -1.
         11    1    1    2    0    0 -0.72431854100E+01 -0.35216090396E+01 -0.46666540948E+03  0.46673490320E+03  0.00000000000E+00 0.  1.
        -15    1    1    2    0    0 -0.26098442457E+01  0.46967650403E+01 -0.89385743621E+01  0.10579542970E+02  0.17770000000E+01 0. -1.
         15    1    1    2    0    0  0.35239345013E+01  0.22380836111E+01 -0.23296026155E+02  0.23733724871E+02  0.17770000000E+01 0.  1.
</event>
<event>
 6    1  0.6506903E-004  0.5002411E+03  0.7546771E-02  0.9399270E-01
        -11   -1    0    0    0    0  0.00000000000E+00  0.00000000000E+00  0.50000000000E+03  0.50000000000E+03  0.00000000000E+00 0.  1.
         11   -1    0    0    0    0 -0.00000000000E+00 -0.00000000000E+00 -0.50000000000E+03  0.50000000000E+03  0.00000000000E+00 0. -1.
        -11    1    1    2    0    0  0.37137988136E+01 -0.11849264501E+00  0.47784672311E+02  0.47928918723E+02  0.00000000000E+00 0.  1.
         11    1    1    2    0    0  0.13248649957E+02 -0.20728940075E+02 -0.49915304357E+03  0.49975891847E+03  0.00000000000E+00 0. -1.
        -15    1    1    2    0    0 -0.13725103489E+02  0.89212917474E+01  0.28563727849E+03  0.28611148265E+03  0.17770000000E+01 0.  1.
         15    1    1    2    0    0 -0.32373452811E+01  0.11926140973E+02  0.16573109278E+03  0.16620068016E+03  0.17770000000E+01 0. -1.
</event>
<event>
 6    1  0.6506903E-004  0.5018675E+03  0.7546771E-02  0.9395641E-01
        -11   -1    0    0    0    0  0.00000000000E+00  0.00000000000E+00  0.50000000000E+03  0.50000000000E+03  0.00000000000E+00 0.  1.
         11   -1    0    0    0    0 -0.00000000000E+00 -0.00000000000E+00 -0.50000000000E+03  0.50000000000E+03  0.00000000000E+00 0.  1.
        -11    1    1    2    0    0 -0.87964141892E+00  0.41082213960E+01  0.26376673041E+03  0.26380018826E+03  0.00000000000E+00 0.  1.
         11    1    1    2    0    0  0.84623904534E+01  0.35130325152E+02 -0.49682012374E+03  0.49813249959E+03  0.00000000000E+00 0.  1.
        -15    1    1    2    0    0  0.34115263573E+01  0.24298723266E+01  0.11751179284E+02  0.12601219591E+02  0.17770000000E+01 0. -1.
         15    1    1    2    0    0 -0.10994275392E+02 -0.41668418875E+02  0.22130221405E+03  0.22546609256E+03  0.17770000000E+01 0.  1.
</event>
<event>
 6    1  0.6506903E-004  0.4852946E+03  0.7546771E-02  0.9433329E-01
        -11   -1    0    0    0    0  0.00000000000E+00  0.00000000000E+00  0.50000000000E+03  0.50000000000E+03  0.00000000000E+00 0. -1.
         11   -1    0    0    0    0 -0.00000000000E+00 -0.00000000000E+00 -0.50000000000E+03  0.50000000000E+03  0.00000000000E+00 0.  1.
        -11    1    1    2    0    0  0.11177207194E+02  0.10889676355E+02  0.48083167346E+03  0.48108482954E+03  0.00000000000E+00 0. -1.
         11    1    1    2    0    0  0.12637782943E+02 -0.81495499153E+01 -0.48960919120E+03  0.48984006454E+03  0.00000000000E+00 0.  1.
        -15    1    1    2    0    0 -0.15538281908E+02  0.79708962255E+00  0.11586398741E+02  0.19480141717E+02  0.17770000000E+01 0. -1.
         15    1    1    2    0    0 -0.82767082294E+01 -0.35372160620E+01 -0.28088809940E+01  0.95949642012E+01  0.17770000000E+01 0.  1.
</event>
<event>
 6    1  0.6506903E-004  0.5004485E+03  0.7546771E-02  0.9398807E-01
        -11   -1    0    0    0    0  0.00000000000E+00  0.00000000000E+00  0.50000000000E+03  0.50000000000E+03  0.00000000000E+00 0. -1.
         11   -1    0    0    0    0 -0.00000000000E+00 -0.00000000000E+00 -0.50000000000E+03  0.50000000000E+03  0.00000000000E+00 0.  1.
        -11    1    1    2    0    0  0.20422005205E+01  0.39903326266E+01  0.31499501007E+03  0.31502690314E+03  0.00000000000E+00 0. -1.
         11    1    1    2    0    0  0.97089004915E+00 -0.95145810512E+01 -0.49945991591E+03  0.49955147630E+03  0.00000000000E+00 0.  1.
        -15    1    1    2    0    0 -0.53344946714E+01  0.84926881305E+01  0.57959977354E+02  0.58848103529E+02  0.17770000000E+01 0. -1.
         15    1    1    2    0    0  0.23214041017E+01 -0.29684397059E+01  0.12650492849E+03  0.12657351702E+03  0.17770000000E+01 0.  1.
</event>
<event>
 6    1  0.6506903E-004  0.5000428E+03  0.7546771E-02  0.9399714E-01
        -11   -1    0    0    0    0  0.00000000000E+00  0.00000000000E+00  0.50000000000E+03  0.50000000000E+03  0.00000000000E+00 0.  1.
         11   -1    0    0    0    0 -0.00000000000E+00 -0.00000000000E+00 -0.50000000000E+03  0.50000000000E+03  0.00000000000E+00 0. -1.
        -11    1    1    2    0    0 -0.85167871045E+01  0.67319631407E+01  0.49983931608E+03  0.49995719506E+03  0.00000000000E+00 0.  1.
         11    1    1    2    0    0  0.36146367729E+01 -0.48117038238E+01 -0.33254909675E+03  0.33260354755E+03  0.00000000000E+00 0. -1.
        -15    1    1    2    0    0  0.23110657044E+01 -0.20000633824E+01 -0.60825573274E+02  0.60928231316E+02  0.17770000000E+01 0. -1.
         15    1    1    2    0    0  0.25910846271E+01  0.79804065496E-01 -0.10646464605E+03  0.10651102608E+03  0.17770000000E+01 0.  1.
</event>
<event>
 6    1  0.6506903E-004  0.5007364E+03  0.7546771E-02  0.9398164E-01
        -11   -1    0    0    0    0  0.00000000000E+00  0.00000000000E+00  0.50000000000E+03  0.50000000000E+03  0.00000000000E+00 0.  1.
         11   -1    0    0    0    0 -0.00000000000E+00 -0.00000000000E+00 -0.50000000000E+03  0.50000000000E+03  0.00000000000E+00 0. -1.
        -11    1    1    2    0    0 -0.19247559801E+01  0.44157854021E+01  0.13321261339E+03  0.13329967821E+03  0.00000000000E+00 0.  1.
         11    1    1    2    0    0  0.55217131844E+02 -0.19472342000E+02 -0.49581858865E+03  0.49926363437E+03  0.00000000000E+00 0. -1.
        -15    1    1    2    0    0 -0.71792596627E-01  0.16344390457E+01  0.41759829780E+01  0.48242209738E+01  0.17770000000E+01 0.  1.
         15    1    1    2    0    0 -0.53220583267E+02  0.13422117552E+02  0.35842999229E+03  0.36261246644E+03  0.17770000000E+01 0.  1.
</event>
<event>
 6    1  0.6506903E-004  0.4726698E+03  0.7546771E-02  0.9463129E-01
        -11   -1    0    0    0    0  0.00000000000E+00  0.00000000000E+00  0.50000000000E+03  0.50000000000E+03  0.00000000000E+00 0. -1.
         11   -1    0    0    0    0 -0.00000000000E+00 -0.00000000000E+00 -0.50000000000E+03  0.50000000000E+03  0.00000000000E+00 0.  1.
        -11    1    1    2    0    0  0.32278375711E+01  0.30209013420E+02  0.48019874547E+03  0.48115884963E+03  0.00000000000E+00 0. -1.
         11    1    1    2    0    0 -0.32030684597E+01  0.17301941600E+02 -0.46516065359E+03  0.46549334097E+03  0.00000000000E+00 0.  1.
        -15    1    1    2    0    0 -0.74307526094E+00 -0.50083097186E+01  0.40435438555E+01  0.67188766169E+01  0.17770000000E+01 0.  1.
         15    1    1    2    0    0  0.71830614958E+00 -0.42502645301E+02 -0.19081635734E+02  0.46628932784E+02  0.17770000000E+01 0. -1.
</event>
<event>
 6    1  0.6506903E-004  0.5042245E+03  0.7546771E-02  0.9390406E-01
        -11   -1    0    0    0    0  0.00000000000E+00  0.00000000000E+00  0.50000000000E+03  0.50000000000E+03  0.00000000000E+00 0.  1.
         11   -1    0    0    0    0 -0.00000000000E+00 -0.00000000000E+00 -0.50000000000E+03  0.50000000000E+03  0.00000000000E+00 0. -1.
        -11    1    1    2    0    0 -0.57575996926E+01 -0.50200509808E+01  0.38236111634E+03  0.38243741207E+03  0.00000000000E+00 0.  1.
         11    1    1    2    0    0 -0.25584044667E+02  0.40051328330E+02 -0.49349237865E+03  0.49577553391E+03  0.00000000000E+00 0. -1.
        -15    1    1    2    0    0  0.25620499826E+01  0.46253442995E-01  0.16908318082E+02  0.17193463550E+02  0.17770000000E+01 0.  1.
         15    1    1    2    0    0  0.28779594377E+02 -0.35077530793E+02  0.94222944229E+02  0.10459359047E+03  0.17770000000E+01 0. -1.
</event>
<event>
 6    1  0.6506903E-004  0.5005317E+03  0.7546771E-02  0.9398621E-01
        -11   -1    0    0    0    0  0.00000000000E+00  0.00000000000E+00  0.50000000000E+03  0.50000000000E+03  0.00000000000E+00 0. -1.
         11   -1    0    0    0    0 -0.00000000000E+00 -0.00000000000E+00 -0.50000000000E+03  0.50000000000E+03  0.00000000000E+00 0. -1.
        -11    1    1    2    0    0  0.40491240425E+01 -0.69390030391E+01  0.47206726840E+03  0.47213562782E+03  0.00000000000E+00 0. -1.
         11    1    1    2    0    0 -0.78492815247E+01  0.23116826254E+01 -0.49940131373E+03  0.49946834460E+03  0.00000000000E+00 0. -1.
        -15    1    1    2    0    0  0.21515125472E+01  0.45696434646E+00  0.11568509255E+02  0.11909070410E+02  0.17770000000E+01 0. -1.
         15    1    1    2    0    0  0.16486449349E+01  0.41703560673E+01  0.15765536081E+02  0.16486957172E+02  0.17770000000E+01 0.  1.
</event>
<event>
 6    1  0.6506903E-004  0.3984749E+03  0.7546771E-02  0.9660918E-01
        -11   -1    0    0    0    0  0.00000000000E+00  0.00000000000E+00  0.50000000000E+03  0.50000000000E+03  0.00000000000E+00 0.  1.
         11   -1    0    0    0    0 -0.00000000000E+00 -0.00000000000E+00 -0.50000000000E+03  0.50000000000E+03  0.00000000000E+00 0. -1.
        -11    1    1    2    0    0 -0.49975372311E+01  0.14785638749E+02  0.39569429434E+03  0.39600197609E+03  0.00000000000E+00 0.  1.
         11    1    1    2    0    0 -0.15934962115E+02 -0.16326559102E+03 -0.18404632128E+03  0.24654132433E+03  0.00000000000E+00 0. -1.
        -15    1    1    2    0    0 -0.34509786664E+02 -0.21822371090E+02  0.34195026974E+02  0.53287886563E+02  0.17770000000E+01 0.  1.
         15    1    1    2    0    0  0.55442286010E+02  0.17030232336E+03 -0.24584300004E+03  0.30416881302E+03  0.17770000000E+01 0. -1.
</event>
<event>
 6    1  0.6506903E-004  0.5002322E+03  0.7546771E-02  0.9399290E-01
        -11   -1    0    0    0    0  0.00000000000E+00  0.00000000000E+00  0.50000000000E+03  0.50000000000E+03  0.00000000000E+00 0.  1.
         11   -1    0    0    0    0 -0.00000000000E+00 -0.00000000000E+00 -0.50000000000E+03  0.50000000000E+03  0.00000000000E+00 0. -1.
        -11    1    1    2    0    0  0.26801086901E+01  0.87504915879E+01  0.49968404892E+03  0.49976784894E+03  0.00000000000E+00 0.  1.
         11    1    1    2    0    0  0.45769660955E+01  0.34542573055E+01 -0.20614875582E+03  0.20622848988E+03  0.00000000000E+00 0. -1.
        -15    1    1    2    0    0 -0.71929420517E+01 -0.85085177126E+01 -0.25526112152E+03  0.25551033478E+03  0.17770000000E+01 0. -1.
         15    1    1    2    0    0 -0.64132733933E-01 -0.36962311808E+01 -0.38274171577E+02  0.38493326394E+02  0.17770000000E+01 0.  1.
</event>
<event>
 6    1  0.6506903E-004  0.5007369E+03  0.7546771E-02  0.9398162E-01
        -11   -1    0    0    0    0  0.00000000000E+00  0.00000000000E+00  0.50000000000E+03  0.50000000000E+03  0.00000000000E+00 0.  1.
         11   -1    0    0    0    0 -0.00000000000E+00 -0.00000000000E+00 -0.50000000000E+03  0.50000000000E+03  0.00000000000E+00 0.  1.
        -11    1    1    2    0    0 -0.21970197503E+01 -0.58394505175E+01  0.26282041058E+03  0.26289445467E+03  0.00000000000E+00 0.  1.
         11    1    1    2    0    0  0.60818913271E+01  0.73756716872E+01 -0.49917157937E+03  0.49926311258E+03  0.00000000000E+00 0.  1.
        -15    1    1    2    0    0 -0.75647442002E+01 -0.51630114542E+01  0.29960891212E+02  0.31379846610E+02  0.17770000000E+01 0. -1.
         15    1    1    2    0    0  0.36798726233E+01  0.36267902845E+01  0.20639027757E+03  0.20646258614E+03  0.17770000000E+01 0.  1.
</event>
<event>
 6    1  0.6506903E-004  0.5320324E+03  0.7546771E-02  0.9330856E-01
        -11   -1    0    0    0    0  0.00000000000E+00  0.00000000000E+00  0.50000000000E+03  0.50000000000E+03  0.00000000000E+00 0. -1.
         11   -1    0    0    0    0 -0.00000000000E+00 -0.00000000000E+00 -0.50000000000E+03  0.50000000000E+03  0.00000000000E+00 0.  1.
        -11    1    1    2    0    0  0.14146860764E+02  0.65123483346E+01  0.46770836730E+03  0.46796758562E+03  0.00000000000E+00 0. -1.
         11    1    1    2    0    0  0.52238967557E+02  0.10440734104E+03 -0.27003377519E+03  0.29419048649E+03  0.00000000000E+00 0.  1.
        -15    1    1    2    0    0 -0.12149055269E+01 -0.89349278278E+00  0.84497137971E-01  0.23322078721E+01  0.17770000000E+01 0.  1.
         15    1    1    2    0    0 -0.65170922794E+02 -0.11002619659E+03 -0.19775908924E+03  0.23550972002E+03  0.17770000000E+01 0. -1.
</event>
<event>
 6    1  0.6506903E-004  0.5234145E+03  0.7546771E-02  0.9348890E-01
        -11   -1    0    0    0    0  0.00000000000E+00  0.00000000000E+00  0.50000000000E+03  0.50000000000E+03  0.00000000000E+00 0.  1.
         11   -1    0    0    0    0 -0.00000000000E+00 -0.00000000000E+00 -0.50000000000E+03  0.50000000000E+03  0.00000000000E+00 0. -1.
        -11    1    1    2    0    0  0.44596478699E+02  0.11369165819E+02  0.47435813384E+03  0.47658550437E+03  0.00000000000E+00 0.  1.
         11    1    1    2    0    0 -0.94155957643E+02 -0.25504171401E+02 -0.38131663762E+03  0.39359647514E+03  0.00000000000E+00 0. -1.
        -15    1    1    2    0    0  0.11819931407E+02  0.24544272309E+02 -0.85705211185E+02  0.89948168603E+02  0.17770000000E+01 0.  1.
         15    1    1    2    0    0  0.37739547538E+02 -0.10409266727E+02 -0.73362850334E+01  0.39869851884E+02  0.17770000000E+01 0. -1.
</event>
<event>
 6    1  0.6506903E-004  0.5002511E+03  0.7546771E-02  0.9399248E-01
        -11   -1    0    0    0    0  0.00000000000E+00  0.00000000000E+00  0.50000000000E+03  0.50000000000E+03  0.00000000000E+00 0. -1.
         11   -1    0    0    0    0 -0.00000000000E+00 -0.00000000000E+00 -0.50000000000E+03  0.50000000000E+03  0.00000000000E+00 0. -1.
        -11    1    1    2    0    0 -0.25314799104E+02 -0.65147910661E+01  0.49906478852E+03  0.49974888163E+03  0.00000000000E+00 0. -1.
         11    1    1    2    0    0  0.21060768317E+02  0.39446234175E+01 -0.20514631944E+03  0.20626228059E+03  0.00000000000E+00 0. -1.
        -15    1    1    2    0    0  0.31912669352E+01  0.10300805081E+01 -0.19353025630E+03  0.19356746391E+03  0.17770000000E+01 0.  1.
         15    1    1    2    0    0  0.10627638518E+01  0.15400871405E+01 -0.10038821278E+03  0.10042137387E+03  0.17770000000E+01 0. -1.
</event>
<event>
 6    1  0.6506903E-004  0.4722223E+03  0.7546771E-02  0.9464204E-01
        -11   -1    0    0    0    0  0.00000000000E+00  0.00000000000E+00  0.50000000000E+03  0.50000000000E+03  0.00000000000E+00 0. -1.
         11   -1    0    0    0    0 -0.00000000000E+00 -0.00000000000E+00 -0.50000000000E+03  0.50000000000E+03  0.00000000000E+00 0. -1.
        -11    1    1    2    0    0 -0.15263194152E+02 -0.42186170087E+01  0.48038729969E+03  0.48064822846E+03  0.00000000000E+00 0. -1.
         11    1    1    2    0    0 -0.33069674365E+02 -0.58779961640E+01 -0.46401392873E+03  0.46522798740E+03  0.00000000000E+00 0. -1.
        -15    1    1    2    0    0  0.17516905619E+02  0.90387968660E+01 -0.11402289245E+02  0.22841010491E+02  0.17770000000E+01 0.  1.
         15    1    1    2    0    0  0.30815962899E+02  0.10578163067E+01 -0.49710817087E+01  0.31282773647E+02  0.17770000000E+01 0. -1.
</event>
<event>
 6    1  0.6506903E-004  0.5002002E+03  0.7546771E-02  0.9399362E-01
        -11   -1    0    0    0    0  0.00000000000E+00  0.00000000000E+00  0.50000000000E+03  0.50000000000E+03  0.00000000000E+00 0. -1.
         11   -1    0    0    0    0 -0.00000000000E+00 -0.00000000000E+00 -0.50000000000E+03  0.50000000000E+03  0.00000000000E+00 0. -1.
        -11    1    1    2    0    0  0.12382062521E+01 -0.70039169882E+01  0.31569787171E+03  0.31577798246E+03  0.00000000000E+00 0. -1.
         11    1    1    2    0    0  0.84417247573E+01  0.68438988522E+01 -0.49968168064E+03  0.49979984358E+03  0.00000000000E+00 0. -1.
        -15    1    1    2    0    0 -0.75866705844E+01 -0.12128051544E+01  0.16528762950E+03  0.16547563767E+03  0.17770000000E+01 0. -1.
         15    1    1    2    0    0 -0.20932604250E+01  0.13728232904E+01  0.18696179434E+02  0.18946536290E+02  0.17770000000E+01 0.  1.
</event>
<event>
 6    1  0.6506903E-004  0.5013233E+03  0.7546771E-02  0.9396854E-01
        -11   -1    0    0    0    0  0.00000000000E+00  0.00000000000E+00  0.50000000000E+03  0.50000000000E+03  0.00000000000E+00 0. -1.
         11   -1    0    0    0    0 -0.00000000000E+00 -0.00000000000E+00 -0.50000000000E+03  0.50000000000E+03  0.00000000000E+00 0. -1.
        -11    1    1    2    0    0 -0.12698126973E+02  0.14036204251E+01  0.49851306731E+03  0.49867673984E+03  0.00000000000E+00 0. -1.
         11    1    1    2    0    0 -0.62444426646E+01  0.86543234574E+01 -0.36627524408E+03  0.36643068212E+03  0.00000000000E+00 0. -1.
        -15    1    1    2    0    0  0.96209746405E+01 -0.74587389880E+01 -0.10851738332E+03  0.10921252745E+03  0.17770000000E+01 0.  1.
         15    1    1    2    0    0  0.93215949971E+01 -0.25992048945E+01 -0.23720439910E+02  0.25680050582E+02  0.17770000000E+01 0. -1.
</event>
<event>
 6    1  0.6506903E-004  0.4823245E+03  0.7546771E-02  0.9440252E-01
        -11   -1    0    0    0    0  0.00000000000E+00  0.00000000000E+00  0.50000000000E+03  0.50000000000E+03  0.00000000000E+00 0.  1.
         11   -1    0    0    0    0 -0.00000000000E+00 -0.00000000000E+00 -0.50000000000E+03  0.50000000000E+03  0.00000000000E+00 0. -1.
        -11    1    1    2    0    0  0.21603069008E+02  0.31450151885E+01  0.47863227050E+03  0.47912987182E+03  0.00000000000E+00 0.  1.
         11    1    1    2    0    0 -0.22804520896E+02 -0.20061802886E+02 -0.48473692323E+03  0.48568756094E+03  0.00000000000E+00 0. -1.
        -15    1    1    2    0    0  0.10509814816E+02  0.14685782395E+02  0.13779934684E+02  0.22785362427E+02  0.17770000000E+01 0. -1.
         15    1    1    2    0    0 -0.93083629277E+01  0.22310053023E+01 -0.76752819494E+01  0.12397204808E+02  0.17770000000E+01 0.  1.
</event>
<event>
 6    1  0.6506903E-004  0.5015734E+03  0.7546771E-02  0.9396296E-01
        -11   -1    0    0    0    0  0.00000000000E+00  0.00000000000E+00  0.50000000000E+03  0.50000000000E+03  0.00000000000E+00 0. -1.
         11   -1    0    0    0    0 -0.00000000000E+00 -0.00000000000E+00 -0.50000000000E+03  0.50000000000E+03  0.00000000000E+00 0. -1.
        -11    1    1    2    0    0  0.82540491117E+01  0.38985973913E+01  0.49834302298E+03  0.49842662142E+03  0.00000000000E+00 0. -1.
         11    1    1    2    0    0  0.20662010156E+02 -0.71486017124E+01 -0.25785596487E+03  0.25878121993E+03  0.00000000000E+00 0. -1.
        -15    1    1    2    0    0 -0.39006916693E+01 -0.14028164003E+01 -0.10952069878E+02  0.11844359542E+02  0.17770000000E+01 0.  1.
         15    1    1    2    0    0 -0.25015367599E+02  0.46528207214E+01 -0.22953498824E+03  0.23094779910E+03  0.17770000000E+01 0. -1.
</event>
<event>
 6    1  0.6506903E-004  0.5062800E+03  0.7546771E-02  0.9385866E-01
        -11   -1    0    0    0    0  0.00000000000E+00  0.00000000000E+00  0.50000000000E+03  0.50000000000E+03  0.00000000000E+00 0. -1.
         11   -1    0    0    0    0 -0.00000000000E+00 -0.00000000000E+00 -0.50000000000E+03  0.50000000000E+03  0.00000000000E+00 0. -1.
        -11    1    1    2    0    0  0.36380073176E+01 -0.94735921930E+01  0.49361570508E+03  0.49372001008E+03  0.00000000000E+00 0. -1.
         11    1    1    2    0    0 -0.38365255534E+02 -0.29395779123E+01 -0.39722727849E+03  0.39908651283E+03  0.00000000000E+00 0. -1.
        -15    1    1    2    0    0  0.45086831071E+01 -0.70970367789E+01 -0.34828893744E+02  0.35873468230E+02  0.17770000000E+01 0. -1.
         15    1    1    2    0    0  0.30218565110E+02  0.19510206884E+02 -0.61559532851E+02  0.71320008859E+02  0.17770000000E+01 0.  1.
</event>
<event>
 6    1  0.6506903E-004  0.5009342E+03  0.7546771E-02  0.9397722E-01
        -11   -1    0    0    0    0  0.00000000000E+00  0.00000000000E+00  0.50000000000E+03  0.50000000000E+03  0.00000000000E+00 0. -1.
         11   -1    0    0    0    0 -0.00000000000E+00 -0.00000000000E+00 -0.50000000000E+03  0.50000000000E+03  0.00000000000E+00 0.  1.
        -11    1    1    2    0    0 -0.75474624997E+01  0.99128184512E+01  0.49891026787E+03  0.49906581084E+03  0.00000000000E+00 0. -1.
         11    1    1    2    0    0 -0.11814111080E+02 -0.10903286456E+02 -0.87232124999E+02  0.88701175347E+02  0.00000000000E+00 0.  1.
        -15    1    1    2    0    0  0.49680595634E+01 -0.17801804771E+01 -0.64106122808E+02  0.64347520300E+02  0.17770000000E+01 0. -1.
         15    1    1    2    0    0  0.14393514016E+02  0.27706484819E+01 -0.34757202006E+03  0.34788549352E+03  0.17770000000E+01 0.  1.
</event>
<event>
 6    1  0.6506903E-004  0.5007633E+03  0.7546771E-02  0.9398103E-01
        -11   -1    0    0    0    0  0.00000000000E+00  0.00000000000E+00  0.50000000000E+03  0.50000000000E+03  0.00000000000E+00 0. -1.
         11   -1    0    0    0    0 -0.00000000000E+00 -0.00000000000E+00 -0.50000000000E+03  0.50000000000E+03  0.00000000000E+00 0. -1.
        -11    1    1    2    0    0 -0.21846975989E+02  0.23138801321E+00  0.49875837492E+03  0.49923667779E+03  0.00000000000E+00 0. -1.
         11    1    1    2    0    0  0.23563425950E+02 -0.16847015609E+01 -0.14172017362E+03  0.14367560987E+03  0.00000000000E+00 0. -1.
        -15    1    1    2    0    0 -0.29130138346E+01  0.11865876450E+01 -0.26253725217E+03  0.26256210722E+03  0.17770000000E+01 0. -1.
         15    1    1    2    0    0  0.11965638732E+01  0.26672590271E+00 -0.94500949128E+02  0.94525605118E+02  0.17770000000E+01 0.  1.
</event>
<event>
 6    1  0.6506903E-004  0.5033120E+03  0.7546771E-02  0.9392429E-01
        -11   -1    0    0    0    0  0.00000000000E+00  0.00000000000E+00  0.50000000000E+03  0.50000000000E+03  0.00000000000E+00 0. -1.
         11   -1    0    0    0    0 -0.00000000000E+00 -0.00000000000E+00 -0.50000000000E+03  0.50000000000E+03  0.00000000000E+00 0. -1.
        -11    1    1    2    0    0 -0.43467044646E+01  0.55555789078E+01  0.49663788406E+03  0.49668797668E+03  0.00000000000E+00 0. -1.
         11    1    1    2    0    0  0.11263876877E+02 -0.66551680162E+01 -0.47578015752E+03  0.47596000302E+03  0.00000000000E+00 0. -1.
        -15    1    1    2    0    0 -0.26606290960E+01 -0.39699034057E+01  0.30428339004E+00  0.51077781489E+01  0.17770000000E+01 0. -1.
         15    1    1    2    0    0 -0.42565433167E+01  0.50694925142E+01 -0.21162009931E+02  0.22244242147E+02  0.17770000000E+01 0.  1.
</event>
<event>
 6    1  0.6506903E-004  0.4705378E+03  0.7546771E-02  0.9468260E-01
        -11   -1    0    0    0    0  0.00000000000E+00  0.00000000000E+00  0.50000000000E+03  0.50000000000E+03  0.00000000000E+00 0.  1.
         11   -1    0    0    0    0 -0.00000000000E+00 -0.00000000000E+00 -0.50000000000E+03  0.50000000000E+03  0.00000000000E+00 0. -1.
        -11    1    1    2    0    0  0.10981733834E+02  0.35003396517E+01  0.47961218219E+03  0.47975066041E+03  0.00000000000E+00 0.  1.
         11    1    1    2    0    0 -0.71527908711E+01  0.45354584585E+02 -0.46051019773E+03  0.46279352089E+03  0.00000000000E+00 0. -1.
        -15    1    1    2    0    0 -0.46906804253E+00 -0.22228422910E+01  0.42726616610E+01  0.51550382490E+01  0.17770000000E+01 0. -1.
         15    1    1    2    0    0 -0.33598749206E+01 -0.46632081946E+02 -0.23374646122E+02  0.52300780457E+02  0.17770000000E+01 0.  1.
</event>
<event>
 6    1  0.6506903E-004  0.4777915E+03  0.7546771E-02  0.9450922E-01
        -11   -1    0    0    0    0  0.00000000000E+00  0.00000000000E+00  0.50000000000E+03  0.50000000000E+03  0.00000000000E+00 0.  1.
         11   -1    0    0    0    0 -0.00000000000E+00 -0.00000000000E+00 -0.50000000000E+03  0.50000000000E+03  0.00000000000E+00 0. -1.
        -11    1    1    2    0    0  0.70494533277E+01 -0.10922572930E+02  0.48675491394E+03  0.48692847897E+03  0.00000000000E+00 0.  1.
         11    1    1    2    0    0 -0.12512632955E+02  0.45057654620E+02 -0.46714588603E+03  0.46948060350E+03  0.00000000000E+00 0. -1.
        -15    1    1    2    0    0  0.65324563465E+01 -0.29023610291E+02 -0.22519414786E+02  0.37354045451E+02  0.17770000000E+01 0. -1.
         15    1    1    2    0    0 -0.10692767195E+01 -0.51114713983E+01  0.29103868818E+01  0.62368720814E+01  0.17770000000E+01 0.  1.
</event>
<event>
 6    1  0.6506903E-004  0.4922797E+03  0.7546771E-02  0.9417252E-01
        -11   -1    0    0    0    0  0.00000000000E+00  0.00000000000E+00  0.50000000000E+03  0.50000000000E+03  0.00000000000E+00 0.  1.
         11   -1    0    0    0    0 -0.00000000000E+00 -0.00000000000E+00 -0.50000000000E+03  0.50000000000E+03  0.00000000000E+00 0. -1.
        -11    1    1    2    0    0 -0.64645552669E+01 -0.25094202562E+01  0.48937986985E+03  0.48942899861E+03  0.00000000000E+00 0.  1.
         11    1    1    2    0    0 -0.62599572156E+01  0.50891346199E+01 -0.49516728448E+03  0.49523300170E+03  0.00000000000E+00 0. -1.
        -15    1    1    2    0    0  0.83872231953E+01 -0.93839985955E+00  0.14527402745E+01  0.87461014474E+01  0.17770000000E+01 0. -1.
         15    1    1    2    0    0  0.43372892873E+01 -0.16413145042E+01  0.43346743516E+01  0.65918982393E+01  0.17770000000E+01 0.  1.
</event>
<event>
 6    1  0.6506903E-004  0.5001680E+03  0.7546771E-02  0.9399434E-01
        -11   -1    0    0    0    0  0.00000000000E+00  0.00000000000E+00  0.50000000000E+03  0.50000000000E+03  0.00000000000E+00 0. -1.
         11   -1    0    0    0    0 -0.00000000000E+00 -0.00000000000E+00 -0.50000000000E+03  0.50000000000E+03  0.00000000000E+00 0. -1.
        -11    1    1    2    0    0  0.27915265933E+01 -0.78308531425E+01  0.49976286831E+03  0.49983201120E+03  0.00000000000E+00 0. -1.
         11    1    1    2    0    0 -0.66691263585E+01  0.15756675085E+00 -0.10894086331E+03  0.10914492096E+03  0.00000000000E+00 0. -1.
        -15    1    1    2    0    0  0.40079897080E+01 -0.18975249770E+00 -0.11654046164E+03  0.11662305482E+03  0.17770000000E+01 0. -1.
         15    1    1    2    0    0 -0.13038994282E+00  0.78630388894E+01 -0.27428154336E+03  0.27440001301E+03  0.17770000000E+01 0. -1.
</event>
<event>
 6    1  0.6506903E-004  0.5023947E+03  0.7546771E-02  0.9394467E-01
        -11   -1    0    0    0    0  0.00000000000E+00  0.00000000000E+00  0.50000000000E+03  0.50000000000E+03  0.00000000000E+00 0. -1.
         11   -1    0    0    0    0 -0.00000000000E+00 -0.00000000000E+00 -0.50000000000E+03  0.50000000000E+03  0.00000000000E+00 0. -1.
        -11    1    1    2    0    0  0.11045090057E+02 -0.26194614349E+01  0.49747582271E+03  0.49760531525E+03  0.00000000000E+00 0. -1.
         11    1    1    2    0    0 -0.70912707725E+01  0.14992239389E+02 -0.39639244732E+03  0.39673924138E+03  0.00000000000E+00 0. -1.
        -15    1    1    2    0    0  0.31586296440E+01 -0.12726420512E+02 -0.95554645361E+02  0.96466505583E+02  0.17770000000E+01 0. -1.
         15    1    1    2    0    0 -0.71124489281E+01  0.35364255799E+00 -0.55287300260E+01  0.91889377794E+01  0.17770000000E+01 0.  1.
</event>
<event>
 6    1  0.6506903E-004  0.5074008E+03  0.7546771E-02  0.9383400E-01
        -11   -1    0    0    0    0  0.00000000000E+00  0.00000000000E+00  0.50000000000E+03  0.50000000000E+03  0.00000000000E+00 0. -1.
         11   -1    0    0    0    0 -0.00000000000E+00 -0.00000000000E+00 -0.50000000000E+03  0.50000000000E+03  0.00000000000E+00 0.  1.
        -11    1    1    2    0    0  0.13406915895E+01 -0.21196356883E+02  0.49214110539E+03  0.49259917846E+03  0.00000000000E+00 0. -1.
         11    1    1    2    0    0  0.22161500445E+02 -0.21970140057E+02 -0.38291514514E+03  0.38418462689E+03  0.00000000000E+00 0.  1.
        -15    1    1    2    0    0 -0.80665071777E+01  0.34905074283E+02 -0.91314146498E+02  0.98106390355E+02  0.17770000000E+01 0. -1.
         15    1    1    2    0    0 -0.15435684857E+02  0.82614226566E+01 -0.17911813749E+02  0.25109804302E+02  0.17770000000E+01 0.  1.
</event>
<event>
 6    1  0.6506903E-004  0.5003235E+03  0.7546771E-02  0.9399086E-01
        -11   -1    0    0    0    0  0.00000000000E+00  0.00000000000E+00  0.50000000000E+03  0.50000000000E+03  0.00000000000E+00 0. -1.
         11   -1    0    0    0    0 -0.00000000000E+00 -0.00000000000E+00 -0.50000000000E+03  0.50000000000E+03  0.00000000000E+00 0. -1.
        -11    1    1    2    0    0 -0.22519137932E+01  0.83137486625E+01  0.15737941652E+03  0.15761494306E+03  0.00000000000E+00 0. -1.
         11    1    1    2    0    0 -0.64191555825E+01  0.63152717288E+01 -0.49959537336E+03  0.49967652066E+03  0.00000000000E+00 0. -1.
        -15    1    1    2    0    0  0.44990495196E+01 -0.12232896385E+02  0.26029539243E+03  0.26062757769E+03  0.17770000000E+01 0.  1.
         15    1    1    2    0    0  0.41720198560E+01 -0.23961240058E+01  0.81920564411E+02  0.82080958586E+02  0.17770000000E+01 0. -1.
</event>
<event>
 6    1  0.6506903E-004  0.3716512E+03  0.7546771E-02  0.9744083E-01
        -11   -1    0    0    0    0  0.00000000000E+00  0.00000000000E+00  0.50000000000E+03  0.50000000000E+03  0.00000000000E+00 0. -1.
         11   -1    0    0    0    0 -0.00000000000E+00 -0.00000000000E+00 -0.50000000000E+03  0.50000000000E+03  0.00000000000E+00 0.  1.
        -11    1    1    2    0    0  0.53339107297E+00 -0.11615917264E+01  0.46526828453E+02  0.46544382768E+02  0.00000000000E+00 0. -1.
         11    1    1    2    0    0 -0.24084294901E+03  0.18048753716E+03 -0.30567300192E+03  0.42897209846E+03  0.00000000000E+00 0.  1.
        -15    1    1    2    0    0  0.16962642839E+03 -0.27377093150E+03  0.12406886683E+03  0.34513749374E+03  0.17770000000E+01 0. -1.
         15    1    1    2    0    0  0.70683129547E+02  0.94444986062E+02  0.13507730664E+03  0.17934602503E+03  0.17770000000E+01 0.  1.
</event>
<event>
 6    1  0.6506903E-004  0.5000511E+03  0.7546771E-02  0.9399695E-01
        -11   -1    0    0    0    0  0.00000000000E+00  0.00000000000E+00  0.50000000000E+03  0.50000000000E+03  0.00000000000E+00 0. -1.
         11   -1    0    0    0    0 -0.00000000000E+00 -0.00000000000E+00 -0.50000000000E+03  0.50000000000E+03  0.00000000000E+00 0.  1.
        -11    1    1    2    0    0 -0.11979496957E+01  0.13953607626E+01  0.51669803436E+02  0.51702521237E+02  0.00000000000E+00 0. -1.
         11    1    1    2    0    0  0.62091527829E+01  0.54168969233E+01 -0.49988095896E+03  0.49994886687E+03  0.00000000000E+00 0.  1.
        -15    1    1    2    0    0  0.29737571947E+00  0.43797833645E+00  0.98883556098E+02  0.98900938584E+02  0.17770000000E+01 0.  1.
         15    1    1    2    0    0 -0.53085788066E+01 -0.72502360224E+01  0.34932759943E+03  0.34944767331E+03  0.17770000000E+01 0. -1.
</event>
<event>
 6    1  0.6506903E-004  0.5000402E+03  0.7546771E-02  0.9399720E-01
        -11   -1    0    0    0    0  0.00000000000E+00  0.00000000000E+00  0.50000000000E+03  0.50000000000E+03  0.00000000000E+00 0. -1.
         11   -1    0    0    0    0 -0.00000000000E+00 -0.00000000000E+00 -0.50000000000E+03  0.50000000000E+03  0.00000000000E+00 0.  1.
        -11    1    1    2    0    0  0.36502262822E+01  0.80995888120E+01  0.49988082222E+03  0.49995976230E+03  0.00000000000E+00 0. -1.
         11    1    1    2    0    0 -0.34948336543E+01 -0.29454752567E+00 -0.11488107849E+03  0.11493460234E+03  0.00000000000E+00 0.  1.
        -15    1    1    2    0    0 -0.89841094951E+00 -0.34365953511E+01 -0.12818093431E+03  0.12824245389E+03  0.17770000000E+01 0. -1.
         15    1    1    2    0    0  0.74301832159E+00 -0.43684459353E+01 -0.25681880942E+03  0.25686318148E+03  0.17770000000E+01 0.  1.
</event>
<event>
 6    1  0.6506903E-004  0.5021560E+03  0.7546771E-02  0.9394998E-01
        -11   -1    0    0    0    0  0.00000000000E+00  0.00000000000E+00  0.50000000000E+03  0.50000000000E+03  0.00000000000E+00 0. -1.
         11   -1    0    0    0    0 -0.00000000000E+00 -0.00000000000E+00 -0.50000000000E+03  0.50000000000E+03  0.00000000000E+00 0. -1.
        -11    1    1    2    0    0  0.63744765267E+01 -0.82288527131E+01  0.46349793331E+03  0.46361479932E+03  0.00000000000E+00 0. -1.
         11    1    1    2    0    0 -0.10477845979E+02 -0.62500163801E+01 -0.49769448150E+03  0.49784399653E+03  0.00000000000E+00 0. -1.
        -15    1    1    2    0    0  0.32320393170E+01  0.50213309745E+01  0.22618874472E+02  0.23461267107E+02  0.17770000000E+01 0. -1.
         15    1    1    2    0    0  0.87133013489E+00  0.94575381188E+01  0.11577673718E+02  0.15079937042E+02  0.17770000000E+01 0.  1.
</event>
<event>
 6    1  0.6506903E-004  0.5041746E+03  0.7546771E-02  0.9390517E-01
        -11   -1    0    0    0    0  0.00000000000E+00  0.00000000000E+00  0.50000000000E+03  0.50000000000E+03  0.00000000000E+00 0.  1.
         11   -1    0    0    0    0 -0.00000000000E+00 -0.00000000000E+00 -0.50000000000E+03  0.50000000000E+03  0.00000000000E+00 0.  1.
        -11    1    1    2    0    0 -0.89972036145E+01  0.12159842416E+01  0.40787507346E+03  0.40797610694E+03  0.00000000000E+00 0.  1.
         11    1    1    2    0    0  0.17606266320E+02  0.24016443695E+02 -0.49493035679E+03  0.49582540097E+03  0.00000000000E+00 0.  1.
        -15    1    1    2    0    0 -0.20012346552E+02 -0.19578604932E+02  0.58007463335E+02  0.64434767922E+02  0.17770000000E+01 0.  1.
         15    1    1    2    0    0  0.11403283847E+02 -0.56538230043E+01  0.29047819995E+02  0.31763724160E+02  0.17770000000E+01 0. -1.
</event>
<event>
 6    1  0.6506903E-004  0.5014093E+03  0.7546771E-02  0.9396662E-01
        -11   -1    0    0    0    0  0.00000000000E+00  0.00000000000E+00  0.50000000000E+03  0.50000000000E+03  0.00000000000E+00 0. -1.
         11   -1    0    0    0    0 -0.00000000000E+00 -0.00000000000E+00 -0.50000000000E+03  0.50000000000E+03  0.00000000000E+00 0. -1.
        -11    1    1    2    0    0 -0.13133422250E+02 -0.98611117001E+01  0.39589770833E+03  0.39623821593E+03  0.00000000000E+00 0. -1.
         11    1    1    2    0    0 -0.63491381974E+01  0.23222612419E+02 -0.49800912353E+03  0.49859070228E+03  0.00000000000E+00 0. -1.
        -15    1    1    2    0    0  0.14383478242E+02 -0.52027837802E+01  0.62979069851E+02  0.64834206818E+02  0.17770000000E+01 0. -1.
         15    1    1    2    0    0  0.50990822053E+01 -0.81587169384E+01  0.39132345349E+02  0.40336874977E+02  0.17770000000E+01 0.  1.
</event>
<event>
 6    1  0.6506903E-004  0.4900699E+03  0.7546771E-02  0.9422307E-01
        -11   -1    0    0    0    0  0.00000000000E+00  0.00000000000E+00  0.50000000000E+03  0.50000000000E+03  0.00000000000E+00 0.  1.
         11   -1    0    0    0    0 -0.00000000000E+00 -0.00000000000E+00 -0.50000000000E+03  0.50000000000E+03  0.00000000000E+00 0. -1.
        -11    1    1    2    0    0 -0.67685274770E+01  0.63822513902E+01  0.48555286725E+03  0.48564198026E+03  0.00000000000E+00 0.  1.
         11    1    1    2    0    0  0.16876159618E+02 -0.46724238834E+01  0.89920027754E+01  0.19684827211E+02  0.00000000000E+00 0. -1.
        -15    1    1    2    0    0 -0.46134185916E+01 -0.20669190395E+01 -0.27438873861E+03  0.27444105631E+03  0.17770000000E+01 0.  1.
         15    1    1    2    0    0 -0.54942135495E+01  0.35709153265E+00 -0.22015613141E+03  0.22023213622E+03  0.17770000000E+01 0. -1.
</event>
<event>
 6    1  0.6506903E-004  0.5025927E+03  0.7546771E-02  0.9394027E-01
        -11   -1    0    0    0    0  0.00000000000E+00  0.00000000000E+00  0.50000000000E+03  0.50000000000E+03  0.00000000000E+00 0. -1.
         11   -1    0    0    0    0 -0.00000000000E+00 -0.00000000000E+00 -0.50000000000E+03  0.50000000000E+03  0.00000000000E+00 0.  1.
        -11    1    1    2    0    0 -0.66349269935E+01  0.28229772816E+01  0.49735505925E+03  0.49740732445E+03  0.00000000000E+00 0. -1.
         11    1    1    2    0    0  0.15930312324E+02 -0.42705349046E+01 -0.46205008769E+03  0.46234434770E+03  0.00000000000E+00 0.  1.
        -15    1    1    2    0    0 -0.11538181472E+02 -0.28983424871E+01 -0.31734773803E+02  0.33937937742E+02  0.17770000000E+01 0. -1.
         15    1    1    2    0    0  0.22427961411E+01  0.43459001102E+01 -0.35701977560E+01  0.63103901080E+01  0.17770000000E+01 0.  1.
</event>
<event>
 6    1  0.6506903E-004  0.4917160E+03  0.7546771E-02  0.9418539E-01
        -11   -1    0    0    0    0  0.00000000000E+00  0.00000000000E+00  0.50000000000E+03  0.50000000000E+03  0.00000000000E+00 0.  1.
         11   -1    0    0    0    0 -0.00000000000E+00 -0.00000000000E+00 -0.50000000000E+03  0.50000000000E+03  0.00000000000E+00 0. -1.
        -11    1    1    2    0    0 -0.66098889292E+01  0.80589644878E+00  0.48960478927E+03  0.48965006870E+03  0.00000000000E+00 0.  1.
         11    1    1    2    0    0 -0.54161851481E+01  0.61353487999E+01 -0.49382121303E+03  0.49388902398E+03  0.00000000000E+00 0. -1.
        -15    1    1    2    0    0  0.69375650471E+01 -0.75976486120E+01  0.22088554854E+01  0.10671965366E+02  0.17770000000E+01 0.  1.
         15    1    1    2    0    0  0.50885090303E+01  0.65640336329E+00  0.20075682738E+01  0.57889419500E+01  0.17770000000E+01 0. -1.
</event>
<event>
 6    1  0.6506903E-004  0.5013980E+03  0.7546771E-02  0.9396687E-01
        -11   -1    0    0    0    0  0.00000000000E+00  0.00000000000E+00  0.50000000000E+03  0.50000000000E+03  0.00000000000E+00 0.  1.
         11   -1    0    0    0    0 -0.00000000000E+00 -0.00000000000E+00 -0.50000000000E+03  0.50000000000E+03  0.00000000000E+00 0.  1.
        -11    1    1    2    0    0 -0.10122919482E+02 -0.27127491130E+02  0.49776057335E+03  0.49860200827E+03  0.00000000000E+00 0.  1.
         11    1    1    2    0    0  0.25576865655E+02  0.14140223165E+02 -0.17934137302E+03  0.18170704457E+03  0.00000000000E+00 0.  1.
        -15    1    1    2    0    0 -0.15840191737E+02  0.12078027057E+02 -0.31550176045E+03  0.31613495376E+03  0.17770000000E+01 0.  1.
         15    1    1    2    0    0  0.38624556404E+00  0.90924090779E+00 -0.29174398697E+01  0.35559933996E+01  0.17770000000E+01 0. -1.
</event>
<event>
 6    1  0.6506903E-004  0.5002796E+03  0.7546771E-02  0.9399184E-01
        -11   -1    0    0    0    0  0.00000000000E+00  0.00000000000E+00  0.50000000000E+03  0.50000000000E+03  0.00000000000E+00 0. -1.
         11   -1    0    0    0    0 -0.00000000000E+00 -0.00000000000E+00 -0.50000000000E+03  0.50000000000E+03  0.00000000000E+00 0. -1.
        -11    1    1    2    0    0  0.12038213350E+02  0.15487236798E+02  0.15131233706E+03  0.15257849269E+03  0.00000000000E+00 0. -1.
         11    1    1    2    0    0 -0.20182427685E+02 -0.24893812385E+02 -0.49869173736E+03  0.49972040302E+03  0.00000000000E+00 0. -1.
        -15    1    1    2    0    0 -0.56771499784E+00  0.46886769333E+00  0.24379311286E+02  0.24455074831E+02  0.17770000000E+01 0. -1.
         15    1    1    2    0    0  0.87119293330E+01  0.89377078939E+01  0.32300008901E+03  0.32324602947E+03  0.17770000000E+01 0. -1.
</event>
<event>
 6    1  0.6506903E-004  0.4543982E+03  0.7546771E-02  0.9508059E-01
        -11   -1    0    0    0    0  0.00000000000E+00  0.00000000000E+00  0.50000000000E+03  0.50000000000E+03  0.00000000000E+00 0. -1.
         11   -1    0    0    0    0 -0.00000000000E+00 -0.00000000000E+00 -0.50000000000E+03  0.50000000000E+03  0.00000000000E+00 0. -1.
        -11    1    1    2    0    0  0.72623503107E+01  0.89312032216E+01  0.44721588661E+03  0.44736400990E+03  0.00000000000E+00 0. -1.
         11    1    1    2    0    0  0.42638755928E+02  0.28355865010E+02 -0.46083020483E+03  0.46366647093E+03  0.00000000000E+00 0. -1.
        -15    1    1    2    0    0 -0.13088400597E+01 -0.35840004774E+01  0.27810449985E+02  0.28127157323E+02  0.17770000000E+01 0. -1.
         15    1    1    2    0    0 -0.48592266179E+02 -0.33703067755E+02 -0.14196131766E+02  0.60842361842E+02  0.17770000000E+01 0.  1.
</event>
<event>
 6    1  0.6506903E-004  0.5055087E+03  0.7546771E-02  0.9387567E-01
        -11   -1    0    0    0    0  0.00000000000E+00  0.00000000000E+00  0.50000000000E+03  0.50000000000E+03  0.00000000000E+00 0. -1.
         11   -1    0    0    0    0 -0.00000000000E+00 -0.00000000000E+00 -0.50000000000E+03  0.50000000000E+03  0.00000000000E+00 0. -1.
        -11    1    1    2    0    0 -0.11564014848E+02  0.14856657410E+02  0.49413279192E+03  0.49449131718E+03  0.00000000000E+00 0. -1.
         11    1    1    2    0    0  0.20097100682E+02  0.21921788999E+02 -0.35919739213E+03  0.36042644853E+03  0.00000000000E+00 0. -1.
        -15    1    1    2    0    0 -0.16176911714E+02 -0.19203421974E+02 -0.11356749855E+03  0.11632367921E+03  0.17770000000E+01 0.  1.
         15    1    1    2    0    0  0.76438258802E+01 -0.17575024435E+02 -0.21367901242E+02  0.28758555083E+02  0.17770000000E+01 0. -1.
</event>
<event>
 6    1  0.6506903E-004  0.5034878E+03  0.7546771E-02  0.9392039E-01
        -11   -1    0    0    0    0  0.00000000000E+00  0.00000000000E+00  0.50000000000E+03  0.50000000000E+03  0.00000000000E+00 0.  1.
         11   -1    0    0    0    0 -0.00000000000E+00 -0.00000000000E+00 -0.50000000000E+03  0.50000000000E+03  0.00000000000E+00 0. -1.
        -11    1    1    2    0    0  0.32352820446E+02 -0.13627562787E+03  0.47634716216E+03  0.49651220593E+03  0.00000000000E+00 0.  1.
         11    1    1    2    0    0 -0.26020264222E+02  0.11632840094E+03 -0.26274958868E+03  0.28852503768E+03  0.00000000000E+00 0. -1.
        -15    1    1    2    0    0  0.24525083329E+01  0.92349485828E+01 -0.10987030892E+03  0.11029932722E+03  0.17770000000E+01 0. -1.
         15    1    1    2    0    0 -0.87850645572E+01  0.10712278355E+02 -0.10372726455E+03  0.10466342917E+03  0.17770000000E+01 0.  1.
</event>
<event>
 6    1  0.6506903E-004  0.5001290E+03  0.7546771E-02  0.9399521E-01
        -11   -1    0    0    0    0  0.00000000000E+00  0.00000000000E+00  0.50000000000E+03  0.50000000000E+03  0.00000000000E+00 0. -1.
         11   -1    0    0    0    0 -0.00000000000E+00 -0.00000000000E+00 -0.50000000000E+03  0.50000000000E+03  0.00000000000E+00 0.  1.
        -11    1    1    2    0    0  0.46732203888E+01 -0.13297822236E+01  0.29360159991E+03  0.29364180012E+03  0.00000000000E+00 0. -1.
         11    1    1    2    0    0 -0.36758011493E+01 -0.72852628052E+01 -0.49980441251E+03  0.49987102069E+03  0.00000000000E+00 0.  1.
        -15    1    1    2    0    0 -0.59396745501E+00  0.14237218788E+01  0.20220760248E+02  0.20357226121E+02  0.17770000000E+01 0. -1.
         15    1    1    2    0    0 -0.40345178448E+00  0.71913231500E+01  0.18598205235E+03  0.18612995306E+03  0.17770000000E+01 0.  1.
</event>
<event>
 6    1  0.6506903E-004  0.4875157E+03  0.7546771E-02  0.9428186E-01
        -11   -1    0    0    0    0  0.00000000000E+00  0.00000000000E+00  0.50000000000E+03  0.50000000000E+03  0.00000000000E+00 0. -1.
         11   -1    0    0    0    0 -0.00000000000E+00 -0.00000000000E+00 -0.50000000000E+03  0.50000000000E+03  0.00000000000E+00 0.  1.
        -11    1    1    2    0    0  0.73638821403E+01  0.41891544781E+01  0.49081714875E+03  0.49089026195E+03  0.00000000000E+00 0. -1.
         11    1    1    2    0    0 -0.76726264196E+01 -0.22264753782E+02 -0.21371019307E+02  0.31801083682E+02  0.00000000000E+00 0.  1.
        -15    1    1    2    0    0  0.30392594754E+02 -0.20264005904E+02 -0.16712701420E+03  0.17108166575E+03  0.17770000000E+01 0.  1.
         15    1    1    2    0    0 -0.30083850475E+02  0.38339605208E+02 -0.30231911524E+03  0.30622698862E+03  0.17770000000E+01 0. -1.
</event>
<event>
 6    1  0.6506903E-004  0.4636516E+03  0.7546771E-02  0.9485029E-01
        -11   -1    0    0    0    0  0.00000000000E+00  0.00000000000E+00  0.50000000000E+03  0.50000000000E+03  0.00000000000E+00 0.  1.
         11   -1    0    0    0    0 -0.00000000000E+00 -0.00000000000E+00 -0.50000000000E+03  0.50000000000E+03  0.00000000000E+00 0. -1.
        -11    1    1    2    0    0 -0.14755278286E+02 -0.89277060505E+01  0.46297925897E+03  0.46330035227E+03  0.00000000000E+00 0.  1.
         11    1    1    2    0    0 -0.48428883682E+02  0.12865328100E+02 -0.46346053398E+03  0.46616149562E+03  0.00000000000E+00 0. -1.
        -15    1    1    2    0    0  0.17245399302E+02  0.11144762033E+02  0.68912264270E+01  0.21731457579E+02  0.17770000000E+01 0.  1.
         15    1    1    2    0    0  0.45938762666E+02 -0.15082384083E+02 -0.64099514167E+01  0.48806694531E+02  0.17770000000E+01 0. -1.
</event>
<event>
 6    1  0.6506903E-004  0.5009541E+03  0.7546771E-02  0.9397677E-01
        -11   -1    0    0    0    0  0.00000000000E+00  0.00000000000E+00  0.50000000000E+03  0.50000000000E+03  0.00000000000E+00 0. -1.
         11   -1    0    0    0    0 -0.00000000000E+00 -0.00000000000E+00 -0.50000000000E+03  0.50000000000E+03  0.00000000000E+00 0. -1.
        -11    1    1    2    0    0  0.14459688880E+01 -0.13321354176E+02  0.49886594134E+03  0.49904586636E+03  0.00000000000E+00 0. -1.
         11    1    1    2    0    0 -0.13445858679E+02 -0.27813590776E+01 -0.59842282185E+02  0.61397278531E+02  0.00000000000E+00 0. -1.
        -15    1    1    2    0    0  0.11776969985E+00  0.27577041964E+01 -0.10457009825E+03  0.10462161335E+03  0.17770000000E+01 0.  1.
         15    1    1    2    0    0  0.11882120091E+02  0.13345009057E+02 -0.33445356090E+03  0.33493524176E+03  0.17770000000E+01 0. -1.
</event>
<event>
 6    1  0.6506903E-004  0.5003332E+03  0.7546771E-02  0.9399065E-01
        -11   -1    0    0    0    0  0.00000000000E+00  0.00000000000E+00  0.50000000000E+03  0.50000000000E+03  0.00000000000E+00 0.  1.
         11   -1    0    0    0    0 -0.00000000000E+00 -0.00000000000E+00 -0.50000000000E+03  0.50000000000E+03  0.00000000000E+00 0.  1.
        -11    1    1    2    0    0  0.11885231983E+02  0.41244191809E+01  0.49950843806E+03  0.49966683827E+03  0.00000000000E+00 0.  1.
         11    1    1    2    0    0 -0.42098353620E+01 -0.60242948520E+01 -0.13219473369E+03  0.13239887635E+03  0.00000000000E+00 0.  1.
        -15    1    1    2    0    0 -0.39323395956E+01  0.32474781489E+01 -0.35121093983E+03  0.35125246105E+03  0.17770000000E+01 0.  1.
         15    1    1    2    0    0 -0.37430570255E+01 -0.13476024778E+01 -0.16102764534E+02  0.16681824329E+02  0.17770000000E+01 0. -1.
</event>
<event>
 6    1  0.6506903E-004  0.5006172E+03  0.7546771E-02  0.9398430E-01
        -11   -1    0    0    0    0  0.00000000000E+00  0.00000000000E+00  0.50000000000E+03  0.50000000000E+03  0.00000000000E+00 0.  1.
         11   -1    0    0    0    0 -0.00000000000E+00 -0.00000000000E+00 -0.50000000000E+03  0.50000000000E+03  0.00000000000E+00 0.  1.
        -11    1    1    2    0    0 -0.66704614866E+01  0.15338520308E+01  0.49933588130E+03  0.49938278916E+03  0.00000000000E+00 0.  1.
         11    1    1    2    0    0 -0.57109125154E+01 -0.31108454187E+01 -0.42824040829E+03  0.42828978411E+03  0.00000000000E+00 0.  1.
        -15    1    1    2    0    0  0.54740442108E+01 -0.71513218657E+00 -0.30489757402E+02  0.31036423916E+02  0.17770000000E+01 0. -1.
         15    1    1    2    0    0  0.69073297912E+01  0.22921255745E+01 -0.40605715610E+02  0.41291002817E+02  0.17770000000E+01 0.  1.
</event>
<event>
 6    1  0.6506903E-004  0.5148086E+03  0.7546771E-02  0.9367271E-01
        -11   -1    0    0    0    0  0.00000000000E+00  0.00000000000E+00  0.50000000000E+03  0.50000000000E+03  0.00000000000E+00 0.  1.
         11   -1    0    0    0    0 -0.00000000000E+00 -0.00000000000E+00 -0.50000000000E+03  0.50000000000E+03  0.00000000000E+00 0.  1.
        -11    1    1    2    0    0  0.10230144196E+02  0.61201948805E+01  0.47829210011E+03  0.47844063965E+03  0.00000000000E+00 0.  1.
         11    1    1    2    0    0 -0.10007637109E+02 -0.10856425079E+02 -0.48496670881E+03  0.48519142966E+03  0.00000000000E+00 0.  1.
        -15    1    1    2    0    0  0.12298501050E+02  0.10153242029E+02  0.13536607487E+02  0.20993782961E+02  0.17770000000E+01 0. -1.
         15    1    1    2    0    0 -0.12521008137E+02 -0.54170118306E+01 -0.68619987919E+01  0.15374147728E+02  0.17770000000E+01 0.  1.
</event>
<event>
 6    1  0.6506903E-004  0.5012247E+03  0.7546771E-02  0.9397074E-01
        -11   -1    0    0    0    0  0.00000000000E+00  0.00000000000E+00  0.50000000000E+03  0.50000000000E+03  0.00000000000E+00 0. -1.
         11   -1    0    0    0    0 -0.00000000000E+00 -0.00000000000E+00 -0.50000000000E+03  0.50000000000E+03  0.00000000000E+00 0. -1.
        -11    1    1    2    0    0 -0.35039027028E+01  0.10651760435E+02  0.17297049490E+03  0.17333357851E+03  0.00000000000E+00 0. -1.
         11    1    1    2    0    0 -0.44007604699E+02 -0.75891066358E+01 -0.49677211915E+03  0.49877530229E+03  0.00000000000E+00 0. -1.
        -15    1    1    2    0    0  0.14634444412E+02  0.16810966567E+01  0.16364947575E+03  0.16432072813E+03  0.17770000000E+01 0. -1.
         15    1    1    2    0    0  0.32877062989E+02 -0.47437504555E+01  0.16015214850E+03  0.16357039108E+03  0.17770000000E+01 0.  1.
</event>
<event>
 6    1  0.6506903E-004  0.5082221E+03  0.7546771E-02  0.9381598E-01
        -11   -1    0    0    0    0  0.00000000000E+00  0.00000000000E+00  0.50000000000E+03  0.50000000000E+03  0.00000000000E+00 0. -1.
         11   -1    0    0    0    0 -0.00000000000E+00 -0.00000000000E+00 -0.50000000000E+03  0.50000000000E+03  0.00000000000E+00 0.  1.
        -11    1    1    2    0    0 -0.86116755503E+01  0.17699533585E+01  0.49169934095E+03  0.49177793320E+03  0.00000000000E+00 0. -1.
         11    1    1    2    0    0 -0.47375344439E+02 -0.16733316553E+02 -0.27195082407E+03  0.27655320981E+03  0.00000000000E+00 0.  1.
        -15    1    1    2    0    0  0.59090297789E+02  0.20078064037E+02 -0.21484312113E+03  0.22373090170E+03  0.17770000000E+01 0.  1.
         15    1    1    2    0    0 -0.31032777995E+01 -0.51147008432E+01 -0.49053957477E+01  0.79379552946E+01  0.17770000000E+01 0. -1.
</event>
<event>
 6    1  0.6506903E-004  0.5001219E+03  0.7546771E-02  0.9399537E-01
        -11   -1    0    0    0    0  0.00000000000E+00  0.00000000000E+00  0.50000000000E+03  0.50000000000E+03  0.00000000000E+00 0. -1.
         11   -1    0    0    0    0 -0.00000000000E+00 -0.00000000000E+00 -0.50000000000E+03  0.50000000000E+03  0.00000000000E+00 0. -1.
        -11    1    1    2    0    0  0.14577177991E+01  0.12258923028E+02  0.49972563108E+03  0.49987809763E+03  0.00000000000E+00 0. -1.
         11    1    1    2    0    0 -0.58513877686E+01 -0.11022712895E+02 -0.30807353133E+03  0.30832619033E+03  0.00000000000E+00 0. -1.
        -15    1    1    2    0    0  0.14257049117E+01  0.15232340421E+01 -0.50541008249E+02  0.50615255805E+02  0.17770000000E+01 0.  1.
         15    1    1    2    0    0  0.29679650578E+01 -0.27594441744E+01 -0.14111109150E+03  0.14118045623E+03  0.17770000000E+01 0. -1.
</event>
<event>
 6    1  0.6506903E-004  0.5013209E+03  0.7546771E-02  0.9396859E-01
        -11   -1    0    0    0    0  0.00000000000E+00  0.00000000000E+00  0.50000000000E+03  0.50000000000E+03  0.00000000000E+00 0. -1.
         11   -1    0    0    0    0 -0.00000000000E+00 -0.00000000000E+00 -0.50000000000E+03  0.50000000000E+03  0.00000000000E+00 0. -1.
        -11    1    1    2    0    0  0.83253742988E+00 -0.12456311718E+02  0.49852280687E+03  0.49867909700E+03  0.00000000000E+00 0. -1.
         11    1    1    2    0    0 -0.17652747955E+02 -0.11151899293E+02 -0.24321439714E+03  0.24410904806E+03  0.00000000000E+00 0. -1.
        -15    1    1    2    0    0  0.13999094144E+02  0.23949804115E+02 -0.23317626465E+03  0.23482737464E+03  0.17770000000E+01 0.  1.
         15    1    1    2    0    0  0.28211163816E+01 -0.34159310466E+00 -0.22132145075E+02  0.22384480295E+02  0.17770000000E+01 0. -1.
</event>
<event>
 6    1  0.6506903E-004  0.4870131E+03  0.7546771E-02  0.9429347E-01
        -11   -1    0    0    0    0  0.00000000000E+00  0.00000000000E+00  0.50000000000E+03  0.50000000000E+03  0.00000000000E+00 0. -1.
         11   -1    0    0    0    0 -0.00000000000E+00 -0.00000000000E+00 -0.50000000000E+03  0.50000000000E+03  0.00000000000E+00 0. -1.
        -11    1    1    2    0    0  0.45791954896E+01  0.49987986047E+01  0.48993919848E+03  0.48998609697E+03  0.00000000000E+00 0. -1.
         11    1    1    2    0    0 -0.14001716976E+02 -0.15940893408E+02 -0.48370205436E+03  0.48416715869E+03  0.00000000000E+00 0. -1.
        -15    1    1    2    0    0  0.15595788682E+02  0.84772271104E+01 -0.64312818151E+01  0.18963415274E+02  0.17770000000E+01 0. -1.
         15    1    1    2    0    0 -0.61732671952E+01  0.24648676929E+01  0.19413769947E+00  0.68833290677E+01  0.17770000000E+01 0.  1.
</event>
<event>
 6    1  0.6506903E-004  0.5013278E+03  0.7546771E-02  0.9396844E-01
        -11   -1    0    0    0    0  0.00000000000E+00  0.00000000000E+00  0.50000000000E+03  0.50000000000E+03  0.00000000000E+00 0. -1.
         11   -1    0    0    0    0 -0.00000000000E+00 -0.00000000000E+00 -0.50000000000E+03  0.50000000000E+03  0.00000000000E+00 0. -1.
        -11    1    1    2    0    0 -0.63919709576E+01 -0.69655662957E+01  0.49858262169E+03  0.49867224412E+03  0.00000000000E+00 0. -1.
         11    1    1    2    0    0  0.11362339015E+02  0.25954680518E+01 -0.24617182007E+02  0.27236828969E+02  0.00000000000E+00 0. -1.
        -15    1    1    2    0    0  0.11687755573E+01  0.12549391789E+01 -0.45854547588E+02  0.45920999250E+02  0.17770000000E+01 0.  1.
         15    1    1    2    0    0 -0.61391436151E+01  0.31151590651E+01 -0.42811089209E+03  0.42816992766E+03  0.17770000000E+01 0. -1.
</event>
<event>
 6    1  0.6506903E-004  0.5022188E+03  0.7546771E-02  0.9394859E-01
        -11   -1    0    0    0    0  0.00000000000E+00  0.00000000000E+00  0.50000000000E+03  0.50000000000E+03  0.00000000000E+00 0.  1.
         11   -1    0    0    0    0 -0.00000000000E+00 -0.00000000000E+00 -0.50000000000E+03  0.50000000000E+03  0.00000000000E+00 0.  1.
        -11    1    1    2    0    0 -0.61985831094E+01  0.45985660304E+01  0.47833409473E+03  0.47839635808E+03  0.00000000000E+00 0.  1.
         11    1    1    2    0    0  0.46532899701E+01  0.74516043882E+01 -0.49770371731E+03  0.49778124687E+03  0.00000000000E+00 0.  1.
        -15    1    1    2    0    0  0.82384492876E-01 -0.89997080118E+01  0.93506588607E+01  0.13099392415E+02  0.17770000000E+01 0.  1.
         15    1    1    2    0    0  0.14629086465E+01 -0.30504624068E+01  0.10018963712E+02  0.10723002633E+02  0.17770000000E+01 0. -1.
</event>
<event>
 6    1  0.6506903E-004  0.4826433E+03  0.7546771E-02  0.9439507E-01
        -11   -1    0    0    0    0  0.00000000000E+00  0.00000000000E+00  0.50000000000E+03  0.50000000000E+03  0.00000000000E+00 0.  1.
         11   -1    0    0    0    0 -0.00000000000E+00 -0.00000000000E+00 -0.50000000000E+03  0.50000000000E+03  0.00000000000E+00 0. -1.
        -11    1    1    2    0    0  0.30007076226E+01  0.64384558635E+01  0.47736167191E+03  0.47741451985E+03  0.00000000000E+00 0.  1.
         11    1    1    2    0    0  0.17699704342E+02  0.16997345585E+02 -0.48781816163E+03  0.48843499886E+03  0.00000000000E+00 0. -1.
        -15    1    1    2    0    0 -0.20208553058E+02 -0.19645627602E+02  0.84136516397E+01  0.29466651718E+02  0.17770000000E+01 0. -1.
         15    1    1    2    0    0 -0.49185890737E+00 -0.37901738457E+01  0.20428380858E+01  0.46838295667E+01  0.17770000000E+01 0.  1.
</event>
<event>
 6    1  0.6506903E-004  0.5001052E+03  0.7546771E-02  0.9399574E-01
        -11   -1    0    0    0    0  0.00000000000E+00  0.00000000000E+00  0.50000000000E+03  0.50000000000E+03  0.00000000000E+00 0. -1.
         11   -1    0    0    0    0 -0.00000000000E+00 -0.00000000000E+00 -0.50000000000E+03  0.50000000000E+03  0.00000000000E+00 0. -1.
        -11    1    1    2    0    0  0.74061926763E+01 -0.23346243567E+01  0.49983448920E+03  0.49989480769E+03  0.00000000000E+00 0. -1.
         11    1    1    2    0    0 -0.78598727273E+01  0.10539148262E+01 -0.25069962778E+03  0.25082502209E+03  0.00000000000E+00 0. -1.
        -15    1    1    2    0    0  0.26420245277E+01 -0.50518876349E+00 -0.43913392511E+02  0.44031571402E+02  0.17770000000E+01 0.  1.
         15    1    1    2    0    0 -0.21883444767E+01  0.17858982940E+01 -0.20522146891E+03  0.20524859882E+03  0.17770000000E+01 0. -1.
</event>
<event>
 6    1  0.6506903E-004  0.5000972E+03  0.7546771E-02  0.9399592E-01
        -11   -1    0    0    0    0  0.00000000000E+00  0.00000000000E+00  0.50000000000E+03  0.50000000000E+03  0.00000000000E+00 0.  1.
         11   -1    0    0    0    0 -0.00000000000E+00 -0.00000000000E+00 -0.50000000000E+03  0.50000000000E+03  0.00000000000E+00 0.  1.
        -11    1    1    2    0    0 -0.45703091009E+01 -0.32344512285E+02  0.49883441271E+03  0.49990281706E+03  0.00000000000E+00 0.  1.
         11    1    1    2    0    0  0.18901518394E+01  0.27967762012E+02 -0.34725789077E+03  0.34838744393E+03  0.00000000000E+00 0.  1.
        -15    1    1    2    0    0  0.18237288797E+01  0.22183450965E+01 -0.71192753051E+02  0.71272805879E+02  0.17770000000E+01 0.  1.
         15    1    1    2    0    0  0.85642838173E+00  0.21584051758E+01 -0.80383768885E+02  0.80436933132E+02  0.17770000000E+01 0.  1.
</event>
<event>
 6    1  0.6506903E-004  0.5002755E+03  0.7546771E-02  0.9399193E-01
        -11   -1    0    0    0    0  0.00000000000E+00  0.00000000000E+00  0.50000000000E+03  0.50000000000E+03  0.00000000000E+00 0.  1.
         11   -1    0    0    0    0 -0.00000000000E+00 -0.00000000000E+00 -0.50000000000E+03  0.50000000000E+03  0.00000000000E+00 0.  1.
        -11    1    1    2    0    0 -0.11044383312E+01  0.55951484885E+01  0.36700097627E+03  0.36704528611E+03  0.00000000000E+00 0.  1.
         11    1    1    2    0    0  0.20742663408E+01 -0.16752036352E+02 -0.49943930096E+03  0.49972447273E+03  0.00000000000E+00 0.  1.
        -15    1    1    2    0    0 -0.25464776140E+01  0.74699770259E+01  0.11361698399E+03  0.11390461749E+03  0.17770000000E+01 0.  1.
         15    1    1    2    0    0  0.15766496044E+01  0.36869108381E+01  0.18821340699E+02  0.19325623669E+02  0.17770000000E+01 0. -1.
</event>
<event>
 6    1  0.6506903E-004  0.5012860E+03  0.7546771E-02  0.9396937E-01
        -11   -1    0    0    0    0  0.00000000000E+00  0.00000000000E+00  0.50000000000E+03  0.50000000000E+03  0.00000000000E+00 0.  1.
         11   -1    0    0    0    0 -0.00000000000E+00 -0.00000000000E+00 -0.50000000000E+03  0.50000000000E+03  0.00000000000E+00 0.  1.
        -11    1    1    2    0    0 -0.63089510116E+01  0.45128656392E+01  0.38297526895E+03  0.38305381534E+03  0.00000000000E+00 0.  1.
         11    1    1    2    0    0  0.88134591621E+01  0.13355424549E+02 -0.49845724359E+03  0.49871401435E+03  0.00000000000E+00 0.  1.
        -15    1    1    2    0    0  0.40475076221E+01 -0.37211058953E+01  0.67557651737E+02  0.67804299158E+02  0.17770000000E+01 0.  1.
         15    1    1    2    0    0 -0.65520157726E+01 -0.14147184293E+02  0.47924322896E+02  0.50427871145E+02  0.17770000000E+01 0. -1.
</event>
<event>
 6    1  0.6506903E-004  0.4748127E+03  0.7546771E-02  0.9458002E-01
        -11   -1    0    0    0    0  0.00000000000E+00  0.00000000000E+00  0.50000000000E+03  0.50000000000E+03  0.00000000000E+00 0. -1.
         11   -1    0    0    0    0 -0.00000000000E+00 -0.00000000000E+00 -0.50000000000E+03  0.50000000000E+03  0.00000000000E+00 0. -1.
        -11    1    1    2    0    0 -0.90446329052E+01  0.14540800107E+01  0.48493962603E+03  0.48502614427E+03  0.00000000000E+00 0. -1.
         11    1    1    2    0    0  0.32783299995E+02  0.21465174208E+02 -0.46375582813E+03  0.46540838689E+03  0.00000000000E+00 0. -1.
        -15    1    1    2    0    0  0.56852273080E+01 -0.36966201102E+01  0.21600151565E+01  0.73355438966E+01  0.17770000000E+01 0.  1.
         15    1    1    2    0    0 -0.29423894398E+02 -0.19222634109E+02 -0.23343813052E+02  0.42229924940E+02  0.17770000000E+01 0. -1.
</event>
<event>
 6    1  0.6506903E-004  0.5083617E+03  0.7546771E-02  0.9381292E-01
        -11   -1    0    0    0    0  0.00000000000E+00  0.00000000000E+00  0.50000000000E+03  0.50000000000E+03  0.00000000000E+00 0. -1.
         11   -1    0    0    0    0 -0.00000000000E+00 -0.00000000000E+00 -0.50000000000E+03  0.50000000000E+03  0.00000000000E+00 0.  1.
        -11    1    1    2    0    0 -0.24023166204E+02 -0.27377627100E+02  0.49028724487E+03  0.49163831163E+03  0.00000000000E+00 0. -1.
         11    1    1    2    0    0  0.45424383696E+02  0.14478817382E+02 -0.57085393918E+02  0.74375755363E+02  0.00000000000E+00 0.  1.
        -15    1    1    2    0    0 -0.20958289865E+01  0.19232082099E+01 -0.34659773790E+02  0.34821672521E+02  0.17770000000E+01 0.  1.
         15    1    1    2    0    0 -0.19305388506E+02  0.10975601508E+02 -0.39854207716E+03  0.39916426049E+03  0.17770000000E+01 0.  1.
</event>
<event>
 6    1  0.6506903E-004  0.5032744E+03  0.7546771E-02  0.9392513E-01
        -11   -1    0    0    0    0  0.00000000000E+00  0.00000000000E+00  0.50000000000E+03  0.50000000000E+03  0.00000000000E+00 0. -1.
         11   -1    0    0    0    0 -0.00000000000E+00 -0.00000000000E+00 -0.50000000000E+03  0.50000000000E+03  0.00000000000E+00 0.  1.
        -11    1    1    2    0    0 -0.11670795139E+02 -0.44585383554E+00  0.49658830179E+03  0.49672562619E+03  0.00000000000E+00 0. -1.
         11    1    1    2    0    0  0.16866901051E+02 -0.11778564700E+02 -0.42017454031E+03  0.42067787113E+03  0.00000000000E+00 0.  1.
        -15    1    1    2    0    0  0.11256821573E+01 -0.15667477707E+01  0.16193048036E+01  0.30824885958E+01  0.17770000000E+01 0.  1.
         15    1    1    2    0    0 -0.63217880694E+01  0.13791166307E+02 -0.78033066280E+02  0.79514014077E+02  0.17770000000E+01 0. -1.
</event>
<event>
 6    1  0.6506903E-004  0.5012328E+03  0.7546771E-02  0.9397055E-01
        -11   -1    0    0    0    0  0.00000000000E+00  0.00000000000E+00  0.50000000000E+03  0.50000000000E+03  0.00000000000E+00 0.  1.
         11   -1    0    0    0    0 -0.00000000000E+00 -0.00000000000E+00 -0.50000000000E+03  0.50000000000E+03  0.00000000000E+00 0.  1.
        -11    1    1    2    0    0 -0.10416394073E+02 -0.45530817696E+01  0.49863764890E+03  0.49876721697E+03  0.00000000000E+00 0.  1.
         11    1    1    2    0    0  0.12175072838E+02 -0.16912773065E+02 -0.35632950947E+03  0.35693836108E+03  0.00000000000E+00 0.  1.
        -15    1    1    2    0    0 -0.54972717685E+01  0.13667730246E+02 -0.97776206350E+02  0.98895758777E+02  0.17770000000E+01 0. -1.
         15    1    1    2    0    0  0.37385930037E+01  0.77981245877E+01 -0.44531933083E+02  0.45398663173E+02  0.17770000000E+01 0.  1.
</event>
<event>
 6    1  0.6506903E-004  0.5026876E+03  0.7546771E-02  0.9393816E-01
        -11   -1    0    0    0    0  0.00000000000E+00  0.00000000000E+00  0.50000000000E+03  0.50000000000E+03  0.00000000000E+00 0.  1.
         11   -1    0    0    0    0 -0.00000000000E+00 -0.00000000000E+00 -0.50000000000E+03  0.50000000000E+03  0.00000000000E+00 0.  1.
        -11    1    1    2    0    0  0.78161350679E+01  0.60933046143E+00  0.49725058985E+03  0.49731238911E+03  0.00000000000E+00 0.  1.
         11    1    1    2    0    0  0.14217719790E+01 -0.90449784377E+01 -0.47884124440E+03  0.47892877384E+03  0.00000000000E+00 0.  1.
        -15    1    1    2    0    0 -0.80885508193E+01  0.92510845705E+01 -0.17124684144E+02  0.21152299074E+02  0.17770000000E+01 0.  1.
         15    1    1    2    0    0 -0.11493562276E+01 -0.81543659419E+00 -0.12846613032E+01  0.26065379799E+01  0.17770000000E+01 0. -1.
</event>
<event>
 6    1  0.6506903E-004  0.5019029E+03  0.7546771E-02  0.9395562E-01
        -11   -1    0    0    0    0  0.00000000000E+00  0.00000000000E+00  0.50000000000E+03  0.50000000000E+03  0.00000000000E+00 0.  1.
         11   -1    0    0    0    0 -0.00000000000E+00 -0.00000000000E+00 -0.50000000000E+03  0.50000000000E+03  0.00000000000E+00 0. -1.
        -11    1    1    2    0    0 -0.59281812654E+01  0.74811376421E+01  0.41797737242E+03  0.41808634827E+03  0.00000000000E+00 0.  1.
         11    1    1    2    0    0 -0.13136760785E+02 -0.77398920514E+01 -0.49786369699E+03  0.49809712024E+03  0.00000000000E+00 0. -1.
        -15    1    1    2    0    0  0.78724639375E+01 -0.70685690263E+01  0.48138947578E+02  0.49319938762E+02  0.17770000000E+01 0.  1.
         15    1    1    2    0    0  0.11192478112E+02  0.73273234356E+01  0.31747376986E+02  0.34496592724E+02  0.17770000000E+01 0. -1.
</event>
<event>
 6    1  0.6506903E-004  0.5001689E+03  0.7546771E-02  0.9399432E-01
        -11   -1    0    0    0    0  0.00000000000E+00  0.00000000000E+00  0.50000000000E+03  0.50000000000E+03  0.00000000000E+00 0. -1.
         11   -1    0    0    0    0 -0.00000000000E+00 -0.00000000000E+00 -0.50000000000E+03  0.50000000000E+03  0.00000000000E+00 0. -1.
        -11    1    1    2    0    0  0.60764155192E+01 -0.11512118852E+02  0.49966156774E+03  0.49983110546E+03  0.00000000000E+00 0. -1.
         11    1    1    2    0    0  0.15604976809E+01  0.12109762769E+02 -0.19662361782E+03  0.19700235682E+03  0.00000000000E+00 0. -1.
        -15    1    1    2    0    0 -0.52614514623E+01  0.65911779493E+00 -0.20057088467E+03  0.20064883457E+03  0.17770000000E+01 0. -1.
         15    1    1    2    0    0 -0.23754617378E+01 -0.12567617116E+01 -0.10246706526E+03  0.10251770316E+03  0.17770000000E+01 0. -1.
</event>
<event>
 6    1  0.6506903E-004  0.5017797E+03  0.7546771E-02  0.9395836E-01
        -11   -1    0    0    0    0  0.00000000000E+00  0.00000000000E+00  0.50000000000E+03  0.50000000000E+03  0.00000000000E+00 0. -1.
         11   -1    0    0    0    0 -0.00000000000E+00 -0.00000000000E+00 -0.50000000000E+03  0.50000000000E+03  0.00000000000E+00 0. -1.
        -11    1    1    2    0    0  0.34372385970E+01  0.59214015010E+01  0.49817326543E+03  0.49822031270E+03  0.00000000000E+00 0. -1.
         11    1    1    2    0    0  0.33359534428E+00 -0.69894046298E+01 -0.49153734565E+03  0.49158714918E+03  0.00000000000E+00 0. -1.
        -15    1    1    2    0    0 -0.48732886557E+01 -0.36334826367E+00 -0.45803178317E+01  0.69295024874E+01  0.17770000000E+01 0. -1.
         15    1    1    2    0    0  0.11024547144E+01  0.14313513925E+01 -0.20556019396E+01  0.32630356327E+01  0.17770000000E+01 0. -1.
</event>
<event>
 6    1  0.6506903E-004  0.5004344E+03  0.7546771E-02  0.9398838E-01
        -11   -1    0    0    0    0  0.00000000000E+00  0.00000000000E+00  0.50000000000E+03  0.50000000000E+03  0.00000000000E+00 0.  1.
         11   -1    0    0    0    0 -0.00000000000E+00 -0.00000000000E+00 -0.50000000000E+03  0.50000000000E+03  0.00000000000E+00 0.  1.
        -11    1    1    2    0    0  0.46471544937E+01  0.81974562102E+01  0.49947669096E+03  0.49956557042E+03  0.00000000000E+00 0.  1.
         11    1    1    2    0    0  0.77475953712E+00  0.66984696225E+01 -0.32413720521E+03  0.32420733728E+03  0.00000000000E+00 0.  1.
        -15    1    1    2    0    0  0.53304799384E+00 -0.31984053442E+01 -0.21245451921E+02  0.21564806821E+02  0.17770000000E+01 0.  1.
         15    1    1    2    0    0 -0.59549620246E+01 -0.11697520489E+02 -0.15409403383E+03  0.15466228548E+03  0.17770000000E+01 0.  1.
</event>
<event>
 6    1  0.6506903E-004  0.5017286E+03  0.7546771E-02  0.9395950E-01
        -11   -1    0    0    0    0  0.00000000000E+00  0.00000000000E+00  0.50000000000E+03  0.50000000000E+03  0.00000000000E+00 0. -1.
         11   -1    0    0    0    0 -0.00000000000E+00 -0.00000000000E+00 -0.50000000000E+03  0.50000000000E+03  0.00000000000E+00 0.  1.
        -11    1    1    2    0    0  0.61101487627E+01  0.97221486937E+01  0.49813902183E+03  0.49827135094E+03  0.00000000000E+00 0. -1.
         11    1    1    2    0    0 -0.83900989352E+01 -0.72835802523E+01 -0.48854194495E+03  0.48866826813E+03  0.00000000000E+00 0.  1.
        -15    1    1    2    0    0  0.36710187238E+01 -0.29559974889E+01 -0.94884333275E+01  0.10742550704E+02  0.17770000000E+01 0. -1.
         15    1    1    2    0    0 -0.13910685514E+01  0.51742904754E+00 -0.10864355428E+00  0.23178302258E+01  0.17770000000E+01 0. -1.
</event>
<event>
 6    1  0.6506903E-004  0.5021978E+03  0.7546771E-02  0.9394905E-01
        -11   -1    0    0    0    0  0.00000000000E+00  0.00000000000E+00  0.50000000000E+03  0.50000000000E+03  0.00000000000E+00 0. -1.
         11   -1    0    0    0    0 -0.00000000000E+00 -0.00000000000E+00 -0.50000000000E+03  0.50000000000E+03  0.00000000000E+00 0.  1.
        -11    1    1    2    0    0  0.47824815000E+01 -0.13406251769E+02  0.38315534193E+03  0.38341963404E+03  0.00000000000E+00 0. -1.
         11    1    1    2    0    0  0.14237186987E+02  0.14277120202E+02 -0.49739366156E+03  0.49780215771E+03  0.00000000000E+00 0.  1.
        -15    1    1    2    0    0 -0.11733639730E+02 -0.70396093423E+01  0.10302372648E+03  0.10394364025E+03  0.17770000000E+01 0.  1.
         15    1    1    2    0    0 -0.72860287566E+01  0.61687409093E+01  0.11214593143E+02  0.14834568002E+02  0.17770000000E+01 0. -1.
</event>
<event>
 6    1  0.6506903E-004  0.5029848E+03  0.7546771E-02  0.9393156E-01
        -11   -1    0    0    0    0  0.00000000000E+00  0.00000000000E+00  0.50000000000E+03  0.50000000000E+03  0.00000000000E+00 0.  1.
         11   -1    0    0    0    0 -0.00000000000E+00 -0.00000000000E+00 -0.50000000000E+03  0.50000000000E+03  0.00000000000E+00 0.  1.
        -11    1    1    2    0    0  0.66526275348E+01 -0.29003397583E+01  0.37054445566E+03  0.37061551916E+03  0.00000000000E+00 0.  1.
         11    1    1    2    0    0 -0.24287021590E+02  0.32028370673E+02 -0.49538719096E+03  0.49701523610E+03  0.00000000000E+00 0.  1.
        -15    1    1    2    0    0  0.97591887636E+01 -0.33355762588E+02  0.10215406414E+03  0.10791876210E+03  0.17770000000E+01 0.  1.
         15    1    1    2    0    0  0.78752052911E+01  0.42277316732E+01  0.22688671165E+02  0.24450482648E+02  0.17770000000E+01 0. -1.
</event>
<event>
 6    1  0.6506903E-004  0.5110037E+03  0.7546771E-02  0.9375519E-01
        -11   -1    0    0    0    0  0.00000000000E+00  0.00000000000E+00  0.50000000000E+03  0.50000000000E+03  0.00000000000E+00 0.  1.
         11   -1    0    0    0    0 -0.00000000000E+00 -0.00000000000E+00 -0.50000000000E+03  0.50000000000E+03  0.00000000000E+00 0.  1.
        -11    1    1    2    0    0  0.87075807568E+02 -0.18476743621E+01  0.48117751948E+03  0.48899633477E+03  0.00000000000E+00 0.  1.
         11    1    1    2    0    0 -0.10747092415E+03  0.49397258536E+02 -0.31944542986E+03  0.34063979707E+03  0.00000000000E+00 0.  1.
        -15    1    1    2    0    0  0.14583377982E+02 -0.39367942873E+02 -0.14291064070E+03  0.14896012484E+03  0.17770000000E+01 0.  1.
         15    1    1    2    0    0  0.58117385975E+01 -0.81816413013E+01 -0.18821448917E+02  0.21403743323E+02  0.17770000000E+01 0. -1.
</event>
<event>
 6    1  0.6506903E-004  0.5119651E+03  0.7546771E-02  0.9373428E-01
        -11   -1    0    0    0    0  0.00000000000E+00  0.00000000000E+00  0.50000000000E+03  0.50000000000E+03  0.00000000000E+00 0.  1.
         11   -1    0    0    0    0 -0.00000000000E+00 -0.00000000000E+00 -0.50000000000E+03  0.50000000000E+03  0.00000000000E+00 0. -1.
        -11    1    1    2    0    0 -0.64448697940E+01  0.29482569663E+01  0.43864456570E+03  0.43870181625E+03  0.00000000000E+00 0.  1.
         11    1    1    2    0    0  0.20971440959E+02  0.39958626651E+02 -0.48594404172E+03  0.48803494226E+03  0.00000000000E+00 0. -1.
        -15    1    1    2    0    0 -0.16671913503E+02 -0.41213184703E+02  0.25624489784E+02  0.51344439805E+02  0.17770000000E+01 0. -1.
         15    1    1    2    0    0  0.21453423380E+01 -0.16936989143E+01  0.21674986243E+02  0.21918801687E+02  0.17770000000E+01 0.  1.
</event>
<event>
 6    1  0.6506903E-004  0.5000746E+03  0.7546771E-02  0.9399643E-01
        -11   -1    0    0    0    0  0.00000000000E+00  0.00000000000E+00  0.50000000000E+03  0.50000000000E+03  0.00000000000E+00 0.  1.
         11   -1    0    0    0    0 -0.00000000000E+00 -0.00000000000E+00 -0.50000000000E+03  0.50000000000E+03  0.00000000000E+00 0. -1.
        -11    1    1    2    0    0 -0.81640548038E+01  0.31210491290E+01  0.42353713919E+03  0.42362731382E+03  0.00000000000E+00 0.  1.
         11    1    1    2    0    0  0.11207502726E+02 -0.30818267666E+01 -0.49979026853E+03  0.49992541273E+03  0.00000000000E+00 0. -1.
        -15    1    1    2    0    0 -0.29693117177E+00  0.93558947820E+00  0.27629176005E+02  0.27703656645E+02  0.17770000000E+01 0. -1.
         15    1    1    2    0    0 -0.27465167508E+01 -0.97481184064E+00  0.48623953335E+02  0.48743616805E+02  0.17770000000E+01 0. -1.
</event>
<event>
 6    1  0.6506903E-004  0.5002166E+03  0.7546771E-02  0.9399325E-01
        -11   -1    0    0    0    0  0.00000000000E+00  0.00000000000E+00  0.50000000000E+03  0.50000000000E+03  0.00000000000E+00 0.  1.
         11   -1    0    0    0    0 -0.00000000000E+00 -0.00000000000E+00 -0.50000000000E+03  0.50000000000E+03  0.00000000000E+00 0.  1.
        -11    1    1    2    0    0 -0.96392552362E+01 -0.15899172793E+01  0.18240301983E+03  0.18266445938E+03  0.00000000000E+00 0.  1.
         11    1    1    2    0    0  0.56588134920E+01  0.15360794875E+02 -0.49951519643E+03  0.49978336072E+03  0.00000000000E+00 0.  1.
        -15    1    1    2    0    0  0.14603920360E+01 -0.15950441813E+01  0.12420559256E+03  0.12423712755E+03  0.17770000000E+01 0.  1.
         15    1    1    2    0    0  0.25200497082E+01 -0.12175833414E+02  0.19290658404E+03  0.19331505235E+03  0.17770000000E+01 0. -1.
</event>
<event>
 6    1  0.6506903E-004  0.5119296E+03  0.7546771E-02  0.9373505E-01
        -11   -1    0    0    0    0  0.00000000000E+00  0.00000000000E+00  0.50000000000E+03  0.50000000000E+03  0.00000000000E+00 0.  1.
         11   -1    0    0    0    0 -0.00000000000E+00 -0.00000000000E+00 -0.50000000000E+03  0.50000000000E+03  0.00000000000E+00 0.  1.
        -11    1    1    2    0    0  0.62657053487E+00  0.45377197839E+02  0.48595604261E+03  0.48807044371E+03  0.00000000000E+00 0.  1.
         11    1    1    2    0    0  0.14820508278E+02 -0.53712274199E+02 -0.36137224353E+03  0.36564265925E+03  0.00000000000E+00 0.  1.
        -15    1    1    2    0    0  0.80020060696E+01  0.28900868324E+02 -0.10546598663E+03  0.10966095183E+03  0.17770000000E+01 0. -1.
         15    1    1    2    0    0 -0.23449084883E+02 -0.20565791964E+02 -0.19117812452E+02  0.36625945215E+02  0.17770000000E+01 0.  1.
</event>
<event>
 6    1  0.6506903E-004  0.4684364E+03  0.7546771E-02  0.9473345E-01
        -11   -1    0    0    0    0  0.00000000000E+00  0.00000000000E+00  0.50000000000E+03  0.50000000000E+03  0.00000000000E+00 0. -1.
         11   -1    0    0    0    0 -0.00000000000E+00 -0.00000000000E+00 -0.50000000000E+03  0.50000000000E+03  0.00000000000E+00 0. -1.
        -11    1    1    2    0    0 -0.21933823470E+02  0.57233501364E+02  0.47767430495E+03  0.48159060197E+03  0.00000000000E+00 0. -1.
         11    1    1    2    0    0  0.21353925235E+02  0.46704909089E+02 -0.36883578278E+02  0.63227660106E+02  0.00000000000E+00 0. -1.
        -15    1    1    2    0    0 -0.47195781914E+01 -0.19143322910E+02 -0.31819850094E+02  0.37475349490E+02  0.17770000000E+01 0.  1.
         15    1    1    2    0    0  0.52994764263E+01 -0.84795087543E+02 -0.40897087658E+03  0.41770638844E+03  0.17770000000E+01 0. -1.
</event>
<event>
 6    1  0.6506903E-004  0.5007213E+03  0.7546771E-02  0.9398197E-01
        -11   -1    0    0    0    0  0.00000000000E+00  0.00000000000E+00  0.50000000000E+03  0.50000000000E+03  0.00000000000E+00 0. -1.
         11   -1    0    0    0    0 -0.00000000000E+00 -0.00000000000E+00 -0.50000000000E+03  0.50000000000E+03  0.00000000000E+00 0. -1.
        -11    1    1    2    0    0  0.32679675581E+01  0.96746109593E+01  0.49917429460E+03  0.49927873388E+03  0.00000000000E+00 0. -1.
         11    1    1    2    0    0 -0.11724732157E+02  0.17891868544E+01 -0.41643542601E+03  0.41660429015E+03  0.00000000000E+00 0. -1.
        -15    1    1    2    0    0  0.17802882318E+01 -0.45367336246E+01 -0.35364854002E+02  0.35743279169E+02  0.17770000000E+01 0.  1.
         15    1    1    2    0    0  0.66764763667E+01 -0.69270641890E+01 -0.47374014592E+02  0.48373696804E+02  0.17770000000E+01 0. -1.
</event>
<event>
 6    1  0.6506903E-004  0.5028850E+03  0.7546771E-02  0.9393377E-01
        -11   -1    0    0    0    0  0.00000000000E+00  0.00000000000E+00  0.50000000000E+03  0.50000000000E+03  0.00000000000E+00 0. -1.
         11   -1    0    0    0    0 -0.00000000000E+00 -0.00000000000E+00 -0.50000000000E+03  0.50000000000E+03  0.00000000000E+00 0. -1.
        -11    1    1    2    0    0  0.60092746926E+01 -0.45336406955E+01  0.49705798255E+03  0.49711497996E+03  0.00000000000E+00 0. -1.
         11    1    1    2    0    0  0.10232749950E+02  0.24663521447E+01 -0.45487999583E+03  0.45500176117E+03  0.00000000000E+00 0. -1.
        -15    1    1    2    0    0 -0.43168299573E+01  0.73372964645E+01 -0.10856953249E+02  0.13910503339E+02  0.17770000000E+01 0. -1.
         15    1    1    2    0    0 -0.11925194685E+02 -0.52700079137E+01 -0.31321033475E+02  0.33972755534E+02  0.17770000000E+01 0.  1.
</event>
<event>
 6    1  0.6506903E-004  0.5008126E+03  0.7546771E-02  0.9397993E-01
        -11   -1    0    0    0    0  0.00000000000E+00  0.00000000000E+00  0.50000000000E+03  0.50000000000E+03  0.00000000000E+00 0. -1.
         11   -1    0    0    0    0 -0.00000000000E+00 -0.00000000000E+00 -0.50000000000E+03  0.50000000000E+03  0.00000000000E+00 0. -1.
        -11    1    1    2    0    0  0.15290373355E+02 -0.17077751293E+02  0.49866084625E+03  0.49918742441E+03  0.00000000000E+00 0. -1.
         11    1    1    2    0    0 -0.14635966969E+02 -0.21747188855E+01 -0.93476414876E+02  0.94640271922E+02  0.00000000000E+00 0. -1.
        -15    1    1    2    0    0 -0.43463116008E+00  0.10109589642E+02 -0.60802086152E+02  0.61663961245E+02  0.17770000000E+01 0.  1.
         15    1    1    2    0    0 -0.21977522632E+00  0.91428805361E+01 -0.34438234522E+03  0.34450834242E+03  0.17770000000E+01 0. -1.
</event>
<event>
 6    1  0.6506903E-004  0.5003981E+03  0.7546771E-02  0.9398919E-01
        -11   -1    0    0    0    0  0.00000000000E+00  0.00000000000E+00  0.50000000000E+03  0.50000000000E+03  0.00000000000E+00 0.  1.
         11   -1    0    0    0    0 -0.00000000000E+00 -0.00000000000E+00 -0.50000000000E+03  0.50000000000E+03  0.00000000000E+00 0.  1.
        -11    1    1    2    0    0 -0.35066839803E+01 -0.27529023110E+01  0.28410331074E+03  0.28413828760E+03  0.00000000000E+00 0.  1.
         11    1    1    2    0    0 -0.84139020497E+01  0.13271329428E+02 -0.49935476542E+03  0.49960194524E+03  0.00000000000E+00 0.  1.
        -15    1    1    2    0    0  0.30823683063E+01 -0.87561667723E+00  0.12443597908E+03  0.12448991251E+03  0.17770000000E+01 0. -1.
         15    1    1    2    0    0  0.88382177236E+01 -0.96428104398E+01  0.90815475601E+02  0.91769854655E+02  0.17770000000E+01 0. -1.
</event>
<event>
 6    1  0.6506903E-004  0.5006073E+03  0.7546771E-02  0.9398452E-01
        -11   -1    0    0    0    0  0.00000000000E+00  0.00000000000E+00  0.50000000000E+03  0.50000000000E+03  0.00000000000E+00 0. -1.
         11   -1    0    0    0    0 -0.00000000000E+00 -0.00000000000E+00 -0.50000000000E+03  0.50000000000E+03  0.00000000000E+00 0. -1.
        -11    1    1    2    0    0  0.63715242420E+01  0.42891086971E+01  0.49933358331E+03  0.49939265132E+03  0.00000000000E+00 0. -1.
         11    1    1    2    0    0 -0.44319218155E+01  0.49826337868E+01 -0.33671227868E+03  0.33677830570E+03  0.00000000000E+00 0. -1.
        -15    1    1    2    0    0  0.60765998330E+01 -0.29100271107E+01 -0.29867345155E+02  0.30669355372E+02  0.17770000000E+01 0.  1.
         15    1    1    2    0    0 -0.80162022595E+01 -0.63617153732E+01 -0.13275395947E+03  0.13315968761E+03  0.17770000000E+01 0. -1.
</event>
<event>
 6    1  0.6506903E-004  0.5000472E+03  0.7546771E-02  0.9399704E-01
        -11   -1    0    0    0    0  0.00000000000E+00  0.00000000000E+00  0.50000000000E+03  0.50000000000E+03  0.00000000000E+00 0. -1.
         11   -1    0    0    0    0 -0.00000000000E+00 -0.00000000000E+00 -0.50000000000E+03  0.50000000000E+03  0.00000000000E+00 0.  1.
        -11    1    1    2    0    0  0.81812894013E+01 -0.54663890383E+01  0.49985601268E+03  0.49995284609E+03  0.00000000000E+00 0. -1.
         11    1    1    2    0    0 -0.78508878179E+01  0.33506045173E+01 -0.26955625495E+03  0.26969137468E+03  0.00000000000E+00 0.  1.
        -15    1    1    2    0    0  0.12284718620E+01  0.55823311578E+00 -0.92012227276E+02  0.92039276749E+02  0.17770000000E+01 0.  1.
         15    1    1    2    0    0 -0.15588734455E+01  0.15575514052E+01 -0.13828753045E+03  0.13831650248E+03  0.17770000000E+01 0.  1.
</event>
<event>
 6    1  0.6506903E-004  0.5036973E+03  0.7546771E-02  0.9391575E-01
        -11   -1    0    0    0    0  0.00000000000E+00  0.00000000000E+00  0.50000000000E+03  0.50000000000E+03  0.00000000000E+00 0.  1.
         11   -1    0    0    0    0 -0.00000000000E+00 -0.00000000000E+00 -0.50000000000E+03  0.50000000000E+03  0.00000000000E+00 0.  1.
        -11    1    1    2    0    0  0.65628599309E+01  0.16239340645E+01  0.49625669234E+03  0.49630274327E+03  0.00000000000E+00 0.  1.
         11    1    1    2    0    0  0.95435439332E+01 -0.99624270652E+01 -0.47233362128E+03  0.47253505582E+03  0.00000000000E+00 0.  1.
        -15    1    1    2    0    0 -0.95578122976E+01  0.88611432345E+01 -0.15303480373E+02  0.20179838350E+02  0.17770000000E+01 0.  1.
         15    1    1    2    0    0 -0.65485915665E+01 -0.52265023380E+00 -0.86195906804E+01  0.10982362554E+02  0.17770000000E+01 0. -1.
</event>
<event>
 6    1  0.6506903E-004  0.5001648E+03  0.7546771E-02  0.9399441E-01
        -11   -1    0    0    0    0  0.00000000000E+00  0.00000000000E+00  0.50000000000E+03  0.50000000000E+03  0.00000000000E+00 0.  1.
         11   -1    0    0    0    0 -0.00000000000E+00 -0.00000000000E+00 -0.50000000000E+03  0.50000000000E+03  0.00000000000E+00 0. -1.
        -11    1    1    2    0    0  0.37565361742E+01 -0.23697408376E+01  0.26508455413E+03  0.26512176085E+03  0.00000000000E+00 0.  1.
         11    1    1    2    0    0  0.74973504607E+01  0.47321966935E+01 -0.49975656133E+03  0.49983519738E+03  0.00000000000E+00 0. -1.
        -15    1    1    2    0    0 -0.90031970217E+01 -0.38029654748E+01  0.16730776199E+03  0.16760240170E+03  0.17770000000E+01 0.  1.
         15    1    1    2    0    0 -0.22506896132E+01  0.14405096189E+01  0.67364245211E+02  0.67440640074E+02  0.17770000000E+01 0. -1.
</event>
<event>
 6    1  0.6506903E-004  0.5026598E+03  0.7546771E-02  0.9393878E-01
        -11   -1    0    0    0    0  0.00000000000E+00  0.00000000000E+00  0.50000000000E+03  0.50000000000E+03  0.00000000000E+00 0. -1.
         11   -1    0    0    0    0 -0.00000000000E+00 -0.00000000000E+00 -0.50000000000E+03  0.50000000000E+03  0.00000000000E+00 0. -1.
        -11    1    1    2    0    0  0.12535499908E+01 -0.38137532074E+01  0.22516142408E+03  0.22519720912E+03  0.00000000000E+00 0. -1.
         11    1    1    2    0    0  0.46576601908E+02  0.36491805293E+01 -0.49514100169E+03  0.49734023356E+03  0.00000000000E+00 0. -1.
        -15    1    1    2    0    0 -0.14296293989E+02  0.20266899804E+02  0.10435156998E+03  0.10727319859E+03  0.17770000000E+01 0.  1.
         15    1    1    2    0    0 -0.33533857910E+02 -0.20102327126E+02  0.16562800763E+03  0.17018935873E+03  0.17770000000E+01 0. -1.
</event>
<event>
 6    1  0.6506903E-004  0.5016528E+03  0.7546771E-02  0.9396119E-01
        -11   -1    0    0    0    0  0.00000000000E+00  0.00000000000E+00  0.50000000000E+03  0.50000000000E+03  0.00000000000E+00 0. -1.
         11   -1    0    0    0    0 -0.00000000000E+00 -0.00000000000E+00 -0.50000000000E+03  0.50000000000E+03  0.00000000000E+00 0.  1.
        -11    1    1    2    0    0 -0.86597907032E+01 -0.64274197526E+00  0.42589389409E+03  0.42598241057E+03  0.00000000000E+00 0. -1.
         11    1    1    2    0    0 -0.19787156362E+01  0.18192599306E+02 -0.49801111539E+03  0.49834722537E+03  0.00000000000E+00 0.  1.
        -15    1    1    2    0    0  0.31516580137E+01 -0.20424616678E+01  0.27505186901E+02  0.27817218290E+02  0.17770000000E+01 0. -1.
         15    1    1    2    0    0  0.74868483257E+01 -0.15507395663E+02  0.44612034398E+02  0.47853145772E+02  0.17770000000E+01 0.  1.
</event>
<event>
 6    1  0.6506903E-004  0.5010841E+03  0.7546771E-02  0.9397387E-01
        -11   -1    0    0    0    0  0.00000000000E+00  0.00000000000E+00  0.50000000000E+03  0.50000000000E+03  0.00000000000E+00 0. -1.
         11   -1    0    0    0    0 -0.00000000000E+00 -0.00000000000E+00 -0.50000000000E+03  0.50000000000E+03  0.00000000000E+00 0. -1.
        -11    1    1    2    0    0  0.14159520705E+02 -0.42284610813E+01  0.49869704025E+03  0.49891593466E+03  0.00000000000E+00 0. -1.
         11    1    1    2    0    0 -0.14327792184E+02  0.37948473376E+00 -0.63064125328E+02  0.64672355307E+02  0.00000000000E+00 0. -1.
        -15    1    1    2    0    0  0.68618543639E+01 -0.26866194498E+01 -0.42979542004E+02  0.43642888645E+02  0.17770000000E+01 0.  1.
         15    1    1    2    0    0 -0.66935828847E+01  0.65355957973E+01 -0.39265337291E+03  0.39276882139E+03  0.17770000000E+01 0. -1.
</event>
<event>
 6    1  0.6506903E-004  0.5011217E+03  0.7546771E-02  0.9397303E-01
        -11   -1    0    0    0    0  0.00000000000E+00  0.00000000000E+00  0.50000000000E+03  0.50000000000E+03  0.00000000000E+00 0.  1.
         11   -1    0    0    0    0 -0.00000000000E+00 -0.00000000000E+00 -0.50000000000E+03  0.50000000000E+03  0.00000000000E+00 0.  1.
        -11    1    1    2    0    0  0.78554599315E+01 -0.66150260435E+01  0.49877260760E+03  0.49887832275E+03  0.00000000000E+00 0.  1.
         11    1    1    2    0    0  0.16336503996E+02  0.10313563685E+02 -0.21547281560E+03  0.21633720259E+03  0.00000000000E+00 0.  1.
        -15    1    1    2    0    0 -0.21624017764E+02 -0.64780385416E+01 -0.26695150863E+03  0.26791011332E+03  0.17770000000E+01 0. -1.
         15    1    1    2    0    0 -0.25679461639E+01  0.27795009005E+01 -0.16348283364E+02  0.16874361342E+02  0.17770000000E+01 0.  1.
</event>
<event>
 6    1  0.6506903E-004  0.5011038E+03  0.7546771E-02  0.9397343E-01
        -11   -1    0    0    0    0  0.00000000000E+00  0.00000000000E+00  0.50000000000E+03  0.50000000000E+03  0.00000000000E+00 0. -1.
         11   -1    0    0    0    0 -0.00000000000E+00 -0.00000000000E+00 -0.50000000000E+03  0.50000000000E+03  0.00000000000E+00 0. -1.
        -11    1    1    2    0    0  0.67046690188E+01 -0.17405430928E+02  0.49854737152E+03  0.49889616481E+03  0.00000000000E+00 0. -1.
         11    1    1    2    0    0 -0.97020738279E+01  0.12991567618E+02 -0.62838986280E+02  0.64897220760E+02  0.00000000000E+00 0. -1.
        -15    1    1    2    0    0  0.22552908800E+01  0.11637079905E+02 -0.33809615245E+03  0.33830854851E+03  0.17770000000E+01 0. -1.
         15    1    1    2    0    0  0.74211392917E+00 -0.72232165957E+01 -0.97612232788E+02  0.97898065915E+02  0.17770000000E+01 0.  1.
</event>
<event>
 6    1  0.8967274E-004  0.5141502E+03  0.7546771E-02  0.9368693E-01
        -11   -1    0    0    0    0  0.00000000000E+00  0.00000000000E+00  0.50000000000E+03  0.50000000000E+03  0.00000000000E+00 0. -1.
         11   -1    0    0    0    0 -0.00000000000E+00 -0.00000000000E+00 -0.50000000000E+03  0.50000000000E+03  0.00000000000E+00 0. -1.
        -11    1    1    2    0    0 -0.41938345776E+01  0.46003893668E+01  0.43749568605E+03  0.43753997205E+03  0.00000000000E+00 0. -1.
         11    1    1    2    0    0 -0.35745580470E+02  0.47958235363E+01 -0.48450931601E+03  0.48584979546E+03  0.00000000000E+00 0. -1.
        -15    1    1    2    0    0  0.27176855201E+01 -0.20854409434E+01  0.37184607335E+02  0.37384323321E+02  0.17770000000E+01 0. -1.
         15    1    1    2    0    0  0.37221729528E+02 -0.73107719596E+01  0.98290226240E+01  0.39225909173E+02  0.17770000000E+01 0.  1.
</event>
<event>
 6    1  0.6506903E-004  0.5025820E+03  0.7546771E-02  0.9394051E-01
        -11   -1    0    0    0    0  0.00000000000E+00  0.00000000000E+00  0.50000000000E+03  0.50000000000E+03  0.00000000000E+00 0.  1.
         11   -1    0    0    0    0 -0.00000000000E+00 -0.00000000000E+00 -0.50000000000E+03  0.50000000000E+03  0.00000000000E+00 0. -1.
        -11    1    1    2    0    0 -0.75108047433E+01 -0.45335897801E+01  0.36639625204E+03  0.36650126758E+03  0.00000000000E+00 0.  1.
         11    1    1    2    0    0 -0.15013088645E+02  0.22266509220E+02 -0.49669258056E+03  0.49741804335E+03  0.00000000000E+00 0. -1.
        -15    1    1    2    0    0  0.27385566309E+01 -0.12808748152E+01  0.74811560359E+02  0.74893708848E+02  0.17770000000E+01 0. -1.
         15    1    1    2    0    0  0.19785336757E+02 -0.16452044625E+02  0.55484768158E+02  0.61186980228E+02  0.17770000000E+01 0.  1.
</event>
<event>
 6    1  0.6506903E-004  0.5022460E+03  0.7546771E-02  0.9394798E-01
        -11   -1    0    0    0    0  0.00000000000E+00  0.00000000000E+00  0.50000000000E+03  0.50000000000E+03  0.00000000000E+00 0. -1.
         11   -1    0    0    0    0 -0.00000000000E+00 -0.00000000000E+00 -0.50000000000E+03  0.50000000000E+03  0.00000000000E+00 0.  1.
        -11    1    1    2    0    0 -0.55792877448E+01 -0.57553264583E+01  0.40777976510E+03  0.40785854050E+03  0.00000000000E+00 0. -1.
         11    1    1    2    0    0  0.95910443951E+01  0.28920856465E+02 -0.49682054261E+03  0.49775401116E+03  0.00000000000E+00 0.  1.
        -15    1    1    2    0    0 -0.56309781772E+01 -0.18953228025E+02  0.35878217957E+02  0.41004109801E+02  0.17770000000E+01 0. -1.
         15    1    1    2    0    0  0.16192215269E+01 -0.42123019819E+01  0.53162559555E+02  0.53383338541E+02  0.17770000000E+01 0.  1.
</event>
<event>
 6    1  0.7091808E-004  0.5000446E+03  0.7546771E-02  0.9399710E-01
        -11   -1    0    0    0    0  0.00000000000E+00  0.00000000000E+00  0.50000000000E+03  0.50000000000E+03  0.00000000000E+00 0. -1.
         11   -1    0    0    0    0 -0.00000000000E+00 -0.00000000000E+00 -0.50000000000E+03  0.50000000000E+03  0.00000000000E+00 0. -1.
        -11    1    1    2    0    0  0.19887564205E+01 -0.22006103918E+01  0.19384086821E+03  0.19386356034E+03  0.00000000000E+00 0. -1.
         11    1    1    2    0    0  0.23198108953E+01  0.10908051738E+02 -0.49983103076E+03  0.49995542444E+03  0.00000000000E+00 0. -1.
        -15    1    1    2    0    0 -0.41498289388E+01 -0.53819124695E+01  0.20543175770E+03  0.20555182038E+03  0.17770000000E+01 0. -1.
         15    1    1    2    0    0 -0.15873837690E+00 -0.33255288764E+01  0.10055840485E+03  0.10062919484E+03  0.17770000000E+01 0.  1.
</event>
<event>
 6    1  0.6506903E-004  0.5008591E+03  0.7546771E-02  0.9397889E-01
        -11   -1    0    0    0    0  0.00000000000E+00  0.00000000000E+00  0.50000000000E+03  0.50000000000E+03  0.00000000000E+00 0. -1.
         11   -1    0    0    0    0 -0.00000000000E+00 -0.00000000000E+00 -0.50000000000E+03  0.50000000000E+03  0.00000000000E+00 0. -1.
        -11    1    1    2    0    0 -0.54352564711E+01  0.10284735989E+02  0.49900531594E+03  0.49914088507E+03  0.00000000000E+00 0. -1.
         11    1    1    2    0    0  0.10351763113E+02  0.47723280865E+01 -0.38050718816E+03  0.38067788792E+03  0.00000000000E+00 0. -1.
        -15    1    1    2    0    0 -0.19393921689E+01 -0.81076672029E+01 -0.26084390388E+02  0.27441732095E+02  0.17770000000E+01 0.  1.
         15    1    1    2    0    0 -0.29771144726E+01 -0.69493968723E+01 -0.92413737401E+02  0.92739494914E+02  0.17770000000E+01 0. -1.
</event>
<event>
 6    1  0.6506903E-004  0.5037666E+03  0.7546771E-02  0.9391421E-01
        -11   -1    0    0    0    0  0.00000000000E+00  0.00000000000E+00  0.50000000000E+03  0.50000000000E+03  0.00000000000E+00 0. -1.
         11   -1    0    0    0    0 -0.00000000000E+00 -0.00000000000E+00 -0.50000000000E+03  0.50000000000E+03  0.00000000000E+00 0.  1.
        -11    1    1    2    0    0  0.11453068871E+02  0.14088256329E+02  0.43723261940E+03  0.43760943228E+03  0.00000000000E+00 0. -1.
         11    1    1    2    0    0 -0.16618189368E+02  0.12033301250E+02 -0.49580904880E+03  0.49623339008E+03  0.00000000000E+00 0.  1.
        -15    1    1    2    0    0  0.69844768807E+01 -0.19237131648E+02  0.53289627283E+02  0.57112102538E+02  0.17770000000E+01 0. -1.
         15    1    1    2    0    0 -0.18193563833E+01 -0.68844259316E+01  0.52868021145E+01  0.90450751050E+01  0.17770000000E+01 0.  1.
</event>
<event>
 6    1  0.6506903E-004  0.5000632E+03  0.7546771E-02  0.9399668E-01
        -11   -1    0    0    0    0  0.00000000000E+00  0.00000000000E+00  0.50000000000E+03  0.50000000000E+03  0.00000000000E+00 0. -1.
         11   -1    0    0    0    0 -0.00000000000E+00 -0.00000000000E+00 -0.50000000000E+03  0.50000000000E+03  0.00000000000E+00 0. -1.
        -11    1    1    2    0    0  0.54632465153E+01 -0.74162587211E+01  0.49985190802E+03  0.49993677391E+03  0.00000000000E+00 0. -1.
         11    1    1    2    0    0 -0.12906348904E+01  0.56789071353E+00 -0.12116246613E+02  0.12198019112E+02  0.00000000000E+00 0. -1.
        -15    1    1    2    0    0 -0.39966994161E+00  0.20779537023E+01 -0.45312998477E+02  0.45397171582E+02  0.17770000000E+01 0.  1.
         15    1    1    2    0    0 -0.37729416832E+01  0.47704143053E+01 -0.44242266293E+03  0.44246803539E+03  0.17770000000E+01 0. -1.
</event>
<event>
 6    1  0.6506903E-004  0.5125327E+03  0.7546771E-02  0.9372195E-01
        -11   -1    0    0    0    0  0.00000000000E+00  0.00000000000E+00  0.50000000000E+03  0.50000000000E+03  0.00000000000E+00 0. -1.
         11   -1    0    0    0    0 -0.00000000000E+00 -0.00000000000E+00 -0.50000000000E+03  0.50000000000E+03  0.00000000000E+00 0. -1.
        -11    1    1    2    0    0  0.10270403213E+02 -0.56037644705E+01  0.39324924522E+03  0.39342324820E+03  0.00000000000E+00 0. -1.
         11    1    1    2    0    0  0.38404015852E+02  0.33080508301E+02 -0.48482493615E+03  0.48746733960E+03  0.00000000000E+00 0. -1.
        -15    1    1    2    0    0 -0.45458010039E+02 -0.34647397375E+02  0.94569063510E+02  0.11051397343E+03  0.17770000000E+01 0.  1.
         15    1    1    2    0    0 -0.32164090258E+01  0.71706535442E+01 -0.29933725814E+01  0.85954387720E+01  0.17770000000E+01 0.  1.
</event>
<event>
 6    1  0.6506903E-004  0.5142306E+03  0.7546771E-02  0.9368519E-01
        -11   -1    0    0    0    0  0.00000000000E+00  0.00000000000E+00  0.50000000000E+03  0.50000000000E+03  0.00000000000E+00 0.  1.
         11   -1    0    0    0    0 -0.00000000000E+00 -0.00000000000E+00 -0.50000000000E+03  0.50000000000E+03  0.00000000000E+00 0.  1.
        -11    1    1    2    0    0  0.76176135307E+00 -0.63476299192E+01  0.40529953373E+03  0.40534995340E+03  0.00000000000E+00 0.  1.
         11    1    1    2    0    0  0.17447874808E+02  0.72401766663E+02 -0.48002655300E+03  0.48576942651E+03  0.00000000000E+00 0.  1.
        -15    1    1    2    0    0  0.33917708828E-02  0.52571957137E+01  0.58370676007E+01  0.80540179694E+01  0.17770000000E+01 0.  1.
         15    1    1    2    0    0 -0.18213027932E+02 -0.71311332457E+02  0.68889951672E+02  0.10082660211E+03  0.17770000000E+01 0. -1.
</event>
<event>
 6    1  0.6506903E-004  0.5002803E+03  0.7546771E-02  0.9399183E-01
        -11   -1    0    0    0    0  0.00000000000E+00  0.00000000000E+00  0.50000000000E+03  0.50000000000E+03  0.00000000000E+00 0.  1.
         11   -1    0    0    0    0 -0.00000000000E+00 -0.00000000000E+00 -0.50000000000E+03  0.50000000000E+03  0.00000000000E+00 0.  1.
        -11    1    1    2    0    0 -0.14532769927E+00 -0.33984345173E+01  0.22063538286E+03  0.22066160212E+03  0.00000000000E+00 0.  1.
         11    1    1    2    0    0 -0.96660452289E+01 -0.91653776736E+01 -0.49954210214E+03  0.49971966980E+03  0.00000000000E+00 0.  1.
        -15    1    1    2    0    0  0.94274534948E+01  0.48336931390E+01  0.10941424186E+03  0.10994032709E+03  0.17770000000E+01 0. -1.
         15    1    1    2    0    0  0.38391943330E+00  0.77301190519E+01  0.16949247741E+03  0.16967840099E+03  0.17770000000E+01 0.  1.
</event>
<event>
 6    1  0.6506903E-004  0.5031953E+03  0.7546771E-02  0.9392688E-01
        -11   -1    0    0    0    0  0.00000000000E+00  0.00000000000E+00  0.50000000000E+03  0.50000000000E+03  0.00000000000E+00 0.  1.
         11   -1    0    0    0    0 -0.00000000000E+00 -0.00000000000E+00 -0.50000000000E+03  0.50000000000E+03  0.00000000000E+00 0.  1.
        -11    1    1    2    0    0 -0.17855366091E+02 -0.16373319689E+02  0.88925068554E+02  0.92165978068E+02  0.00000000000E+00 0.  1.
         11    1    1    2    0    0  0.40199708757E+02  0.59648468831E+02  0.40468651899E+03  0.41102936035E+03  0.00000000000E+00 0.  1.
        -15    1    1    2    0    0 -0.25583365040E+02 -0.44448103379E+02 -0.42555769995E+03  0.42864047427E+03  0.17770000000E+01 0.  1.
         15    1    1    2    0    0  0.32390223741E+01  0.11729542359E+01 -0.68053887590E+02  0.68164187318E+02  0.17770000000E+01 0. -1.
</event>
<event>
 6    1  0.6506903E-004  0.5231718E+03  0.7546771E-02  0.9349403E-01
        -11   -1    0    0    0    0  0.00000000000E+00  0.00000000000E+00  0.50000000000E+03  0.50000000000E+03  0.00000000000E+00 0. -1.
         11   -1    0    0    0    0 -0.00000000000E+00 -0.00000000000E+00 -0.50000000000E+03  0.50000000000E+03  0.00000000000E+00 0.  1.
        -11    1    1    2    0    0 -0.43068644726E+01 -0.56072633557E+01  0.47677574276E+03  0.47682816545E+03  0.00000000000E+00 0. -1.
         11    1    1    2    0    0  0.31070453066E+02 -0.62237958626E+01 -0.45346144815E+03  0.45456725977E+03  0.00000000000E+00 0.  1.
        -15    1    1    2    0    0 -0.29352570573E+02  0.55935907759E+01 -0.40322385666E+02  0.50218663580E+02  0.17770000000E+01 0. -1.
         15    1    1    2    0    0  0.25889819801E+01  0.62374684424E+01  0.17008091057E+02  0.18385911200E+02  0.17770000000E+01 0. -1.
</event>
<event>
 6    1  0.6506903E-004  0.5005119E+03  0.7546771E-02  0.9398665E-01
        -11   -1    0    0    0    0  0.00000000000E+00  0.00000000000E+00  0.50000000000E+03  0.50000000000E+03  0.00000000000E+00 0. -1.
         11   -1    0    0    0    0 -0.00000000000E+00 -0.00000000000E+00 -0.50000000000E+03  0.50000000000E+03  0.00000000000E+00 0.  1.
        -11    1    1    2    0    0 -0.84953282044E+01  0.58198017550E+01  0.49938190888E+03  0.49948806954E+03  0.00000000000E+00 0. -1.
         11    1    1    2    0    0  0.13915796771E+02 -0.16565380586E+01 -0.42710150403E+03  0.42733135651E+03  0.00000000000E+00 0.  1.
        -15    1    1    2    0    0 -0.70599860177E+01 -0.99378950425E+00 -0.51466700996E+02  0.51988557015E+02  0.17770000000E+01 0. -1.
         15    1    1    2    0    0  0.16395174509E+01 -0.31694741922E+01 -0.20813703861E+02  0.21192016929E+02  0.17770000000E+01 0.  1.
</event>
<event>
 6    1  0.6506903E-004  0.5002383E+03  0.7546771E-02  0.9399277E-01
        -11   -1    0    0    0    0  0.00000000000E+00  0.00000000000E+00  0.50000000000E+03  0.50000000000E+03  0.00000000000E+00 0. -1.
         11   -1    0    0    0    0 -0.00000000000E+00 -0.00000000000E+00 -0.50000000000E+03  0.50000000000E+03  0.00000000000E+00 0. -1.
        -11    1    1    2    0    0 -0.69733513859E+01 -0.13766940187E+01  0.49971118789E+03  0.49976173745E+03  0.00000000000E+00 0. -1.
         11    1    1    2    0    0  0.54071778826E+00  0.56474844726E+01 -0.37506190903E+03  0.37510481477E+03  0.00000000000E+00 0. -1.
        -15    1    1    2    0    0  0.37182068615E+01 -0.24022168235E+01 -0.27398821726E+02  0.27810948723E+02  0.17770000000E+01 0. -1.
         15    1    1    2    0    0  0.27144267361E+01 -0.18685736303E+01 -0.97250457135E+02  0.97322499053E+02  0.17770000000E+01 0.  1.
</event>
<event>
 6    1  0.6506903E-004  0.5001094E+03  0.7546771E-02  0.9399565E-01
        -11   -1    0    0    0    0  0.00000000000E+00  0.00000000000E+00  0.50000000000E+03  0.50000000000E+03  0.00000000000E+00 0. -1.
         11   -1    0    0    0    0 -0.00000000000E+00 -0.00000000000E+00 -0.50000000000E+03  0.50000000000E+03  0.00000000000E+00 0. -1.
        -11    1    1    2    0    0  0.99177360235E+01  0.86169812859E+01  0.22985766446E+03  0.23023283815E+03  0.00000000000E+00 0. -1.
         11    1    1    2    0    0 -0.14703735245E+02 -0.96924724195E+01 -0.49958026835E+03  0.49989057641E+03  0.00000000000E+00 0. -1.
        -15    1    1    2    0    0 -0.11627620294E+01  0.24906688370E+00  0.12528986502E+03  0.12530810850E+03  0.17770000000E+01 0.  1.
         15    1    1    2    0    0  0.59487612513E+01  0.82642424985E+00  0.14443273888E+03  0.14456847695E+03  0.17770000000E+01 0. -1.
</event>
<event>
 6    1  0.6506903E-004  0.5115545E+03  0.7546771E-02  0.9374320E-01
        -11   -1    0    0    0    0  0.00000000000E+00  0.00000000000E+00  0.50000000000E+03  0.50000000000E+03  0.00000000000E+00 0. -1.
         11   -1    0    0    0    0 -0.00000000000E+00 -0.00000000000E+00 -0.50000000000E+03  0.50000000000E+03  0.00000000000E+00 0.  1.
        -11    1    1    2    0    0 -0.46531777763E+01 -0.17324603209E+02  0.41884478198E+03  0.41922875060E+03  0.00000000000E+00 0. -1.
         11    1    1    2    0    0  0.10003043427E+02  0.45616692528E+02 -0.48620782790E+03  0.48844548870E+03  0.00000000000E+00 0.  1.
        -15    1    1    2    0    0 -0.32902598046E+01  0.79362450381E+01  0.52243281357E+02  0.52974786181E+02  0.17770000000E+01 0. -1.
         15    1    1    2    0    0 -0.20596058461E+01 -0.36228334356E+02  0.15119764568E+02  0.39350974525E+02  0.17770000000E+01 0.  1.
</event>
<event>
 6    1  0.6506903E-004  0.5018041E+03  0.7546771E-02  0.9395782E-01
        -11   -1    0    0    0    0  0.00000000000E+00  0.00000000000E+00  0.50000000000E+03  0.50000000000E+03  0.00000000000E+00 0.  1.
         11   -1    0    0    0    0 -0.00000000000E+00 -0.00000000000E+00 -0.50000000000E+03  0.50000000000E+03  0.00000000000E+00 0. -1.
        -11    1    1    2    0    0 -0.74430479370E+01  0.40643573367E+01  0.49812372327E+03  0.49819590690E+03  0.00000000000E+00 0.  1.
         11    1    1    2    0    0 -0.91127904057E+01  0.33570075308E+00 -0.45106176274E+03  0.45115393099E+03  0.00000000000E+00 0. -1.
        -15    1    1    2    0    0  0.12877702397E+02 -0.40600197427E+01 -0.41905332946E+02  0.44062837377E+02  0.17770000000E+01 0.  1.
         15    1    1    2    0    0  0.36781359455E+01 -0.34003834713E+00 -0.51566275887E+01  0.65873247376E+01  0.17770000000E+01 0. -1.
</event>
<event>
 6    1  0.6506903E-004  0.5004687E+03  0.7546771E-02  0.9398762E-01
        -11   -1    0    0    0    0  0.00000000000E+00  0.00000000000E+00  0.50000000000E+03  0.50000000000E+03  0.00000000000E+00 0.  1.
         11   -1    0    0    0    0 -0.00000000000E+00 -0.00000000000E+00 -0.50000000000E+03  0.50000000000E+03  0.00000000000E+00 0.  1.
        -11    1    1    2    0    0  0.86205693903E+01  0.85560896718E+00  0.49945615337E+03  0.49953127572E+03  0.00000000000E+00 0.  1.
         11    1    1    2    0    0  0.55258960932E+01 -0.33604695906E+01 -0.11349489934E+03  0.11367902383E+03  0.00000000000E+00 0.  1.
        -15    1    1    2    0    0 -0.14495641767E+02  0.33513727104E+01 -0.38249450460E+03  0.38278787743E+03  0.17770000000E+01 0. -1.
         15    1    1    2    0    0  0.34917628372E+00 -0.84651208693E+00 -0.34667494420E+01  0.40018230200E+01  0.17770000000E+01 0.  1.
</event>
<event>
 6    1  0.6506903E-004  0.5004864E+03  0.7546771E-02  0.9398722E-01
        -11   -1    0    0    0    0  0.00000000000E+00  0.00000000000E+00  0.50000000000E+03  0.50000000000E+03  0.00000000000E+00 0. -1.
         11   -1    0    0    0    0 -0.00000000000E+00 -0.00000000000E+00 -0.50000000000E+03  0.50000000000E+03  0.00000000000E+00 0. -1.
        -11    1    1    2    0    0  0.57490151833E+01  0.50283850713E+01  0.49945523338E+03  0.49951362942E+03  0.00000000000E+00 0. -1.
         11    1    1    2    0    0  0.24700315631E+01 -0.14418292892E+02 -0.13823389034E+03  0.13900574328E+03  0.00000000000E+00 0. -1.
        -15    1    1    2    0    0 -0.68027021132E+01  0.74166951242E+01 -0.23306783131E+03  0.23329178263E+03  0.17770000000E+01 0. -1.
         15    1    1    2    0    0 -0.14163446332E+01  0.19732126961E+01 -0.12815351172E+03  0.12818884466E+03  0.17770000000E+01 0. -1.
</event>
<event>
 6    1  0.6506903E-004  0.5028512E+03  0.7546771E-02  0.9393452E-01
        -11   -1    0    0    0    0  0.00000000000E+00  0.00000000000E+00  0.50000000000E+03  0.50000000000E+03  0.00000000000E+00 0. -1.
         11   -1    0    0    0    0 -0.00000000000E+00 -0.00000000000E+00 -0.50000000000E+03  0.50000000000E+03  0.00000000000E+00 0.  1.
        -11    1    1    2    0    0 -0.68617556947E+00  0.10470022330E+02  0.49703807311E+03  0.49714880903E+03  0.00000000000E+00 0. -1.
         11    1    1    2    0    0 -0.23441814554E+01 -0.98278135556E+01 -0.48708206425E+03  0.48718684138E+03  0.00000000000E+00 0.  1.
        -15    1    1    2    0    0  0.29309722572E+01 -0.41787433285E+01 -0.51781139729E+00  0.54293970035E+01  0.17770000000E+01 0. -1.
         15    1    1    2    0    0  0.99384767594E-01  0.35365345539E+01 -0.94381974632E+01  0.10234952581E+02  0.17770000000E+01 0.  1.
</event>
<event>
 6    1  0.6506903E-004  0.5046802E+03  0.7546771E-02  0.9389398E-01
        -11   -1    0    0    0    0  0.00000000000E+00  0.00000000000E+00  0.50000000000E+03  0.50000000000E+03  0.00000000000E+00 0. -1.
         11   -1    0    0    0    0 -0.00000000000E+00 -0.00000000000E+00 -0.50000000000E+03  0.50000000000E+03  0.00000000000E+00 0. -1.
        -11    1    1    2    0    0  0.11825553525E+02 -0.47920148137E+01  0.49515545263E+03  0.49531982536E+03  0.00000000000E+00 0. -1.
         11    1    1    2    0    0  0.93525202853E+01  0.13303434326E+02 -0.40069633167E+03  0.40102618520E+03  0.00000000000E+00 0. -1.
        -15    1    1    2    0    0  0.81855148589E+00 -0.15188006805E+02 -0.61848261030E+02  0.63715859083E+02  0.17770000000E+01 0.  1.
         15    1    1    2    0    0 -0.21996625296E+02  0.66765872927E+01 -0.32610859930E+02  0.39938130360E+02  0.17770000000E+01 0. -1.
</event>
<event>
 6    1  0.6506903E-004  0.5106284E+03  0.7546771E-02  0.9376337E-01
        -11   -1    0    0    0    0  0.00000000000E+00  0.00000000000E+00  0.50000000000E+03  0.50000000000E+03  0.00000000000E+00 0.  1.
         11   -1    0    0    0    0 -0.00000000000E+00 -0.00000000000E+00 -0.50000000000E+03  0.50000000000E+03  0.00000000000E+00 0.  1.
        -11    1    1    2    0    0  0.37326903613E+01 -0.95013544109E+01  0.48926508119E+03  0.48937156474E+03  0.00000000000E+00 0.  1.
         11    1    1    2    0    0  0.19929972908E+01 -0.43486533364E+02 -0.33440150410E+03  0.33722309614E+03  0.00000000000E+00 0.  1.
        -15    1    1    2    0    0 -0.83934163647E+01  0.43316852923E+02 -0.44918191656E+02  0.62988894704E+02  0.17770000000E+01 0. -1.
         15    1    1    2    0    0  0.26677287126E+01  0.96710348518E+01 -0.10994538543E+03  0.11041644442E+03  0.17770000000E+01 0.  1.
</event>
<event>
 6    1  0.6506903E-004  0.5012666E+03  0.7546771E-02  0.9396980E-01
        -11   -1    0    0    0    0  0.00000000000E+00  0.00000000000E+00  0.50000000000E+03  0.50000000000E+03  0.00000000000E+00 0.  1.
         11   -1    0    0    0    0 -0.00000000000E+00 -0.00000000000E+00 -0.50000000000E+03  0.50000000000E+03  0.00000000000E+00 0. -1.
        -11    1    1    2    0    0 -0.13546908616E+01  0.90888624370E+01  0.49864876682E+03  0.49873343106E+03  0.00000000000E+00 0.  1.
         11    1    1    2    0    0 -0.11788076088E+01 -0.13968549898E+02 -0.28185454330E+03  0.28220292974E+03  0.00000000000E+00 0. -1.
        -15    1    1    2    0    0 -0.12523961709E+01 -0.32198361659E+01 -0.25982920613E+01  0.46738305211E+01  0.17770000000E+01 0.  1.
         15    1    1    2    0    0  0.37858946413E+01  0.80995236267E+01 -0.21419593146E+03  0.21438980867E+03  0.17770000000E+01 0. -1.
</event>
<event>
 6    1  0.6506903E-004  0.5001449E+03  0.7546771E-02  0.9399485E-01
        -11   -1    0    0    0    0  0.00000000000E+00  0.00000000000E+00  0.50000000000E+03  0.50000000000E+03  0.00000000000E+00 0.  1.
         11   -1    0    0    0    0 -0.00000000000E+00 -0.00000000000E+00 -0.50000000000E+03  0.50000000000E+03  0.00000000000E+00 0.  1.
        -11    1    1    2    0    0  0.84631802622E+01 -0.31437888743E+00  0.49978331696E+03  0.49985506716E+03  0.00000000000E+00 0.  1.
         11    1    1    2    0    0 -0.91854925647E+01  0.26420354781E+01 -0.14421676714E+03  0.14453314343E+03  0.00000000000E+00 0.  1.
        -15    1    1    2    0    0  0.20338724858E+01 -0.47539597763E+00 -0.15051043835E+03  0.15053541915E+03  0.17770000000E+01 0.  1.
         15    1    1    2    0    0 -0.13115601833E+01 -0.18522606130E+01 -0.20505611147E+03  0.20507637026E+03  0.17770000000E+01 0. -1.
</event>
<event>
 6    1  0.6506903E-004  0.5005789E+03  0.7546771E-02  0.9398515E-01
        -11   -1    0    0    0    0  0.00000000000E+00  0.00000000000E+00  0.50000000000E+03  0.50000000000E+03  0.00000000000E+00 0.  1.
         11   -1    0    0    0    0 -0.00000000000E+00 -0.00000000000E+00 -0.50000000000E+03  0.50000000000E+03  0.00000000000E+00 0. -1.
        -11    1    1    2    0    0 -0.36389706665E+01 -0.46905491280E+01  0.42184821044E+03  0.42188998093E+03  0.00000000000E+00 0.  1.
         11    1    1    2    0    0  0.24723933014E+01 -0.70014600524E+01 -0.49936592849E+03  0.49942112862E+03  0.00000000000E+00 0. -1.
        -15    1    1    2    0    0  0.23563496611E+01  0.95231090914E+01  0.67044740894E+02  0.67781981389E+02  0.17770000000E+01 0.  1.
         15    1    1    2    0    0 -0.11897722960E+01  0.21689000890E+01  0.10472977155E+02  0.10906909058E+02  0.17770000000E+01 0. -1.
</event>
<event>
 6    1  0.6506903E-004  0.5013802E+03  0.7546771E-02  0.9396727E-01
        -11   -1    0    0    0    0  0.00000000000E+00  0.00000000000E+00  0.50000000000E+03  0.50000000000E+03  0.00000000000E+00 0. -1.
         11   -1    0    0    0    0 -0.00000000000E+00 -0.00000000000E+00 -0.50000000000E+03  0.50000000000E+03  0.00000000000E+00 0.  1.
        -11    1    1    2    0    0 -0.40631506967E+01  0.16431771649E+01  0.23290468976E+03  0.23294592449E+03  0.00000000000E+00 0. -1.
         11    1    1    2    0    0 -0.19625914484E+02 -0.45238216065E+02 -0.49617540210E+03  0.49861979740E+03  0.00000000000E+00 0.  1.
        -15    1    1    2    0    0  0.22253110699E+02  0.44619066620E+02  0.25021956054E+03  0.25514515133E+03  0.17770000000E+01 0. -1.
         15    1    1    2    0    0  0.14359544816E+01 -0.10240277197E+01  0.13051151803E+02  0.13289126775E+02  0.17770000000E+01 0.  1.
</event>
<event>
 6    1  0.6506903E-004  0.4558051E+03  0.7546771E-02  0.9504520E-01
        -11   -1    0    0    0    0  0.00000000000E+00  0.00000000000E+00  0.50000000000E+03  0.50000000000E+03  0.00000000000E+00 0. -1.
         11   -1    0    0    0    0 -0.00000000000E+00 -0.00000000000E+00 -0.50000000000E+03  0.50000000000E+03  0.00000000000E+00 0. -1.
        -11    1    1    2    0    0 -0.10653683835E+02  0.35671908145E-01  0.43359916389E+03  0.43373002798E+03  0.00000000000E+00 0. -1.
         11    1    1    2    0    0  0.64621076446E+02  0.33335684533E+02  0.43490733110E+02  0.84726591167E+02  0.00000000000E+00 0. -1.
        -15    1    1    2    0    0 -0.11840283388E+02 -0.53346935672E+01 -0.61576690320E+02  0.62956316490E+02  0.17770000000E+01 0.  1.
         15    1    1    2    0    0 -0.42127109223E+02 -0.28036662874E+02 -0.41551320668E+03  0.41858706436E+03  0.17770000000E+01 0. -1.
</event>
<event>
 6    1  0.6506903E-004  0.5008492E+03  0.7546771E-02  0.9397912E-01
        -11   -1    0    0    0    0  0.00000000000E+00  0.00000000000E+00  0.50000000000E+03  0.50000000000E+03  0.00000000000E+00 0. -1.
         11   -1    0    0    0    0 -0.00000000000E+00 -0.00000000000E+00 -0.50000000000E+03  0.50000000000E+03  0.00000000000E+00 0. -1.
        -11    1    1    2    0    0  0.84482525263E+01 -0.12286290237E+02  0.49892801973E+03  0.49915077358E+03  0.00000000000E+00 0. -1.
         11    1    1    2    0    0 -0.13064384886E+02  0.17123893128E+02 -0.12773059189E+03  0.12953381788E+03  0.00000000000E+00 0. -1.
        -15    1    1    2    0    0  0.20383783269E+01 -0.53871140412E+01 -0.27302523602E+03  0.27309176702E+03  0.17770000000E+01 0.  1.
         15    1    1    2    0    0  0.25777540324E+01  0.54951114976E+00 -0.98172191813E+02  0.98223641516E+02  0.17770000000E+01 0.  1.
</event>
<event>
 6    1  0.6506903E-004  0.4898982E+03  0.7546771E-02  0.9422701E-01
        -11   -1    0    0    0    0  0.00000000000E+00  0.00000000000E+00  0.50000000000E+03  0.50000000000E+03  0.00000000000E+00 0.  1.
         11   -1    0    0    0    0 -0.00000000000E+00 -0.00000000000E+00 -0.50000000000E+03  0.50000000000E+03  0.00000000000E+00 0.  1.
        -11    1    1    2    0    0  0.93519741580E+01  0.36032063852E+01  0.49262785524E+03  0.49272979033E+03  0.00000000000E+00 0.  1.
         11    1    1    2    0    0  0.73090660926E+01 -0.90165184736E+01 -0.48710056251E+03  0.48723883060E+03  0.00000000000E+00 0.  1.
        -15    1    1    2    0    0 -0.87813849633E+01  0.24017399927E+00 -0.37179515293E-02  0.89625971820E+01  0.17770000000E+01 0.  1.
         15    1    1    2    0    0 -0.78796552872E+01  0.51731380892E+01 -0.55235747840E+01  0.11068781890E+02  0.17770000000E+01 0. -1.
</event>
<event>
 6    1  0.6506903E-004  0.5021011E+03  0.7546771E-02  0.9395121E-01
        -11   -1    0    0    0    0  0.00000000000E+00  0.00000000000E+00  0.50000000000E+03  0.50000000000E+03  0.00000000000E+00 0. -1.
         11   -1    0    0    0    0 -0.00000000000E+00 -0.00000000000E+00 -0.50000000000E+03  0.50000000000E+03  0.00000000000E+00 0. -1.
        -11    1    1    2    0    0  0.51105627628E+01 -0.85161364132E+01  0.49779981323E+03  0.49789888178E+03  0.00000000000E+00 0. -1.
         11    1    1    2    0    0 -0.12845482482E+02  0.12934213958E+02 -0.39108570046E+02  0.43148355263E+02  0.00000000000E+00 0. -1.
        -15    1    1    2    0    0 -0.21659925570E+01 -0.42545142672E+01 -0.11234153142E+03  0.11245696877E+03  0.17770000000E+01 0.  1.
         15    1    1    2    0    0  0.99009122761E+01 -0.16356327790E+00 -0.34634971177E+03  0.34649579418E+03  0.17770000000E+01 0. -1.
</event>
<event>
 6    1  0.6506903E-004  0.5091279E+03  0.7546771E-02  0.9379614E-01
        -11   -1    0    0    0    0  0.00000000000E+00  0.00000000000E+00  0.50000000000E+03  0.50000000000E+03  0.00000000000E+00 0. -1.
         11   -1    0    0    0    0 -0.00000000000E+00 -0.00000000000E+00 -0.50000000000E+03  0.50000000000E+03  0.00000000000E+00 0.  1.
        -11    1    1    2    0    0  0.16699388180E+01  0.13272630524E+02  0.44355619162E+03  0.44375786928E+03  0.00000000000E+00 0. -1.
         11    1    1    2    0    0  0.76281598326E+01  0.18359972886E+02 -0.49046928269E+03  0.49087207569E+03  0.00000000000E+00 0.  1.
        -15    1    1    2    0    0  0.23305079450E+01 -0.24213014755E+02  0.10804856815E+02  0.26675906931E+02  0.17770000000E+01 0. -1.
         15    1    1    2    0    0 -0.11628606596E+02 -0.74195886554E+01  0.36108234255E+02  0.38694148100E+02  0.17770000000E+01 0.  1.
</event>
<event>
 6    1  0.6506903E-004  0.5000910E+03  0.7546771E-02  0.9399606E-01
        -11   -1    0    0    0    0  0.00000000000E+00  0.00000000000E+00  0.50000000000E+03  0.50000000000E+03  0.00000000000E+00 0. -1.
         11   -1    0    0    0    0 -0.00000000000E+00 -0.00000000000E+00 -0.50000000000E+03  0.50000000000E+03  0.00000000000E+00 0.  1.
        -11    1    1    2    0    0 -0.63855274747E+01 -0.40482868217E+01  0.49985186269E+03  0.49990903995E+03  0.00000000000E+00 0. -1.
         11    1    1    2    0    0  0.61214944790E+01 -0.25481361174E+01 -0.26959833152E+03  0.26967985844E+03  0.00000000000E+00 0.  1.
        -15    1    1    2    0    0  0.19910400267E+01  0.21412803210E+01 -0.91448886845E+02  0.91512873171E+02  0.17770000000E+01 0.  1.
         15    1    1    2    0    0 -0.17270070311E+01  0.44551426182E+01 -0.13880464433E+03  0.13889822844E+03  0.17770000000E+01 0. -1.
</event>
<event>
 6    1  0.6506903E-004  0.5022441E+03  0.7546771E-02  0.9394802E-01
        -11   -1    0    0    0    0  0.00000000000E+00  0.00000000000E+00  0.50000000000E+03  0.50000000000E+03  0.00000000000E+00 0. -1.
         11   -1    0    0    0    0 -0.00000000000E+00 -0.00000000000E+00 -0.50000000000E+03  0.50000000000E+03  0.00000000000E+00 0.  1.
        -11    1    1    2    0    0  0.28498517097E+01 -0.79414819870E+01  0.47400846419E+03  0.47408355056E+03  0.00000000000E+00 0. -1.
         11    1    1    2    0    0  0.28295859382E+01  0.76417865738E+01 -0.49768920429E+03  0.49775591159E+03  0.00000000000E+00 0.  1.
        -15    1    1    2    0    0 -0.24273293666E+00  0.39582726898E+01  0.96462302410E+00  0.44514119720E+01  0.17770000000E+01 0. -1.
         15    1    1    2    0    0 -0.54367047113E+01 -0.36585772766E+01  0.22716117073E+02  0.23709125874E+02  0.17770000000E+01 0.  1.
</event>
<event>
 6    1  0.6506903E-004  0.5005123E+03  0.7546771E-02  0.9398664E-01
        -11   -1    0    0    0    0  0.00000000000E+00  0.00000000000E+00  0.50000000000E+03  0.50000000000E+03  0.00000000000E+00 0. -1.
         11   -1    0    0    0    0 -0.00000000000E+00 -0.00000000000E+00 -0.50000000000E+03  0.50000000000E+03  0.00000000000E+00 0.  1.
        -11    1    1    2    0    0  0.22663386315E+01  0.26067079331E+01  0.22791291392E+03  0.22793908737E+03  0.00000000000E+00 0. -1.
         11    1    1    2    0    0 -0.25868538932E+02 -0.89976564777E+01 -0.49873625198E+03  0.49948772574E+03  0.00000000000E+00 0.  1.
        -15    1    1    2    0    0  0.36975197302E+01  0.97440057353E+01  0.93579777119E+02  0.94175101352E+02  0.17770000000E+01 0.  1.
         15    1    1    2    0    0  0.19904680571E+02 -0.33530571907E+01  0.17724356094E+03  0.17839808554E+03  0.17770000000E+01 0. -1.
</event>
<event>
 6    1  0.6506903E-004  0.5044651E+03  0.7546771E-02  0.9389874E-01
        -11   -1    0    0    0    0  0.00000000000E+00  0.00000000000E+00  0.50000000000E+03  0.50000000000E+03  0.00000000000E+00 0.  1.
         11   -1    0    0    0    0 -0.00000000000E+00 -0.00000000000E+00 -0.50000000000E+03  0.50000000000E+03  0.00000000000E+00 0.  1.
        -11    1    1    2    0    0  0.92974463937E+00  0.35467251064E+02  0.49426314183E+03  0.49553490663E+03  0.00000000000E+00 0.  1.
         11    1    1    2    0    0  0.96625602929E+01 -0.36186695214E+02 -0.64858973307E+02  0.74896784980E+02  0.00000000000E+00 0.  1.
        -15    1    1    2    0    0 -0.68798830550E+01 -0.11585075526E+01 -0.22925395329E+03  0.22936697182E+03  0.17770000000E+01 0.  1.
         15    1    1    2    0    0 -0.37124218773E+01  0.18779517028E+01 -0.20015021523E+03  0.20020133657E+03  0.17770000000E+01 0.  1.
</event>
<event>
 6    1  0.6506903E-004  0.5121888E+03  0.7546771E-02  0.9372942E-01
        -11   -1    0    0    0    0  0.00000000000E+00  0.00000000000E+00  0.50000000000E+03  0.50000000000E+03  0.00000000000E+00 0. -1.
         11   -1    0    0    0    0 -0.00000000000E+00 -0.00000000000E+00 -0.50000000000E+03  0.50000000000E+03  0.00000000000E+00 0. -1.
        -11    1    1    2    0    0 -0.42137078597E+01  0.70198247497E+01  0.45783549064E+03  0.45790869151E+03  0.00000000000E+00 0. -1.
         11    1    1    2    0    0  0.65449087805E+01 -0.21876126466E+02 -0.48727652573E+03  0.48781124758E+03  0.00000000000E+00 0. -1.
        -15    1    1    2    0    0 -0.12551457895E+02  0.16604082388E+02  0.36186452405E+02  0.41783390407E+02  0.17770000000E+01 0.  1.
         15    1    1    2    0    0  0.10220256974E+02 -0.17477806722E+01 -0.67454173148E+01  0.12496670503E+02  0.17770000000E+01 0. -1.
</event>
<event>
 6    1  0.6506903E-004  0.5001054E+03  0.7546771E-02  0.9399574E-01
        -11   -1    0    0    0    0  0.00000000000E+00  0.00000000000E+00  0.50000000000E+03  0.50000000000E+03  0.00000000000E+00 0. -1.
         11   -1    0    0    0    0 -0.00000000000E+00 -0.00000000000E+00 -0.50000000000E+03  0.50000000000E+03  0.00000000000E+00 0.  1.
        -11    1    1    2    0    0 -0.10657057861E+02 -0.35225358429E+01  0.49976855304E+03  0.49989457664E+03  0.00000000000E+00 0. -1.
         11    1    1    2    0    0  0.74775555616E+01  0.47355438671E+01 -0.14451273252E+03  0.14478352487E+03  0.00000000000E+00 0.  1.
        -15    1    1    2    0    0 -0.10460451914E+01 -0.90610649598E+00 -0.11016946232E+03  0.11019248339E+03  0.17770000000E+01 0. -1.
         15    1    1    2    0    0  0.42255474911E+01 -0.30690152825E+00 -0.24508635820E+03  0.24512941510E+03  0.17770000000E+01 0.  1.
</event>
<event>
 6    1  0.6506903E-004  0.4653079E+03  0.7546771E-02  0.9480968E-01
        -11   -1    0    0    0    0  0.00000000000E+00  0.00000000000E+00  0.50000000000E+03  0.50000000000E+03  0.00000000000E+00 0. -1.
         11   -1    0    0    0    0 -0.00000000000E+00 -0.00000000000E+00 -0.50000000000E+03  0.50000000000E+03  0.00000000000E+00 0. -1.
        -11    1    1    2    0    0 -0.49464644312E+01 -0.29404833879E+02  0.45903144354E+03  0.45999888905E+03  0.00000000000E+00 0. -1.
         11    1    1    2    0    0  0.21917673865E+01 -0.30058355473E+02 -0.47164221396E+03  0.47260415420E+03  0.00000000000E+00 0. -1.
        -15    1    1    2    0    0  0.99503045911E+01  0.52510620478E+01  0.35841862185E+01  0.11940951969E+02  0.17770000000E+01 0. -1.
         15    1    1    2    0    0 -0.71956075464E+01  0.54212127304E+02  0.90265842036E+01  0.55456004780E+02  0.17770000000E+01 0.  1.
</event>
<event>
 6    1  0.6506903E-004  0.5086116E+03  0.7546771E-02  0.9380744E-01
        -11   -1    0    0    0    0  0.00000000000E+00  0.00000000000E+00  0.50000000000E+03  0.50000000000E+03  0.00000000000E+00 0. -1.
         11   -1    0    0    0    0 -0.00000000000E+00 -0.00000000000E+00 -0.50000000000E+03  0.50000000000E+03  0.00000000000E+00 0.  1.
        -11    1    1    2    0    0  0.54744063940E+01  0.86178656000E+01  0.41963238720E+03  0.41975656888E+03  0.00000000000E+00 0. -1.
         11    1    1    2    0    0  0.99760360585E+01  0.26538050494E+02 -0.49056986331E+03  0.49138842092E+03  0.00000000000E+00 0.  1.
        -15    1    1    2    0    0  0.11254602024E+02 -0.63703900575E+01  0.26418204840E+02  0.29467392354E+02  0.17770000000E+01 0.  1.
         15    1    1    2    0    0 -0.26705044476E+02 -0.28785526036E+02  0.44519271280E+02  0.59387617850E+02  0.17770000000E+01 0. -1.
</event>
<event>
 6    1  0.6506903E-004  0.5001365E+03  0.7546771E-02  0.9399504E-01
        -11   -1    0    0    0    0  0.00000000000E+00  0.00000000000E+00  0.50000000000E+03  0.50000000000E+03  0.00000000000E+00 0.  1.
         11   -1    0    0    0    0 -0.00000000000E+00 -0.00000000000E+00 -0.50000000000E+03  0.50000000000E+03  0.00000000000E+00 0. -1.
        -11    1    1    2    0    0 -0.18923234204E+01  0.18877521339E+01  0.26084556795E+02  0.26221147939E+02  0.00000000000E+00 0.  1.
         11    1    1    2    0    0 -0.38150484618E+01  0.14848332765E+02 -0.49962835391E+03  0.49986350098E+03  0.00000000000E+00 0. -1.
        -15    1    1    2    0    0  0.10144416064E+01 -0.10677495707E+02  0.26285319036E+03  0.26307792651E+03  0.17770000000E+01 0.  1.
         15    1    1    2    0    0  0.46929302759E+01 -0.60585891913E+01  0.21069060676E+03  0.21083742457E+03  0.17770000000E+01 0. -1.
</event>
<event>
 6    1  0.6506903E-004  0.5110339E+03  0.7546771E-02  0.9375453E-01
        -11   -1    0    0    0    0  0.00000000000E+00  0.00000000000E+00  0.50000000000E+03  0.50000000000E+03  0.00000000000E+00 0.  1.
         11   -1    0    0    0    0 -0.00000000000E+00 -0.00000000000E+00 -0.50000000000E+03  0.50000000000E+03  0.00000000000E+00 0.  1.
        -11    1    1    2    0    0 -0.10970855920E+02 -0.81892603061E+00  0.46914459694E+03  0.46927356964E+03  0.00000000000E+00 0.  1.
         11    1    1    2    0    0  0.87868532974E+01  0.30827505516E+02 -0.48791422202E+03  0.48896608465E+03  0.00000000000E+00 0.  1.
        -15    1    1    2    0    0  0.54995247027E+01 -0.23729162047E+02  0.32980470598E+01  0.24644527726E+02  0.17770000000E+01 0.  1.
         15    1    1    2    0    0 -0.33155220805E+01 -0.62794174376E+01  0.15471578017E+02  0.17115817987E+02  0.17770000000E+01 0. -1.
</event>
<event>
 6    1  0.6506903E-004  0.5052053E+03  0.7546771E-02  0.9388237E-01
        -11   -1    0    0    0    0  0.00000000000E+00  0.00000000000E+00  0.50000000000E+03  0.50000000000E+03  0.00000000000E+00 0.  1.
         11   -1    0    0    0    0 -0.00000000000E+00 -0.00000000000E+00 -0.50000000000E+03  0.50000000000E+03  0.00000000000E+00 0.  1.
        -11    1    1    2    0    0 -0.71292339890E+01 -0.58463800851E+01  0.49470883355E+03  0.49479474141E+03  0.00000000000E+00 0.  1.
         11    1    1    2    0    0 -0.76350879615E+01  0.24890855473E+02 -0.38359905880E+03  0.38448158235E+03  0.00000000000E+00 0.  1.
        -15    1    1    2    0    0  0.63218892718E+01  0.89180363923E+01 -0.83266894952E+01  0.13856014723E+02  0.17770000000E+01 0. -1.
         15    1    1    2    0    0  0.84424326787E+01 -0.27962511781E+02 -0.10278308525E+03  0.10686766152E+03  0.17770000000E+01 0.  1.
</event>
<event>
 6    1  0.6506903E-004  0.5009112E+03  0.7546771E-02  0.9397773E-01
        -11   -1    0    0    0    0  0.00000000000E+00  0.00000000000E+00  0.50000000000E+03  0.50000000000E+03  0.00000000000E+00 0.  1.
         11   -1    0    0    0    0 -0.00000000000E+00 -0.00000000000E+00 -0.50000000000E+03  0.50000000000E+03  0.00000000000E+00 0. -1.
        -11    1    1    2    0    0  0.38661713047E+01 -0.68046648869E+01  0.41489490694E+03  0.41496871514E+03  0.00000000000E+00 0.  1.
         11    1    1    2    0    0  0.12102630343E+02  0.40863936608E+01 -0.49892528398E+03  0.49908878095E+03  0.00000000000E+00 0. -1.
        -15    1    1    2    0    0 -0.12773966352E+02 -0.81165800238E+00  0.62247456294E+02  0.63574653354E+02  0.17770000000E+01 0. -1.
         15    1    1    2    0    0 -0.31948352960E+01  0.35299292285E+01  0.21782920749E+02  0.22367850551E+02  0.17770000000E+01 0.  1.
</event>
<event>
 6    1  0.6506903E-004  0.5006802E+03  0.7546771E-02  0.9398289E-01
        -11   -1    0    0    0    0  0.00000000000E+00  0.00000000000E+00  0.50000000000E+03  0.50000000000E+03  0.00000000000E+00 0. -1.
         11   -1    0    0    0    0 -0.00000000000E+00 -0.00000000000E+00 -0.50000000000E+03  0.50000000000E+03  0.00000000000E+00 0. -1.
        -11    1    1    2    0    0  0.49375893337E+01  0.52470633887E+01  0.49926784885E+03  0.49931983373E+03  0.00000000000E+00 0. -1.
         11    1    1    2    0    0 -0.11139352773E+02  0.16246491547E+01 -0.36231595263E+03  0.36249079188E+03  0.00000000000E+00 0. -1.
        -15    1    1    2    0    0  0.69387391610E+01 -0.10339858388E+02 -0.12419165032E+03  0.12482701034E+03  0.17770000000E+01 0. -1.
         15    1    1    2    0    0 -0.73697572191E+00  0.34681458448E+01 -0.12760245898E+02  0.13362364057E+02  0.17770000000E+01 0.  1.
</event>
<event>
 6    1  0.6506903E-004  0.5019529E+03  0.7546771E-02  0.9395451E-01
        -11   -1    0    0    0    0  0.00000000000E+00  0.00000000000E+00  0.50000000000E+03  0.50000000000E+03  0.00000000000E+00 0.  1.
         11   -1    0    0    0    0 -0.00000000000E+00 -0.00000000000E+00 -0.50000000000E+03  0.50000000000E+03  0.00000000000E+00 0. -1.
        -11    1    1    2    0    0 -0.11505391264E+02 -0.62594112469E+01  0.49787486648E+03  0.49804712320E+03  0.00000000000E+00 0.  1.
         11    1    1    2    0    0 -0.11813303135E+01  0.91224353967E+01 -0.47183841484E+03  0.47192807088E+03  0.00000000000E+00 0. -1.
        -15    1    1    2    0    0  0.32168695828E+01 -0.28589042046E+01 -0.47106757521E+01  0.66234264701E+01  0.17770000000E+01 0. -1.
         15    1    1    2    0    0  0.94698519945E+01 -0.41199451585E-02 -0.21325775887E+02  0.23401379445E+02  0.17770000000E+01 0.  1.
</event>
<event>
 6    1  0.6506903E-004  0.5008846E+03  0.7546771E-02  0.9397832E-01
        -11   -1    0    0    0    0  0.00000000000E+00  0.00000000000E+00  0.50000000000E+03  0.50000000000E+03  0.00000000000E+00 0.  1.
         11   -1    0    0    0    0 -0.00000000000E+00 -0.00000000000E+00 -0.50000000000E+03  0.50000000000E+03  0.00000000000E+00 0. -1.
        -11    1    1    2    0    0 -0.66349310437E+01 -0.43903813166E+01  0.40395388585E+03  0.40403222600E+03  0.00000000000E+00 0.  1.
         11    1    1    2    0    0  0.50125306943E+01 -0.10572697639E+02 -0.49897819697E+03  0.49911536588E+03  0.00000000000E+00 0. -1.
        -15    1    1    2    0    0 -0.35284721243E+01  0.34653543060E+01  0.41768334348E+02  0.42097627952E+02  0.17770000000E+01 0.  1.
         15    1    1    2    0    0  0.51508724737E+01  0.11497724649E+02  0.53255976781E+02  0.54754780168E+02  0.17770000000E+01 0. -1.
</event>
<event>
 6    1  0.6506903E-004  0.5106244E+03  0.7546771E-02  0.9376346E-01
        -11   -1    0    0    0    0  0.00000000000E+00  0.00000000000E+00  0.50000000000E+03  0.50000000000E+03  0.00000000000E+00 0.  1.
         11   -1    0    0    0    0 -0.00000000000E+00 -0.00000000000E+00 -0.50000000000E+03  0.50000000000E+03  0.00000000000E+00 0. -1.
        -11    1    1    2    0    0 -0.13775307218E+02  0.18870740293E+03  0.39477629019E+03  0.43777684076E+03  0.00000000000E+00 0.  1.
         11    1    1    2    0    0  0.44798427002E+02 -0.22842440447E+03 -0.43046934701E+03  0.48937558821E+03  0.00000000000E+00 0. -1.
        -15    1    1    2    0    0 -0.30212468604E+01  0.82747224504E+01  0.28770850143E+02  0.30141640817E+02  0.17770000000E+01 0. -1.
         15    1    1    2    0    0 -0.28001872924E+02  0.31442279085E+02  0.69222066817E+01  0.42705930216E+02  0.17770000000E+01 0.  1.
</event>
<event>
 6    1  0.6506903E-004  0.5004438E+03  0.7546771E-02  0.9398817E-01
        -11   -1    0    0    0    0  0.00000000000E+00  0.00000000000E+00  0.50000000000E+03  0.50000000000E+03  0.00000000000E+00 0.  1.
         11   -1    0    0    0    0 -0.00000000000E+00 -0.00000000000E+00 -0.50000000000E+03  0.50000000000E+03  0.00000000000E+00 0. -1.
        -11    1    1    2    0    0 -0.63648787485E+00  0.76694292209E+01  0.49949695382E+03  0.49955623521E+03  0.00000000000E+00 0.  1.
         11    1    1    2    0    0 -0.95526322314E+01 -0.18800095190E+01 -0.27687081821E+03  0.27704194122E+03  0.00000000000E+00 0. -1.
        -15    1    1    2    0    0  0.37493737245E+01 -0.97758303841E+01 -0.11193652262E+03  0.11243917239E+03  0.17770000000E+01 0. -1.
         15    1    1    2    0    0  0.64397463818E+01  0.39864106822E+01 -0.11068961299E+03  0.11096265118E+03  0.17770000000E+01 0.  1.
</event>
<event>
 6    1  0.6506903E-004  0.5011861E+03  0.7546771E-02  0.9397160E-01
        -11   -1    0    0    0    0  0.00000000000E+00  0.00000000000E+00  0.50000000000E+03  0.50000000000E+03  0.00000000000E+00 0.  1.
         11   -1    0    0    0    0 -0.00000000000E+00 -0.00000000000E+00 -0.50000000000E+03  0.50000000000E+03  0.00000000000E+00 0.  1.
        -11    1    1    2    0    0  0.97080537640E+01  0.70757653476E+01  0.49866924470E+03  0.49881392160E+03  0.00000000000E+00 0.  1.
         11    1    1    2    0    0  0.11337972315E+02 -0.47268798087E+01 -0.38484510177E+03  0.38504109568E+03  0.00000000000E+00 0.  1.
        -15    1    1    2    0    0 -0.77886958062E+01  0.28470836452E+01 -0.51214617825E+02  0.51912084100E+02  0.17770000000E+01 0.  1.
         15    1    1    2    0    0 -0.13257330273E+02 -0.51959691840E+01 -0.62609525109E+02  0.64232898620E+02  0.17770000000E+01 0. -1.
</event>
<event>
 6    1  0.6506903E-004  0.5061025E+03  0.7546771E-02  0.9386257E-01
        -11   -1    0    0    0    0  0.00000000000E+00  0.00000000000E+00  0.50000000000E+03  0.50000000000E+03  0.00000000000E+00 0. -1.
         11   -1    0    0    0    0 -0.00000000000E+00 -0.00000000000E+00 -0.50000000000E+03  0.50000000000E+03  0.00000000000E+00 0. -1.
        -11    1    1    2    0    0 -0.22224610299E+01 -0.92198742642E+01  0.45668312615E+03  0.45678159236E+03  0.00000000000E+00 0. -1.
         11    1    1    2    0    0  0.17414016899E+02 -0.80510813328E+01 -0.49352474480E+03  0.49389750113E+03  0.00000000000E+00 0. -1.
        -15    1    1    2    0    0 -0.20176207952E+02  0.10354122874E+02  0.19692917408E+02  0.30087471693E+02  0.17770000000E+01 0. -1.
         15    1    1    2    0    0  0.49846520829E+01  0.69168327228E+01  0.17148701243E+02  0.19233434811E+02  0.17770000000E+01 0.  1.
</event>
<event>
 6    1  0.6506903E-004  0.5032944E+03  0.7546771E-02  0.9392468E-01
        -11   -1    0    0    0    0  0.00000000000E+00  0.00000000000E+00  0.50000000000E+03  0.50000000000E+03  0.00000000000E+00 0.  1.
         11   -1    0    0    0    0 -0.00000000000E+00 -0.00000000000E+00 -0.50000000000E+03  0.50000000000E+03  0.00000000000E+00 0. -1.
        -11    1    1    2    0    0 -0.16881608331E+00  0.75597582010E+01  0.47464840821E+03  0.47470863680E+03  0.00000000000E+00 0.  1.
         11    1    1    2    0    0 -0.12910748730E+02 -0.25929512261E+01 -0.49653100337E+03  0.49670559503E+03  0.00000000000E+00 0. -1.
        -15    1    1    2    0    0  0.60523209089E+01  0.32312374248E+01  0.59312627617E+01  0.92417038812E+01  0.17770000000E+01 0.  1.
         15    1    1    2    0    0  0.70272439041E+01 -0.81980443996E+01  0.15951332398E+02  0.19344064287E+02  0.17770000000E+01 0. -1.
</event>
<event>
 6    1  0.6506903E-004  0.5004096E+03  0.7546771E-02  0.9398894E-01
        -11   -1    0    0    0    0  0.00000000000E+00  0.00000000000E+00  0.50000000000E+03  0.50000000000E+03  0.00000000000E+00 0.  1.
         11   -1    0    0    0    0 -0.00000000000E+00 -0.00000000000E+00 -0.50000000000E+03  0.50000000000E+03  0.00000000000E+00 0. -1.
        -11    1    1    2    0    0 -0.50190896114E+01  0.62448010216E+01  0.63418753104E+02  0.63922821008E+02  0.00000000000E+00 0.  1.
         11    1    1    2    0    0 -0.18283015525E+02 -0.15045345100E+02 -0.49902896923E+03  0.49959037540E+03  0.00000000000E+00 0. -1.
        -15    1    1    2    0    0  0.10120991009E+02  0.53243618202E+01  0.28951614568E+03  0.28974737208E+03  0.17770000000E+01 0.  1.
         15    1    1    2    0    0  0.13181114127E+02  0.34761822581E+01  0.14609407045E+03  0.14673943151E+03  0.17770000000E+01 0. -1.
</event>
<event>
 6    1  0.6506903E-004  0.5034848E+03  0.7546771E-02  0.9392046E-01
        -11   -1    0    0    0    0  0.00000000000E+00  0.00000000000E+00  0.50000000000E+03  0.50000000000E+03  0.00000000000E+00 0.  1.
         11   -1    0    0    0    0 -0.00000000000E+00 -0.00000000000E+00 -0.50000000000E+03  0.50000000000E+03  0.00000000000E+00 0.  1.
        -11    1    1    2    0    0 -0.65234902543E+01 -0.39307709574E+01  0.48877687121E+03  0.48883620642E+03  0.00000000000E+00 0.  1.
         11    1    1    2    0    0  0.45862645058E+01 -0.70357696251E+01 -0.49644417917E+03  0.49651521519E+03  0.00000000000E+00 0.  1.
        -15    1    1    2    0    0  0.14011968921E+01  0.10029997020E+02  0.55632387048E+01  0.11690660667E+02  0.17770000000E+01 0. -1.
         15    1    1    2    0    0  0.53602885642E+00  0.93654356241E+00  0.21040692633E+01  0.29579177210E+01  0.17770000000E+01 0.  1.
</event>
<event>
 6    1  0.6506903E-004  0.5001641E+03  0.7546771E-02  0.9399443E-01
        -11   -1    0    0    0    0  0.00000000000E+00  0.00000000000E+00  0.50000000000E+03  0.50000000000E+03  0.00000000000E+00 0.  1.
         11   -1    0    0    0    0 -0.00000000000E+00 -0.00000000000E+00 -0.50000000000E+03  0.50000000000E+03  0.00000000000E+00 0.  1.
        -11    1    1    2    0    0  0.41460952899E+01 -0.73481552571E+01  0.94454609150E+02  0.94830684283E+02  0.00000000000E+00 0.  1.
         11    1    1    2    0    0 -0.44150291764E+01  0.92241692545E+01 -0.49973131608E+03  0.49983593914E+03  0.00000000000E+00 0.  1.
        -15    1    1    2    0    0  0.21571240822E+01  0.89546083778E+00  0.15329285490E+03  0.15332094484E+03  0.17770000000E+01 0.  1.
         15    1    1    2    0    0 -0.18881901958E+01 -0.27714748352E+01  0.25198385204E+03  0.25201243174E+03  0.17770000000E+01 0. -1.
</event>
<event>
 6    1  0.6506903E-004  0.5014220E+03  0.7546771E-02  0.9396634E-01
        -11   -1    0    0    0    0  0.00000000000E+00  0.00000000000E+00  0.50000000000E+03  0.50000000000E+03  0.00000000000E+00 0.  1.
         11   -1    0    0    0    0 -0.00000000000E+00 -0.00000000000E+00 -0.50000000000E+03  0.50000000000E+03  0.00000000000E+00 0.  1.
        -11    1    1    2    0    0 -0.59539907793E+01 -0.36976987151E+01  0.42840634795E+03  0.42846367635E+03  0.00000000000E+00 0.  1.
         11    1    1    2    0    0 -0.97259783002E+01 -0.11220212539E+00 -0.49848312450E+03  0.49857801060E+03  0.00000000000E+00 0.  1.
        -15    1    1    2    0    0  0.13352074918E+02 -0.13500724881E+01  0.38045020278E+02  0.40381702506E+02  0.17770000000E+01 0.  1.
         15    1    1    2    0    0  0.23278941613E+01  0.51599733286E+01  0.32031756268E+02  0.32576610544E+02  0.17770000000E+01 0.  1.
</event>
<event>
 6    1  0.6506903E-004  0.5129600E+03  0.7546771E-02  0.9371269E-01
        -11   -1    0    0    0    0  0.00000000000E+00  0.00000000000E+00  0.50000000000E+03  0.50000000000E+03  0.00000000000E+00 0.  1.
         11   -1    0    0    0    0 -0.00000000000E+00 -0.00000000000E+00 -0.50000000000E+03  0.50000000000E+03  0.00000000000E+00 0.  1.
        -11    1    1    2    0    0 -0.14847881972E+02 -0.36209732174E+00  0.44359120426E+03  0.44383977651E+03  0.00000000000E+00 0.  1.
         11    1    1    2    0    0 -0.22302431201E+02  0.94380265907E+01 -0.48643758800E+03  0.48704004127E+03  0.00000000000E+00 0.  1.
        -15    1    1    2    0    0  0.61585290647E+01  0.77723871513E+01  0.29817718761E+02  0.31473664601E+02  0.17770000000E+01 0. -1.
         15    1    1    2    0    0  0.30991784107E+02 -0.16848316420E+02  0.13028664978E+02  0.37646517614E+02  0.17770000000E+01 0.  1.
</event>
<event>
 6    1  0.6506903E-004  0.5010233E+03  0.7546771E-02  0.9397523E-01
        -11   -1    0    0    0    0  0.00000000000E+00  0.00000000000E+00  0.50000000000E+03  0.50000000000E+03  0.00000000000E+00 0.  1.
         11   -1    0    0    0    0 -0.00000000000E+00 -0.00000000000E+00 -0.50000000000E+03  0.50000000000E+03  0.00000000000E+00 0.  1.
        -11    1    1    2    0    0 -0.25664157741E+01 -0.46242068655E+01  0.34070899915E+03  0.34075004312E+03  0.00000000000E+00 0.  1.
         11    1    1    2    0    0  0.16232589104E+02 -0.17868116195E+02 -0.49839235332E+03  0.49897665715E+03  0.00000000000E+00 0.  1.
        -15    1    1    2    0    0 -0.15019173756E+02  0.21401209324E+02  0.14316040696E+03  0.14553916034E+03  0.17770000000E+01 0. -1.
         15    1    1    2    0    0  0.13530004261E+01  0.10911137372E+01  0.14522947205E+02  0.14734139400E+02  0.17770000000E+01 0.  1.
</event>
<event>
 6    1  0.6506903E-004  0.5000754E+03  0.7546771E-02  0.9399641E-01
        -11   -1    0    0    0    0  0.00000000000E+00  0.00000000000E+00  0.50000000000E+03  0.50000000000E+03  0.00000000000E+00 0.  1.
         11   -1    0    0    0    0 -0.00000000000E+00 -0.00000000000E+00 -0.50000000000E+03  0.50000000000E+03  0.00000000000E+00 0. -1.
        -11    1    1    2    0    0 -0.15562022941E+01 -0.16418410780E+01  0.72168402405E+02  0.72203848328E+02  0.00000000000E+00 0.  1.
         11    1    1    2    0    0  0.22737199479E+01 -0.13326326764E+02 -0.49974179024E+03  0.49992461202E+03  0.00000000000E+00 0. -1.
        -15    1    1    2    0    0  0.81421499631E+00  0.87060767259E+01  0.28778844708E+03  0.28792673846E+03  0.17770000000E+01 0.  1.
         15    1    1    2    0    0 -0.15317326501E+01  0.62620911156E+01  0.13978494075E+03  0.13994480119E+03  0.17770000000E+01 0. -1.
</event>
<event>
 6    1  0.6506903E-004  0.5029504E+03  0.7546771E-02  0.9393232E-01
        -11   -1    0    0    0    0  0.00000000000E+00  0.00000000000E+00  0.50000000000E+03  0.50000000000E+03  0.00000000000E+00 0.  1.
         11   -1    0    0    0    0 -0.00000000000E+00 -0.00000000000E+00 -0.50000000000E+03  0.50000000000E+03  0.00000000000E+00 0. -1.
        -11    1    1    2    0    0 -0.51572779805E+01 -0.73934245894E+01  0.28417445601E+03  0.28431739604E+03  0.00000000000E+00 0.  1.
         11    1    1    2    0    0 -0.29204000945E+02 -0.29043254278E+02 -0.49534016386E+03  0.49704955711E+03  0.00000000000E+00 0. -1.
        -15    1    1    2    0    0  0.25931379887E+02  0.38862229160E+02  0.16001937199E+03  0.16670952720E+03  0.17770000000E+01 0.  1.
         15    1    1    2    0    0  0.84298990380E+01 -0.24255502923E+01  0.51146335853E+02  0.51923519644E+02  0.17770000000E+01 0. -1.
</event>
<event>
 6    1  0.6506903E-004  0.5003825E+03  0.7546771E-02  0.9398954E-01
        -11   -1    0    0    0    0  0.00000000000E+00  0.00000000000E+00  0.50000000000E+03  0.50000000000E+03  0.00000000000E+00 0.  1.
         11   -1    0    0    0    0 -0.00000000000E+00 -0.00000000000E+00 -0.50000000000E+03  0.50000000000E+03  0.00000000000E+00 0.  1.
        -11    1    1    2    0    0  0.66627387385E+01 -0.12736248138E+01  0.39513468038E+03  0.39519290207E+03  0.00000000000E+00 0.  1.
         11    1    1    2    0    0 -0.52864267874E+01 -0.74039402759E+01 -0.49953463979E+03  0.49961747467E+03  0.00000000000E+00 0.  1.
        -15    1    1    2    0    0 -0.13391596433E+01  0.15634233308E+01  0.68213134751E+02  0.68267321044E+02  0.17770000000E+01 0.  1.
         15    1    1    2    0    0 -0.37152307731E-01  0.71141417589E+01  0.36186824665E+02  0.36922302225E+02  0.17770000000E+01 0. -1.
</event>
<event>
 6    1  0.6506903E-004  0.5010069E+03  0.7546771E-02  0.9397560E-01
        -11   -1    0    0    0    0  0.00000000000E+00  0.00000000000E+00  0.50000000000E+03  0.50000000000E+03  0.00000000000E+00 0.  1.
         11   -1    0    0    0    0 -0.00000000000E+00 -0.00000000000E+00 -0.50000000000E+03  0.50000000000E+03  0.00000000000E+00 0.  1.
        -11    1    1    2    0    0  0.75695947984E+01  0.37012597136E+01  0.49892197637E+03  0.49899312279E+03  0.00000000000E+00 0.  1.
         11    1    1    2    0    0 -0.14878465764E+02  0.82338125964E+01 -0.41851978704E+03  0.41886510544E+03  0.00000000000E+00 0.  1.
        -15    1    1    2    0    0 -0.16117088388E+01 -0.16617519606E+01 -0.19182229844E+02  0.19402955851E+02  0.17770000000E+01 0. -1.
         15    1    1    2    0    0  0.89205798046E+01 -0.10273320349E+02 -0.61219959482E+02  0.62738815920E+02  0.17770000000E+01 0.  1.
</event>
<event>
 6    1  0.6506903E-004  0.5215495E+03  0.7546771E-02  0.9352841E-01
        -11   -1    0    0    0    0  0.00000000000E+00  0.00000000000E+00  0.50000000000E+03  0.50000000000E+03  0.00000000000E+00 0. -1.
         11   -1    0    0    0    0 -0.00000000000E+00 -0.00000000000E+00 -0.50000000000E+03  0.50000000000E+03  0.00000000000E+00 0.  1.
        -11    1    1    2    0    0  0.11348247902E+02  0.77509694332E+01  0.41912135959E+03  0.41934660404E+03  0.00000000000E+00 0. -1.
         11    1    1    2    0    0  0.38299995967E+02  0.76471394995E+01 -0.47685374354E+03  0.47845047932E+03  0.00000000000E+00 0.  1.
        -15    1    1    2    0    0 -0.65892049698E+02 -0.83293762760E+01  0.43558604076E+02  0.79445896311E+02  0.17770000000E+01 0. -1.
         15    1    1    2    0    0  0.16243805830E+02 -0.70687326566E+01  0.14173779876E+02  0.22757020327E+02  0.17770000000E+01 0.  1.
</event>
<event>
 6    1  0.6506903E-004  0.5010569E+03  0.7546771E-02  0.9397448E-01
        -11   -1    0    0    0    0  0.00000000000E+00  0.00000000000E+00  0.50000000000E+03  0.50000000000E+03  0.00000000000E+00 0.  1.
         11   -1    0    0    0    0 -0.00000000000E+00 -0.00000000000E+00 -0.50000000000E+03  0.50000000000E+03  0.00000000000E+00 0. -1.
        -11    1    1    2    0    0  0.50815487158E+01 -0.54719596394E+01  0.49888721352E+03  0.49894309926E+03  0.00000000000E+00 0.  1.
         11    1    1    2    0    0 -0.96146372305E+00  0.73070783127E+01 -0.48916991265E+03  0.48922542988E+03  0.00000000000E+00 0. -1.
        -15    1    1    2    0    0 -0.23587565300E+01  0.84790200344E+00 -0.41339830635E+01  0.51507489887E+01  0.17770000000E+01 0. -1.
         15    1    1    2    0    0 -0.17613284628E+01 -0.26830206768E+01 -0.55833178123E+01  0.66807218696E+01  0.17770000000E+01 0.  1.
</event>
<event>
 6    1  0.6506903E-004  0.4651760E+03  0.7546771E-02  0.9481290E-01
        -11   -1    0    0    0    0  0.00000000000E+00  0.00000000000E+00  0.50000000000E+03  0.50000000000E+03  0.00000000000E+00 0. -1.
         11   -1    0    0    0    0 -0.00000000000E+00 -0.00000000000E+00 -0.50000000000E+03  0.50000000000E+03  0.00000000000E+00 0. -1.
        -11    1    1    2    0    0  0.99993646210E+01 -0.76046056430E+01  0.45932200730E+03  0.45949376896E+03  0.00000000000E+00 0. -1.
         11    1    1    2    0    0  0.26668144276E+02 -0.20791446852E+02 -0.47087241367E+03  0.47208506028E+03  0.00000000000E+00 0. -1.
        -15    1    1    2    0    0 -0.17465915243E+02  0.40168750168E+02  0.19738961217E+01  0.43882122559E+02  0.17770000000E+01 0.  1.
         15    1    1    2    0    0 -0.19201593654E+02 -0.11772697673E+02  0.95765102451E+01  0.24539048205E+02  0.17770000000E+01 0. -1.
</event>
<event>
 6    1  0.6506903E-004  0.5014135E+03  0.7546771E-02  0.9396652E-01
        -11   -1    0    0    0    0  0.00000000000E+00  0.00000000000E+00  0.50000000000E+03  0.50000000000E+03  0.00000000000E+00 0. -1.
         11   -1    0    0    0    0 -0.00000000000E+00 -0.00000000000E+00 -0.50000000000E+03  0.50000000000E+03  0.00000000000E+00 0. -1.
        -11    1    1    2    0    0 -0.21497951359E+01  0.89258695976E+01  0.42287824895E+03  0.42297790274E+03  0.00000000000E+00 0. -1.
         11    1    1    2    0    0 -0.38199819654E+01  0.83981822268E+01 -0.49850108501E+03  0.49858645537E+03  0.00000000000E+00 0. -1.
        -15    1    1    2    0    0  0.32268115502E+01 -0.15686170367E+01  0.24954825147E+02  0.25273976721E+02  0.17770000000E+01 0. -1.
         15    1    1    2    0    0  0.27429655511E+01 -0.15755434788E+02  0.50668010907E+02  0.53161665170E+02  0.17770000000E+01 0. -1.
</event>
<event>
 6    1  0.6506903E-004  0.5027414E+03  0.7546771E-02  0.9393696E-01
        -11   -1    0    0    0    0  0.00000000000E+00  0.00000000000E+00  0.50000000000E+03  0.50000000000E+03  0.00000000000E+00 0. -1.
         11   -1    0    0    0    0 -0.00000000000E+00 -0.00000000000E+00 -0.50000000000E+03  0.50000000000E+03  0.00000000000E+00 0.  1.
        -11    1    1    2    0    0 -0.11005761691E+02  0.70459994094E+00  0.45106430181E+03  0.45119909976E+03  0.00000000000E+00 0. -1.
         11    1    1    2    0    0 -0.97387526359E+01  0.62491861481E+01 -0.49712395661E+03  0.49725860863E+03  0.00000000000E+00 0.  1.
        -15    1    1    2    0    0  0.11542006965E+02 -0.43108295127E+00  0.24558418968E+02  0.27197011389E+02  0.17770000000E+01 0. -1.
         15    1    1    2    0    0  0.92025073626E+01 -0.65227031377E+01  0.21501235825E+02  0.24345280220E+02  0.17770000000E+01 0.  1.
</event>
<event>
 6    1  0.6506903E-004  0.5120656E+03  0.7546771E-02  0.9373210E-01
        -11   -1    0    0    0    0  0.00000000000E+00  0.00000000000E+00  0.50000000000E+03  0.50000000000E+03  0.00000000000E+00 0. -1.
         11   -1    0    0    0    0 -0.00000000000E+00 -0.00000000000E+00 -0.50000000000E+03  0.50000000000E+03  0.00000000000E+00 0.  1.
        -11    1    1    2    0    0  0.11268971555E+01 -0.13243289250E+02  0.30047708116E+03  0.30077089439E+03  0.00000000000E+00 0. -1.
         11    1    1    2    0    0 -0.11352130466E+03  0.11478897711E+02 -0.47440608718E+03  0.48793440877E+03  0.00000000000E+00 0.  1.
        -15    1    1    2    0    0  0.17888286920E+02  0.12892425984E+02  0.17584260154E+02  0.28258970095E+02  0.17770000000E+01 0.  1.
         15    1    1    2    0    0  0.94506120589E+02 -0.11128034446E+02  0.15634474586E+03  0.18303572675E+03  0.17770000000E+01 0. -1.
</event>
<event>
 6    1  0.6506903E-004  0.4904437E+03  0.7546771E-02  0.9421450E-01
        -11   -1    0    0    0    0  0.00000000000E+00  0.00000000000E+00  0.50000000000E+03  0.50000000000E+03  0.00000000000E+00 0. -1.
         11   -1    0    0    0    0 -0.00000000000E+00 -0.00000000000E+00 -0.50000000000E+03  0.50000000000E+03  0.00000000000E+00 0. -1.
        -11    1    1    2    0    0 -0.51869143606E+01 -0.54334106150E+01  0.49150943771E+03  0.49156683512E+03  0.00000000000E+00 0. -1.
         11    1    1    2    0    0  0.11518283344E+02 -0.18363617566E+00 -0.48922408712E+03  0.48935969592E+03  0.00000000000E+00 0. -1.
        -15    1    1    2    0    0  0.30066926191E+01  0.73999901289E+01  0.21095525511E+01  0.84503251642E+01  0.17770000000E+01 0.  1.
         15    1    1    2    0    0 -0.93380616025E+01 -0.17829433383E+01 -0.43949031434E+01  0.10623143795E+02  0.17770000000E+01 0. -1.
</event>
<event>
 6    1  0.6506903E-004  0.5001868E+03  0.7546771E-02  0.9399392E-01
        -11   -1    0    0    0    0  0.00000000000E+00  0.00000000000E+00  0.50000000000E+03  0.50000000000E+03  0.00000000000E+00 0. -1.
         11   -1    0    0    0    0 -0.00000000000E+00 -0.00000000000E+00 -0.50000000000E+03  0.50000000000E+03  0.00000000000E+00 0. -1.
        -11    1    1    2    0    0 -0.65691332987E+01  0.24912324443E+01  0.33196272815E+03  0.33203706515E+03  0.00000000000E+00 0. -1.
         11    1    1    2    0    0  0.51369282999E+01  0.72588057174E+01 -0.49973410331E+03  0.49981321741E+03  0.00000000000E+00 0. -1.
        -15    1    1    2    0    0 -0.52705869355E+00 -0.64882527095E+01  0.82738273284E+02  0.83012979763E+02  0.17770000000E+01 0.  1.
         15    1    1    2    0    0  0.19592636923E+01 -0.32617854522E+01  0.85033101876E+02  0.85136737676E+02  0.17770000000E+01 0. -1.
</event>
<event>
 6    1  0.6506903E-004  0.4871004E+03  0.7546771E-02  0.9429145E-01
        -11   -1    0    0    0    0  0.00000000000E+00  0.00000000000E+00  0.50000000000E+03  0.50000000000E+03  0.00000000000E+00 0.  1.
         11   -1    0    0    0    0 -0.00000000000E+00 -0.00000000000E+00 -0.50000000000E+03  0.50000000000E+03  0.00000000000E+00 0. -1.
        -11    1    1    2    0    0  0.58787159916E+00  0.73125892559E+01  0.48255087231E+03  0.48260663476E+03  0.00000000000E+00 0.  1.
         11    1    1    2    0    0  0.16951928134E+02 -0.15518049817E+02 -0.49128855770E+03  0.49182580723E+03  0.00000000000E+00 0. -1.
        -15    1    1    2    0    0 -0.17698077063E+02  0.65573278620E+01  0.11273627455E+02  0.22056130336E+02  0.17770000000E+01 0. -1.
         15    1    1    2    0    0  0.15827732932E+00  0.16481326992E+01 -0.25359420628E+01  0.35114276659E+01  0.17770000000E+01 0.  1.
</event>
<event>
 6    1  0.6506903E-004  0.5009169E+03  0.7546771E-02  0.9397760E-01
        -11   -1    0    0    0    0  0.00000000000E+00  0.00000000000E+00  0.50000000000E+03  0.50000000000E+03  0.00000000000E+00 0.  1.
         11   -1    0    0    0    0 -0.00000000000E+00 -0.00000000000E+00 -0.50000000000E+03  0.50000000000E+03  0.00000000000E+00 0. -1.
        -11    1    1    2    0    0 -0.14774348476E+02 -0.30351768671E+01  0.49885513953E+03  0.49908310320E+03  0.00000000000E+00 0.  1.
         11    1    1    2    0    0 -0.96810976352E-01  0.91806798699E+01 -0.42593392094E+03  0.42603286172E+03  0.00000000000E+00 0. -1.
        -15    1    1    2    0    0  0.10865184661E+02 -0.24142529099E+01 -0.49198196819E+02  0.50472776366E+02  0.17770000000E+01 0. -1.
         15    1    1    2    0    0  0.40059747910E+01 -0.37312500929E+01 -0.23723021763E+02  0.24411258711E+02  0.17770000000E+01 0.  1.
</event>
<event>
 6    1  0.6506903E-004  0.5012394E+03  0.7546771E-02  0.9397041E-01
        -11   -1    0    0    0    0  0.00000000000E+00  0.00000000000E+00  0.50000000000E+03  0.50000000000E+03  0.00000000000E+00 0. -1.
         11   -1    0    0    0    0 -0.00000000000E+00 -0.00000000000E+00 -0.50000000000E+03  0.50000000000E+03  0.00000000000E+00 0.  1.
        -11    1    1    2    0    0  0.17170856419E+00 -0.54143267687E+02  0.49581309577E+03  0.49876061278E+03  0.00000000000E+00 0. -1.
         11    1    1    2    0    0  0.20057066761E+02  0.37850444545E+02 -0.23568734919E+03  0.23954846827E+03  0.00000000000E+00 0.  1.
        -15    1    1    2    0    0 -0.73888523368E+01  0.80604488578E+00 -0.47822137469E+02  0.48428910872E+02  0.17770000000E+01 0.  1.
         15    1    1    2    0    0 -0.12839922989E+02  0.15486778256E+02 -0.21230360911E+03  0.21326200809E+03  0.17770000000E+01 0. -1.
</event>
<event>
 6    1  0.6506903E-004  0.4914076E+03  0.7546771E-02  0.9419244E-01
        -11   -1    0    0    0    0  0.00000000000E+00  0.00000000000E+00  0.50000000000E+03  0.50000000000E+03  0.00000000000E+00 0.  1.
         11   -1    0    0    0    0 -0.00000000000E+00 -0.00000000000E+00 -0.50000000000E+03  0.50000000000E+03  0.00000000000E+00 0. -1.
        -11    1    1    2    0    0  0.35795696926E+01 -0.60054485551E+01  0.49395686393E+03  0.49400633818E+03  0.00000000000E+00 0.  1.
         11    1    1    2    0    0 -0.74979521402E+00 -0.87427840039E+01 -0.48885798045E+03  0.48893672751E+03  0.00000000000E+00 0. -1.
        -15    1    1    2    0    0 -0.33207266192E+01  0.13514251277E+02 -0.47479646672E+01  0.14810911867E+02  0.17770000000E+01 0. -1.
         15    1    1    2    0    0  0.49095214063E+00  0.12339812820E+01 -0.35091882003E+00  0.22460224458E+01  0.17770000000E+01 0.  1.
</event>
<event>
 6    1  0.6506903E-004  0.5001140E+03  0.7546771E-02  0.9399555E-01
        -11   -1    0    0    0    0  0.00000000000E+00  0.00000000000E+00  0.50000000000E+03  0.50000000000E+03  0.00000000000E+00 0. -1.
         11   -1    0    0    0    0 -0.00000000000E+00 -0.00000000000E+00 -0.50000000000E+03  0.50000000000E+03  0.00000000000E+00 0. -1.
        -11    1    1    2    0    0 -0.14950288970E+01  0.44643198603E+01  0.65302977226E+02  0.65472468243E+02  0.00000000000E+00 0. -1.
         11    1    1    2    0    0 -0.82300621875E+01 -0.95146254780E+01 -0.49972763941E+03  0.49988596261E+03  0.00000000000E+00 0. -1.
        -15    1    1    2    0    0  0.86783206123E+01  0.66487747187E+00  0.27973319974E+03  0.27987421474E+03  0.17770000000E+01 0. -1.
         15    1    1    2    0    0  0.10467704722E+01  0.43854281459E+01  0.15469146244E+03  0.15476735441E+03  0.17770000000E+01 0.  1.
</event>
<event>
 6    1  0.6506903E-004  0.4807072E+03  0.7546771E-02  0.9444045E-01
        -11   -1    0    0    0    0  0.00000000000E+00  0.00000000000E+00  0.50000000000E+03  0.50000000000E+03  0.00000000000E+00 0. -1.
         11   -1    0    0    0    0 -0.00000000000E+00 -0.00000000000E+00 -0.50000000000E+03  0.50000000000E+03  0.00000000000E+00 0.  1.
        -11    1    1    2    0    0 -0.12903618472E+02 -0.35825859965E+01  0.49682803247E+03  0.49700848296E+03  0.00000000000E+00 0. -1.
         11    1    1    2    0    0  0.11782101535E+02 -0.24376865956E+01 -0.40081003132E+02  0.41847903706E+02  0.00000000000E+00 0.  1.
        -15    1    1    2    0    0 -0.18841960703E+02  0.26742735905E+02 -0.29844869434E+03  0.30024152659E+03  0.17770000000E+01 0.  1.
         15    1    1    2    0    0  0.19963477640E+02 -0.20722463313E+02 -0.15829833500E+03  0.16090208674E+03  0.17770000000E+01 0. -1.
</event>
<event>
 6    1  0.6506903E-004  0.5019126E+03  0.7546771E-02  0.9395540E-01
        -11   -1    0    0    0    0  0.00000000000E+00  0.00000000000E+00  0.50000000000E+03  0.50000000000E+03  0.00000000000E+00 0. -1.
         11   -1    0    0    0    0 -0.00000000000E+00 -0.00000000000E+00 -0.50000000000E+03  0.50000000000E+03  0.00000000000E+00 0.  1.
        -11    1    1    2    0    0 -0.93339979242E+01  0.11086109372E+01  0.49799865940E+03  0.49808735910E+03  0.00000000000E+00 0. -1.
         11    1    1    2    0    0  0.53372776962E+01 -0.40135738208E+01 -0.46462990625E+03  0.46467789391E+03  0.00000000000E+00 0.  1.
        -15    1    1    2    0    0  0.74466570612E+01  0.47602683894E+00 -0.31272526481E+02  0.32199502239E+02  0.17770000000E+01 0.  1.
         15    1    1    2    0    0 -0.34499368332E+01  0.24289360446E+01 -0.20962266642E+01  0.50352447497E+01  0.17770000000E+01 0. -1.
</event>
<event>
 6    1  0.6506903E-004  0.4929169E+03  0.7546771E-02  0.9415800E-01
        -11   -1    0    0    0    0  0.00000000000E+00  0.00000000000E+00  0.50000000000E+03  0.50000000000E+03  0.00000000000E+00 0.  1.
         11   -1    0    0    0    0 -0.00000000000E+00 -0.00000000000E+00 -0.50000000000E+03  0.50000000000E+03  0.00000000000E+00 0.  1.
        -11    1    1    2    0    0 -0.92129834387E+01  0.67597632145E+01  0.49469915066E+03  0.49483110566E+03  0.00000000000E+00 0.  1.
         11    1    1    2    0    0  0.20577559999E+02 -0.62445587106E+01 -0.49060572272E+03  0.49107678183E+03  0.00000000000E+00 0.  1.
        -15    1    1    2    0    0 -0.54738060410E+00 -0.14201018258E+01 -0.15373640680E+01  0.27995592508E+01  0.17770000000E+01 0. -1.
         15    1    1    2    0    0 -0.10817195956E+02  0.90489732182E+00 -0.25560638726E+01  0.11292553256E+02  0.17770000000E+01 0.  1.
</event>
<event>
 6    1  0.6506903E-004  0.4924728E+03  0.7546771E-02  0.9416812E-01
        -11   -1    0    0    0    0  0.00000000000E+00  0.00000000000E+00  0.50000000000E+03  0.50000000000E+03  0.00000000000E+00 0. -1.
         11   -1    0    0    0    0 -0.00000000000E+00 -0.00000000000E+00 -0.50000000000E+03  0.50000000000E+03  0.00000000000E+00 0. -1.
        -11    1    1    2    0    0  0.13156262807E+02 -0.22543356724E+00  0.49510270905E+03  0.49527752885E+03  0.00000000000E+00 0. -1.
         11    1    1    2    0    0 -0.58436347101E+01 -0.73524589724E+01 -0.48964936801E+03  0.48973943104E+03  0.00000000000E+00 0. -1.
        -15    1    1    2    0    0 -0.84412080949E+01  0.45556657853E+01 -0.56880482763E+01  0.11292462399E+02  0.17770000000E+01 0. -1.
         15    1    1    2    0    0  0.11285799982E+01  0.30222267543E+01  0.23470723299E+00  0.36905777125E+01  0.17770000000E+01 0.  1.
</event>
<event>
 6    1  0.6506903E-004  0.5006199E+03  0.7546771E-02  0.9398424E-01
        -11   -1    0    0    0    0  0.00000000000E+00  0.00000000000E+00  0.50000000000E+03  0.50000000000E+03  0.00000000000E+00 0.  1.
         11   -1    0    0    0    0 -0.00000000000E+00 -0.00000000000E+00 -0.50000000000E+03  0.50000000000E+03  0.00000000000E+00 0.  1.
        -11    1    1    2    0    0 -0.11938915128E+02  0.11407025209E+02  0.49910700819E+03  0.49938007924E+03  0.00000000000E+00 0.  1.
         11    1    1    2    0    0  0.92493645884E+01 -0.12548844483E+02 -0.38402137845E+03  0.38433766840E+03  0.00000000000E+00 0.  1.
        -15    1    1    2    0    0  0.35450021011E+00  0.30846561736E+01 -0.11021619773E+03  0.11027424334E+03  0.17770000000E+01 0.  1.
         15    1    1    2    0    0  0.23350503298E+01 -0.19428368989E+01 -0.48694320122E+01  0.60080090196E+01  0.17770000000E+01 0. -1.
</event>
<event>
 6    1  0.6506903E-004  0.5020619E+03  0.7546771E-02  0.9395208E-01
        -11   -1    0    0    0    0  0.00000000000E+00  0.00000000000E+00  0.50000000000E+03  0.50000000000E+03  0.00000000000E+00 0. -1.
         11   -1    0    0    0    0 -0.00000000000E+00 -0.00000000000E+00 -0.50000000000E+03  0.50000000000E+03  0.00000000000E+00 0.  1.
        -11    1    1    2    0    0  0.73662732945E+01  0.88972375087E+01  0.49780413018E+03  0.49793812350E+03  0.00000000000E+00 0. -1.
         11    1    1    2    0    0  0.69053353011E+01 -0.75276384434E+01 -0.46525728715E+03  0.46536941481E+03  0.00000000000E+00 0.  1.
        -15    1    1    2    0    0 -0.10525147287E+02 -0.30153899432E+00 -0.29672111514E+02  0.31535084936E+02  0.17770000000E+01 0. -1.
         15    1    1    2    0    0 -0.37464613084E+01 -0.10680600710E+01 -0.28747315136E+01  0.51573767485E+01  0.17770000000E+01 0.  1.
</event>
<event>
 6    1  0.6506903E-004  0.5054528E+03  0.7546771E-02  0.9387691E-01
        -11   -1    0    0    0    0  0.00000000000E+00  0.00000000000E+00  0.50000000000E+03  0.50000000000E+03  0.00000000000E+00 0. -1.
         11   -1    0    0    0    0 -0.00000000000E+00 -0.00000000000E+00 -0.50000000000E+03  0.50000000000E+03  0.00000000000E+00 0. -1.
        -11    1    1    2    0    0  0.64149411305E+01 -0.16052580762E+01  0.48524198180E+03  0.48528703797E+03  0.00000000000E+00 0. -1.
         11    1    1    2    0    0 -0.78057122352E+01  0.66806773589E+01 -0.49444045125E+03  0.49454718726E+03  0.00000000000E+00 0. -1.
        -15    1    1    2    0    0 -0.45670015459E+01 -0.59134338962E+01 -0.14413911018E+01  0.78141884335E+01  0.17770000000E+01 0. -1.
         15    1    1    2    0    0  0.59577726505E+01  0.83801461353E+00  0.10639860555E+02  0.12351586338E+02  0.17770000000E+01 0.  1.
</event>
<event>
 6    1  0.6506903E-004  0.5024297E+03  0.7546771E-02  0.9394389E-01
        -11   -1    0    0    0    0  0.00000000000E+00  0.00000000000E+00  0.50000000000E+03  0.50000000000E+03  0.00000000000E+00 0. -1.
         11   -1    0    0    0    0 -0.00000000000E+00 -0.00000000000E+00 -0.50000000000E+03  0.50000000000E+03  0.00000000000E+00 0. -1.
        -11    1    1    2    0    0 -0.29784793438E+02 -0.17694910172E+02  0.49636275105E+03  0.49757032105E+03  0.00000000000E+00 0. -1.
         11    1    1    2    0    0 -0.14287544622E+01 -0.17919529878E+02 -0.77096169657E+02  0.79164198133E+02  0.00000000000E+00 0. -1.
        -15    1    1    2    0    0  0.10448305563E+02  0.28619062264E+02 -0.32678274484E+03  0.32820471945E+03  0.17770000000E+01 0. -1.
         15    1    1    2    0    0  0.20765242337E+02  0.69953777863E+01 -0.92483836545E+02  0.95060761362E+02  0.17770000000E+01 0.  1.
</event>
<event>
 6    1  0.6506903E-004  0.5004839E+03  0.7546771E-02  0.9398728E-01
        -11   -1    0    0    0    0  0.00000000000E+00  0.00000000000E+00  0.50000000000E+03  0.50000000000E+03  0.00000000000E+00 0. -1.
         11   -1    0    0    0    0 -0.00000000000E+00 -0.00000000000E+00 -0.50000000000E+03  0.50000000000E+03  0.00000000000E+00 0.  1.
        -11    1    1    2    0    0  0.11086150087E+02  0.77894525003E+01  0.49933229276E+03  0.49951608271E+03  0.00000000000E+00 0. -1.
         11    1    1    2    0    0 -0.16972096077E+02  0.34742741972E+00 -0.40302753715E+03  0.40338488872E+03  0.00000000000E+00 0.  1.
        -15    1    1    2    0    0 -0.42051951152E+00 -0.43252892508E+01 -0.30520471167E+02  0.30879473005E+02  0.17770000000E+01 0.  1.
         15    1    1    2    0    0  0.63064655011E+01 -0.38115906692E+01 -0.65784284444E+02  0.66219555566E+02  0.17770000000E+01 0.  1.
</event>
<event>
 6    1  0.6506903E-004  0.5000565E+03  0.7546771E-02  0.9399683E-01
        -11   -1    0    0    0    0  0.00000000000E+00  0.00000000000E+00  0.50000000000E+03  0.50000000000E+03  0.00000000000E+00 0.  1.
         11   -1    0    0    0    0 -0.00000000000E+00 -0.00000000000E+00 -0.50000000000E+03  0.50000000000E+03  0.00000000000E+00 0. -1.
        -11    1    1    2    0    0  0.82233638451E+00 -0.44390139741E+01  0.31312313218E+03  0.31315567533E+03  0.00000000000E+00 0.  1.
         11    1    1    2    0    0 -0.34105696418E+01  0.58966530149E+01 -0.49989710377E+03  0.49994351367E+03  0.00000000000E+00 0. -1.
        -15    1    1    2    0    0  0.33816315185E+01 -0.18051372498E+01  0.15920451541E+03  0.15926057079E+03  0.17770000000E+01 0.  1.
         15    1    1    2    0    0 -0.79339826119E+00  0.34749820896E+00  0.27569456177E+02  0.27640240207E+02  0.17770000000E+01 0.  1.
</event>
<event>
 6    1  0.6506903E-004  0.5002862E+03  0.7546771E-02  0.9399170E-01
        -11   -1    0    0    0    0  0.00000000000E+00  0.00000000000E+00  0.50000000000E+03  0.50000000000E+03  0.00000000000E+00 0.  1.
         11   -1    0    0    0    0 -0.00000000000E+00 -0.00000000000E+00 -0.50000000000E+03  0.50000000000E+03  0.00000000000E+00 0. -1.
        -11    1    1    2    0    0  0.61297550399E+01  0.67403756339E+01  0.49963077993E+03  0.49971384092E+03  0.00000000000E+00 0.  1.
         11    1    1    2    0    0 -0.91358686056E+01 -0.82835904073E+01 -0.16072817565E+03  0.16120058441E+03  0.00000000000E+00 0. -1.
        -15    1    1    2    0    0  0.25334080251E+00  0.39877542211E+01 -0.28296692001E+03  0.28300071009E+03  0.17770000000E+01 0. -1.
         15    1    1    2    0    0  0.27527727633E+01 -0.24445394478E+01 -0.55935684270E+02  0.56084864578E+02  0.17770000000E+01 0.  1.
</event>
<event>
 6    1  0.6506903E-004  0.5000525E+03  0.7546771E-02  0.9399692E-01
        -11   -1    0    0    0    0  0.00000000000E+00  0.00000000000E+00  0.50000000000E+03  0.50000000000E+03  0.00000000000E+00 0.  1.
         11   -1    0    0    0    0 -0.00000000000E+00 -0.00000000000E+00 -0.50000000000E+03  0.50000000000E+03  0.00000000000E+00 0.  1.
        -11    1    1    2    0    0  0.14191558356E+02 -0.16644410712E+01  0.49974328429E+03  0.49994751813E+03  0.00000000000E+00 0.  1.
         11    1    1    2    0    0 -0.52105129166E+01 -0.11183851477E+01 -0.79065055922E+02  0.79244452791E+02  0.00000000000E+00 0.  1.
        -15    1    1    2    0    0 -0.49639213651E+01  0.26249932220E+01 -0.27689623150E+03  0.27695886311E+03  0.17770000000E+01 0.  1.
         15    1    1    2    0    0 -0.40171240741E+01  0.15783299687E+00 -0.14378199687E+03  0.14384916597E+03  0.17770000000E+01 0.  1.
</event>
<event>
 6    1  0.6506903E-004  0.5005377E+03  0.7546771E-02  0.9398607E-01
        -11   -1    0    0    0    0  0.00000000000E+00  0.00000000000E+00  0.50000000000E+03  0.50000000000E+03  0.00000000000E+00 0. -1.
         11   -1    0    0    0    0 -0.00000000000E+00 -0.00000000000E+00 -0.50000000000E+03  0.50000000000E+03  0.00000000000E+00 0. -1.
        -11    1    1    2    0    0 -0.12637727680E+02 -0.72431384154E+01  0.49924988199E+03  0.49946233080E+03  0.00000000000E+00 0. -1.
         11    1    1    2    0    0  0.15525064357E+02  0.12139645563E+02 -0.18008526725E+03  0.18116043194E+03  0.00000000000E+00 0. -1.
        -15    1    1    2    0    0 -0.32168801255E+01 -0.74969642472E+01 -0.20795417657E+03  0.20812171937E+03  0.17770000000E+01 0. -1.
         15    1    1    2    0    0  0.32954344858E+00  0.26004570995E+01 -0.11121043817E+03  0.11125551790E+03  0.17770000000E+01 0.  1.
</event>
<event>
 6    1  0.6506903E-004  0.5020893E+03  0.7546771E-02  0.9395147E-01
        -11   -1    0    0    0    0  0.00000000000E+00  0.00000000000E+00  0.50000000000E+03  0.50000000000E+03  0.00000000000E+00 0. -1.
         11   -1    0    0    0    0 -0.00000000000E+00 -0.00000000000E+00 -0.50000000000E+03  0.50000000000E+03  0.00000000000E+00 0.  1.
        -11    1    1    2    0    0  0.95023269959E+01  0.81959019788E+01  0.49775252958E+03  0.49791068248E+03  0.00000000000E+00 0. -1.
         11    1    1    2    0    0  0.59934073188E+01 -0.13030318362E+02 -0.44447061469E+03  0.44470196474E+03  0.00000000000E+00 0.  1.
        -15    1    1    2    0    0 -0.30562805908E+01 -0.41425067807E+00 -0.15311812357E+01  0.38748805982E+01  0.17770000000E+01 0.  1.
         15    1    1    2    0    0 -0.12439453724E+02  0.52486670611E+01 -0.51750733659E+02  0.53512472174E+02  0.17770000000E+01 0. -1.
</event>
<event>
 6    1  0.6506903E-004  0.5011814E+03  0.7546771E-02  0.9397170E-01
        -11   -1    0    0    0    0  0.00000000000E+00  0.00000000000E+00  0.50000000000E+03  0.50000000000E+03  0.00000000000E+00 0. -1.
         11   -1    0    0    0    0 -0.00000000000E+00 -0.00000000000E+00 -0.50000000000E+03  0.50000000000E+03  0.00000000000E+00 0. -1.
        -11    1    1    2    0    0  0.58896079742E+00  0.86001262489E+01  0.49874413986E+03  0.49881863046E+03  0.00000000000E+00 0. -1.
         11    1    1    2    0    0  0.13190869151E+02  0.26488756201E+01 -0.40887657530E+03  0.40909787264E+03  0.00000000000E+00 0. -1.
        -15    1    1    2    0    0 -0.43592817378E+01 -0.31704708887E+00 -0.12485592152E+02  0.13347344175E+02  0.17770000000E+01 0.  1.
         15    1    1    2    0    0 -0.94205482102E+01 -0.10931954780E+02 -0.77381972409E+02  0.78736152730E+02  0.17770000000E+01 0. -1.
</event>
<event>
 6    1  0.6506903E-004  0.5001867E+03  0.7546771E-02  0.9399392E-01
        -11   -1    0    0    0    0  0.00000000000E+00  0.00000000000E+00  0.50000000000E+03  0.50000000000E+03  0.00000000000E+00 0.  1.
         11   -1    0    0    0    0 -0.00000000000E+00 -0.00000000000E+00 -0.50000000000E+03  0.50000000000E+03  0.00000000000E+00 0.  1.
        -11    1    1    2    0    0 -0.23223663449E+01 -0.33979458905E+01  0.23155160771E+03  0.23158818289E+03  0.00000000000E+00 0.  1.
         11    1    1    2    0    0 -0.10845154268E+02  0.14593071474E+02 -0.49948244683E+03  0.49981325493E+03  0.00000000000E+00 0.  1.
        -15    1    1    2    0    0  0.24125709143E+01 -0.25341775433E+01  0.29260201575E+02  0.29522189611E+02  0.17770000000E+01 0. -1.
         15    1    1    2    0    0  0.10754949698E+02 -0.86609480401E+01  0.23867063755E+03  0.23907637257E+03  0.17770000000E+01 0.  1.
</event>
<event>
 6    1  0.6506903E-004  0.5002330E+03  0.7546771E-02  0.9399288E-01
        -11   -1    0    0    0    0  0.00000000000E+00  0.00000000000E+00  0.50000000000E+03  0.50000000000E+03  0.00000000000E+00 0. -1.
         11   -1    0    0    0    0 -0.00000000000E+00 -0.00000000000E+00 -0.50000000000E+03  0.50000000000E+03  0.00000000000E+00 0. -1.
        -11    1    1    2    0    0  0.25380588049E+01  0.22612625509E+01  0.20234636441E+03  0.20237491505E+03  0.00000000000E+00 0. -1.
         11    1    1    2    0    0  0.14346405977E+02 -0.11234755626E+02 -0.49943467635E+03  0.49976698074E+03  0.00000000000E+00 0. -1.
        -15    1    1    2    0    0 -0.42904520249E+01  0.51824053417E+01  0.15353100218E+03  0.15368861917E+03  0.17770000000E+01 0. -1.
         15    1    1    2    0    0 -0.12594012757E+02  0.37910877335E+01  0.14355730975E+03  0.14416948504E+03  0.17770000000E+01 0.  1.
</event>
<event>
 6    1  0.6506903E-004  0.5006513E+03  0.7546771E-02  0.9398353E-01
        -11   -1    0    0    0    0  0.00000000000E+00  0.00000000000E+00  0.50000000000E+03  0.50000000000E+03  0.00000000000E+00 0. -1.
         11   -1    0    0    0    0 -0.00000000000E+00 -0.00000000000E+00 -0.50000000000E+03  0.50000000000E+03  0.00000000000E+00 0. -1.
        -11    1    1    2    0    0  0.19099112225E+02  0.28555044945E+01  0.49897510052E+03  0.49934865668E+03  0.00000000000E+00 0. -1.
         11    1    1    2    0    0 -0.28960880463E+02 -0.21162484910E+01 -0.38708737979E+03  0.38817502586E+03  0.00000000000E+00 0. -1.
        -15    1    1    2    0    0  0.39583994028E+01  0.11275795324E+01 -0.29686309683E+02  0.30022909136E+02  0.17770000000E+01 0. -1.
         15    1    1    2    0    0  0.59033688354E+01 -0.18668355359E+01 -0.82201411039E+02  0.82453408324E+02  0.17770000000E+01 0. -1.
</event>
<event>
 6    1  0.6506903E-004  0.5052570E+03  0.7546771E-02  0.9388123E-01
        -11   -1    0    0    0    0  0.00000000000E+00  0.00000000000E+00  0.50000000000E+03  0.50000000000E+03  0.00000000000E+00 0.  1.
         11   -1    0    0    0    0 -0.00000000000E+00 -0.00000000000E+00 -0.50000000000E+03  0.50000000000E+03  0.00000000000E+00 0. -1.
        -11    1    1    2    0    0  0.11729950713E+01  0.11694443929E+02  0.49460336675E+03  0.49474299019E+03  0.00000000000E+00 0.  1.
         11    1    1    2    0    0 -0.18732741901E+01  0.18391207125E+02 -0.43979435433E+03  0.44018271179E+03  0.00000000000E+00 0. -1.
        -15    1    1    2    0    0  0.30072466874E+01 -0.94165523527E+01 -0.53245470165E+01  0.11367652387E+02  0.17770000000E+01 0. -1.
         15    1    1    2    0    0 -0.23069675685E+01 -0.20669098700E+02 -0.49484465406E+02  0.53706645640E+02  0.17770000000E+01 0.  1.
</event>
<event>
 6    1  0.6506903E-004  0.5003767E+03  0.7546771E-02  0.9398967E-01
        -11   -1    0    0    0    0  0.00000000000E+00  0.00000000000E+00  0.50000000000E+03  0.50000000000E+03  0.00000000000E+00 0. -1.
         11   -1    0    0    0    0 -0.00000000000E+00 -0.00000000000E+00 -0.50000000000E+03  0.50000000000E+03  0.00000000000E+00 0.  1.
        -11    1    1    2    0    0 -0.56080187423E+01  0.61217569249E+00  0.15738135199E+03  0.15748242628E+03  0.00000000000E+00 0. -1.
         11    1    1    2    0    0 -0.13386911815E+02  0.11013144855E+01 -0.49944267143E+03  0.49962326242E+03  0.00000000000E+00 0.  1.
        -15    1    1    2    0    0  0.11189748833E+02  0.38021369382E+01  0.25729373198E+03  0.25757113380E+03  0.17770000000E+01 0. -1.
         15    1    1    2    0    0  0.78051817237E+01 -0.55156271162E+01  0.84767587464E+02  0.85323177494E+02  0.17770000000E+01 0.  1.
</event>
<event>
 6    1  0.6506903E-004  0.5021960E+03  0.7546771E-02  0.9394909E-01
        -11   -1    0    0    0    0  0.00000000000E+00  0.00000000000E+00  0.50000000000E+03  0.50000000000E+03  0.00000000000E+00 0. -1.
         11   -1    0    0    0    0 -0.00000000000E+00 -0.00000000000E+00 -0.50000000000E+03  0.50000000000E+03  0.00000000000E+00 0. -1.
        -11    1    1    2    0    0 -0.10901649038E+02  0.52209719941E+01  0.49765723408E+03  0.49780400473E+03  0.00000000000E+00 0. -1.
         11    1    1    2    0    0  0.38030611322E+01  0.17036917854E+02 -0.40619955213E+03  0.40657446550E+03  0.00000000000E+00 0. -1.
        -15    1    1    2    0    0 -0.17348690998E+01 -0.42898230475E+01 -0.57652578119E+01  0.76031756003E+01  0.17770000000E+01 0.  1.
         15    1    1    2    0    0  0.88334570061E+01 -0.17968066800E+02 -0.85692424135E+02  0.88018354167E+02  0.17770000000E+01 0. -1.
</event>
<event>
 6    1  0.6506903E-004  0.5039254E+03  0.7546771E-02  0.9391069E-01
        -11   -1    0    0    0    0  0.00000000000E+00  0.00000000000E+00  0.50000000000E+03  0.50000000000E+03  0.00000000000E+00 0. -1.
         11   -1    0    0    0    0 -0.00000000000E+00 -0.00000000000E+00 -0.50000000000E+03  0.50000000000E+03  0.00000000000E+00 0. -1.
        -11    1    1    2    0    0  0.30600426802E+01 -0.99779643011E+01  0.47591639254E+03  0.47603081446E+03  0.00000000000E+00 0. -1.
         11    1    1    2    0    0  0.98055179720E+01 -0.24927850169E+01 -0.49597142987E+03  0.49607461274E+03  0.00000000000E+00 0. -1.
        -15    1    1    2    0    0 -0.10447925385E+02  0.68181097948E+01  0.10544584367E+02  0.16431425821E+02  0.17770000000E+01 0. -1.
         15    1    1    2    0    0 -0.24176352669E+01  0.56526395231E+01  0.95104529685E+01  0.11463146973E+02  0.17770000000E+01 0.  1.
</event>
<event>
 6    1  0.6506903E-004  0.5002941E+03  0.7546771E-02  0.9399152E-01
        -11   -1    0    0    0    0  0.00000000000E+00  0.00000000000E+00  0.50000000000E+03  0.50000000000E+03  0.00000000000E+00 0.  1.
         11   -1    0    0    0    0 -0.00000000000E+00 -0.00000000000E+00 -0.50000000000E+03  0.50000000000E+03  0.00000000000E+00 0. -1.
        -11    1    1    2    0    0  0.19544193548E+01  0.12572216810E+02  0.98822739531E+02  0.99638417485E+02  0.00000000000E+00 0.  1.
         11    1    1    2    0    0 -0.19962797161E+02 -0.22556414341E+02 -0.49879721437E+03  0.49970587966E+03  0.00000000000E+00 0. -1.
        -15    1    1    2    0    0  0.12979886476E+02  0.97801513388E+01  0.35311478461E+03  0.35349305177E+03  0.17770000000E+01 0.  1.
         15    1    1    2    0    0  0.50284913302E+01  0.20404619173E+00  0.46859690229E+02  0.47162651084E+02  0.17770000000E+01 0.  1.
</event>
<event>
 6    1  0.6506903E-004  0.5023721E+03  0.7546771E-02  0.9394518E-01
        -11   -1    0    0    0    0  0.00000000000E+00  0.00000000000E+00  0.50000000000E+03  0.50000000000E+03  0.00000000000E+00 0.  1.
         11   -1    0    0    0    0 -0.00000000000E+00 -0.00000000000E+00 -0.50000000000E+03  0.50000000000E+03  0.00000000000E+00 0.  1.
        -11    1    1    2    0    0  0.15798753938E+02 -0.30787445398E+01  0.43512962066E+03  0.43542722248E+03  0.00000000000E+00 0.  1.
         11    1    1    2    0    0 -0.31718015305E+02 -0.12813468079E+02 -0.49645069029E+03  0.49762787838E+03  0.00000000000E+00 0.  1.
        -15    1    1    2    0    0 -0.20517020956E+01 -0.94762850177E-01  0.70964842089E+01  0.75984392222E+01  0.17770000000E+01 0.  1.
         15    1    1    2    0    0  0.17970963462E+02  0.15986975469E+02  0.54224585414E+02  0.59346459917E+02  0.17770000000E+01 0. -1.
</event>
<event>
 6    1  0.6506903E-004  0.5001707E+03  0.7546771E-02  0.9399428E-01
        -11   -1    0    0    0    0  0.00000000000E+00  0.00000000000E+00  0.50000000000E+03  0.50000000000E+03  0.00000000000E+00 0. -1.
         11   -1    0    0    0    0 -0.00000000000E+00 -0.00000000000E+00 -0.50000000000E+03  0.50000000000E+03  0.00000000000E+00 0.  1.
        -11    1    1    2    0    0  0.87596435910E+01  0.16283605381E+01  0.49974985529E+03  0.49982927162E+03  0.00000000000E+00 0. -1.
         11    1    1    2    0    0 -0.91002373876E+01  0.36902049053E+01 -0.14150418987E+03  0.14184451940E+03  0.00000000000E+00 0.  1.
        -15    1    1    2    0    0 -0.11892888946E+01 -0.42465129880E+01 -0.18376455643E+03  0.18382605150E+03  0.17770000000E+01 0.  1.
         15    1    1    2    0    0  0.15298826912E+01 -0.10720524554E+01 -0.17448110898E+03  0.17450015747E+03  0.17770000000E+01 0.  1.
</event>
<event>
 6    1  0.6506903E-004  0.5028347E+03  0.7546771E-02  0.9393489E-01
        -11   -1    0    0    0    0  0.00000000000E+00  0.00000000000E+00  0.50000000000E+03  0.50000000000E+03  0.00000000000E+00 0.  1.
         11   -1    0    0    0    0 -0.00000000000E+00 -0.00000000000E+00 -0.50000000000E+03  0.50000000000E+03  0.00000000000E+00 0.  1.
        -11    1    1    2    0    0 -0.27462145017E+01  0.10930780456E+02  0.47648476281E+03  0.47661803663E+03  0.00000000000E+00 0.  1.
         11    1    1    2    0    0 -0.83401419186E+01 -0.79838479888E+01 -0.49703125147E+03  0.49716532937E+03  0.00000000000E+00 0.  1.
        -15    1    1    2    0    0  0.37252748724E+01 -0.36848345083E+01  0.16893944366E+02  0.17776916591E+02  0.17770000000E+01 0. -1.
         15    1    1    2    0    0  0.73610815479E+01  0.73790204074E+00  0.36525442924E+01  0.84397173996E+01  0.17770000000E+01 0.  1.
</event>
<event>
 6    1  0.6506903E-004  0.5042013E+03  0.7546771E-02  0.9390458E-01
        -11   -1    0    0    0    0  0.00000000000E+00  0.00000000000E+00  0.50000000000E+03  0.50000000000E+03  0.00000000000E+00 0.  1.
         11   -1    0    0    0    0 -0.00000000000E+00 -0.00000000000E+00 -0.50000000000E+03  0.50000000000E+03  0.00000000000E+00 0. -1.
        -11    1    1    2    0    0  0.64971727771E+01 -0.14059796464E+01  0.47422186781E+03  0.47426845767E+03  0.00000000000E+00 0.  1.
         11    1    1    2    0    0  0.86372966513E+01  0.14162927093E+02 -0.49552105713E+03  0.49579865819E+03  0.00000000000E+00 0. -1.
        -15    1    1    2    0    0 -0.90124530377E+01 -0.66704861616E+01  0.76644391649E+01  0.13697483422E+02  0.17770000000E+01 0.  1.
         15    1    1    2    0    0 -0.61220163906E+01 -0.60864612851E+01  0.13634750159E+02  0.16235400720E+02  0.17770000000E+01 0. -1.
</event>
<event>
 6    1  0.6506903E-004  0.5003369E+03  0.7546771E-02  0.9399056E-01
        -11   -1    0    0    0    0  0.00000000000E+00  0.00000000000E+00  0.50000000000E+03  0.50000000000E+03  0.00000000000E+00 0. -1.
         11   -1    0    0    0    0 -0.00000000000E+00 -0.00000000000E+00 -0.50000000000E+03  0.50000000000E+03  0.00000000000E+00 0. -1.
        -11    1    1    2    0    0  0.70243815045E+01 -0.84388900761E+01  0.35707860564E+03  0.35724737565E+03  0.00000000000E+00 0. -1.
         11    1    1    2    0    0  0.50923738551E+01  0.88772435923E+01 -0.49955826704E+03  0.49966308638E+03  0.00000000000E+00 0. -1.
        -15    1    1    2    0    0 -0.77014002091E+01  0.28779434877E+00  0.10580678022E+03  0.10610196445E+03  0.17770000000E+01 0. -1.
         15    1    1    2    0    0 -0.44153551505E+01 -0.72614786506E+00  0.36672881179E+02  0.36987573518E+02  0.17770000000E+01 0.  1.
</event>
<event>
 6    1  0.6506903E-004  0.5081097E+03  0.7546771E-02  0.9381844E-01
        -11   -1    0    0    0    0  0.00000000000E+00  0.00000000000E+00  0.50000000000E+03  0.50000000000E+03  0.00000000000E+00 0.  1.
         11   -1    0    0    0    0 -0.00000000000E+00 -0.00000000000E+00 -0.50000000000E+03  0.50000000000E+03  0.00000000000E+00 0.  1.
        -11    1    1    2    0    0 -0.11470640723E+02  0.69324857929E+01  0.49170768086E+03  0.49189031133E+03  0.00000000000E+00 0.  1.
         11    1    1    2    0    0 -0.12603580875E+02 -0.55050527815E+01 -0.47476680927E+03  0.47496597672E+03  0.00000000000E+00 0.  1.
        -15    1    1    2    0    0  0.79728452042E+01  0.21846232221E+01 -0.13901003068E+02  0.16270662389E+02  0.17770000000E+01 0. -1.
         15    1    1    2    0    0  0.16101376393E+02 -0.36120562335E+01 -0.30398685231E+01  0.16873049565E+02  0.17770000000E+01 0.  1.
</event>
<event>
 6    1  0.6506903E-004  0.5012795E+03  0.7546771E-02  0.9396951E-01
        -11   -1    0    0    0    0  0.00000000000E+00  0.00000000000E+00  0.50000000000E+03  0.50000000000E+03  0.00000000000E+00 0.  1.
         11   -1    0    0    0    0 -0.00000000000E+00 -0.00000000000E+00 -0.50000000000E+03  0.50000000000E+03  0.00000000000E+00 0.  1.
        -11    1    1    2    0    0  0.16218178644E+02  0.12335946350E+01  0.49845523350E+03  0.49872053385E+03  0.00000000000E+00 0.  1.
         11    1    1    2    0    0 -0.30852223740E+02  0.47284447228E+01 -0.26351401200E+03  0.26535608608E+03  0.00000000000E+00 0.  1.
        -15    1    1    2    0    0  0.16817469572E+02 -0.42507179156E+01 -0.16832990674E+03  0.16923064474E+03  0.17770000000E+01 0.  1.
         15    1    1    2    0    0 -0.21834244757E+01 -0.17113214422E+01 -0.66611314763E+02  0.66692735339E+02  0.17770000000E+01 0. -1.
</event>
<event>
 6    1  0.6506903E-004  0.5027794E+03  0.7546771E-02  0.9393612E-01
        -11   -1    0    0    0    0  0.00000000000E+00  0.00000000000E+00  0.50000000000E+03  0.50000000000E+03  0.00000000000E+00 0.  1.
         11   -1    0    0    0    0 -0.00000000000E+00 -0.00000000000E+00 -0.50000000000E+03  0.50000000000E+03  0.00000000000E+00 0.  1.
        -11    1    1    2    0    0  0.56190205684E+01 -0.85944719079E+01  0.49711460999E+03  0.49722064902E+03  0.00000000000E+00 0.  1.
         11    1    1    2    0    0  0.11638006639E+02  0.51220456207E+01 -0.46353400718E+03  0.46370837211E+03  0.00000000000E+00 0.  1.
        -15    1    1    2    0    0 -0.14345274366E+02  0.50572894115E+01 -0.30787714615E+02  0.34386104360E+02  0.17770000000E+01 0.  1.
         15    1    1    2    0    0 -0.29117528408E+01 -0.15848631242E+01 -0.27928881944E+01  0.46848745122E+01  0.17770000000E+01 0. -1.
</event>
<event>
 6    1  0.6506903E-004  0.5012028E+03  0.7546771E-02  0.9397122E-01
        -11   -1    0    0    0    0  0.00000000000E+00  0.00000000000E+00  0.50000000000E+03  0.50000000000E+03  0.00000000000E+00 0. -1.
         11   -1    0    0    0    0 -0.00000000000E+00 -0.00000000000E+00 -0.50000000000E+03  0.50000000000E+03  0.00000000000E+00 0.  1.
        -11    1    1    2    0    0 -0.20395650156E+01  0.80498992535E+01  0.49872803409E+03  0.49879716589E+03  0.00000000000E+00 0. -1.
         11    1    1    2    0    0  0.99532418330E+01  0.84961159903E+01 -0.41289118901E+03  0.41309851727E+03  0.00000000000E+00 0.  1.
        -15    1    1    2    0    0 -0.66029465798E+01 -0.12447532384E+02 -0.50392161664E+02  0.52355206543E+02  0.17770000000E+01 0. -1.
         15    1    1    2    0    0 -0.13107302376E+01 -0.40984828595E+01 -0.35444683422E+02  0.35749110302E+02  0.17770000000E+01 0.  1.
</event>
<event>
 6    1  0.6506903E-004  0.5028771E+03  0.7546771E-02  0.9393395E-01
        -11   -1    0    0    0    0  0.00000000000E+00  0.00000000000E+00  0.50000000000E+03  0.50000000000E+03  0.00000000000E+00 0. -1.
         11   -1    0    0    0    0 -0.00000000000E+00 -0.00000000000E+00 -0.50000000000E+03  0.50000000000E+03  0.00000000000E+00 0.  1.
        -11    1    1    2    0    0  0.28225174263E+02 -0.75341438637E+01  0.49626380622E+03  0.49712291151E+03  0.00000000000E+00 0. -1.
         11    1    1    2    0    0  0.14443110803E+01  0.29877167983E+02 -0.97958577587E+02  0.10242369904E+03  0.00000000000E+00 0.  1.
        -15    1    1    2    0    0 -0.54832174096E+00  0.23286540361E+01 -0.41927864851E+02  0.42033639698E+02  0.17770000000E+01 0.  1.
         15    1    1    2    0    0 -0.29121163603E+02 -0.24671678155E+02 -0.35637736378E+03  0.35841974976E+03  0.17770000000E+01 0.  1.
</event>
<event>
 6    1  0.6506903E-004  0.5007743E+03  0.7546771E-02  0.9398079E-01
        -11   -1    0    0    0    0  0.00000000000E+00  0.00000000000E+00  0.50000000000E+03  0.50000000000E+03  0.00000000000E+00 0. -1.
         11   -1    0    0    0    0 -0.00000000000E+00 -0.00000000000E+00 -0.50000000000E+03  0.50000000000E+03  0.00000000000E+00 0. -1.
        -11    1    1    2    0    0  0.46611094510E-01  0.70320778220E+01  0.29095645508E+03  0.29104142496E+03  0.00000000000E+00 0. -1.
         11    1    1    2    0    0 -0.20225901736E+02 -0.47299240516E+01 -0.49879341446E+03  0.49922573010E+03  0.00000000000E+00 0. -1.
        -15    1    1    2    0    0  0.12859494773E+02 -0.10720924871E+02  0.12273111625E+03  0.12388054512E+03  0.17770000000E+01 0. -1.
         15    1    1    2    0    0  0.73197958693E+01  0.84187711004E+01  0.85105843140E+02  0.85852299818E+02  0.17770000000E+01 0.  1.
</event>
<event>
 6    1  0.6506903E-004  0.5022592E+03  0.7546771E-02  0.9394769E-01
        -11   -1    0    0    0    0  0.00000000000E+00  0.00000000000E+00  0.50000000000E+03  0.50000000000E+03  0.00000000000E+00 0. -1.
         11   -1    0    0    0    0 -0.00000000000E+00 -0.00000000000E+00 -0.50000000000E+03  0.50000000000E+03  0.00000000000E+00 0.  1.
        -11    1    1    2    0    0 -0.57640458068E+01  0.33683249773E+01  0.46083640119E+03  0.46088475620E+03  0.00000000000E+00 0. -1.
         11    1    1    2    0    0  0.71402342544E+01 -0.14277981294E+02 -0.49748473385E+03  0.49774080012E+03  0.00000000000E+00 0.  1.
        -15    1    1    2    0    0  0.74052999711E+00 -0.30257050477E+01  0.24517469405E+01  0.43441993247E+01  0.17770000000E+01 0.  1.
         15    1    1    2    0    0 -0.21167184447E+01  0.13935361365E+02  0.34196585712E+02  0.37030244351E+02  0.17770000000E+01 0. -1.
</event>
<event>
 6    1  0.6506903E-004  0.5012245E+03  0.7546771E-02  0.9397074E-01
        -11   -1    0    0    0    0  0.00000000000E+00  0.00000000000E+00  0.50000000000E+03  0.50000000000E+03  0.00000000000E+00 0.  1.
         11   -1    0    0    0    0 -0.00000000000E+00 -0.00000000000E+00 -0.50000000000E+03  0.50000000000E+03  0.00000000000E+00 0. -1.
        -11    1    1    2    0    0 -0.73024131563E+01  0.78765287180E+01  0.49134631510E+03  0.49146369785E+03  0.00000000000E+00 0.  1.
         11    1    1    2    0    0  0.37176561353E+01 -0.10317558141E+02 -0.49865491031E+03  0.49877549313E+03  0.00000000000E+00 0. -1.
        -15    1    1    2    0    0  0.69783502572E+00  0.51389241538E-01  0.40795980309E+01  0.45044937197E+01  0.17770000000E+01 0. -1.
         15    1    1    2    0    0  0.28869219953E+01  0.23896401811E+01  0.32289971768E+01  0.52563153035E+01  0.17770000000E+01 0.  1.
</event>
<event>
 6    1  0.6506903E-004  0.5005919E+03  0.7546771E-02  0.9398486E-01
        -11   -1    0    0    0    0  0.00000000000E+00  0.00000000000E+00  0.50000000000E+03  0.50000000000E+03  0.00000000000E+00 0. -1.
         11   -1    0    0    0    0 -0.00000000000E+00 -0.00000000000E+00 -0.50000000000E+03  0.50000000000E+03  0.00000000000E+00 0. -1.
        -11    1    1    2    0    0  0.29397757536E+02  0.15009795190E+02  0.49831609642E+03  0.49940810371E+03  0.00000000000E+00 0. -1.
         11    1    1    2    0    0 -0.28141934134E+02 -0.14946058363E+02 -0.32491771950E+03  0.32647645790E+03  0.00000000000E+00 0. -1.
        -15    1    1    2    0    0  0.42821648895E+01 -0.35180970044E+01 -0.30100290188E+02  0.30657774562E+02  0.17770000000E+01 0.  1.
         15    1    1    2    0    0 -0.55379882916E+01  0.34543601775E+01 -0.14329808674E+03  0.14345766383E+03  0.17770000000E+01 0. -1.
</event>
<event>
 6    1  0.6506903E-004  0.5027278E+03  0.7546771E-02  0.9393727E-01
        -11   -1    0    0    0    0  0.00000000000E+00  0.00000000000E+00  0.50000000000E+03  0.50000000000E+03  0.00000000000E+00 0. -1.
         11   -1    0    0    0    0 -0.00000000000E+00 -0.00000000000E+00 -0.50000000000E+03  0.50000000000E+03  0.00000000000E+00 0.  1.
        -11    1    1    2    0    0  0.99979436706E+01 -0.51500767783E+00  0.49717138623E+03  0.49727217034E+03  0.00000000000E+00 0. -1.
         11    1    1    2    0    0 -0.11308787452E+02 -0.85974002059E+01 -0.47904110039E+03  0.47925168735E+03  0.00000000000E+00 0.  1.
        -15    1    1    2    0    0  0.50999206480E+01  0.35626163270E+01 -0.13918582564E+02  0.15348814133E+02  0.17770000000E+01 0.  1.
         15    1    1    2    0    0 -0.37890768663E+01  0.55497915567E+01 -0.42117032703E+01  0.81273281747E+01  0.17770000000E+01 0. -1.
</event>
<event>
 6    1  0.6506903E-004  0.5223117E+03  0.7546771E-02  0.9351225E-01
        -11   -1    0    0    0    0  0.00000000000E+00  0.00000000000E+00  0.50000000000E+03  0.50000000000E+03  0.00000000000E+00 0. -1.
         11   -1    0    0    0    0 -0.00000000000E+00 -0.00000000000E+00 -0.50000000000E+03  0.50000000000E+03  0.00000000000E+00 0. -1.
        -11    1    1    2    0    0  0.56746656842E+01 -0.67550358249E+01  0.47760686014E+03  0.47768833479E+03  0.00000000000E+00 0. -1.
         11    1    1    2    0    0 -0.32227492156E+02 -0.26755824637E+02 -0.44591964723E+03  0.44788259309E+03  0.00000000000E+00 0. -1.
        -15    1    1    2    0    0  0.29036548704E+02  0.84113607191E+01  0.41546882556E+01  0.30566179240E+02  0.17770000000E+01 0.  1.
         15    1    1    2    0    0 -0.24837222322E+01  0.25099499743E+02 -0.35841901166E+02  0.43862892878E+02  0.17770000000E+01 0. -1.
</event>
<event>
 6    1  0.6506903E-004  0.5020123E+03  0.7546771E-02  0.9395318E-01
        -11   -1    0    0    0    0  0.00000000000E+00  0.00000000000E+00  0.50000000000E+03  0.50000000000E+03  0.00000000000E+00 0. -1.
         11   -1    0    0    0    0 -0.00000000000E+00 -0.00000000000E+00 -0.50000000000E+03  0.50000000000E+03  0.00000000000E+00 0. -1.
        -11    1    1    2    0    0  0.46512709809E+01 -0.71668556584E+01  0.44640782514E+03  0.44648957937E+03  0.00000000000E+00 0. -1.
         11    1    1    2    0    0  0.19545584568E+01 -0.10757304153E+02 -0.49786762546E+03  0.49798766287E+03  0.00000000000E+00 0. -1.
        -15    1    1    2    0    0 -0.14224158462E+01  0.14121980785E+01  0.13540770524E+02  0.13803179548E+02  0.17770000000E+01 0. -1.
         15    1    1    2    0    0 -0.51834135915E+01  0.16511961733E+02  0.37919029793E+02  0.41719578212E+02  0.17770000000E+01 0. -1.
</event>
<event>
 6    1  0.6506903E-004  0.5007872E+03  0.7546771E-02  0.9398050E-01
        -11   -1    0    0    0    0  0.00000000000E+00  0.00000000000E+00  0.50000000000E+03  0.50000000000E+03  0.00000000000E+00 0.  1.
         11   -1    0    0    0    0 -0.00000000000E+00 -0.00000000000E+00 -0.50000000000E+03  0.50000000000E+03  0.00000000000E+00 0.  1.
        -11    1    1    2    0    0 -0.29096957490E+01  0.67590330619E+01  0.49915854657E+03  0.49921278576E+03  0.00000000000E+00 0.  1.
         11    1    1    2    0    0 -0.66888595611E+01 -0.18170202864E+01 -0.44916944797E+03  0.44922292394E+03  0.00000000000E+00 0.  1.
        -15    1    1    2    0    0  0.72871002021E+01 -0.52512682755E+01 -0.43353265125E+02  0.44309603631E+02  0.17770000000E+01 0. -1.
         15    1    1    2    0    0  0.23114551081E+01  0.30925549990E+00 -0.66358334771E+01  0.72546866656E+01  0.17770000000E+01 0.  1.
</event>
<event>
 6    1  0.6506903E-004  0.5002896E+03  0.7546771E-02  0.9399162E-01
        -11   -1    0    0    0    0  0.00000000000E+00  0.00000000000E+00  0.50000000000E+03  0.50000000000E+03  0.00000000000E+00 0. -1.
         11   -1    0    0    0    0 -0.00000000000E+00 -0.00000000000E+00 -0.50000000000E+03  0.50000000000E+03  0.00000000000E+00 0. -1.
        -11    1    1    2    0    0  0.23212407569E+00 -0.35994817206E+01  0.25112762869E+03  0.25115353082E+03  0.00000000000E+00 0. -1.
         11    1    1    2    0    0 -0.80738252706E+01 -0.98792654884E+01 -0.49954746439E+03  0.49971037184E+03  0.00000000000E+00 0. -1.
        -15    1    1    2    0    0  0.12875555930E+01  0.11636654464E+02  0.15620983432E+03  0.15665803393E+03  0.17770000000E+01 0.  1.
         15    1    1    2    0    0  0.65541456019E+01  0.18420927451E+01  0.92210001380E+02  0.92478063419E+02  0.17770000000E+01 0. -1.
</event>
<event>
 6    1  0.6506903E-004  0.5046758E+03  0.7546771E-02  0.9389408E-01
        -11   -1    0    0    0    0  0.00000000000E+00  0.00000000000E+00  0.50000000000E+03  0.50000000000E+03  0.00000000000E+00 0.  1.
         11   -1    0    0    0    0 -0.00000000000E+00 -0.00000000000E+00 -0.50000000000E+03  0.50000000000E+03  0.00000000000E+00 0. -1.
        -11    1    1    2    0    0  0.31860702534E+02 -0.30953041766E+01  0.41177139674E+03  0.41301376302E+03  0.00000000000E+00 0.  1.
         11    1    1    2    0    0 -0.23413198362E+02 -0.11289514655E+02 -0.49464170329E+03  0.49532418236E+03  0.00000000000E+00 0. -1.
        -15    1    1    2    0    0 -0.90191889913E+01 -0.10237158517E+02  0.38484971409E+02  0.40870477584E+02  0.17770000000E+01 0.  1.
         15    1    1    2    0    0  0.57168481965E+00  0.24621977349E+02  0.44385335143E+02  0.50791577027E+02  0.17770000000E+01 0. -1.
</event>
<event>
 6    1  0.6506903E-004  0.5002128E+03  0.7546771E-02  0.9399334E-01
        -11   -1    0    0    0    0  0.00000000000E+00  0.00000000000E+00  0.50000000000E+03  0.50000000000E+03  0.00000000000E+00 0.  1.
         11   -1    0    0    0    0 -0.00000000000E+00 -0.00000000000E+00 -0.50000000000E+03  0.50000000000E+03  0.00000000000E+00 0. -1.
        -11    1    1    2    0    0 -0.31004036958E+01  0.24572322529E+02  0.49917315406E+03  0.49978720399E+03  0.00000000000E+00 0.  1.
         11    1    1    2    0    0 -0.23345950889E+01 -0.14598481412E+02 -0.18173974923E+03  0.18234007360E+03  0.00000000000E+00 0. -1.
        -15    1    1    2    0    0  0.25252724549E+01 -0.73495625550E+01 -0.79143188962E+02  0.79543668251E+02  0.17770000000E+01 0.  1.
         15    1    1    2    0    0  0.29097263298E+01 -0.26242785628E+01 -0.23829021587E+03  0.23832905416E+03  0.17770000000E+01 0. -1.
</event>
<event>
 6    1  0.6506903E-004  0.5009499E+03  0.7546771E-02  0.9397687E-01
        -11   -1    0    0    0    0  0.00000000000E+00  0.00000000000E+00  0.50000000000E+03  0.50000000000E+03  0.00000000000E+00 0.  1.
         11   -1    0    0    0    0 -0.00000000000E+00 -0.00000000000E+00 -0.50000000000E+03  0.50000000000E+03  0.00000000000E+00 0. -1.
        -11    1    1    2    0    0 -0.63810561265E+01  0.11003159970E+02  0.49888798854E+03  0.49905011022E+03  0.00000000000E+00 0.  1.
         11    1    1    2    0    0  0.39116525255E+01 -0.18011001255E+02 -0.86119722466E+02  0.88069880148E+02  0.00000000000E+00 0. -1.
        -15    1    1    2    0    0 -0.89772730963E+00  0.33941887072E+01 -0.11949871090E+03  0.11956348132E+03  0.17770000000E+01 0.  1.
         15    1    1    2    0    0  0.33671309106E+01  0.36136525772E+01 -0.29326955517E+03  0.29331652830E+03  0.17770000000E+01 0. -1.
</event>
<event>
 6    1  0.6506903E-004  0.5290345E+03  0.7546771E-02  0.9337088E-01
        -11   -1    0    0    0    0  0.00000000000E+00  0.00000000000E+00  0.50000000000E+03  0.50000000000E+03  0.00000000000E+00 0. -1.
         11   -1    0    0    0    0 -0.00000000000E+00 -0.00000000000E+00 -0.50000000000E+03  0.50000000000E+03  0.00000000000E+00 0. -1.
        -11    1    1    2    0    0 -0.78404547290E+01 -0.10128429235E+02  0.32344854822E+03  0.32370205615E+03  0.00000000000E+00 0. -1.
         11    1    1    2    0    0 -0.13334210803E+03  0.52397478234E+02 -0.44864559956E+03  0.47096548441E+03  0.00000000000E+00 0. -1.
        -15    1    1    2    0    0  0.90217884884E+02 -0.44049978863E+02  0.44445419380E+02  0.10980992862E+03  0.17770000000E+01 0.  1.
         15    1    1    2    0    0  0.50964677875E+02  0.17809298631E+01  0.80751631962E+02  0.95522530827E+02  0.17770000000E+01 0. -1.
</event>
<event>
 6    1  0.6506903E-004  0.4827232E+03  0.7546771E-02  0.9439320E-01
        -11   -1    0    0    0    0  0.00000000000E+00  0.00000000000E+00  0.50000000000E+03  0.50000000000E+03  0.00000000000E+00 0.  1.
         11   -1    0    0    0    0 -0.00000000000E+00 -0.00000000000E+00 -0.50000000000E+03  0.50000000000E+03  0.00000000000E+00 0.  1.
        -11    1    1    2    0    0  0.76756830774E+01 -0.22525663260E+01  0.47506473959E+03  0.47513208371E+03  0.00000000000E+00 0.  1.
         11    1    1    2    0    0  0.12756379032E+02  0.21334080418E+02 -0.49020798099E+03  0.49083778667E+03  0.00000000000E+00 0.  1.
        -15    1    1    2    0    0 -0.80073543460E+01 -0.11825188386E+02  0.21290465475E+01  0.14547967975E+02  0.17770000000E+01 0. -1.
         15    1    1    2    0    0 -0.12424707764E+02 -0.72563257055E+01  0.13014194856E+02  0.19482161649E+02  0.17770000000E+01 0.  1.
</event>
<event>
 6    1  0.6506903E-004  0.5011101E+03  0.7546771E-02  0.9397329E-01
        -11   -1    0    0    0    0  0.00000000000E+00  0.00000000000E+00  0.50000000000E+03  0.50000000000E+03  0.00000000000E+00 0. -1.
         11   -1    0    0    0    0 -0.00000000000E+00 -0.00000000000E+00 -0.50000000000E+03  0.50000000000E+03  0.00000000000E+00 0.  1.
        -11    1    1    2    0    0  0.47352183799E+01  0.64493643445E+01  0.38709111675E+03  0.38717379723E+03  0.00000000000E+00 0. -1.
         11    1    1    2    0    0 -0.81165378345E+01  0.15750144988E+02 -0.49857511838E+03  0.49888986152E+03  0.00000000000E+00 0.  1.
        -15    1    1    2    0    0  0.27790413232E+01 -0.12418874242E+02  0.48664504721E+02  0.50332328149E+02  0.17770000000E+01 0. -1.
         15    1    1    2    0    0  0.60227813139E+00 -0.97806350910E+01  0.62819496912E+02  0.63604013104E+02  0.17770000000E+01 0.  1.
</event>
<event>
 6    1  0.6506903E-004  0.5000444E+03  0.7546771E-02  0.9399710E-01
        -11   -1    0    0    0    0  0.00000000000E+00  0.00000000000E+00  0.50000000000E+03  0.50000000000E+03  0.00000000000E+00 0.  1.
         11   -1    0    0    0    0 -0.00000000000E+00 -0.00000000000E+00 -0.50000000000E+03  0.50000000000E+03  0.00000000000E+00 0.  1.
        -11    1    1    2    0    0 -0.71714384634E+01  0.35990864989E+01  0.49989124054E+03  0.49995563336E+03  0.00000000000E+00 0.  1.
         11    1    1    2    0    0  0.63767455302E+01 -0.45802658249E+01 -0.38332991151E+03  0.38341030604E+03  0.00000000000E+00 0.  1.
        -15    1    1    2    0    0 -0.40073999737E+00  0.41765631325E+00 -0.45884652115E+02  0.45922696546E+02  0.17770000000E+01 0. -1.
         15    1    1    2    0    0  0.11954329306E+01  0.56352301280E+00 -0.70676676919E+02  0.70711364061E+02  0.17770000000E+01 0. -1.
</event>
<event>
 6    1  0.6506903E-004  0.5034896E+03  0.7546771E-02  0.9392035E-01
        -11   -1    0    0    0    0  0.00000000000E+00  0.00000000000E+00  0.50000000000E+03  0.50000000000E+03  0.00000000000E+00 0.  1.
         11   -1    0    0    0    0 -0.00000000000E+00 -0.00000000000E+00 -0.50000000000E+03  0.50000000000E+03  0.00000000000E+00 0.  1.
        -11    1    1    2    0    0 -0.98886900045E+02  0.18586048840E+03  0.39859991554E+03  0.45078224545E+03  0.00000000000E+00 0.  1.
         11    1    1    2    0    0  0.83536651242E+02 -0.20784021383E+03 -0.44311019862E+03  0.49651039737E+03  0.00000000000E+00 0.  1.
        -15    1    1    2    0    0  0.50981798370E+01  0.27208568189E+01  0.67560868754E+01  0.90662527180E+01  0.17770000000E+01 0. -1.
         15    1    1    2    0    0  0.10252068966E+02  0.19258868605E+02  0.37754196205E+02  0.43641104456E+02  0.17770000000E+01 0.  1.
</event>
<event>
 6    1  0.6506903E-004  0.5001730E+03  0.7546771E-02  0.9399423E-01
        -11   -1    0    0    0    0  0.00000000000E+00  0.00000000000E+00  0.50000000000E+03  0.50000000000E+03  0.00000000000E+00 0. -1.
         11   -1    0    0    0    0 -0.00000000000E+00 -0.00000000000E+00 -0.50000000000E+03  0.50000000000E+03  0.00000000000E+00 0.  1.
        -11    1    1    2    0    0  0.20084149527E+01  0.13185833221E+02  0.49964900379E+03  0.49982699698E+03  0.00000000000E+00 0. -1.
         11    1    1    2    0    0 -0.13656874570E+01 -0.16956754185E+02 -0.39147155980E+03  0.39184101208E+03  0.00000000000E+00 0.  1.
        -15    1    1    2    0    0  0.31437907306E+00  0.29729967183E+01 -0.77414813616E+02  0.77492894125E+02  0.17770000000E+01 0.  1.
         15    1    1    2    0    0 -0.95710656869E+00  0.79792424655E+00 -0.30762630369E+02  0.30839096815E+02  0.17770000000E+01 0. -1.
</event>
<event>
 6    1  0.6506903E-004  0.3712861E+03  0.7546771E-02  0.9745266E-01
        -11   -1    0    0    0    0  0.00000000000E+00  0.00000000000E+00  0.50000000000E+03  0.50000000000E+03  0.00000000000E+00 0. -1.
         11   -1    0    0    0    0 -0.00000000000E+00 -0.00000000000E+00 -0.50000000000E+03  0.50000000000E+03  0.00000000000E+00 0.  1.
        -11    1    1    2    0    0 -0.19491785062E+03  0.97590005562E+02  0.39766871803E+03  0.45349441780E+03  0.00000000000E+00 0. -1.
         11    1    1    2    0    0  0.19221456627E+03 -0.87438617726E+02 -0.75793681025E+02  0.22435827027E+03  0.00000000000E+00 0.  1.
        -15    1    1    2    0    0  0.40337398082E+01 -0.92637536121E+01 -0.29060089384E+03  0.29078192072E+03  0.17770000000E+01 0.  1.
         15    1    1    2    0    0 -0.13304554579E+01 -0.88763422422E+00 -0.31274143165E+02  0.31365391213E+02  0.17770000000E+01 0. -1.
</event>
<event>
 6    1  0.6506903E-004  0.5016959E+03  0.7546771E-02  0.9396023E-01
        -11   -1    0    0    0    0  0.00000000000E+00  0.00000000000E+00  0.50000000000E+03  0.50000000000E+03  0.00000000000E+00 0.  1.
         11   -1    0    0    0    0 -0.00000000000E+00 -0.00000000000E+00 -0.50000000000E+03  0.50000000000E+03  0.00000000000E+00 0. -1.
        -11    1    1    2    0    0 -0.13297037046E+03  0.82710952335E+02  0.42481870525E+03  0.45276169602E+03  0.00000000000E+00 0.  1.
         11    1    1    2    0    0  0.13200158757E+03 -0.85215224684E+02 -0.47288575130E+03  0.49830411139E+03  0.00000000000E+00 0. -1.
        -15    1    1    2    0    0 -0.23629410043E+01  0.39548749594E+01  0.31236673279E+02  0.31624547627E+02  0.17770000000E+01 0. -1.
         15    1    1    2    0    0  0.33317238945E+01 -0.14506026106E+01  0.16830372773E+02  0.17309644963E+02  0.17770000000E+01 0.  1.
</event>
<event>
 6    1  0.6506903E-004  0.5031329E+03  0.7546771E-02  0.9392827E-01
        -11   -1    0    0    0    0  0.00000000000E+00  0.00000000000E+00  0.50000000000E+03  0.50000000000E+03  0.00000000000E+00 0.  1.
         11   -1    0    0    0    0 -0.00000000000E+00 -0.00000000000E+00 -0.50000000000E+03  0.50000000000E+03  0.00000000000E+00 0. -1.
        -11    1    1    2    0    0  0.53238920509E+01  0.36782224499E+01  0.46622547241E+03  0.46627037679E+03  0.00000000000E+00 0.  1.
         11    1    1    2    0    0 -0.49016799905E+01  0.12682370143E+02 -0.49668098946E+03  0.49686705895E+03  0.00000000000E+00 0. -1.
        -15    1    1    2    0    0 -0.31091912005E+01 -0.23547492905E+01  0.15074595004E+01  0.45433552896E+01  0.17770000000E+01 0.  1.
         15    1    1    2    0    0  0.26869791402E+01 -0.14005843303E+02  0.28948057551E+02  0.32319208971E+02  0.17770000000E+01 0. -1.
</event>
<event>
 6    1  0.6506903E-004  0.5047695E+03  0.7546771E-02  0.9389200E-01
        -11   -1    0    0    0    0  0.00000000000E+00  0.00000000000E+00  0.50000000000E+03  0.50000000000E+03  0.00000000000E+00 0.  1.
         11   -1    0    0    0    0 -0.00000000000E+00 -0.00000000000E+00 -0.50000000000E+03  0.50000000000E+03  0.00000000000E+00 0. -1.
        -11    1    1    2    0    0  0.77215822850E+02 -0.11991103881E+03  0.47424915726E+03  0.49523045512E+03  0.00000000000E+00 0.  1.
         11    1    1    2    0    0 -0.63346635680E+02  0.13120112197E+03 -0.37133859319E+03  0.39889708127E+03  0.00000000000E+00 0. -1.
        -15    1    1    2    0    0 -0.28478587092E+01 -0.35031386693E+01 -0.71187695680E+02  0.71352841744E+02  0.17770000000E+01 0. -1.
         15    1    1    2    0    0 -0.11021328460E+02 -0.77869444898E+01 -0.31722868388E+02  0.34519621859E+02  0.17770000000E+01 0.  1.
</event>
<event>
 6    1  0.6506903E-004  0.5006780E+03  0.7546771E-02  0.9398294E-01
        -11   -1    0    0    0    0  0.00000000000E+00  0.00000000000E+00  0.50000000000E+03  0.50000000000E+03  0.00000000000E+00 0. -1.
         11   -1    0    0    0    0 -0.00000000000E+00 -0.00000000000E+00 -0.50000000000E+03  0.50000000000E+03  0.00000000000E+00 0. -1.
        -11    1    1    2    0    0  0.55036021361E+01  0.81889866321E+01  0.82293613236E+02  0.82882977251E+02  0.00000000000E+00 0. -1.
         11    1    1    2    0    0  0.47213845200E+01  0.17402767393E+02 -0.49899632952E+03  0.49932202501E+03  0.00000000000E+00 0. -1.
        -15    1    1    2    0    0  0.42050870823E+00 -0.14758540336E+02  0.19642999316E+03  0.19699210970E+03  0.17770000000E+01 0.  1.
         15    1    1    2    0    0 -0.10645495364E+02 -0.10833213689E+02  0.22027272312E+03  0.22080288804E+03  0.17770000000E+01 0. -1.
</event>
<event>
 6    1  0.6506903E-004  0.5017652E+03  0.7546771E-02  0.9395869E-01
        -11   -1    0    0    0    0  0.00000000000E+00  0.00000000000E+00  0.50000000000E+03  0.50000000000E+03  0.00000000000E+00 0.  1.
         11   -1    0    0    0    0 -0.00000000000E+00 -0.00000000000E+00 -0.50000000000E+03  0.50000000000E+03  0.00000000000E+00 0.  1.
        -11    1    1    2    0    0 -0.65645628201E+01 -0.98241553088E+01  0.49809471104E+03  0.49823483287E+03  0.00000000000E+00 0.  1.
         11    1    1    2    0    0  0.14479493513E+02  0.16049434834E+02 -0.41044410761E+03  0.41101290194E+03  0.00000000000E+00 0.  1.
        -15    1    1    2    0    0 -0.14737395454E+02 -0.50134217318E+01 -0.48958832831E+02  0.51404768878E+02  0.17770000000E+01 0.  1.
         15    1    1    2    0    0  0.68224647612E+01 -0.12118577936E+01 -0.38691770602E+02  0.39347496312E+02  0.17770000000E+01 0. -1.
</event>
<event>
 6    1  0.6506903E-004  0.5013603E+03  0.7546771E-02  0.9396771E-01
        -11   -1    0    0    0    0  0.00000000000E+00  0.00000000000E+00  0.50000000000E+03  0.50000000000E+03  0.00000000000E+00 0.  1.
         11   -1    0    0    0    0 -0.00000000000E+00 -0.00000000000E+00 -0.50000000000E+03  0.50000000000E+03  0.00000000000E+00 0. -1.
        -11    1    1    2    0    0 -0.10896178998E+02  0.81126068506E+01  0.49845462807E+03  0.49863970695E+03  0.00000000000E+00 0.  1.
         11    1    1    2    0    0  0.29063234164E+01  0.20696474176E+02 -0.22273043128E+03  0.22370881918E+03  0.00000000000E+00 0. -1.
        -15    1    1    2    0    0  0.80070414174E+01 -0.10413017636E+02 -0.84114218567E+02  0.85152235101E+02  0.17770000000E+01 0.  1.
         15    1    1    2    0    0 -0.17185835640E-01 -0.18396063390E+02 -0.19160997822E+03  0.19249923877E+03  0.17770000000E+01 0. -1.
</event>
<event>
 6    1  0.6506903E-004  0.4456255E+03  0.7546771E-02  0.9530438E-01
        -11   -1    0    0    0    0  0.00000000000E+00  0.00000000000E+00  0.50000000000E+03  0.50000000000E+03  0.00000000000E+00 0. -1.
         11   -1    0    0    0    0 -0.00000000000E+00 -0.00000000000E+00 -0.50000000000E+03  0.50000000000E+03  0.00000000000E+00 0.  1.
        -11    1    1    2    0    0  0.35942907354E+01  0.27205821518E+02  0.45512587015E+03  0.45595244635E+03  0.00000000000E+00 0. -1.
         11    1    1    2    0    0 -0.10091079743E+03 -0.43437915061E+01 -0.32771427081E+02  0.10618768288E+03  0.00000000000E+00 0.  1.
        -15    1    1    2    0    0  0.48181230692E+02  0.15937196813E+02 -0.14876805100E+03  0.15719578862E+03  0.17770000000E+01 0.  1.
         15    1    1    2    0    0  0.49135276003E+02 -0.38799226825E+02 -0.27358639207E+03  0.28066408214E+03  0.17770000000E+01 0. -1.
</event>
<event>
 6    1  0.6506903E-004  0.5007090E+03  0.7546771E-02  0.9398225E-01
        -11   -1    0    0    0    0  0.00000000000E+00  0.00000000000E+00  0.50000000000E+03  0.50000000000E+03  0.00000000000E+00 0.  1.
         11   -1    0    0    0    0 -0.00000000000E+00 -0.00000000000E+00 -0.50000000000E+03  0.50000000000E+03  0.00000000000E+00 0.  1.
        -11    1    1    2    0    0 -0.50768460280E+01  0.71406189065E+01  0.23636786308E+03  0.23653018729E+03  0.00000000000E+00 0.  1.
         11    1    1    2    0    0 -0.13964516431E+02  0.68819643868E+01 -0.49904822390E+03  0.49929099624E+03  0.00000000000E+00 0.  1.
        -15    1    1    2    0    0  0.14788248809E+01  0.28251181315E+01  0.29437322774E+02  0.29662803587E+02  0.17770000000E+01 0.  1.
         15    1    1    2    0    0  0.17562537578E+02 -0.16847701425E+02  0.23324303804E+03  0.23451601287E+03  0.17770000000E+01 0. -1.
</event>
<event>
 6    1  0.6506903E-004  0.5014540E+03  0.7546771E-02  0.9396562E-01
        -11   -1    0    0    0    0  0.00000000000E+00  0.00000000000E+00  0.50000000000E+03  0.50000000000E+03  0.00000000000E+00 0. -1.
         11   -1    0    0    0    0 -0.00000000000E+00 -0.00000000000E+00 -0.50000000000E+03  0.50000000000E+03  0.00000000000E+00 0.  1.
        -11    1    1    2    0    0  0.25004916187E+01 -0.17795328173E+01  0.17167952600E+03  0.17170695630E+03  0.00000000000E+00 0. -1.
         11    1    1    2    0    0  0.75737304577E+01 -0.33366829803E+02 -0.49737049548E+03  0.49854600238E+03  0.00000000000E+00 0.  1.
        -15    1    1    2    0    0 -0.13660362364E+02  0.29375756059E+02  0.13200767252E+03  0.13593647001E+03  0.17770000000E+01 0.  1.
         15    1    1    2    0    0  0.35861402876E+01  0.57706065617E+01  0.19368329696E+03  0.19381057131E+03  0.17770000000E+01 0. -1.
</event>
<event>
 6    1  0.6506903E-004  0.5035880E+03  0.7546771E-02  0.9391817E-01
        -11   -1    0    0    0    0  0.00000000000E+00  0.00000000000E+00  0.50000000000E+03  0.50000000000E+03  0.00000000000E+00 0.  1.
         11   -1    0    0    0    0 -0.00000000000E+00 -0.00000000000E+00 -0.50000000000E+03  0.50000000000E+03  0.00000000000E+00 0.  1.
        -11    1    1    2    0    0  0.37435647962E+02 -0.16434166067E+02  0.49472556740E+03  0.49641202301E+03  0.00000000000E+00 0.  1.
         11    1    1    2    0    0  0.13515187142E+02  0.11525099490E+02 -0.45538902309E+02  0.48880260078E+02  0.00000000000E+00 0.  1.
        -15    1    1    2    0    0 -0.41841548068E+02  0.13273392230E+02 -0.18193248811E+03  0.18716165752E+03  0.17770000000E+01 0.  1.
         15    1    1    2    0    0 -0.91092870362E+01 -0.83643256530E+01 -0.26725417698E+03  0.26754605939E+03  0.17770000000E+01 0. -1.
</event>
<event>
 6    1  0.6506903E-004  0.5003555E+03  0.7546771E-02  0.9399015E-01
        -11   -1    0    0    0    0  0.00000000000E+00  0.00000000000E+00  0.50000000000E+03  0.50000000000E+03  0.00000000000E+00 0.  1.
         11   -1    0    0    0    0 -0.00000000000E+00 -0.00000000000E+00 -0.50000000000E+03  0.50000000000E+03  0.00000000000E+00 0. -1.
        -11    1    1    2    0    0 -0.85476922976E+01  0.60173350340E+01  0.49953512500E+03  0.49964448608E+03  0.00000000000E+00 0.  1.
         11    1    1    2    0    0 -0.63611499230E+01  0.15391035397E+01 -0.24849959751E+03  0.24858576594E+03  0.00000000000E+00 0. -1.
        -15    1    1    2    0    0  0.12026824050E+02 -0.86942202683E+01 -0.17008061057E+03  0.17073607054E+03  0.17770000000E+01 0. -1.
         15    1    1    2    0    0  0.28820181702E+01  0.11377816946E+01 -0.80954916919E+02  0.81033677432E+02  0.17770000000E+01 0.  1.
</event>
<event>
 6    1  0.6506903E-004  0.5003696E+03  0.7546771E-02  0.9398983E-01
        -11   -1    0    0    0    0  0.00000000000E+00  0.00000000000E+00  0.50000000000E+03  0.50000000000E+03  0.00000000000E+00 0.  1.
         11   -1    0    0    0    0 -0.00000000000E+00 -0.00000000000E+00 -0.50000000000E+03  0.50000000000E+03  0.00000000000E+00 0. -1.
        -11    1    1    2    0    0  0.29432328975E+01  0.41786405070E+01  0.77648861802E+02  0.77816896594E+02  0.00000000000E+00 0.  1.
         11    1    1    2    0    0 -0.32816965323E+02  0.84278655688E+01 -0.49848020662E+03  0.49963036190E+03  0.00000000000E+00 0. -1.
        -15    1    1    2    0    0  0.37080123071E+01 -0.70295139345E+01  0.18911991291E+03  0.18929517324E+03  0.17770000000E+01 0.  1.
         15    1    1    2    0    0  0.26165720119E+02 -0.55769921413E+01  0.23171143191E+03  0.23325756827E+03  0.17770000000E+01 0. -1.
</event>
<event>
 6    1  0.6506903E-004  0.5041723E+03  0.7546771E-02  0.9390522E-01
        -11   -1    0    0    0    0  0.00000000000E+00  0.00000000000E+00  0.50000000000E+03  0.50000000000E+03  0.00000000000E+00 0.  1.
         11   -1    0    0    0    0 -0.00000000000E+00 -0.00000000000E+00 -0.50000000000E+03  0.50000000000E+03  0.00000000000E+00 0. -1.
        -11    1    1    2    0    0  0.16591472175E+02  0.84270246975E+01  0.49547836116E+03  0.49582768990E+03  0.00000000000E+00 0.  1.
         11    1    1    2    0    0  0.98113241240E+01 -0.89669344745E+01 -0.44680468998E+03  0.44700234785E+03  0.00000000000E+00 0. -1.
        -15    1    1    2    0    0 -0.24478504529E+02  0.36290996995E+01 -0.46155185850E+02  0.52400634142E+02  0.17770000000E+01 0.  1.
         15    1    1    2    0    0 -0.19242917694E+01 -0.30891899225E+01 -0.25184853359E+01  0.47693281055E+01  0.17770000000E+01 0. -1.
</event>
<event>
 6    1  0.6506903E-004  0.4872630E+03  0.7546771E-02  0.9428770E-01
        -11   -1    0    0    0    0  0.00000000000E+00  0.00000000000E+00  0.50000000000E+03  0.50000000000E+03  0.00000000000E+00 0.  1.
         11   -1    0    0    0    0 -0.00000000000E+00 -0.00000000000E+00 -0.50000000000E+03  0.50000000000E+03  0.00000000000E+00 0.  1.
        -11    1    1    2    0    0  0.11206340723E+01  0.14642147876E+02  0.48486449095E+03  0.48508681996E+03  0.00000000000E+00 0.  1.
         11    1    1    2    0    0  0.10597396130E+02  0.98683685995E+00 -0.48953043281E+03  0.48964612048E+03  0.00000000000E+00 0.  1.
        -15    1    1    2    0    0 -0.46046201670E+01 -0.55901148027E+01  0.93702277074E+01  0.11975425115E+02  0.17770000000E+01 0. -1.
         15    1    1    2    0    0 -0.71134100352E+01 -0.10038869933E+02 -0.47042858482E+01  0.13291634444E+02  0.17770000000E+01 0.  1.
</event>
<event>
 6    1  0.6506903E-004  0.5077015E+03  0.7546771E-02  0.9382740E-01
        -11   -1    0    0    0    0  0.00000000000E+00  0.00000000000E+00  0.50000000000E+03  0.50000000000E+03  0.00000000000E+00 0. -1.
         11   -1    0    0    0    0 -0.00000000000E+00 -0.00000000000E+00 -0.50000000000E+03  0.50000000000E+03  0.00000000000E+00 0.  1.
        -11    1    1    2    0    0 -0.15612108754E+02 -0.27232828705E+01  0.49204334362E+03  0.49229849300E+03  0.00000000000E+00 0. -1.
         11    1    1    2    0    0 -0.27215540516E+02 -0.13097777390E+02 -0.75550522728E+02  0.81364113113E+02  0.00000000000E+00 0.  1.
        -15    1    1    2    0    0  0.42207010085E+02  0.35074270697E+02 -0.38819694850E+03  0.39206079212E+03  0.17770000000E+01 0.  1.
         15    1    1    2    0    0  0.62063918552E+00 -0.19253210436E+02 -0.28295872398E+02  0.34276601770E+02  0.17770000000E+01 0. -1.
</event>
<event>
 6    1  0.6506903E-004  0.5110886E+03  0.7546771E-02  0.9375334E-01
        -11   -1    0    0    0    0  0.00000000000E+00  0.00000000000E+00  0.50000000000E+03  0.50000000000E+03  0.00000000000E+00 0. -1.
         11   -1    0    0    0    0 -0.00000000000E+00 -0.00000000000E+00 -0.50000000000E+03  0.50000000000E+03  0.00000000000E+00 0.  1.
        -11    1    1    2    0    0  0.63216084237E+01 -0.46449569439E+01  0.48884849989E+03  0.48891143799E+03  0.00000000000E+00 0. -1.
         11    1    1    2    0    0  0.89078562414E+01 -0.20356199430E+02 -0.45062706091E+03  0.45117454802E+03  0.00000000000E+00 0.  1.
        -15    1    1    2    0    0 -0.11591722615E+02  0.20696636663E+02 -0.45012610991E+02  0.50911802950E+02  0.17770000000E+01 0.  1.
         15    1    1    2    0    0 -0.36377420498E+01  0.43045197107E+01  0.67911720141E+01  0.90022110332E+01  0.17770000000E+01 0. -1.
</event>
<event>
 6    1  0.6506903E-004  0.5012112E+03  0.7546771E-02  0.9397104E-01
        -11   -1    0    0    0    0  0.00000000000E+00  0.00000000000E+00  0.50000000000E+03  0.50000000000E+03  0.00000000000E+00 0. -1.
         11   -1    0    0    0    0 -0.00000000000E+00 -0.00000000000E+00 -0.50000000000E+03  0.50000000000E+03  0.00000000000E+00 0. -1.
        -11    1    1    2    0    0  0.10095313883E+01 -0.65643557648E+01  0.47313693139E+03  0.47318354342E+03  0.00000000000E+00 0. -1.
         11    1    1    2    0    0  0.51502783835E+01  0.14476764926E+02 -0.49855207510E+03  0.49878880669E+03  0.00000000000E+00 0. -1.
        -15    1    1    2    0    0 -0.41687920151E+01 -0.73829487431E+01  0.22111469502E+02  0.23747875095E+02  0.17770000000E+01 0.  1.
         15    1    1    2    0    0 -0.19910177566E+01 -0.52946041815E+00  0.33036742082E+01  0.42797747973E+01  0.17770000000E+01 0. -1.
</event>
<event>
 6    1  0.6506903E-004  0.5002811E+03  0.7546771E-02  0.9399181E-01
        -11   -1    0    0    0    0  0.00000000000E+00  0.00000000000E+00  0.50000000000E+03  0.50000000000E+03  0.00000000000E+00 0.  1.
         11   -1    0    0    0    0 -0.00000000000E+00 -0.00000000000E+00 -0.50000000000E+03  0.50000000000E+03  0.00000000000E+00 0. -1.
        -11    1    1    2    0    0 -0.59447038260E+01  0.13112836587E+02  0.23265209513E+03  0.23309715432E+03  0.00000000000E+00 0.  1.
         11    1    1    2    0    0  0.10940769883E+02 -0.26937447837E+02 -0.49887236246E+03  0.49971888154E+03  0.00000000000E+00 0. -1.
        -15    1    1    2    0    0 -0.48110797380E+01  0.17549090346E+02  0.19953780983E+03  0.20037368176E+03  0.17770000000E+01 0.  1.
         15    1    1    2    0    0 -0.18498631903E+00 -0.37244790959E+01  0.66682457498E+02  0.66810282378E+02  0.17770000000E+01 0.  1.
</event>
<event>
 6    1  0.6506903E-004  0.5045259E+03  0.7546771E-02  0.9389739E-01
        -11   -1    0    0    0    0  0.00000000000E+00  0.00000000000E+00  0.50000000000E+03  0.50000000000E+03  0.00000000000E+00 0.  1.
         11   -1    0    0    0    0 -0.00000000000E+00 -0.00000000000E+00 -0.50000000000E+03  0.50000000000E+03  0.00000000000E+00 0.  1.
        -11    1    1    2    0    0 -0.13180394972E+02  0.12905442796E+02  0.40658737583E+03  0.40700561108E+03  0.00000000000E+00 0.  1.
         11    1    1    2    0    0  0.33737540288E+02 -0.33336545784E+02 -0.49319880522E+03  0.49547412483E+03  0.00000000000E+00 0.  1.
        -15    1    1    2    0    0  0.14854130998E+01 -0.60579250083E+01  0.31565964771E+01  0.72129562457E+01  0.17770000000E+01 0.  1.
         15    1    1    2    0    0 -0.22042558415E+02  0.26489027997E+02  0.83454832905E+02  0.90307307844E+02  0.17770000000E+01 0.  1.
</event>
<event>
 6    1  0.6506903E-004  0.5003980E+03  0.7546771E-02  0.9398920E-01
        -11   -1    0    0    0    0  0.00000000000E+00  0.00000000000E+00  0.50000000000E+03  0.50000000000E+03  0.00000000000E+00 0.  1.
         11   -1    0    0    0    0 -0.00000000000E+00 -0.00000000000E+00 -0.50000000000E+03  0.50000000000E+03  0.00000000000E+00 0. -1.
        -11    1    1    2    0    0  0.41152709990E+00 -0.35837767179E+01  0.23776844228E+03  0.23779580517E+03  0.00000000000E+00 0.  1.
         11    1    1    2    0    0  0.19927472684E+02  0.61593172698E+01 -0.49916640734E+03  0.49960198516E+03  0.00000000000E+00 0. -1.
        -15    1    1    2    0    0 -0.12809591623E+02  0.48762733800E+01  0.11906059771E+03  0.11986011570E+03  0.17770000000E+01 0.  1.
         15    1    1    2    0    0 -0.75294081603E+01 -0.74518139319E+01  0.14233736735E+03  0.14274209397E+03  0.17770000000E+01 0. -1.
</event>
<event>
 6    1  0.6506903E-004  0.5003507E+03  0.7546771E-02  0.9399025E-01
        -11   -1    0    0    0    0  0.00000000000E+00  0.00000000000E+00  0.50000000000E+03  0.50000000000E+03  0.00000000000E+00 0.  1.
         11   -1    0    0    0    0 -0.00000000000E+00 -0.00000000000E+00 -0.50000000000E+03  0.50000000000E+03  0.00000000000E+00 0.  1.
        -11    1    1    2    0    0  0.54236591507E+01  0.26928535204E+01  0.10685412201E+03  0.10702556204E+03  0.00000000000E+00 0.  1.
         11    1    1    2    0    0  0.15317493566E+01  0.19751634321E+02 -0.49925637204E+03  0.49964927533E+03  0.00000000000E+00 0.  1.
        -15    1    1    2    0    0  0.56382166285E+00 -0.10984347956E+01  0.10686730834E+03  0.10688921263E+03  0.17770000000E+01 0. -1.
         15    1    1    2    0    0 -0.75192301701E+01 -0.21346053046E+02  0.28553494169E+03  0.28643595000E+03  0.17770000000E+01 0.  1.
</event>
<event>
 6    1  0.6506903E-004  0.5001925E+03  0.7546771E-02  0.9399379E-01
        -11   -1    0    0    0    0  0.00000000000E+00  0.00000000000E+00  0.50000000000E+03  0.50000000000E+03  0.00000000000E+00 0. -1.
         11   -1    0    0    0    0 -0.00000000000E+00 -0.00000000000E+00 -0.50000000000E+03  0.50000000000E+03  0.00000000000E+00 0.  1.
        -11    1    1    2    0    0 -0.95550466064E+01 -0.62862079879E+00  0.49971571840E+03  0.49980745623E+03  0.00000000000E+00 0. -1.
         11    1    1    2    0    0 -0.22723651281E+01  0.24934365393E+01 -0.18835388640E+03  0.18838409538E+03  0.00000000000E+00 0.  1.
        -15    1    1    2    0    0  0.12333276961E+02 -0.16428874878E+01 -0.18209915846E+03  0.18253238080E+03  0.17770000000E+01 0.  1.
         15    1    1    2    0    0 -0.50586522656E+00 -0.22192825269E+00 -0.12926267354E+03  0.12927606759E+03  0.17770000000E+01 0.  1.
</event>
<event>
 6    1  0.6506903E-004  0.5088841E+03  0.7546771E-02  0.9380147E-01
        -11   -1    0    0    0    0  0.00000000000E+00  0.00000000000E+00  0.50000000000E+03  0.50000000000E+03  0.00000000000E+00 0. -1.
         11   -1    0    0    0    0 -0.00000000000E+00 -0.00000000000E+00 -0.50000000000E+03  0.50000000000E+03  0.00000000000E+00 0. -1.
        -11    1    1    2    0    0  0.72531977086E+01 -0.14233844968E+01  0.45181511181E+03  0.45187556933E+03  0.00000000000E+00 0. -1.
         11    1    1    2    0    0 -0.35914255223E+02  0.59224134805E+01 -0.48976513351E+03  0.49111586690E+03  0.00000000000E+00 0. -1.
        -15    1    1    2    0    0 -0.55721135703E+01 -0.87543608218E+00  0.13526579258E+02  0.14762822000E+02  0.17770000000E+01 0.  1.
         15    1    1    2    0    0  0.34233171085E+02 -0.36235929015E+01  0.24423442450E+02  0.42245741775E+02  0.17770000000E+01 0. -1.
</event>
<event>
 6    1  0.6506903E-004  0.5016839E+03  0.7546771E-02  0.9396050E-01
        -11   -1    0    0    0    0  0.00000000000E+00  0.00000000000E+00  0.50000000000E+03  0.50000000000E+03  0.00000000000E+00 0.  1.
         11   -1    0    0    0    0 -0.00000000000E+00 -0.00000000000E+00 -0.50000000000E+03  0.50000000000E+03  0.00000000000E+00 0. -1.
        -11    1    1    2    0    0 -0.21275194075E+02  0.10281978292E+02  0.49775552408E+03  0.49831607913E+03  0.00000000000E+00 0.  1.
         11    1    1    2    0    0  0.38271786996E+01 -0.26886118782E+02 -0.25356882188E+03  0.25501893676E+03  0.00000000000E+00 0. -1.
        -15    1    1    2    0    0 -0.54907669068E+01  0.69206137641E+01 -0.92518271772E+02  0.92956074341E+02  0.17770000000E+01 0.  1.
         15    1    1    2    0    0  0.22938782283E+02  0.96835267249E+01 -0.15166843043E+03  0.15370890977E+03  0.17770000000E+01 0. -1.
</event>
<event>
 6    1  0.6506903E-004  0.5040460E+03  0.7546771E-02  0.9390802E-01
        -11   -1    0    0    0    0  0.00000000000E+00  0.00000000000E+00  0.50000000000E+03  0.50000000000E+03  0.00000000000E+00 0.  1.
         11   -1    0    0    0    0 -0.00000000000E+00 -0.00000000000E+00 -0.50000000000E+03  0.50000000000E+03  0.00000000000E+00 0. -1.
        -11    1    1    2    0    0  0.17929368247E+02 -0.36261256708E+01  0.49561658090E+03  0.49595403648E+03  0.00000000000E+00 0.  1.
         11    1    1    2    0    0  0.95092009141E+01 -0.10106493796E+01 -0.43443741167E+03  0.43454264575E+03  0.00000000000E+00 0. -1.
        -15    1    1    2    0    0 -0.27070919976E+02  0.24665508838E+01 -0.60832357179E+02  0.66653221907E+02  0.17770000000E+01 0. -1.
         15    1    1    2    0    0 -0.36764918469E+00  0.21702241667E+01 -0.34681204826E+00  0.28500958674E+01  0.17770000000E+01 0.  1.
</event>
<event>
 6    1  0.6506903E-004  0.5062858E+03  0.7546771E-02  0.9385854E-01
        -11   -1    0    0    0    0  0.00000000000E+00  0.00000000000E+00  0.50000000000E+03  0.50000000000E+03  0.00000000000E+00 0. -1.
         11   -1    0    0    0    0 -0.00000000000E+00 -0.00000000000E+00 -0.50000000000E+03  0.50000000000E+03  0.00000000000E+00 0.  1.
        -11    1    1    2    0    0  0.84508236102E+01 -0.53619048110E+01  0.49361275584E+03  0.49371420799E+03  0.00000000000E+00 0. -1.
         11    1    1    2    0    0  0.10759540859E+02  0.10464165655E+02 -0.47707402103E+03  0.47731005439E+03  0.00000000000E+00 0.  1.
        -15    1    1    2    0    0 -0.88508837317E+01 -0.71899495284E+01 -0.13654270315E+02  0.17878208632E+02  0.17770000000E+01 0. -1.
         15    1    1    2    0    0 -0.10359480738E+02  0.20876886845E+01 -0.28844644935E+01  0.11097528987E+02  0.17770000000E+01 0.  1.
</event>
<event>
 6    1  0.6506903E-004  0.5011875E+03  0.7546771E-02  0.9397157E-01
        -11   -1    0    0    0    0  0.00000000000E+00  0.00000000000E+00  0.50000000000E+03  0.50000000000E+03  0.00000000000E+00 0. -1.
         11   -1    0    0    0    0 -0.00000000000E+00 -0.00000000000E+00 -0.50000000000E+03  0.50000000000E+03  0.00000000000E+00 0.  1.
        -11    1    1    2    0    0  0.12458553913E+02 -0.94971055137E+01  0.49856646617E+03  0.49881252166E+03  0.00000000000E+00 0. -1.
         11    1    1    2    0    0 -0.69349249147E+01  0.16933680903E+02 -0.76717398823E+02  0.78869525260E+02  0.00000000000E+00 0.  1.
        -15    1    1    2    0    0 -0.69923164220E+01 -0.12396781758E+02 -0.32176280588E+03  0.32208233989E+03  0.17770000000E+01 0.  1.
         15    1    1    2    0    0  0.14686874233E+01  0.49602063690E+01 -0.10008626146E+03  0.10023561319E+03  0.17770000000E+01 0. -1.
</event>
<event>
 6    1  0.7101538E-004  0.5000890E+03  0.7546771E-02  0.9399611E-01
        -11   -1    0    0    0    0  0.00000000000E+00  0.00000000000E+00  0.50000000000E+03  0.50000000000E+03  0.00000000000E+00 0. -1.
         11   -1    0    0    0    0 -0.00000000000E+00 -0.00000000000E+00 -0.50000000000E+03  0.50000000000E+03  0.00000000000E+00 0.  1.
        -11    1    1    2    0    0 -0.25451368974E+01  0.18713475405E+01  0.18629791961E+03  0.18632470183E+03  0.00000000000E+00 0. -1.
         11    1    1    2    0    0 -0.42480163035E+01  0.58153951164E+01 -0.49985910554E+03  0.49991098193E+03  0.00000000000E+00 0.  1.
        -15    1    1    2    0    0  0.25640035488E+01 -0.11998662285E+01  0.94822293042E+02  0.94881182433E+02  0.17770000000E+01 0.  1.
         15    1    1    2    0    0  0.42291496520E+01 -0.64868764284E+01  0.21873889289E+03  0.21888313381E+03  0.17770000000E+01 0. -1.
</event>
<event>
 6    1  0.6506903E-004  0.5007783E+03  0.7546771E-02  0.9398070E-01
        -11   -1    0    0    0    0  0.00000000000E+00  0.00000000000E+00  0.50000000000E+03  0.50000000000E+03  0.00000000000E+00 0. -1.
         11   -1    0    0    0    0 -0.00000000000E+00 -0.00000000000E+00 -0.50000000000E+03  0.50000000000E+03  0.00000000000E+00 0.  1.
        -11    1    1    2    0    0  0.46657810917E+01  0.58533247059E+01  0.49916555806E+03  0.49922167949E+03  0.00000000000E+00 0. -1.
         11    1    1    2    0    0 -0.37502097972E+01 -0.66573323341E+01 -0.29054715598E+03  0.29064761137E+03  0.00000000000E+00 0.  1.
        -15    1    1    2    0    0 -0.17059467446E+01 -0.23702158583E+01 -0.32124545179E+01  0.46910308611E+01  0.17770000000E+01 0. -1.
         15    1    1    2    0    0  0.79037545009E+00  0.31742234865E+01 -0.20540594756E+03  0.20543967828E+03  0.17770000000E+01 0.  1.
</event>
<event>
 6    1  0.6506903E-004  0.5062374E+03  0.7546771E-02  0.9385960E-01
        -11   -1    0    0    0    0  0.00000000000E+00  0.00000000000E+00  0.50000000000E+03  0.50000000000E+03  0.00000000000E+00 0. -1.
         11   -1    0    0    0    0 -0.00000000000E+00 -0.00000000000E+00 -0.50000000000E+03  0.50000000000E+03  0.00000000000E+00 0. -1.
        -11    1    1    2    0    0  0.56085714266E+01 -0.40141892174E+01  0.49371440005E+03  0.49376257311E+03  0.00000000000E+00 0. -1.
         11    1    1    2    0    0 -0.26975070846E+02  0.21371888608E+02 -0.54714672340E+02  0.64638281530E+02  0.00000000000E+00 0. -1.
        -15    1    1    2    0    0  0.19796006273E+02 -0.43803660996E+01 -0.86867800515E+02  0.89220188112E+02  0.17770000000E+01 0.  1.
         15    1    1    2    0    0  0.15704931465E+01 -0.12977333291E+02 -0.35213192720E+03  0.35237895724E+03  0.17770000000E+01 0. -1.
</event>
<event>
 6    1  0.6506903E-004  0.4779599E+03  0.7546771E-02  0.9450523E-01
        -11   -1    0    0    0    0  0.00000000000E+00  0.00000000000E+00  0.50000000000E+03  0.50000000000E+03  0.00000000000E+00 0. -1.
         11   -1    0    0    0    0 -0.00000000000E+00 -0.00000000000E+00 -0.50000000000E+03  0.50000000000E+03  0.00000000000E+00 0. -1.
        -11    1    1    2    0    0 -0.81816669650E+01  0.10200706250E+02  0.46767666511E+03  0.46785944168E+03  0.00000000000E+00 0. -1.
         11    1    1    2    0    0 -0.20997777650E+02  0.69369698462E+01 -0.48838291992E+03  0.48888332421E+03  0.00000000000E+00 0. -1.
        -15    1    1    2    0    0  0.75402510199E+01 -0.10541481561E+01  0.12982346750E+02  0.15154724343E+02  0.17770000000E+01 0. -1.
         15    1    1    2    0    0  0.21639193595E+02 -0.16083527940E+02  0.77239080584E+01  0.28102509766E+02  0.17770000000E+01 0.  1.
</event>
<event>
 6    1  0.6506903E-004  0.5003688E+03  0.7546771E-02  0.9398985E-01
        -11   -1    0    0    0    0  0.00000000000E+00  0.00000000000E+00  0.50000000000E+03  0.50000000000E+03  0.00000000000E+00 0.  1.
         11   -1    0    0    0    0 -0.00000000000E+00 -0.00000000000E+00 -0.50000000000E+03  0.50000000000E+03  0.00000000000E+00 0.  1.
        -11    1    1    2    0    0  0.39262617178E+01 -0.32798043893E+01  0.97997824621E+02  0.98131270645E+02  0.00000000000E+00 0.  1.
         11    1    1    2    0    0  0.24347170671E+02  0.19952890385E+02 -0.49863853595E+03  0.49963115605E+03  0.00000000000E+00 0.  1.
        -15    1    1    2    0    0 -0.24720018963E+02 -0.77345471192E+01  0.30122923784E+03  0.30234601703E+03  0.17770000000E+01 0. -1.
         15    1    1    2    0    0 -0.35534134257E+01 -0.89385388763E+01  0.99411473495E+02  0.99891556278E+02  0.17770000000E+01 0.  1.
</event>
<event>
 6    1  0.6506903E-004  0.4845634E+03  0.7546771E-02  0.9435029E-01
        -11   -1    0    0    0    0  0.00000000000E+00  0.00000000000E+00  0.50000000000E+03  0.50000000000E+03  0.00000000000E+00 0. -1.
         11   -1    0    0    0    0 -0.00000000000E+00 -0.00000000000E+00 -0.50000000000E+03  0.50000000000E+03  0.00000000000E+00 0.  1.
        -11    1    1    2    0    0 -0.68731890424E+01 -0.47920240441E+01  0.48369367726E+03  0.48376624277E+03  0.00000000000E+00 0. -1.
         11    1    1    2    0    0  0.49227458080E-01 -0.23599030836E+02 -0.48522799312E+03  0.48580152530E+03  0.00000000000E+00 0.  1.
        -15    1    1    2    0    0 -0.10582009660E+01  0.78382947053E+01 -0.11422563258E+01  0.81866434933E+01  0.17770000000E+01 0.  1.
         15    1    1    2    0    0  0.78821625504E+01  0.20552760175E+02  0.26765721895E+01  0.22245588438E+02  0.17770000000E+01 0. -1.
</event>
<event>
 6    1  0.6506903E-004  0.5046045E+03  0.7546771E-02  0.9389565E-01
        -11   -1    0    0    0    0  0.00000000000E+00  0.00000000000E+00  0.50000000000E+03  0.50000000000E+03  0.00000000000E+00 0. -1.
         11   -1    0    0    0    0 -0.00000000000E+00 -0.00000000000E+00 -0.50000000000E+03  0.50000000000E+03  0.00000000000E+00 0. -1.
        -11    1    1    2    0    0  0.68416195945E+01 -0.11622641503E+01  0.47957671272E+03  0.47962691960E+03  0.00000000000E+00 0. -1.
         11    1    1    2    0    0 -0.47429397056E+01 -0.95449992302E+01 -0.49528087083E+03  0.49539554247E+03  0.00000000000E+00 0. -1.
        -15    1    1    2    0    0 -0.76681887652E+01  0.57415302514E+01  0.31024068567E+01  0.10224917891E+02  0.17770000000E+01 0.  1.
         15    1    1    2    0    0  0.55695088763E+01  0.49657331291E+01  0.12601751249E+02  0.14752620044E+02  0.17770000000E+01 0. -1.
</event>
<event>
 6    1  0.6506903E-004  0.5013436E+03  0.7546771E-02  0.9396808E-01
        -11   -1    0    0    0    0  0.00000000000E+00  0.00000000000E+00  0.50000000000E+03  0.50000000000E+03  0.00000000000E+00 0.  1.
         11   -1    0    0    0    0 -0.00000000000E+00 -0.00000000000E+00 -0.50000000000E+03  0.50000000000E+03  0.00000000000E+00 0.  1.
        -11    1    1    2    0    0  0.54115849385E+01  0.69184704307E+01  0.33611046936E+03  0.33622521930E+03  0.00000000000E+00 0.  1.
         11    1    1    2    0    0 -0.37988481941E+02 -0.89751885354E+01 -0.49712630222E+03  0.49865643396E+03  0.00000000000E+00 0.  1.
        -15    1    1    2    0    0  0.24001550723E+02  0.36357186438E+00  0.14304136613E+03  0.14505239321E+03  0.17770000000E+01 0.  1.
         15    1    1    2    0    0  0.85753462794E+01  0.16931462403E+01  0.17974466732E+02  0.20065953535E+02  0.17770000000E+01 0. -1.
</event>
<event>
 6    1  0.6506903E-004  0.5006778E+03  0.7546771E-02  0.9398294E-01
        -11   -1    0    0    0    0  0.00000000000E+00  0.00000000000E+00  0.50000000000E+03  0.50000000000E+03  0.00000000000E+00 0. -1.
         11   -1    0    0    0    0 -0.00000000000E+00 -0.00000000000E+00 -0.50000000000E+03  0.50000000000E+03  0.00000000000E+00 0.  1.
        -11    1    1    2    0    0  0.19626641415E+00  0.68340673122E+01  0.39095023146E+03  0.39101000815E+03  0.00000000000E+00 0. -1.
         11    1    1    2    0    0 -0.29070307279E+01  0.93132676125E+01 -0.49922692365E+03  0.49932224974E+03  0.00000000000E+00 0.  1.
        -15    1    1    2    0    0 -0.89236662077E+00 -0.41115029781E+01  0.35592266545E+02  0.35884090371E+02  0.17770000000E+01 0.  1.
         15    1    1    2    0    0  0.36031309345E+01 -0.12035831947E+02  0.72684425652E+02  0.73783651743E+02  0.17770000000E+01 0. -1.
</event>
<event>
 6    1  0.6506903E-004  0.5021968E+03  0.7546771E-02  0.9394908E-01
        -11   -1    0    0    0    0  0.00000000000E+00  0.00000000000E+00  0.50000000000E+03  0.50000000000E+03  0.00000000000E+00 0.  1.
         11   -1    0    0    0    0 -0.00000000000E+00 -0.00000000000E+00 -0.50000000000E+03  0.50000000000E+03  0.00000000000E+00 0.  1.
        -11    1    1    2    0    0  0.32820751747E+02 -0.33913426497E+01  0.49670848466E+03  0.49780319574E+03  0.00000000000E+00 0.  1.
         11    1    1    2    0    0 -0.32996749285E+02 -0.45009058864E+01 -0.10032779351E+03  0.10571049980E+03  0.00000000000E+00 0.  1.
        -15    1    1    2    0    0  0.70539615871E+00  0.13557217040E+01 -0.11102010753E+03  0.11104484486E+03  0.17770000000E+01 0.  1.
         15    1    1    2    0    0 -0.52939862044E+00  0.65365268321E+01 -0.28536058362E+03  0.28544145960E+03  0.17770000000E+01 0.  1.
</event>
<event>
 6    1  0.6506903E-004  0.5106944E+03  0.7546771E-02  0.9376193E-01
        -11   -1    0    0    0    0  0.00000000000E+00  0.00000000000E+00  0.50000000000E+03  0.50000000000E+03  0.00000000000E+00 0. -1.
         11   -1    0    0    0    0 -0.00000000000E+00 -0.00000000000E+00 -0.50000000000E+03  0.50000000000E+03  0.00000000000E+00 0.  1.
        -11    1    1    2    0    0  0.34123125601E+01  0.12017808303E+02  0.48914613077E+03  0.48930563949E+03  0.00000000000E+00 0. -1.
         11    1    1    2    0    0 -0.36465335050E+01  0.47484328944E+02 -0.37223554171E+03  0.37526971263E+03  0.00000000000E+00 0.  1.
        -15    1    1    2    0    0 -0.13054040953E+02 -0.39366758005E+02 -0.90749016953E+02  0.99793243399E+02  0.17770000000E+01 0. -1.
         15    1    1    2    0    0  0.13288261898E+02 -0.20135379243E+02 -0.26161572103E+02  0.35631404483E+02  0.17770000000E+01 0.  1.
</event>
<event>
 6    1  0.6506903E-004  0.4860239E+03  0.7546771E-02  0.9431637E-01
        -11   -1    0    0    0    0  0.00000000000E+00  0.00000000000E+00  0.50000000000E+03  0.50000000000E+03  0.00000000000E+00 0.  1.
         11   -1    0    0    0    0 -0.00000000000E+00 -0.00000000000E+00 -0.50000000000E+03  0.50000000000E+03  0.00000000000E+00 0.  1.
        -11    1    1    2    0    0 -0.10787993384E+02 -0.82791240666E+01  0.47949155751E+03  0.47968435290E+03  0.00000000000E+00 0.  1.
         11    1    1    2    0    0 -0.10687174792E+02  0.47303807539E+01 -0.49255619361E+03  0.49269483057E+03  0.00000000000E+00 0.  1.
        -15    1    1    2    0    0  0.30461282669E+01  0.45599983145E+01  0.25330190611E+01  0.62965384626E+01  0.17770000000E+01 0. -1.
         15    1    1    2    0    0  0.18429039910E+02 -0.10112550019E+01  0.10531617042E+02  0.21324278070E+02  0.17770000000E+01 0.  1.
</event>
<event>
 6    1  0.6506903E-004  0.5127123E+03  0.7546771E-02  0.9371806E-01
        -11   -1    0    0    0    0  0.00000000000E+00  0.00000000000E+00  0.50000000000E+03  0.50000000000E+03  0.00000000000E+00 0. -1.
         11   -1    0    0    0    0 -0.00000000000E+00 -0.00000000000E+00 -0.50000000000E+03  0.50000000000E+03  0.00000000000E+00 0.  1.
        -11    1    1    2    0    0  0.93225652974E+01  0.65551528656E+01  0.45015005712E+03  0.45029429730E+03  0.00000000000E+00 0. -1.
         11    1    1    2    0    0 -0.31613261442E+02 -0.93617604053E+01 -0.48617097598E+03  0.48728765503E+03  0.00000000000E+00 0.  1.
        -15    1    1    2    0    0 -0.30629999167E+01 -0.72733395189E+01  0.34058384773E+02  0.35005924336E+02  0.17770000000E+01 0.  1.
         15    1    1    2    0    0  0.25353696061E+02  0.10079947059E+02  0.19625340838E+01  0.27412123335E+02  0.17770000000E+01 0. -1.
</event>
<event>
 6    1  0.6506903E-004  0.5005838E+03  0.7546771E-02  0.9398504E-01
        -11   -1    0    0    0    0  0.00000000000E+00  0.00000000000E+00  0.50000000000E+03  0.50000000000E+03  0.00000000000E+00 0.  1.
         11   -1    0    0    0    0 -0.00000000000E+00 -0.00000000000E+00 -0.50000000000E+03  0.50000000000E+03  0.00000000000E+00 0. -1.
        -11    1    1    2    0    0  0.32474670914E+01 -0.87180398465E+01  0.43013629671E+03  0.43023689290E+03  0.00000000000E+00 0.  1.
         11    1    1    2    0    0 -0.79237078050E+01 -0.18705344152E+01 -0.49934987506E+03  0.49941624100E+03  0.00000000000E+00 0. -1.
        -15    1    1    2    0    0  0.91545542294E+00  0.54129116897E+01  0.26561033272E+02  0.27180579263E+02  0.17770000000E+01 0.  1.
         15    1    1    2    0    0  0.37607852907E+01  0.51756625720E+01  0.42652545080E+02  0.43166286844E+02  0.17770000000E+01 0. -1.
</event>
<event>
 6    1  0.6506903E-004  0.5006987E+03  0.7546771E-02  0.9398248E-01
        -11   -1    0    0    0    0  0.00000000000E+00  0.00000000000E+00  0.50000000000E+03  0.50000000000E+03  0.00000000000E+00 0.  1.
         11   -1    0    0    0    0 -0.00000000000E+00 -0.00000000000E+00 -0.50000000000E+03  0.50000000000E+03  0.00000000000E+00 0.  1.
        -11    1    1    2    0    0 -0.19801720831E+02 -0.34074611972E+02  0.49774350252E+03  0.49930129344E+03  0.00000000000E+00 0.  1.
         11    1    1    2    0    0  0.22540047215E+02  0.24673547787E+02 -0.21480161480E+03  0.21738576635E+03  0.00000000000E+00 0.  1.
        -15    1    1    2    0    0 -0.18918708627E+01  0.11053971737E+02 -0.19253579748E+03  0.19287032044E+03  0.17770000000E+01 0.  1.
         15    1    1    2    0    0 -0.84645552086E+00 -0.16529075518E+01 -0.90406090242E+02  0.90442619777E+02  0.17770000000E+01 0. -1.
</event>
<event>
 6    1  0.6506903E-004  0.5007648E+03  0.7546771E-02  0.9398100E-01
        -11   -1    0    0    0    0  0.00000000000E+00  0.00000000000E+00  0.50000000000E+03  0.50000000000E+03  0.00000000000E+00 0.  1.
         11   -1    0    0    0    0 -0.00000000000E+00 -0.00000000000E+00 -0.50000000000E+03  0.50000000000E+03  0.00000000000E+00 0. -1.
        -11    1    1    2    0    0  0.62419743785E+01 -0.64180822220E+00  0.42345303111E+03  0.42349952033E+03  0.00000000000E+00 0.  1.
         11    1    1    2    0    0  0.68794527952E+01 -0.52557102920E+01 -0.49916013305E+03  0.49923520287E+03  0.00000000000E+00 0. -1.
        -15    1    1    2    0    0 -0.11318854843E+02  0.36834443038E+01  0.61384950974E+02  0.62553610383E+02  0.17770000000E+01 0.  1.
         15    1    1    2    0    0 -0.18025723307E+01  0.22140742104E+01  0.14322150958E+02  0.14711666414E+02  0.17770000000E+01 0. -1.
</event>
<event>
 6    1  0.6506903E-004  0.5033758E+03  0.7546771E-02  0.9392288E-01
        -11   -1    0    0    0    0  0.00000000000E+00  0.00000000000E+00  0.50000000000E+03  0.50000000000E+03  0.00000000000E+00 0. -1.
         11   -1    0    0    0    0 -0.00000000000E+00 -0.00000000000E+00 -0.50000000000E+03  0.50000000000E+03  0.00000000000E+00 0. -1.
        -11    1    1    2    0    0  0.97893742835E+01 -0.18516910815E+01  0.49652420531E+03  0.49662415071E+03  0.00000000000E+00 0. -1.
         11    1    1    2    0    0  0.87039652265E+01  0.87899839441E+00 -0.46755990886E+03  0.46764174324E+03  0.00000000000E+00 0. -1.
        -15    1    1    2    0    0 -0.70801974647E+00  0.13959935589E+01 -0.10624611397E+01  0.25955043154E+01  0.17770000000E+01 0. -1.
         15    1    1    2    0    0 -0.17785319764E+02 -0.42330087185E+00 -0.27901835310E+02  0.33138601741E+02  0.17770000000E+01 0.  1.
</event>
<event>
 6    1  0.6506903E-004  0.5037110E+03  0.7546771E-02  0.9391544E-01
        -11   -1    0    0    0    0  0.00000000000E+00  0.00000000000E+00  0.50000000000E+03  0.50000000000E+03  0.00000000000E+00 0. -1.
         11   -1    0    0    0    0 -0.00000000000E+00 -0.00000000000E+00 -0.50000000000E+03  0.50000000000E+03  0.00000000000E+00 0. -1.
        -11    1    1    2    0    0  0.36209802135E+00 -0.84057455144E+01  0.49621766924E+03  0.49628899136E+03  0.00000000000E+00 0. -1.
         11    1    1    2    0    0 -0.12414470466E+02  0.33775023293E+02 -0.11608011430E+03  0.12152968448E+03  0.00000000000E+00 0. -1.
        -15    1    1    2    0    0  0.10169290404E+02 -0.31268353085E+02 -0.32740431563E+03  0.32905602561E+03  0.17770000000E+01 0. -1.
         15    1    1    2    0    0  0.18830820412E+01  0.58990753058E+01 -0.52733239321E+02  0.53125298547E+02  0.17770000000E+01 0.  1.
</event>
<event>
 6    1  0.6506903E-004  0.4768903E+03  0.7546771E-02  0.9453058E-01
        -11   -1    0    0    0    0  0.00000000000E+00  0.00000000000E+00  0.50000000000E+03  0.50000000000E+03  0.00000000000E+00 0. -1.
         11   -1    0    0    0    0 -0.00000000000E+00 -0.00000000000E+00 -0.50000000000E+03  0.50000000000E+03  0.00000000000E+00 0. -1.
        -11    1    1    2    0    0  0.13827179446E+02 -0.14277762777E+02  0.48263806075E+03  0.48304714375E+03  0.00000000000E+00 0. -1.
         11    1    1    2    0    0 -0.79146042633E+01 -0.26630871353E+02 -0.47088214105E+03  0.47170100172E+03  0.00000000000E+00 0. -1.
        -15    1    1    2    0    0  0.19354498203E+01  0.28281789291E+02 -0.10279095163E+02  0.30206342014E+02  0.17770000000E+01 0. -1.
         15    1    1    2    0    0 -0.78480250035E+01  0.12626844839E+02 -0.14768245389E+01  0.15045512512E+02  0.17770000000E+01 0.  1.
</event>
<event>
 6    1  0.6506903E-004  0.5016104E+03  0.7546771E-02  0.9396214E-01
        -11   -1    0    0    0    0  0.00000000000E+00  0.00000000000E+00  0.50000000000E+03  0.50000000000E+03  0.00000000000E+00 0. -1.
         11   -1    0    0    0    0 -0.00000000000E+00 -0.00000000000E+00 -0.50000000000E+03  0.50000000000E+03  0.00000000000E+00 0.  1.
        -11    1    1    2    0    0 -0.14848963552E+02  0.17548154420E+02  0.49785919223E+03  0.49838961138E+03  0.00000000000E+00 0. -1.
         11    1    1    2    0    0 -0.13442381139E+02 -0.20793199032E+02 -0.17953394202E+03  0.18123325046E+03  0.00000000000E+00 0.  1.
        -15    1    1    2    0    0  0.17421772230E+02  0.62921023429E+01 -0.97710542635E+02  0.99466660599E+02  0.17770000000E+01 0.  1.
         15    1    1    2    0    0  0.10869572461E+02 -0.30470577310E+01 -0.22061470758E+03  0.22091047756E+03  0.17770000000E+01 0. -1.
</event>
<event>
 6    1  0.6506903E-004  0.5006329E+03  0.7546771E-02  0.9398395E-01
        -11   -1    0    0    0    0  0.00000000000E+00  0.00000000000E+00  0.50000000000E+03  0.50000000000E+03  0.00000000000E+00 0.  1.
         11   -1    0    0    0    0 -0.00000000000E+00 -0.00000000000E+00 -0.50000000000E+03  0.50000000000E+03  0.00000000000E+00 0.  1.
        -11    1    1    2    0    0  0.53199213991E+02 -0.44924122309E+02  0.41020295493E+03  0.41607066391E+03  0.00000000000E+00 0.  1.
         11    1    1    2    0    0 -0.61628755876E+02  0.48309290342E+02 -0.49318918702E+03  0.49936706467E+03  0.00000000000E+00 0.  1.
        -15    1    1    2    0    0  0.71646092078E+01 -0.17507845888E+01  0.18188772182E+02  0.19707512128E+02  0.17770000000E+01 0. -1.
         15    1    1    2    0    0  0.12649326767E+01 -0.16343834438E+01  0.64797459906E+02  0.64854759295E+02  0.17770000000E+01 0.  1.
</event>
<event>
 6    1  0.6506903E-004  0.5005441E+03  0.7546771E-02  0.9398593E-01
        -11   -1    0    0    0    0  0.00000000000E+00  0.00000000000E+00  0.50000000000E+03  0.50000000000E+03  0.00000000000E+00 0.  1.
         11   -1    0    0    0    0 -0.00000000000E+00 -0.00000000000E+00 -0.50000000000E+03  0.50000000000E+03  0.00000000000E+00 0. -1.
        -11    1    1    2    0    0 -0.58202818673E+01  0.10681426901E+02  0.49930771750E+03  0.49945586924E+03  0.00000000000E+00 0.  1.
         11    1    1    2    0    0 -0.32858835198E+01 -0.13322858026E+02 -0.35665672459E+03  0.35692060010E+03  0.00000000000E+00 0. -1.
        -15    1    1    2    0    0  0.81852411673E+01 -0.43308311008E+01 -0.81866879783E+02  0.82408118565E+02  0.17770000000E+01 0.  1.
         15    1    1    2    0    0  0.92092421985E+00  0.69722622266E+01 -0.60784113119E+02  0.61215412101E+02  0.17770000000E+01 0. -1.
</event>
<event>
 6    1  0.6506903E-004  0.5002116E+03  0.7546771E-02  0.9399336E-01
        -11   -1    0    0    0    0  0.00000000000E+00  0.00000000000E+00  0.50000000000E+03  0.50000000000E+03  0.00000000000E+00 0. -1.
         11   -1    0    0    0    0 -0.00000000000E+00 -0.00000000000E+00 -0.50000000000E+03  0.50000000000E+03  0.00000000000E+00 0. -1.
        -11    1    1    2    0    0 -0.72797983631E+01  0.42449944535E+01  0.49971737687E+03  0.49978842742E+03  0.00000000000E+00 0. -1.
         11    1    1    2    0    0 -0.28959903447E+01 -0.53674972292E+01 -0.58575940640E+02  0.58892593834E+02  0.00000000000E+00 0. -1.
        -15    1    1    2    0    0  0.10179606362E+02  0.19191160040E+01 -0.38639949118E+03  0.38654240635E+03  0.17770000000E+01 0. -1.
         15    1    1    2    0    0 -0.38176543164E-02 -0.79661322828E+00 -0.54741945045E+02  0.54776572397E+02  0.17770000000E+01 0. -1.
</event>
<event>
 6    1  0.6506903E-004  0.5066203E+03  0.7546771E-02  0.9385117E-01
        -11   -1    0    0    0    0  0.00000000000E+00  0.00000000000E+00  0.50000000000E+03  0.50000000000E+03  0.00000000000E+00 0. -1.
         11   -1    0    0    0    0 -0.00000000000E+00 -0.00000000000E+00 -0.50000000000E+03  0.50000000000E+03  0.00000000000E+00 0. -1.
        -11    1    1    2    0    0  0.10951001220E+02 -0.14126491273E+02  0.49305583196E+03  0.49337970733E+03  0.00000000000E+00 0. -1.
         11    1    1    2    0    0 -0.75928907441E+01 -0.10321147437E+02 -0.46453311382E+03  0.46470979322E+03  0.00000000000E+00 0. -1.
        -15    1    1    2    0    0  0.65965749004E+01  0.66656105436E+01 -0.13487858452E+02  0.16523474784E+02  0.17770000000E+01 0.  1.
         15    1    1    2    0    0 -0.99546853764E+01  0.17782028166E+02 -0.15034859683E+02  0.25387024665E+02  0.17770000000E+01 0. -1.
</event>
<event>
 6    1  0.6506903E-004  0.5001193E+03  0.7546771E-02  0.9399543E-01
        -11   -1    0    0    0    0  0.00000000000E+00  0.00000000000E+00  0.50000000000E+03  0.50000000000E+03  0.00000000000E+00 0.  1.
         11   -1    0    0    0    0 -0.00000000000E+00 -0.00000000000E+00 -0.50000000000E+03  0.50000000000E+03  0.00000000000E+00 0. -1.
        -11    1    1    2    0    0  0.60509542577E+01 -0.50161376145E+01  0.49981895105E+03  0.49988074529E+03  0.00000000000E+00 0.  1.
         11    1    1    2    0    0 -0.44740751943E+01 -0.14416456770E+01 -0.53066315453E+02  0.53274098086E+02  0.00000000000E+00 0. -1.
        -15    1    1    2    0    0  0.91701242466E+00  0.53051239226E+01 -0.24215488217E+03  0.24222124172E+03  0.17770000000E+01 0. -1.
         15    1    1    2    0    0 -0.24938914880E+01  0.11526593689E+01 -0.20459775342E+03  0.20462391491E+03  0.17770000000E+01 0.  1.
</event>
<event>
 6    1  0.6506903E-004  0.5009431E+03  0.7546771E-02  0.9397702E-01
        -11   -1    0    0    0    0  0.00000000000E+00  0.00000000000E+00  0.50000000000E+03  0.50000000000E+03  0.00000000000E+00 0.  1.
         11   -1    0    0    0    0 -0.00000000000E+00 -0.00000000000E+00 -0.50000000000E+03  0.50000000000E+03  0.00000000000E+00 0.  1.
        -11    1    1    2    0    0  0.29743359800E+01  0.11355272369E+02  0.49891882005E+03  0.49905688842E+03  0.00000000000E+00 0.  1.
         11    1    1    2    0    0  0.10063256493E+02 -0.55496877078E+01 -0.35786696139E+03  0.35805143516E+03  0.00000000000E+00 0.  1.
        -15    1    1    2    0    0 -0.10292272946E+02 -0.11098482568E+02 -0.11923438468E+03  0.12020442345E+03  0.17770000000E+01 0.  1.
         15    1    1    2    0    0 -0.27453195264E+01  0.52928979067E+01 -0.21817473970E+02  0.22687252962E+02  0.17770000000E+01 0.  1.
</event>
<event>
 6    1  0.6506903E-004  0.5173248E+03  0.7546771E-02  0.9361857E-01
        -11   -1    0    0    0    0  0.00000000000E+00  0.00000000000E+00  0.50000000000E+03  0.50000000000E+03  0.00000000000E+00 0.  1.
         11   -1    0    0    0    0 -0.00000000000E+00 -0.00000000000E+00 -0.50000000000E+03  0.50000000000E+03  0.00000000000E+00 0. -1.
        -11    1    1    2    0    0  0.12045941349E+02 -0.48164666506E+01  0.48250081256E+03  0.48267518807E+03  0.00000000000E+00 0.  1.
         11    1    1    2    0    0  0.65962533171E+02 -0.31160789993E+02 -0.27030354043E+03  0.27997509636E+03  0.00000000000E+00 0. -1.
        -15    1    1    2    0    0 -0.71038019253E+02  0.28550227383E+02 -0.21360204651E+03  0.22691519928E+03  0.17770000000E+01 0. -1.
         15    1    1    2    0    0 -0.69704552677E+01  0.74270292609E+01  0.14047743712E+01  0.10434516295E+02  0.17770000000E+01 0.  1.
</event>
<event>
 6    1  0.6506903E-004  0.5001996E+03  0.7546771E-02  0.9399363E-01
        -11   -1    0    0    0    0  0.00000000000E+00  0.00000000000E+00  0.50000000000E+03  0.50000000000E+03  0.00000000000E+00 0.  1.
         11   -1    0    0    0    0 -0.00000000000E+00 -0.00000000000E+00 -0.50000000000E+03  0.50000000000E+03  0.00000000000E+00 0.  1.
        -11    1    1    2    0    0 -0.67121030329E+00 -0.47237306742E+01  0.23112382066E+03  0.23117306208E+03  0.00000000000E+00 0.  1.
         11    1    1    2    0    0 -0.65670740040E+01  0.23942709905E+01 -0.49975152214E+03  0.49980040303E+03  0.00000000000E+00 0.  1.
        -15    1    1    2    0    0 -0.59612459980E+00  0.42289013493E+01  0.16702554649E+03  0.16708958639E+03  0.17770000000E+01 0. -1.
         15    1    1    2    0    0  0.78344089071E+01 -0.18994416655E+01  0.10160215499E+03  0.10193694850E+03  0.17770000000E+01 0.  1.
</event>
<event>
 6    1  0.6506903E-004  0.5006449E+03  0.7546771E-02  0.9398368E-01
        -11   -1    0    0    0    0  0.00000000000E+00  0.00000000000E+00  0.50000000000E+03  0.50000000000E+03  0.00000000000E+00 0.  1.
         11   -1    0    0    0    0 -0.00000000000E+00 -0.00000000000E+00 -0.50000000000E+03  0.50000000000E+03  0.00000000000E+00 0.  1.
        -11    1    1    2    0    0 -0.54310294599E+01  0.71397286194E+01  0.35823870016E+03  0.35835099846E+03  0.00000000000E+00 0.  1.
         11    1    1    2    0    0  0.90312501993E+00  0.97537560577E+01 -0.49925901781E+03  0.49935510236E+03  0.00000000000E+00 0.  1.
        -15    1    1    2    0    0  0.47977324342E+01 -0.12985527203E+02  0.88062056585E+02  0.89161234246E+02  0.17770000000E+01 0.  1.
         15    1    1    2    0    0 -0.26982799426E+00 -0.39079574741E+01  0.52958261064E+02  0.53132664931E+02  0.17770000000E+01 0. -1.
</event>
<event>
 6    1  0.6506903E-004  0.5046234E+03  0.7546771E-02  0.9389524E-01
        -11   -1    0    0    0    0  0.00000000000E+00  0.00000000000E+00  0.50000000000E+03  0.50000000000E+03  0.00000000000E+00 0. -1.
         11   -1    0    0    0    0 -0.00000000000E+00 -0.00000000000E+00 -0.50000000000E+03  0.50000000000E+03  0.00000000000E+00 0.  1.
        -11    1    1    2    0    0  0.46287446324E+01  0.58494991306E+01  0.49532045180E+03  0.49537661621E+03  0.00000000000E+00 0. -1.
         11    1    1    2    0    0  0.27752370549E+02  0.24028787441E+02 -0.10273649930E+03  0.10909796050E+03  0.00000000000E+00 0.  1.
        -15    1    1    2    0    0 -0.22154261609E+02 -0.29326473545E+02 -0.33458573530E+03  0.33660306795E+03  0.17770000000E+01 0.  1.
         15    1    1    2    0    0 -0.10226853572E+02 -0.55181302601E+00 -0.57998217196E+02  0.58922355338E+02  0.17770000000E+01 0. -1.
</event>
<event>
 6    1  0.6506903E-004  0.5000878E+03  0.7546771E-02  0.9399613E-01
        -11   -1    0    0    0    0  0.00000000000E+00  0.00000000000E+00  0.50000000000E+03  0.50000000000E+03  0.00000000000E+00 0.  1.
         11   -1    0    0    0    0 -0.00000000000E+00 -0.00000000000E+00 -0.50000000000E+03  0.50000000000E+03  0.00000000000E+00 0. -1.
        -11    1    1    2    0    0 -0.13357595074E+02 -0.79173874296E+01  0.49967094284E+03  0.49991215377E+03  0.00000000000E+00 0.  1.
         11    1    1    2    0    0  0.57025445248E+01  0.33181398863E+01 -0.35862754519E+03  0.35868822846E+03  0.00000000000E+00 0. -1.
        -15    1    1    2    0    0  0.19055473332E+01  0.21847408801E+01 -0.60596313546E+02  0.60691639851E+02  0.17770000000E+01 0.  1.
         15    1    1    2    0    0  0.57495032157E+01  0.24145066631E+01 -0.80447084103E+02  0.80707977916E+02  0.17770000000E+01 0. -1.
</event>
<event>
 6    1  0.6506903E-004  0.5015069E+03  0.7546771E-02  0.9396444E-01
        -11   -1    0    0    0    0  0.00000000000E+00  0.00000000000E+00  0.50000000000E+03  0.50000000000E+03  0.00000000000E+00 0.  1.
         11   -1    0    0    0    0 -0.00000000000E+00 -0.00000000000E+00 -0.50000000000E+03  0.50000000000E+03  0.00000000000E+00 0. -1.
        -11    1    1    2    0    0  0.48770642494E+01  0.69728446321E+01  0.49842046139E+03  0.49849309188E+03  0.00000000000E+00 0.  1.
         11    1    1    2    0    0 -0.83688929606E+01 -0.11211488237E+02 -0.47401549511E+03  0.47422191582E+03  0.00000000000E+00 0. -1.
        -15    1    1    2    0    0 -0.12828205860E+01 -0.99928373054E+00 -0.74329998004E+00  0.25207975901E+01  0.17770000000E+01 0.  1.
         15    1    1    2    0    0  0.47746492972E+01  0.52379273358E+01 -0.23661666300E+02  0.24764194713E+02  0.17770000000E+01 0. -1.
</event>
<event>
 6    1  0.6506903E-004  0.5043816E+03  0.7546771E-02  0.9390059E-01
        -11   -1    0    0    0    0  0.00000000000E+00  0.00000000000E+00  0.50000000000E+03  0.50000000000E+03  0.00000000000E+00 0. -1.
         11   -1    0    0    0    0 -0.00000000000E+00 -0.00000000000E+00 -0.50000000000E+03  0.50000000000E+03  0.00000000000E+00 0. -1.
        -11    1    1    2    0    0 -0.48333029165E+01 -0.70306779212E+01  0.49554493443E+03  0.49561837464E+03  0.00000000000E+00 0. -1.
         11    1    1    2    0    0 -0.45533996236E+01  0.13672814665E+02 -0.48477096622E+03  0.48498512245E+03  0.00000000000E+00 0. -1.
        -15    1    1    2    0    0  0.67889355512E+01 -0.12115001208E+01 -0.22938522731E+00  0.71251473699E+01  0.17770000000E+01 0.  1.
         15    1    1    2    0    0  0.25977669889E+01 -0.54306366227E+01 -0.10544582982E+02  0.12271355538E+02  0.17770000000E+01 0. -1.
</event>
<event>
 6    1  0.6506903E-004  0.5027807E+03  0.7546771E-02  0.9393609E-01
        -11   -1    0    0    0    0  0.00000000000E+00  0.00000000000E+00  0.50000000000E+03  0.50000000000E+03  0.00000000000E+00 0.  1.
         11   -1    0    0    0    0 -0.00000000000E+00 -0.00000000000E+00 -0.50000000000E+03  0.50000000000E+03  0.00000000000E+00 0. -1.
        -11    1    1    2    0    0  0.55250143654E+01  0.86450926601E+01  0.44278791192E+03  0.44290676033E+03  0.00000000000E+00 0.  1.
         11    1    1    2    0    0 -0.17243071158E+02  0.81788394559E+01 -0.49685290723E+03  0.49721929603E+03  0.00000000000E+00 0. -1.
        -15    1    1    2    0    0  0.15276268065E+02 -0.13986828525E+02  0.42198604551E+02  0.47041212709E+02  0.17770000000E+01 0.  1.
         15    1    1    2    0    0 -0.35582112721E+01 -0.28371035912E+01  0.11866390767E+02  0.12832730928E+02  0.17770000000E+01 0. -1.
</event>
<event>
 6    1  0.6506903E-004  0.5059574E+03  0.7546771E-02  0.9386577E-01
        -11   -1    0    0    0    0  0.00000000000E+00  0.00000000000E+00  0.50000000000E+03  0.50000000000E+03  0.00000000000E+00 0. -1.
         11   -1    0    0    0    0 -0.00000000000E+00 -0.00000000000E+00 -0.50000000000E+03  0.50000000000E+03  0.00000000000E+00 0. -1.
        -11    1    1    2    0    0 -0.41724205315E+01 -0.49903246857E+01  0.48080670136E+03  0.48085070085E+03  0.00000000000E+00 0. -1.
         11    1    1    2    0    0  0.10521516095E+02 -0.65751512299E+01 -0.49388680423E+03  0.49404261993E+03  0.00000000000E+00 0. -1.
        -15    1    1    2    0    0 -0.79827033083E+01  0.13984418514E+02  0.14166823284E+02  0.21520783542E+02  0.17770000000E+01 0.  1.
         15    1    1    2    0    0  0.16336077448E+01 -0.24189425984E+01 -0.10867204161E+01  0.35858956790E+01  0.17770000000E+01 0. -1.
</event>
<event>
 6    1  0.6506903E-004  0.5001229E+03  0.7546771E-02  0.9399535E-01
        -11   -1    0    0    0    0  0.00000000000E+00  0.00000000000E+00  0.50000000000E+03  0.50000000000E+03  0.00000000000E+00 0. -1.
         11   -1    0    0    0    0 -0.00000000000E+00 -0.00000000000E+00 -0.50000000000E+03  0.50000000000E+03  0.00000000000E+00 0.  1.
        -11    1    1    2    0    0  0.43291031068E+01 -0.12897427417E+02  0.49969195349E+03  0.49987711805E+03  0.00000000000E+00 0. -1.
         11    1    1    2    0    0  0.11137110642E+01  0.12121991981E+02 -0.21707655092E+03  0.21741759819E+03  0.00000000000E+00 0.  1.
        -15    1    1    2    0    0 -0.10504218558E+01 -0.49138014679E+00 -0.10882932561E+03  0.10885001003E+03  0.17770000000E+01 0.  1.
         15    1    1    2    0    0 -0.43923923152E+01  0.12668155835E+01 -0.17378607696E+03  0.17385527373E+03  0.17770000000E+01 0.  1.
</event>
<event>
 6    1  0.6506903E-004  0.5129756E+03  0.7546771E-02  0.9371235E-01
        -11   -1    0    0    0    0  0.00000000000E+00  0.00000000000E+00  0.50000000000E+03  0.50000000000E+03  0.00000000000E+00 0.  1.
         11   -1    0    0    0    0 -0.00000000000E+00 -0.00000000000E+00 -0.50000000000E+03  0.50000000000E+03  0.00000000000E+00 0. -1.
        -11    1    1    2    0    0  0.57235083596E+01 -0.34754338344E+01  0.48697834478E+03  0.48702437873E+03  0.00000000000E+00 0.  1.
         11    1    1    2    0    0  0.73267226681E+01  0.70830368912E+02 -0.31643945369E+03  0.32435250867E+03  0.00000000000E+00 0. -1.
        -15    1    1    2    0    0 -0.11227421105E+02 -0.21419837846E+01 -0.52349408204E+02  0.53612138062E+02  0.17770000000E+01 0.  1.
         15    1    1    2    0    0 -0.18228099224E+01 -0.65212951293E+02 -0.11818948289E+03  0.13501097454E+03  0.17770000000E+01 0. -1.
</event>
<event>
 6    1  0.6506903E-004  0.5011244E+03  0.7546771E-02  0.9397297E-01
        -11   -1    0    0    0    0  0.00000000000E+00  0.00000000000E+00  0.50000000000E+03  0.50000000000E+03  0.00000000000E+00 0.  1.
         11   -1    0    0    0    0 -0.00000000000E+00 -0.00000000000E+00 -0.50000000000E+03  0.50000000000E+03  0.00000000000E+00 0. -1.
        -11    1    1    2    0    0 -0.44182137160E+01  0.64048103853E+01  0.42568495752E+03  0.42575606310E+03  0.00000000000E+00 0.  1.
         11    1    1    2    0    0 -0.11355238828E+02  0.16142476449E+01 -0.49874370327E+03  0.49887556444E+03  0.00000000000E+00 0. -1.
        -15    1    1    2    0    0  0.20586574945E+01 -0.19848622226E+01  0.11135587173E+02  0.11633433690E+02  0.17770000000E+01 0. -1.
         15    1    1    2    0    0  0.13714795049E+02 -0.60341958075E+01  0.61923158580E+02  0.63734938769E+02  0.17770000000E+01 0.  1.
</event>
<event>
 6    1  0.6506903E-004  0.5023054E+03  0.7546771E-02  0.9394666E-01
        -11   -1    0    0    0    0  0.00000000000E+00  0.00000000000E+00  0.50000000000E+03  0.50000000000E+03  0.00000000000E+00 0.  1.
         11   -1    0    0    0    0 -0.00000000000E+00 -0.00000000000E+00 -0.50000000000E+03  0.50000000000E+03  0.00000000000E+00 0. -1.
        -11    1    1    2    0    0 -0.70675483864E+01 -0.20770496952E+01  0.49015322533E+03  0.49020857671E+03  0.00000000000E+00 0.  1.
         11    1    1    2    0    0  0.11122232971E+02  0.33486293498E+00 -0.49757022476E+03  0.49769463004E+03  0.00000000000E+00 0. -1.
        -15    1    1    2    0    0 -0.54060178410E+01 -0.63594301343E+00  0.26225937707E+01  0.62980298109E+01  0.17770000000E+01 0. -1.
         15    1    1    2    0    0  0.13513332559E+01  0.23781297736E+01  0.47944056592E+01  0.57987634383E+01  0.17770000000E+01 0.  1.
</event>
<event>
 6    1  0.6506903E-004  0.5002838E+03  0.7546771E-02  0.9399175E-01
        -11   -1    0    0    0    0  0.00000000000E+00  0.00000000000E+00  0.50000000000E+03  0.50000000000E+03  0.00000000000E+00 0. -1.
         11   -1    0    0    0    0 -0.00000000000E+00 -0.00000000000E+00 -0.50000000000E+03  0.50000000000E+03  0.00000000000E+00 0. -1.
        -11    1    1    2    0    0 -0.35111200045E+01 -0.95423002699E+01  0.49961276087E+03  0.49971621374E+03  0.00000000000E+00 0. -1.
         11    1    1    2    0    0 -0.15854769046E+01 -0.45005317328E+01 -0.27483654105E+02  0.27894798186E+02  0.00000000000E+00 0. -1.
        -15    1    1    2    0    0  0.36829038823E+01  0.73164131122E+01 -0.21896348901E+03  0.21912384838E+03  0.17770000000E+01 0. -1.
         15    1    1    2    0    0  0.14136930267E+01  0.67264188905E+01 -0.25316561776E+03  0.25326513969E+03  0.17770000000E+01 0. -1.
</event>
<event>
 6    1  0.6506903E-004  0.5032708E+03  0.7546771E-02  0.9392521E-01
        -11   -1    0    0    0    0  0.00000000000E+00  0.00000000000E+00  0.50000000000E+03  0.50000000000E+03  0.00000000000E+00 0.  1.
         11   -1    0    0    0    0 -0.00000000000E+00 -0.00000000000E+00 -0.50000000000E+03  0.50000000000E+03  0.00000000000E+00 0.  1.
        -11    1    1    2    0    0 -0.23576749551E+02 -0.27399552049E+02  0.49541224228E+03  0.49672919018E+03  0.00000000000E+00 0.  1.
         11    1    1    2    0    0  0.21848256106E+02 -0.11924975218E+02 -0.38241751645E+03  0.38322670604E+03  0.00000000000E+00 0.  1.
        -15    1    1    2    0    0 -0.29668981769E+01  0.85645028297E+01 -0.22018997377E+02  0.23877754669E+02  0.17770000000E+01 0. -1.
         15    1    1    2    0    0  0.46953916224E+01  0.30760024438E+02 -0.90975728452E+02  0.96166349116E+02  0.17770000000E+01 0.  1.
</event>
<event>
 6    1  0.6506903E-004  0.5323776E+03  0.7546771E-02  0.9330141E-01
        -11   -1    0    0    0    0  0.00000000000E+00  0.00000000000E+00  0.50000000000E+03  0.50000000000E+03  0.00000000000E+00 0. -1.
         11   -1    0    0    0    0 -0.00000000000E+00 -0.00000000000E+00 -0.50000000000E+03  0.50000000000E+03  0.00000000000E+00 0. -1.
        -11    1    1    2    0    0 -0.28071989850E+02 -0.39365045755E+01  0.46676241545E+03  0.46762237453E+03  0.00000000000E+00 0. -1.
         11    1    1    2    0    0 -0.49101802562E+02  0.77515749228E+02 -0.34163279661E+03  0.35374093078E+03  0.00000000000E+00 0. -1.
        -15    1    1    2    0    0  0.55791787261E+02 -0.71819993589E+02 -0.57376228661E+02  0.10754545248E+03  0.17770000000E+01 0. -1.
         15    1    1    2    0    0  0.21382005151E+02 -0.17592510632E+01 -0.67753390183E+02  0.71091242209E+02  0.17770000000E+01 0.  1.
</event>
<event>
 6    1  0.6506903E-004  0.5000667E+03  0.7546771E-02  0.9399661E-01
        -11   -1    0    0    0    0  0.00000000000E+00  0.00000000000E+00  0.50000000000E+03  0.50000000000E+03  0.00000000000E+00 0.  1.
         11   -1    0    0    0    0 -0.00000000000E+00 -0.00000000000E+00 -0.50000000000E+03  0.50000000000E+03  0.00000000000E+00 0.  1.
        -11    1    1    2    0    0 -0.45649406501E+00  0.15115601831E+01  0.29073690366E+02  0.29116536067E+02  0.00000000000E+00 0.  1.
         11    1    1    2    0    0  0.57136134139E+01 -0.47718053386E+01 -0.49987791696E+03  0.49993334293E+03  0.00000000000E+00 0.  1.
        -15    1    1    2    0    0 -0.14329414216E+01  0.53402511438E+01  0.35912335731E+03  0.35917031489E+03  0.17770000000E+01 0. -1.
         15    1    1    2    0    0 -0.38241779273E+01 -0.20800059884E+01  0.11168086929E+03  0.11177980612E+03  0.17770000000E+01 0.  1.
</event>
<event>
 6    1  0.6506903E-004  0.4854348E+03  0.7546771E-02  0.9433003E-01
        -11   -1    0    0    0    0  0.00000000000E+00  0.00000000000E+00  0.50000000000E+03  0.50000000000E+03  0.00000000000E+00 0. -1.
         11   -1    0    0    0    0 -0.00000000000E+00 -0.00000000000E+00 -0.50000000000E+03  0.50000000000E+03  0.00000000000E+00 0.  1.
        -11    1    1    2    0    0  0.98580391177E+01 -0.18030280562E+01  0.48300296813E+03  0.48310692302E+03  0.00000000000E+00 0. -1.
         11    1    1    2    0    0 -0.15386160965E+02 -0.24396754262E+02  0.36931980730E+01  0.29078777137E+02  0.00000000000E+00 0.  1.
        -15    1    1    2    0    0 -0.64715894044E+01  0.63731978302E+01 -0.10308983806E+03  0.10350445188E+03  0.17770000000E+01 0. -1.
         15    1    1    2    0    0  0.11999711251E+02  0.19826584488E+02 -0.38360632814E+03  0.38430984797E+03  0.17770000000E+01 0.  1.
</event>
<event>
 6    1  0.6506903E-004  0.5223435E+03  0.7546771E-02  0.9351157E-01
        -11   -1    0    0    0    0  0.00000000000E+00  0.00000000000E+00  0.50000000000E+03  0.50000000000E+03  0.00000000000E+00 0.  1.
         11   -1    0    0    0    0 -0.00000000000E+00 -0.00000000000E+00 -0.50000000000E+03  0.50000000000E+03  0.00000000000E+00 0. -1.
        -11    1    1    2    0    0 -0.10484838142E+02 -0.34120630065E+01  0.47752923208E+03  0.47765650995E+03  0.00000000000E+00 0.  1.
         11    1    1    2    0    0  0.24552528752E+02  0.11457878006E+02 -0.46135194448E+03  0.46214686660E+03  0.00000000000E+00 0. -1.
        -15    1    1    2    0    0 -0.26015649530E+00  0.89153835135E+01  0.17661844780E+02  0.19865805663E+02  0.17770000000E+01 0.  1.
         15    1    1    2    0    0 -0.13807534115E+02 -0.16961198513E+02 -0.33839132390E+02  0.40330817785E+02  0.17770000000E+01 0. -1.
</event>
<event>
 6    1  0.6506903E-004  0.5002127E+03  0.7546771E-02  0.9399334E-01
        -11   -1    0    0    0    0  0.00000000000E+00  0.00000000000E+00  0.50000000000E+03  0.50000000000E+03  0.00000000000E+00 0. -1.
         11   -1    0    0    0    0 -0.00000000000E+00 -0.00000000000E+00 -0.50000000000E+03  0.50000000000E+03  0.00000000000E+00 0. -1.
        -11    1    1    2    0    0 -0.66439593847E+01 -0.34382364316E+01  0.49973126300E+03  0.49978725363E+03  0.00000000000E+00 0. -1.
         11    1    1    2    0    0  0.99661700983E+01  0.80910342015E+01 -0.38010038553E+03  0.38031709462E+03  0.00000000000E+00 0. -1.
        -15    1    1    2    0    0 -0.17362971284E+01 -0.14189313047E+01 -0.22416823019E+02  0.22598667594E+02  0.17770000000E+01 0. -1.
         15    1    1    2    0    0 -0.15859135851E+01 -0.32338664653E+01 -0.97214054451E+02  0.97296984156E+02  0.17770000000E+01 0.  1.
</event>
<event>
 6    1  0.6506903E-004  0.5002221E+03  0.7546771E-02  0.9399313E-01
        -11   -1    0    0    0    0  0.00000000000E+00  0.00000000000E+00  0.50000000000E+03  0.50000000000E+03  0.00000000000E+00 0.  1.
         11   -1    0    0    0    0 -0.00000000000E+00 -0.00000000000E+00 -0.50000000000E+03  0.50000000000E+03  0.00000000000E+00 0. -1.
        -11    1    1    2    0    0  0.12652394020E+02 -0.31237186568E+02  0.31430232002E+03  0.31610408613E+03  0.00000000000E+00 0.  1.
         11    1    1    2    0    0 -0.12886284032E+02  0.41089608504E+02 -0.49791921772E+03  0.49977791029E+03  0.00000000000E+00 0. -1.
        -15    1    1    2    0    0 -0.12934086145E+01 -0.27802564378E+01  0.18698251377E+02  0.19031160377E+02  0.17770000000E+01 0.  1.
         15    1    1    2    0    0  0.15272986264E+01 -0.70721654977E+01  0.16491864632E+03  0.16508684320E+03  0.17770000000E+01 0. -1.
</event>
<event>
 6    1  0.6506903E-004  0.5016464E+03  0.7546771E-02  0.9396133E-01
        -11   -1    0    0    0    0  0.00000000000E+00  0.00000000000E+00  0.50000000000E+03  0.50000000000E+03  0.00000000000E+00 0. -1.
         11   -1    0    0    0    0 -0.00000000000E+00 -0.00000000000E+00 -0.50000000000E+03  0.50000000000E+03  0.00000000000E+00 0.  1.
        -11    1    1    2    0    0 -0.60276434061E+01  0.54760333411E+01  0.49828709747E+03  0.49835364043E+03  0.00000000000E+00 0. -1.
         11    1    1    2    0    0  0.16212271913E+02  0.12195006945E+02 -0.35141514322E+03  0.35200022562E+03  0.00000000000E+00 0.  1.
        -15    1    1    2    0    0 -0.14655181877E+02 -0.69387024759E+01 -0.69712847704E+02  0.71595801636E+02  0.17770000000E+01 0. -1.
         15    1    1    2    0    0  0.44705533702E+01 -0.10732337810E+02 -0.77159106544E+02  0.78050332311E+02  0.17770000000E+01 0.  1.
</event>
<event>
 6    1  0.6506903E-004  0.5107690E+03  0.7546771E-02  0.9376031E-01
        -11   -1    0    0    0    0  0.00000000000E+00  0.00000000000E+00  0.50000000000E+03  0.50000000000E+03  0.00000000000E+00 0. -1.
         11   -1    0    0    0    0 -0.00000000000E+00 -0.00000000000E+00 -0.50000000000E+03  0.50000000000E+03  0.00000000000E+00 0. -1.
        -11    1    1    2    0    0  0.10382597447E+02  0.19538932316E+02  0.48873044562E+03  0.48923104631E+03  0.00000000000E+00 0. -1.
         11    1    1    2    0    0  0.19600675121E+02 -0.34763786470E+01 -0.45349308333E+03  0.45392978345E+03  0.00000000000E+00 0. -1.
        -15    1    1    2    0    0 -0.24268526384E+02 -0.59636119608E+01 -0.66286791132E+01  0.25915693243E+02  0.17770000000E+01 0.  1.
         15    1    1    2    0    0 -0.57147461839E+01 -0.10098941709E+02 -0.28608683170E+02  0.30923476993E+02  0.17770000000E+01 0. -1.
</event>
<event>
 6    1  0.6506903E-004  0.5038214E+03  0.7546771E-02  0.9391299E-01
        -11   -1    0    0    0    0  0.00000000000E+00  0.00000000000E+00  0.50000000000E+03  0.50000000000E+03  0.00000000000E+00 0.  1.
         11   -1    0    0    0    0 -0.00000000000E+00 -0.00000000000E+00 -0.50000000000E+03  0.50000000000E+03  0.00000000000E+00 0.  1.
        -11    1    1    2    0    0 -0.43315137562E+01  0.44344486295E+01  0.32744914178E+03  0.32750781182E+03  0.00000000000E+00 0.  1.
         11    1    1    2    0    0  0.51576164184E+02  0.16943425625E+02 -0.49319972966E+03  0.49617855025E+03  0.00000000000E+00 0.  1.
        -15    1    1    2    0    0 -0.46027290480E+02 -0.18814044305E+02  0.11314878681E+03  0.12360536161E+03  0.17770000000E+01 0. -1.
         15    1    1    2    0    0 -0.12173599476E+01 -0.25638299500E+01  0.52601801064E+02  0.52708276327E+02  0.17770000000E+01 0.  1.
</event>
<event>
 6    1  0.6506903E-004  0.5003935E+03  0.7546771E-02  0.9398930E-01
        -11   -1    0    0    0    0  0.00000000000E+00  0.00000000000E+00  0.50000000000E+03  0.50000000000E+03  0.00000000000E+00 0.  1.
         11   -1    0    0    0    0 -0.00000000000E+00 -0.00000000000E+00 -0.50000000000E+03  0.50000000000E+03  0.00000000000E+00 0.  1.
        -11    1    1    2    0    0 -0.17099666756E+01 -0.28591006472E+01  0.22609953015E+03  0.22612407209E+03  0.00000000000E+00 0.  1.
         11    1    1    2    0    0 -0.16585946588E+01 -0.13625379205E+02 -0.49941795054E+03  0.49960653640E+03  0.00000000000E+00 0.  1.
        -15    1    1    2    0    0  0.75876103445E+01  0.16477133186E+02  0.21440567698E+03  0.21517904127E+03  0.17770000000E+01 0.  1.
         15    1    1    2    0    0 -0.42190490100E+01  0.73466658379E-02  0.58912743398E+02  0.59090350246E+02  0.17770000000E+01 0. -1.
</event>
<event>
 6    1  0.6506903E-004  0.5010771E+03  0.7546771E-02  0.9397403E-01
        -11   -1    0    0    0    0  0.00000000000E+00  0.00000000000E+00  0.50000000000E+03  0.50000000000E+03  0.00000000000E+00 0.  1.
         11   -1    0    0    0    0 -0.00000000000E+00 -0.00000000000E+00 -0.50000000000E+03  0.50000000000E+03  0.00000000000E+00 0. -1.
        -11    1    1    2    0    0 -0.79739371028E+02  0.10221829494E+03  0.48178533139E+03  0.49892289249E+03  0.00000000000E+00 0.  1.
         11    1    1    2    0    0  0.80472576177E+02 -0.10082420492E+03 -0.43845716980E+03  0.45704052945E+03  0.00000000000E+00 0. -1.
        -15    1    1    2    0    0 -0.17993983996E+01  0.65144540818E+00 -0.54157521977E+01  0.60125133336E+01  0.17770000000E+01 0. -1.
         15    1    1    2    0    0  0.10661932515E+01 -0.20455354228E+01 -0.37912409394E+02  0.38024064725E+02  0.17770000000E+01 0.  1.
</event>
<event>
 6    1  0.6506903E-004  0.5001735E+03  0.7546771E-02  0.9399422E-01
        -11   -1    0    0    0    0  0.00000000000E+00  0.00000000000E+00  0.50000000000E+03  0.50000000000E+03  0.00000000000E+00 0.  1.
         11   -1    0    0    0    0 -0.00000000000E+00 -0.00000000000E+00 -0.50000000000E+03  0.50000000000E+03  0.00000000000E+00 0.  1.
        -11    1    1    2    0    0 -0.72305521921E+01  0.58465879648E+01  0.49974001871E+03  0.49982651968E+03  0.00000000000E+00 0.  1.
         11    1    1    2    0    0 -0.39518858110E+01  0.47675806329E+00 -0.19925528672E+03  0.19929504255E+03  0.00000000000E+00 0.  1.
        -15    1    1    2    0    0  0.91540120043E+01 -0.15288860222E+01 -0.22210102836E+03  0.22230195220E+03  0.17770000000E+01 0. -1.
         15    1    1    2    0    0  0.20284259988E+01 -0.47944600059E+01 -0.78383703640E+02  0.78576485567E+02  0.17770000000E+01 0.  1.
</event>
<event>
 6    1  0.6506903E-004  0.4863005E+03  0.7546771E-02  0.9430996E-01
        -11   -1    0    0    0    0  0.00000000000E+00  0.00000000000E+00  0.50000000000E+03  0.50000000000E+03  0.00000000000E+00 0.  1.
         11   -1    0    0    0    0 -0.00000000000E+00 -0.00000000000E+00 -0.50000000000E+03  0.50000000000E+03  0.00000000000E+00 0. -1.
        -11    1    1    2    0    0  0.73943348199E+01  0.13643027037E+02  0.48102573037E+03  0.48127597244E+03  0.00000000000E+00 0.  1.
         11    1    1    2    0    0 -0.12247235488E+02  0.70260918803E+01 -0.49140924910E+03  0.49161205319E+03  0.00000000000E+00 0. -1.
        -15    1    1    2    0    0  0.13015541673E+01 -0.67076634999E+01 -0.27114149422E+01  0.75628230752E+01  0.17770000000E+01 0.  1.
         15    1    1    2    0    0  0.35513465012E+01 -0.13961455418E+02  0.13094933672E+02  0.19549151292E+02  0.17770000000E+01 0. -1.
</event>
<event>
 6    1  0.6506903E-004  0.5005936E+03  0.7546771E-02  0.9398483E-01
        -11   -1    0    0    0    0  0.00000000000E+00  0.00000000000E+00  0.50000000000E+03  0.50000000000E+03  0.00000000000E+00 0. -1.
         11   -1    0    0    0    0 -0.00000000000E+00 -0.00000000000E+00 -0.50000000000E+03  0.50000000000E+03  0.00000000000E+00 0. -1.
        -11    1    1    2    0    0  0.12888303004E+01  0.13815165009E+02  0.49921364729E+03  0.49940643318E+03  0.00000000000E+00 0. -1.
         11    1    1    2    0    0  0.22146794501E+01 -0.18292194621E+02 -0.45307699712E+03  0.45345151285E+03  0.00000000000E+00 0. -1.
        -15    1    1    2    0    0  0.76718738367E+00  0.44597678391E+01 -0.28345480035E+02  0.28759382349E+02  0.17770000000E+01 0.  1.
         15    1    1    2    0    0 -0.42706971342E+01  0.17261773158E-01 -0.17791170135E+02  0.18382671616E+02  0.17770000000E+01 0. -1.
</event>
<event>
 6    1  0.6506903E-004  0.5017442E+03  0.7546771E-02  0.9395915E-01
        -11   -1    0    0    0    0  0.00000000000E+00  0.00000000000E+00  0.50000000000E+03  0.50000000000E+03  0.00000000000E+00 0.  1.
         11   -1    0    0    0    0 -0.00000000000E+00 -0.00000000000E+00 -0.50000000000E+03  0.50000000000E+03  0.00000000000E+00 0.  1.
        -11    1    1    2    0    0  0.13541784633E+01 -0.15454966038E+02  0.99921249632E+02  0.10111847459E+03  0.00000000000E+00 0.  1.
         11    1    1    2    0    0 -0.53606925917E+02 -0.26306714066E+02 -0.49466465459E+03  0.49825582406E+03  0.00000000000E+00 0.  1.
        -15    1    1    2    0    0  0.43384033119E+02  0.35372600082E+02  0.35406127513E+03  0.35846330278E+03  0.17770000000E+01 0.  1.
         15    1    1    2    0    0  0.88687143347E+01  0.63890800209E+01  0.40682129826E+02  0.42162398576E+02  0.17770000000E+01 0.  1.
</event>
<event>
 6    1  0.6506903E-004  0.5003207E+03  0.7546771E-02  0.9399092E-01
        -11   -1    0    0    0    0  0.00000000000E+00  0.00000000000E+00  0.50000000000E+03  0.50000000000E+03  0.00000000000E+00 0.  1.
         11   -1    0    0    0    0 -0.00000000000E+00 -0.00000000000E+00 -0.50000000000E+03  0.50000000000E+03  0.00000000000E+00 0.  1.
        -11    1    1    2    0    0  0.30961240043E+01 -0.67730228611E+01  0.49962382331E+03  0.49967932180E+03  0.00000000000E+00 0.  1.
         11    1    1    2    0    0  0.54443613030E+01  0.48171407763E+01 -0.13629168067E+03  0.13648541363E+03  0.00000000000E+00 0.  1.
        -15    1    1    2    0    0 -0.27244373257E+01  0.35091915634E+01 -0.25512608360E+02  0.25957424727E+02  0.17770000000E+01 0. -1.
         15    1    1    2    0    0 -0.58160479815E+01 -0.15533094786E+01 -0.33781953428E+03  0.33787783984E+03  0.17770000000E+01 0.  1.
</event>
<event>
 6    1  0.6506903E-004  0.4619127E+03  0.7546771E-02  0.9489313E-01
        -11   -1    0    0    0    0  0.00000000000E+00  0.00000000000E+00  0.50000000000E+03  0.50000000000E+03  0.00000000000E+00 0. -1.
         11   -1    0    0    0    0 -0.00000000000E+00 -0.00000000000E+00 -0.50000000000E+03  0.50000000000E+03  0.00000000000E+00 0. -1.
        -11    1    1    2    0    0  0.10692346153E+01 -0.11067574028E+01  0.97515577750E+02  0.97527719539E+02  0.00000000000E+00 0. -1.
         11    1    1    2    0    0 -0.16426865632E+01  0.10287823657E+03 -0.47288621910E+03  0.48395041708E+03  0.00000000000E+00 0. -1.
        -15    1    1    2    0    0 -0.55375796204E+02 -0.74413297084E+02  0.10090079735E+03  0.13706912936E+03  0.17770000000E+01 0.  1.
         15    1    1    2    0    0  0.55949248152E+02 -0.27358182084E+02  0.27446984400E+03  0.28145273402E+03  0.17770000000E+01 0. -1.
</event>
<event>
 6    1  0.6506903E-004  0.4819965E+03  0.7546771E-02  0.9441020E-01
        -11   -1    0    0    0    0  0.00000000000E+00  0.00000000000E+00  0.50000000000E+03  0.50000000000E+03  0.00000000000E+00 0.  1.
         11   -1    0    0    0    0 -0.00000000000E+00 -0.00000000000E+00 -0.50000000000E+03  0.50000000000E+03  0.00000000000E+00 0.  1.
        -11    1    1    2    0    0 -0.91664282765E+00 -0.94400911950E+01  0.47556768988E+03  0.47566225750E+03  0.00000000000E+00 0.  1.
         11    1    1    2    0    0  0.30046465973E+02  0.12143955324E+02 -0.48777642164E+03  0.48885182139E+03  0.00000000000E+00 0.  1.
        -15    1    1    2    0    0 -0.25309532368E+02 -0.77493977321E+01  0.11356597317E+02  0.28857505532E+02  0.17770000000E+01 0. -1.
         15    1    1    2    0    0 -0.38202907770E+01  0.50455336028E+01  0.85213444397E+00  0.66284155775E+01  0.17770000000E+01 0.  1.
</event>
<event>
 6    1  0.6506903E-004  0.5022436E+03  0.7546771E-02  0.9394803E-01
        -11   -1    0    0    0    0  0.00000000000E+00  0.00000000000E+00  0.50000000000E+03  0.50000000000E+03  0.00000000000E+00 0. -1.
         11   -1    0    0    0    0 -0.00000000000E+00 -0.00000000000E+00 -0.50000000000E+03  0.50000000000E+03  0.00000000000E+00 0. -1.
        -11    1    1    2    0    0 -0.15130829998E+01 -0.11007048333E+02  0.38705562823E+03  0.38721506154E+03  0.00000000000E+00 0. -1.
         11    1    1    2    0    0  0.69780924688E+01  0.17902297151E+01  0.11030629451E+03  0.11054129231E+03  0.00000000000E+00 0. -1.
        -15    1    1    2    0    0 -0.36413453900E+02  0.22111188682E+00 -0.30802420833E+03  0.31017424001E+03  0.17770000000E+01 0. -1.
         15    1    1    2    0    0  0.30948444431E+02  0.89957067313E+01 -0.18933771441E+03  0.19206940615E+03  0.17770000000E+01 0.  1.
</event>
<event>
 6    1  0.6506903E-004  0.4842861E+03  0.7546771E-02  0.9435674E-01
        -11   -1    0    0    0    0  0.00000000000E+00  0.00000000000E+00  0.50000000000E+03  0.50000000000E+03  0.00000000000E+00 0. -1.
         11   -1    0    0    0    0 -0.00000000000E+00 -0.00000000000E+00 -0.50000000000E+03  0.50000000000E+03  0.00000000000E+00 0. -1.
        -11    1    1    2    0    0 -0.23123470875E+00  0.72138400365E+01  0.48882512125E+03  0.48887840218E+03  0.00000000000E+00 0. -1.
         11    1    1    2    0    0  0.16039925319E+02 -0.30707389640E+02 -0.47890686687E+03  0.48015831776E+03  0.00000000000E+00 0. -1.
        -15    1    1    2    0    0 -0.77957756591E+01  0.60453740091E+01 -0.27806281109E+01  0.10402417350E+02  0.17770000000E+01 0.  1.
         15    1    1    2    0    0 -0.80129149507E+01  0.17448175594E+02 -0.71376262706E+01  0.20560862709E+02  0.17770000000E+01 0. -1.
</event>
<event>
 6    1  0.6506903E-004  0.4865979E+03  0.7546771E-02  0.9430308E-01
        -11   -1    0    0    0    0  0.00000000000E+00  0.00000000000E+00  0.50000000000E+03  0.50000000000E+03  0.00000000000E+00 0. -1.
         11   -1    0    0    0    0 -0.00000000000E+00 -0.00000000000E+00 -0.50000000000E+03  0.50000000000E+03  0.00000000000E+00 0.  1.
        -11    1    1    2    0    0 -0.72983201526E+01  0.16581963767E+01  0.48609116292E+03  0.48614877740E+03  0.00000000000E+00 0. -1.
         11    1    1    2    0    0 -0.97151459279E+01 -0.12274379269E+02 -0.48700243217E+03  0.48725395164E+03  0.00000000000E+00 0.  1.
        -15    1    1    2    0    0  0.13907364203E+02  0.14995834731E+00  0.48793356867E+01  0.14845972933E+02  0.17770000000E+01 0. -1.
         15    1    1    2    0    0  0.31061018778E+01  0.10466224545E+02 -0.39680664393E+01  0.11751298029E+02  0.17770000000E+01 0.  1.
</event>
<event>
 6    1  0.6506903E-004  0.5106768E+03  0.7546771E-02  0.9376231E-01
        -11   -1    0    0    0    0  0.00000000000E+00  0.00000000000E+00  0.50000000000E+03  0.50000000000E+03  0.00000000000E+00 0. -1.
         11   -1    0    0    0    0 -0.00000000000E+00 -0.00000000000E+00 -0.50000000000E+03  0.50000000000E+03  0.00000000000E+00 0. -1.
        -11    1    1    2    0    0 -0.22752528039E+02  0.69133057575E+01  0.34695285531E+03  0.34776681143E+03  0.00000000000E+00 0. -1.
         11    1    1    2    0    0  0.57331203473E+02 -0.61969969825E+01 -0.48591345650E+03  0.48932316200E+03  0.00000000000E+00 0. -1.
        -15    1    1    2    0    0 -0.46850331518E+02  0.84808058166E+01  0.38460510774E+02  0.61231088906E+02  0.17770000000E+01 0.  1.
         15    1    1    2    0    0  0.12271656084E+02 -0.91971145915E+01  0.10050009042E+03  0.10167893766E+03  0.17770000000E+01 0. -1.
</event>
<event>
 6    1  0.6506903E-004  0.4745969E+03  0.7546771E-02  0.9458517E-01
        -11   -1    0    0    0    0  0.00000000000E+00  0.00000000000E+00  0.50000000000E+03  0.50000000000E+03  0.00000000000E+00 0. -1.
         11   -1    0    0    0    0 -0.00000000000E+00 -0.00000000000E+00 -0.50000000000E+03  0.50000000000E+03  0.00000000000E+00 0. -1.
        -11    1    1    2    0    0  0.88327118976E+01 -0.46482068107E+01  0.46758233382E+03  0.46768885119E+03  0.00000000000E+00 0. -1.
         11    1    1    2    0    0  0.18009021269E+02 -0.29425182709E+02 -0.48136069517E+03  0.48259536372E+03  0.00000000000E+00 0. -1.
        -15    1    1    2    0    0 -0.26546014142E+02  0.34641589537E+02  0.16250699567E+02  0.46604437106E+02  0.17770000000E+01 0.  1.
         15    1    1    2    0    0 -0.29571902452E+00 -0.56820001730E+00 -0.24723382179E+01  0.31113479820E+01  0.17770000000E+01 0. -1.
</event>
<event>
 6    1  0.6506903E-004  0.4805505E+03  0.7546771E-02  0.9444413E-01
        -11   -1    0    0    0    0  0.00000000000E+00  0.00000000000E+00  0.50000000000E+03  0.50000000000E+03  0.00000000000E+00 0.  1.
         11   -1    0    0    0    0 -0.00000000000E+00 -0.00000000000E+00 -0.50000000000E+03  0.50000000000E+03  0.00000000000E+00 0.  1.
        -11    1    1    2    0    0 -0.52554464243E+01 -0.74926110853E+01  0.48169268126E+03  0.48177961571E+03  0.00000000000E+00 0.  1.
         11    1    1    2    0    0  0.12057903244E+02  0.38808387351E+02 -0.47813811652E+03  0.47986200353E+03  0.00000000000E+00 0.  1.
        -15    1    1    2    0    0  0.30833272043E+01  0.15014912373E+01 -0.84620698099E-01  0.38634534094E+01  0.17770000000E+01 0.  1.
         15    1    1    2    0    0 -0.98857840240E+01 -0.32817267503E+02 -0.34699440356E+01  0.34494927348E+02  0.17770000000E+01 0. -1.
</event>
<event>
 6    1  0.6506903E-004  0.5000587E+03  0.7546771E-02  0.9399678E-01
        -11   -1    0    0    0    0  0.00000000000E+00  0.00000000000E+00  0.50000000000E+03  0.50000000000E+03  0.00000000000E+00 0.  1.
         11   -1    0    0    0    0 -0.00000000000E+00 -0.00000000000E+00 -0.50000000000E+03  0.50000000000E+03  0.00000000000E+00 0.  1.
        -11    1    1    2    0    0 -0.15861739258E+01  0.16688629068E+02  0.34458491698E+03  0.34499245107E+03  0.00000000000E+00 0.  1.
         11    1    1    2    0    0  0.83953202448E+00 -0.26150165234E+02 -0.49925623691E+03  0.49994132260E+03  0.00000000000E+00 0.  1.
        -15    1    1    2    0    0  0.22117167457E+01  0.75493340395E+01  0.11389811731E+03  0.11418328683E+03  0.17770000000E+01 0.  1.
         15    1    1    2    0    0 -0.14650748444E+01  0.19122021264E+01  0.40773202616E+02  0.40882939496E+02  0.17770000000E+01 0. -1.
</event>
<event>
 6    1  0.6506903E-004  0.5001935E+03  0.7546771E-02  0.9399377E-01
        -11   -1    0    0    0    0  0.00000000000E+00  0.00000000000E+00  0.50000000000E+03  0.50000000000E+03  0.00000000000E+00 0.  1.
         11   -1    0    0    0    0 -0.00000000000E+00 -0.00000000000E+00 -0.50000000000E+03  0.50000000000E+03  0.00000000000E+00 0.  1.
        -11    1    1    2    0    0 -0.16531940735E+02 -0.22326909438E+02  0.49903384737E+03  0.49980653935E+03  0.00000000000E+00 0.  1.
         11    1    1    2    0    0  0.13982085897E+02  0.24121987693E+02 -0.38485021496E+03  0.38585885628E+03  0.00000000000E+00 0.  1.
        -15    1    1    2    0    0  0.82787947744E+00  0.24198693879E+00 -0.72895773710E+02  0.72922530783E+02  0.17770000000E+01 0.  1.
         15    1    1    2    0    0  0.17219753613E+01 -0.20370651945E+01 -0.41287858705E+02  0.41412073592E+02  0.17770000000E+01 0. -1.
</event>
<event>
 6    1  0.6506903E-004  0.5019468E+03  0.7546771E-02  0.9395464E-01
        -11   -1    0    0    0    0  0.00000000000E+00  0.00000000000E+00  0.50000000000E+03  0.50000000000E+03  0.00000000000E+00 0.  1.
         11   -1    0    0    0    0 -0.00000000000E+00 -0.00000000000E+00 -0.50000000000E+03  0.50000000000E+03  0.00000000000E+00 0.  1.
        -11    1    1    2    0    0  0.62059575860E+00 -0.72961003318E+01  0.49799933749E+03  0.49805316821E+03  0.00000000000E+00 0.  1.
         11    1    1    2    0    0 -0.13792948054E+02 -0.64528348919E+01 -0.43840679222E+03  0.43867117521E+03  0.00000000000E+00 0.  1.
        -15    1    1    2    0    0  0.76897717709E+01  0.13220228899E+02 -0.45771023168E+02  0.48291317366E+02  0.17770000000E+01 0. -1.
         15    1    1    2    0    0  0.54825805241E+01  0.52870632459E+00 -0.13821522106E+02  0.14984339221E+02  0.17770000000E+01 0.  1.
</event>
<event>
 6    1  0.6506903E-004  0.5040471E+03  0.7546771E-02  0.9390799E-01
        -11   -1    0    0    0    0  0.00000000000E+00  0.00000000000E+00  0.50000000000E+03  0.50000000000E+03  0.00000000000E+00 0. -1.
         11   -1    0    0    0    0 -0.00000000000E+00 -0.00000000000E+00 -0.50000000000E+03  0.50000000000E+03  0.00000000000E+00 0. -1.
        -11    1    1    2    0    0 -0.15441688635E+02 -0.12435297990E+02  0.49555647255E+03  0.49595292102E+03  0.00000000000E+00 0. -1.
         11    1    1    2    0    0 -0.18694766267E+02  0.11787585277E+02 -0.40330788618E+03  0.40391297641E+03  0.00000000000E+00 0. -1.
        -15    1    1    2    0    0  0.23079972834E+02  0.44983205863E+01 -0.38919774023E+02  0.45506335527E+02  0.17770000000E+01 0. -1.
         15    1    1    2    0    0  0.11056482068E+02 -0.38506078735E+01 -0.53328812345E+02  0.54627767041E+02  0.17770000000E+01 0.  1.
</event>
<event>
 6    1  0.6506903E-004  0.5012947E+03  0.7546771E-02  0.9396917E-01
        -11   -1    0    0    0    0  0.00000000000E+00  0.00000000000E+00  0.50000000000E+03  0.50000000000E+03  0.00000000000E+00 0. -1.
         11   -1    0    0    0    0 -0.00000000000E+00 -0.00000000000E+00 -0.50000000000E+03  0.50000000000E+03  0.00000000000E+00 0. -1.
        -11    1    1    2    0    0  0.25378609313E+02  0.20983440904E+02  0.49761693834E+03  0.49870531973E+03  0.00000000000E+00 0. -1.
         11    1    1    2    0    0 -0.28201719330E+02 -0.18817080493E+02 -0.16229037239E+03  0.16579380104E+03  0.00000000000E+00 0. -1.
        -15    1    1    2    0    0 -0.14355894362E+01  0.86309567899E+00 -0.23711010886E+02  0.23836434663E+02  0.17770000000E+01 0. -1.
         15    1    1    2    0    0  0.42586994523E+01 -0.30294560907E+01 -0.31161555506E+03  0.31166444457E+03  0.17770000000E+01 0.  1.
</event>
<event>
 6    1  0.6506903E-004  0.5027017E+03  0.7546771E-02  0.9393785E-01
        -11   -1    0    0    0    0  0.00000000000E+00  0.00000000000E+00  0.50000000000E+03  0.50000000000E+03  0.00000000000E+00 0.  1.
         11   -1    0    0    0    0 -0.00000000000E+00 -0.00000000000E+00 -0.50000000000E+03  0.50000000000E+03  0.00000000000E+00 0.  1.
        -11    1    1    2    0    0  0.12821640015E+02  0.34350933609E+01  0.38262052422E+03  0.38285070181E+03  0.00000000000E+00 0.  1.
         11    1    1    2    0    0  0.11365519812E+02 -0.11808399349E+02 -0.49702820015E+03  0.49729834615E+03  0.00000000000E+00 0.  1.
        -15    1    1    2    0    0 -0.25705279950E+02  0.41804055837E+01  0.62642341854E+02  0.67863524298E+02  0.17770000000E+01 0.  1.
         15    1    1    2    0    0  0.15181201223E+01  0.41929004040E+01  0.51765334077E+02  0.51987427746E+02  0.17770000000E+01 0. -1.
</event>
<event>
 6    1  0.6506903E-004  0.5093062E+03  0.7546771E-02  0.9379224E-01
        -11   -1    0    0    0    0  0.00000000000E+00  0.00000000000E+00  0.50000000000E+03  0.50000000000E+03  0.00000000000E+00 0. -1.
         11   -1    0    0    0    0 -0.00000000000E+00 -0.00000000000E+00 -0.50000000000E+03  0.50000000000E+03  0.00000000000E+00 0. -1.
        -11    1    1    2    0    0 -0.72581792491E+01 -0.49501917221E+01  0.26663551123E+03  0.26678021181E+03  0.00000000000E+00 0. -1.
         11    1    1    2    0    0  0.69394159768E+02 -0.28647986956E+02 -0.48491663106E+03  0.49069379010E+03  0.00000000000E+00 0. -1.
        -15    1    1    2    0    0 -0.54722293005E+02  0.44786429039E+02  0.94679503163E+02  0.11818510746E+03  0.17770000000E+01 0.  1.
         15    1    1    2    0    0 -0.74136875137E+01 -0.11188250361E+02  0.12360161667E+03  0.12434089063E+03  0.17770000000E+01 0. -1.
</event>
<event>
 6    1  0.6506903E-004  0.5007423E+03  0.7546771E-02  0.9398150E-01
        -11   -1    0    0    0    0  0.00000000000E+00  0.00000000000E+00  0.50000000000E+03  0.50000000000E+03  0.00000000000E+00 0. -1.
         11   -1    0    0    0    0 -0.00000000000E+00 -0.00000000000E+00 -0.50000000000E+03  0.50000000000E+03  0.00000000000E+00 0. -1.
        -11    1    1    2    0    0 -0.25586736006E+01 -0.79399480820E+01  0.45506106770E+03  0.45513752309E+03  0.00000000000E+00 0. -1.
         11    1    1    2    0    0  0.79763644640E+01  0.32512965463E+01 -0.49918335794E+03  0.49925766710E+03  0.00000000000E+00 0. -1.
        -15    1    1    2    0    0 -0.38903773196E+00  0.27560671643E+01  0.45173069283E+01  0.55956275301E+01  0.17770000000E+01 0.  1.
         15    1    1    2    0    0 -0.50286531315E+01  0.19325843714E+01  0.39604983309E+02  0.40009182278E+02  0.17770000000E+01 0. -1.
</event>
<event>
 6    1  0.6506903E-004  0.4827146E+03  0.7546771E-02  0.9439340E-01
        -11   -1    0    0    0    0  0.00000000000E+00  0.00000000000E+00  0.50000000000E+03  0.50000000000E+03  0.00000000000E+00 0. -1.
         11   -1    0    0    0    0 -0.00000000000E+00 -0.00000000000E+00 -0.50000000000E+03  0.50000000000E+03  0.00000000000E+00 0.  1.
        -11    1    1    2    0    0  0.11835568602E+02  0.30345226073E+01  0.48863809652E+03  0.48879083295E+03  0.00000000000E+00 0. -1.
         11    1    1    2    0    0  0.15176227515E+02 -0.16617119292E+02 -0.47665503796E+03  0.47718599283E+03  0.00000000000E+00 0.  1.
        -15    1    1    2    0    0 -0.41461986751E+01 -0.93766651898E+00 -0.85477001886E+00  0.46859943170E+01  0.17770000000E+01 0. -1.
         15    1    1    2    0    0 -0.22865597442E+02  0.14520263204E+02 -0.11128288535E+02  0.29337179902E+02  0.17770000000E+01 0.  1.
</event>
<event>
 6    1  0.6506903E-004  0.4972223E+03  0.7546771E-02  0.9406047E-01
        -11   -1    0    0    0    0  0.00000000000E+00  0.00000000000E+00  0.50000000000E+03  0.50000000000E+03  0.00000000000E+00 0.  1.
         11   -1    0    0    0    0 -0.00000000000E+00 -0.00000000000E+00 -0.50000000000E+03  0.50000000000E+03  0.00000000000E+00 0. -1.
        -11    1    1    2    0    0  0.26364869801E+01 -0.84436204488E+01  0.49944756546E+03  0.49952589165E+03  0.00000000000E+00 0.  1.
         11    1    1    2    0    0  0.11756512160E+01 -0.21332409319E+01 -0.53837177856E+01  0.59090853650E+01  0.00000000000E+00 0. -1.
        -15    1    1    2    0    0  0.68205386553E+01  0.44503941183E+01 -0.11660106347E+03  0.11689863766E+03  0.17770000000E+01 0.  1.
         15    1    1    2    0    0 -0.10632676851E+02  0.61264672624E+01 -0.37746278420E+03  0.37766638532E+03  0.17770000000E+01 0. -1.
</event>
<event>
 6    1  0.6506903E-004  0.5010489E+03  0.7546771E-02  0.9397466E-01
        -11   -1    0    0    0    0  0.00000000000E+00  0.00000000000E+00  0.50000000000E+03  0.50000000000E+03  0.00000000000E+00 0.  1.
         11   -1    0    0    0    0 -0.00000000000E+00 -0.00000000000E+00 -0.50000000000E+03  0.50000000000E+03  0.00000000000E+00 0.  1.
        -11    1    1    2    0    0 -0.43974700841E+01  0.63437556895E+01  0.44383765632E+03  0.44390477149E+03  0.00000000000E+00 0.  1.
         11    1    1    2    0    0  0.11975296912E+02  0.34568370560E+01 -0.49879541961E+03  0.49895112795E+03  0.00000000000E+00 0.  1.
        -15    1    1    2    0    0 -0.35168077740E+01 -0.98809217489E+01  0.45062091690E+02  0.46300652134E+02  0.17770000000E+01 0.  1.
         15    1    1    2    0    0 -0.40610190537E+01  0.80329003373E-01  0.98956715991E+01  0.10843448432E+02  0.17770000000E+01 0. -1.
</event>
<event>
 6    1  0.6506903E-004  0.5024317E+03  0.7546771E-02  0.9394385E-01
        -11   -1    0    0    0    0  0.00000000000E+00  0.00000000000E+00  0.50000000000E+03  0.50000000000E+03  0.00000000000E+00 0.  1.
         11   -1    0    0    0    0 -0.00000000000E+00 -0.00000000000E+00 -0.50000000000E+03  0.50000000000E+03  0.00000000000E+00 0. -1.
        -11    1    1    2    0    0  0.86928220411E+01  0.48022133816E+01  0.49746920714E+03  0.49756832542E+03  0.00000000000E+00 0.  1.
         11    1    1    2    0    0 -0.19418083387E+02  0.17431525037E+02 -0.41264701635E+03  0.41347125671E+03  0.00000000000E+00 0. -1.
        -15    1    1    2    0    0  0.32041784384E+00 -0.11926928478E+02 -0.38583389865E+02  0.40425115869E+02  0.17770000000E+01 0. -1.
         15    1    1    2    0    0  0.10404843502E+02 -0.10306809941E+02 -0.46238800928E+02  0.48535301995E+02  0.17770000000E+01 0.  1.
</event>
<event>
 6    1  0.6506903E-004  0.5013224E+03  0.7546771E-02  0.9396856E-01
        -11   -1    0    0    0    0  0.00000000000E+00  0.00000000000E+00  0.50000000000E+03  0.50000000000E+03  0.00000000000E+00 0.  1.
         11   -1    0    0    0    0 -0.00000000000E+00 -0.00000000000E+00 -0.50000000000E+03  0.50000000000E+03  0.00000000000E+00 0. -1.
        -11    1    1    2    0    0  0.95403647728E+01 -0.35252115872E+02  0.49733858411E+03  0.49867764886E+03  0.00000000000E+00 0.  1.
         11    1    1    2    0    0 -0.11648455467E+02  0.38695448545E+02 -0.20720629793E+03  0.21111009961E+03  0.00000000000E+00 0. -1.
        -15    1    1    2    0    0 -0.43499737001E+00 -0.23752255385E+01 -0.19573160255E+03  0.19575456287E+03  0.17770000000E+01 0.  1.
         15    1    1    2    0    0  0.25430880644E+01 -0.10681071345E+01 -0.94400683622E+02  0.94457688660E+02  0.17770000000E+01 0. -1.
</event>
<event>
 6    1  0.6506903E-004  0.5001430E+03  0.7546771E-02  0.9399490E-01
        -11   -1    0    0    0    0  0.00000000000E+00  0.00000000000E+00  0.50000000000E+03  0.50000000000E+03  0.00000000000E+00 0.  1.
         11   -1    0    0    0    0 -0.00000000000E+00 -0.00000000000E+00 -0.50000000000E+03  0.50000000000E+03  0.00000000000E+00 0.  1.
        -11    1    1    2    0    0  0.15190068634E+02 -0.24624756749E+01  0.49962003942E+03  0.49985696530E+03  0.00000000000E+00 0.  1.
         11    1    1    2    0    0 -0.95917513835E+01 -0.81690058783E+00 -0.12848961201E+03  0.12884971639E+03  0.00000000000E+00 0.  1.
        -15    1    1    2    0    0 -0.21462914163E+01 -0.24561399503E+01 -0.88284966096E+02  0.88363070102E+02  0.17770000000E+01 0. -1.
         15    1    1    2    0    0 -0.34520258345E+01  0.57355162130E+01 -0.28284546132E+03  0.28293024820E+03  0.17770000000E+01 0.  1.
</event>
<event>
 6    1  0.6506903E-004  0.5047790E+03  0.7546771E-02  0.9389179E-01
        -11   -1    0    0    0    0  0.00000000000E+00  0.00000000000E+00  0.50000000000E+03  0.50000000000E+03  0.00000000000E+00 0.  1.
         11   -1    0    0    0    0 -0.00000000000E+00 -0.00000000000E+00 -0.50000000000E+03  0.50000000000E+03  0.00000000000E+00 0.  1.
        -11    1    1    2    0    0 -0.46160819392E+01  0.69777415231E+01  0.40179997039E+03  0.40188706535E+03  0.00000000000E+00 0.  1.
         11    1    1    2    0    0  0.23202232871E+02 -0.13225713729E+02 -0.49450037402E+03  0.49522104460E+03  0.00000000000E+00 0.  1.
        -15    1    1    2    0    0 -0.20969895778E+02  0.10072629066E+02  0.22135966163E+02  0.32161360547E+02  0.17770000000E+01 0.  1.
         15    1    1    2    0    0  0.23837448467E+01 -0.38246568603E+01  0.70564437466E+02  0.70730529501E+02  0.17770000000E+01 0. -1.
</event>
<event>
 6    1  0.6506903E-004  0.4610809E+03  0.7546771E-02  0.9491369E-01
        -11   -1    0    0    0    0  0.00000000000E+00  0.00000000000E+00  0.50000000000E+03  0.50000000000E+03  0.00000000000E+00 0. -1.
         11   -1    0    0    0    0 -0.00000000000E+00 -0.00000000000E+00 -0.50000000000E+03  0.50000000000E+03  0.00000000000E+00 0. -1.
        -11    1    1    2    0    0 -0.69543882292E+01 -0.15154851699E+01  0.45477871168E+03  0.45483440592E+03  0.00000000000E+00 0. -1.
         11    1    1    2    0    0 -0.53240891956E+02 -0.29771242017E+02 -0.46591016856E+03  0.46988637413E+03  0.00000000000E+00 0. -1.
        -15    1    1    2    0    0  0.52850354870E+02  0.37368039180E+02  0.95632035144E+01  0.65453364715E+02  0.17770000000E+01 0. -1.
         15    1    1    2    0    0  0.73449253148E+01 -0.60813119929E+01  0.15682533604E+01  0.98258552319E+01  0.17770000000E+01 0.  1.
</event>
<event>
 6    1  0.6506903E-004  0.5002226E+03  0.7546771E-02  0.9399312E-01
        -11   -1    0    0    0    0  0.00000000000E+00  0.00000000000E+00  0.50000000000E+03  0.50000000000E+03  0.00000000000E+00 0. -1.
         11   -1    0    0    0    0 -0.00000000000E+00 -0.00000000000E+00 -0.50000000000E+03  0.50000000000E+03  0.00000000000E+00 0.  1.
        -11    1    1    2    0    0  0.48983062840E+01  0.16087722647E+02  0.49949439407E+03  0.49977740839E+03  0.00000000000E+00 0. -1.
         11    1    1    2    0    0 -0.25010484364E+00 -0.86291003220E+01 -0.65941434823E+02  0.66504110785E+02  0.00000000000E+00 0.  1.
        -15    1    1    2    0    0 -0.20833265200E+01 -0.80299282749E+01 -0.35525316845E+03  0.35535445884E+03  0.17770000000E+01 0.  1.
         15    1    1    2    0    0 -0.25648749204E+01  0.57130595017E+00 -0.78299790802E+02  0.78364021990E+02  0.17770000000E+01 0. -1.
</event>
<event>
 6    1  0.6506903E-004  0.5021292E+03  0.7546771E-02  0.9395058E-01
        -11   -1    0    0    0    0  0.00000000000E+00  0.00000000000E+00  0.50000000000E+03  0.50000000000E+03  0.00000000000E+00 0. -1.
         11   -1    0    0    0    0 -0.00000000000E+00 -0.00000000000E+00 -0.50000000000E+03  0.50000000000E+03  0.00000000000E+00 0. -1.
        -11    1    1    2    0    0  0.54102977412E+01 -0.36600724167E+01  0.39844855697E+03  0.39850209535E+03  0.00000000000E+00 0. -1.
         11    1    1    2    0    0  0.21658189819E+02  0.13255155950E+02 -0.49722288219E+03  0.49787083758E+03  0.00000000000E+00 0. -1.
        -15    1    1    2    0    0 -0.24194914841E+02 -0.37123134801E+01  0.78620208024E+02  0.82361823767E+02  0.17770000000E+01 0.  1.
         15    1    1    2    0    0 -0.28735727195E+01 -0.58827700530E+01  0.20154117195E+02  0.21265243300E+02  0.17770000000E+01 0. -1.
</event>
<event>
 6    1  0.6506903E-004  0.5023414E+03  0.7546771E-02  0.9394586E-01
        -11   -1    0    0    0    0  0.00000000000E+00  0.00000000000E+00  0.50000000000E+03  0.50000000000E+03  0.00000000000E+00 0. -1.
         11   -1    0    0    0    0 -0.00000000000E+00 -0.00000000000E+00 -0.50000000000E+03  0.50000000000E+03  0.00000000000E+00 0. -1.
        -11    1    1    2    0    0 -0.26764376113E+01  0.75209126396E+01  0.49759455734E+03  0.49765858873E+03  0.00000000000E+00 0. -1.
         11    1    1    2    0    0 -0.17497969849E+02  0.14296808352E+01 -0.43729016053E+03  0.43764244245E+03  0.00000000000E+00 0. -1.
        -15    1    1    2    0    0  0.13989496614E+01 -0.11426462781E+01 -0.33708127046E+01  0.42169666777E+01  0.17770000000E+01 0.  1.
         15    1    1    2    0    0  0.18775457799E+02 -0.78079471967E+01 -0.56933584104E+02  0.60482002140E+02  0.17770000000E+01 0.  1.
</event>
<event>
 6    1  0.6506903E-004  0.5135242E+03  0.7546771E-02  0.9370047E-01
        -11   -1    0    0    0    0  0.00000000000E+00  0.00000000000E+00  0.50000000000E+03  0.50000000000E+03  0.00000000000E+00 0.  1.
         11   -1    0    0    0    0 -0.00000000000E+00 -0.00000000000E+00 -0.50000000000E+03  0.50000000000E+03  0.00000000000E+00 0. -1.
        -11    1    1    2    0    0  0.40552484904E+01  0.82828108995E+00  0.27689916530E+03  0.27693009738E+03  0.00000000000E+00 0.  1.
         11    1    1    2    0    0  0.56166749203E+02 -0.13255812958E+02 -0.48304071075E+03  0.48647584579E+03  0.00000000000E+00 0. -1.
        -15    1    1    2    0    0 -0.65029832748E+02 -0.25623447277E+02  0.88147004103E+02  0.11250996515E+03  0.17770000000E+01 0.  1.
         15    1    1    2    0    0  0.48078350542E+01  0.38050979145E+02  0.11799454135E+03  0.12408409168E+03  0.17770000000E+01 0. -1.
</event>
<event>
 6    1  0.6506903E-004  0.5002495E+03  0.7546771E-02  0.9399252E-01
        -11   -1    0    0    0    0  0.00000000000E+00  0.00000000000E+00  0.50000000000E+03  0.50000000000E+03  0.00000000000E+00 0. -1.
         11   -1    0    0    0    0 -0.00000000000E+00 -0.00000000000E+00 -0.50000000000E+03  0.50000000000E+03  0.00000000000E+00 0.  1.
        -11    1    1    2    0    0 -0.27638555892E+01  0.17585355360E+02  0.49943334772E+03  0.49975049018E+03  0.00000000000E+00 0. -1.
         11    1    1    2    0    0 -0.45172718436E+01 -0.70586552725E+00 -0.27519299694E+02  0.27896520333E+02  0.00000000000E+00 0.  1.
        -15    1    1    2    0    0  0.51879184912E+01 -0.16481286125E+02 -0.37948833738E+03  0.37988564493E+03  0.17770000000E+01 0.  1.
         15    1    1    2    0    0  0.20932089416E+01 -0.39820370746E+00 -0.92425710652E+02  0.92467344552E+02  0.17770000000E+01 0. -1.
</event>
<event>
 6    1  0.6506903E-004  0.5007922E+03  0.7546771E-02  0.9398039E-01
        -11   -1    0    0    0    0  0.00000000000E+00  0.00000000000E+00  0.50000000000E+03  0.50000000000E+03  0.00000000000E+00 0. -1.
         11   -1    0    0    0    0 -0.00000000000E+00 -0.00000000000E+00 -0.50000000000E+03  0.50000000000E+03  0.00000000000E+00 0.  1.
        -11    1    1    2    0    0  0.26343516190E+01  0.35805947041E+01  0.29759800526E+03  0.29763120334E+03  0.00000000000E+00 0. -1.
         11    1    1    2    0    0  0.21339147300E+02 -0.33588123362E+01 -0.49874018624E+03  0.49920778660E+03  0.00000000000E+00 0.  1.
        -15    1    1    2    0    0 -0.28763982817E+01  0.39188277571E+01  0.17306339748E+02  0.18063720617E+02  0.17770000000E+01 0. -1.
         15    1    1    2    0    0 -0.21097100637E+02 -0.41406101250E+01  0.18383584123E+03  0.18509728944E+03  0.17770000000E+01 0. -1.
</event>
<event>
 6    1  0.6506903E-004  0.5101750E+03  0.7546771E-02  0.9377326E-01
        -11   -1    0    0    0    0  0.00000000000E+00  0.00000000000E+00  0.50000000000E+03  0.50000000000E+03  0.00000000000E+00 0.  1.
         11   -1    0    0    0    0 -0.00000000000E+00 -0.00000000000E+00 -0.50000000000E+03  0.50000000000E+03  0.00000000000E+00 0.  1.
        -11    1    1    2    0    0  0.98574036467E+01 -0.87805061709E+01  0.48964705156E+03  0.48982496956E+03  0.00000000000E+00 0.  1.
         11    1    1    2    0    0  0.45272983788E+01  0.24954870602E+02 -0.46886348707E+03  0.46954894474E+03  0.00000000000E+00 0.  1.
        -15    1    1    2    0    0 -0.90838032921E+01  0.59937776750E+01 -0.23900928600E+01  0.11283223207E+02  0.17770000000E+01 0. -1.
         15    1    1    2    0    0 -0.53008987334E+01 -0.22168142106E+02 -0.18393471635E+02  0.29342862499E+02  0.17770000000E+01 0.  1.
</event>
<event>
 6    1  0.6506903E-004  0.5000466E+03  0.7546771E-02  0.9399706E-01
        -11   -1    0    0    0    0  0.00000000000E+00  0.00000000000E+00  0.50000000000E+03  0.50000000000E+03  0.00000000000E+00 0. -1.
         11   -1    0    0    0    0 -0.00000000000E+00 -0.00000000000E+00 -0.50000000000E+03  0.50000000000E+03  0.00000000000E+00 0. -1.
        -11    1    1    2    0    0 -0.69832720507E+01  0.29171406712E+01  0.19493081462E+03  0.19507767244E+03  0.00000000000E+00 0. -1.
         11    1    1    2    0    0  0.13060759257E+02  0.89718781304E+00 -0.49978198905E+03  0.49995342279E+03  0.00000000000E+00 0. -1.
        -15    1    1    2    0    0 -0.29625595120E+01 -0.10806398231E+01  0.94292635777E+02  0.94362086836E+02  0.17770000000E+01 0. -1.
         15    1    1    2    0    0 -0.31149276948E+01 -0.27336886611E+01  0.21055853866E+03  0.21060681793E+03  0.17770000000E+01 0. -1.
</event>
<event>
 6    1  0.6506903E-004  0.5033062E+03  0.7546771E-02  0.9392442E-01
        -11   -1    0    0    0    0  0.00000000000E+00  0.00000000000E+00  0.50000000000E+03  0.50000000000E+03  0.00000000000E+00 0.  1.
         11   -1    0    0    0    0 -0.00000000000E+00 -0.00000000000E+00 -0.50000000000E+03  0.50000000000E+03  0.00000000000E+00 0.  1.
        -11    1    1    2    0    0  0.72651070566E+01  0.20575365615E+01  0.44380446531E+03  0.44386869530E+03  0.00000000000E+00 0.  1.
         11    1    1    2    0    0  0.18404777401E+02  0.40907190085E+01 -0.49633587452E+03  0.49669383945E+03  0.00000000000E+00 0.  1.
        -15    1    1    2    0    0 -0.16657537503E+02 -0.62155139811E+01  0.27715860821E+02  0.32976246599E+02  0.17770000000E+01 0. -1.
         15    1    1    2    0    0 -0.90123469544E+01  0.67258411154E-01  0.24815548394E+02  0.26461218650E+02  0.17770000000E+01 0.  1.
</event>
<event>
 6    1  0.6506903E-004  0.5032860E+03  0.7546771E-02  0.9392487E-01
        -11   -1    0    0    0    0  0.00000000000E+00  0.00000000000E+00  0.50000000000E+03  0.50000000000E+03  0.00000000000E+00 0. -1.
         11   -1    0    0    0    0 -0.00000000000E+00 -0.00000000000E+00 -0.50000000000E+03  0.50000000000E+03  0.00000000000E+00 0. -1.
        -11    1    1    2    0    0 -0.59347776683E+01 -0.42403491804E+01  0.49666043614E+03  0.49671399313E+03  0.00000000000E+00 0. -1.
         11    1    1    2    0    0  0.65979505088E+01  0.13027691481E+02 -0.44501147848E+03  0.44525101872E+03  0.00000000000E+00 0. -1.
        -15    1    1    2    0    0 -0.87702005242E+01 -0.87027492745E+01 -0.11288025679E+02  0.16829483501E+02  0.17770000000E+01 0.  1.
         15    1    1    2    0    0  0.81070276837E+01 -0.84593025602E-01 -0.40360931983E+02  0.41205504649E+02  0.17770000000E+01 0. -1.
</event>
<event>
 6    1  0.6506903E-004  0.5001848E+03  0.7546771E-02  0.9399396E-01
        -11   -1    0    0    0    0  0.00000000000E+00  0.00000000000E+00  0.50000000000E+03  0.50000000000E+03  0.00000000000E+00 0. -1.
         11   -1    0    0    0    0 -0.00000000000E+00 -0.00000000000E+00 -0.50000000000E+03  0.50000000000E+03  0.00000000000E+00 0.  1.
        -11    1    1    2    0    0 -0.16998645869E+01  0.12856194117E+01  0.18016885287E+02  0.18142505680E+02  0.00000000000E+00 0. -1.
         11    1    1    2    0    0 -0.10689476412E+02  0.19990807452E+01 -0.49969684510E+03  0.49981516407E+03  0.00000000000E+00 0.  1.
        -15    1    1    2    0    0  0.65216614218E+01 -0.13560646267E-01  0.40284484488E+03  0.40290155004E+03  0.17770000000E+01 0. -1.
         15    1    1    2    0    0  0.58676795768E+01 -0.32711395106E+01  0.78835114934E+02  0.79140780214E+02  0.17770000000E+01 0.  1.
</event>
<event>
 6    1  0.6506903E-004  0.5067191E+03  0.7546771E-02  0.9384900E-01
        -11   -1    0    0    0    0  0.00000000000E+00  0.00000000000E+00  0.50000000000E+03  0.50000000000E+03  0.00000000000E+00 0.  1.
         11   -1    0    0    0    0 -0.00000000000E+00 -0.00000000000E+00 -0.50000000000E+03  0.50000000000E+03  0.00000000000E+00 0.  1.
        -11    1    1    2    0    0 -0.79817564956E+01  0.99383408653E+01  0.49311620941E+03  0.49328092913E+03  0.00000000000E+00 0.  1.
         11    1    1    2    0    0 -0.11293566764E+02 -0.64993860053E+00 -0.47873205283E+03  0.47886568626E+03  0.00000000000E+00 0.  1.
        -15    1    1    2    0    0  0.58504254290E+01 -0.68069926421E+01 -0.96411870814E+01  0.13291833729E+02  0.17770000000E+01 0.  1.
         15    1    1    2    0    0  0.13424897830E+02 -0.24814096227E+01 -0.47429694938E+01  0.14561550882E+02  0.17770000000E+01 0. -1.
</event>
<event>
 6    1  0.6506903E-004  0.5000606E+03  0.7546771E-02  0.9399674E-01
        -11   -1    0    0    0    0  0.00000000000E+00  0.00000000000E+00  0.50000000000E+03  0.50000000000E+03  0.00000000000E+00 0. -1.
         11   -1    0    0    0    0 -0.00000000000E+00 -0.00000000000E+00 -0.50000000000E+03  0.50000000000E+03  0.00000000000E+00 0. -1.
        -11    1    1    2    0    0  0.10813111261E+01  0.40287031466E+01  0.29277598229E+03  0.29280569580E+03  0.00000000000E+00 0. -1.
         11    1    1    2    0    0  0.23049045103E+01 -0.11129131906E+02 -0.49981020614E+03  0.49993940865E+03  0.00000000000E+00 0. -1.
        -15    1    1    2    0    0 -0.17226714914E+01  0.16062702404E+01  0.10676650767E+03  0.10680726843E+03  0.17770000000E+01 0.  1.
         15    1    1    2    0    0 -0.16635441449E+01  0.54941585187E+01  0.10026771618E+03  0.10044762712E+03  0.17770000000E+01 0. -1.
</event>
<event>
 6    1  0.6506903E-004  0.4886116E+03  0.7546771E-02  0.9425659E-01
        -11   -1    0    0    0    0  0.00000000000E+00  0.00000000000E+00  0.50000000000E+03  0.50000000000E+03  0.00000000000E+00 0.  1.
         11   -1    0    0    0    0 -0.00000000000E+00 -0.00000000000E+00 -0.50000000000E+03  0.50000000000E+03  0.00000000000E+00 0. -1.
        -11    1    1    2    0    0  0.42495505479E+01 -0.51032245187E+01  0.49190393495E+03  0.49194876034E+03  0.00000000000E+00 0.  1.
         11    1    1    2    0    0  0.14949575925E+02  0.12532662113E+02 -0.48512268720E+03  0.48551475681E+03  0.00000000000E+00 0. -1.
        -15    1    1    2    0    0 -0.63959348955E+01 -0.12431371311E+01 -0.17213024546E+00  0.67557923988E+01  0.17770000000E+01 0.  1.
         15    1    1    2    0    0 -0.12803191577E+02 -0.61863004631E+01 -0.66091175073E+01  0.15780690454E+02  0.17770000000E+01 0. -1.
</event>
<event>
 6    1  0.6506903E-004  0.5010580E+03  0.7546771E-02  0.9397446E-01
        -11   -1    0    0    0    0  0.00000000000E+00  0.00000000000E+00  0.50000000000E+03  0.50000000000E+03  0.00000000000E+00 0. -1.
         11   -1    0    0    0    0 -0.00000000000E+00 -0.00000000000E+00 -0.50000000000E+03  0.50000000000E+03  0.00000000000E+00 0. -1.
        -11    1    1    2    0    0  0.24327697485E+01 -0.26745939336E+01  0.23829846826E+03  0.23832589410E+03  0.00000000000E+00 0. -1.
         11    1    1    2    0    0  0.19893641346E+02  0.19919532998E+02 -0.49814717409E+03  0.49894203252E+03  0.00000000000E+00 0. -1.
        -15    1    1    2    0    0 -0.22566558290E+02 -0.23258232632E+02  0.21086268086E+03  0.21334578235E+03  0.17770000000E+01 0. -1.
         15    1    1    2    0    0  0.24014719573E+00  0.60132935685E+01  0.48986024969E+02  0.49386291028E+02  0.17770000000E+01 0.  1.
</event>
<event>
 6    1  0.6506903E-004  0.4712201E+03  0.7546771E-02  0.9466615E-01
        -11   -1    0    0    0    0  0.00000000000E+00  0.00000000000E+00  0.50000000000E+03  0.50000000000E+03  0.00000000000E+00 0. -1.
         11   -1    0    0    0    0 -0.00000000000E+00 -0.00000000000E+00 -0.50000000000E+03  0.50000000000E+03  0.00000000000E+00 0. -1.
        -11    1    1    2    0    0  0.14502751069E+02  0.29965247349E+01  0.46818231170E+03  0.46841646634E+03  0.00000000000E+00 0. -1.
         11    1    1    2    0    0  0.38089331806E+02  0.38129069090E+01 -0.47398911749E+03  0.47553235321E+03  0.00000000000E+00 0. -1.
        -15    1    1    2    0    0 -0.48952200411E+02 -0.39415087251E+01  0.10162183132E+01  0.49153268912E+02  0.17770000000E+01 0.  1.
         15    1    1    2    0    0 -0.36398824644E+01 -0.28679229187E+01  0.47905874718E+01  0.68979115352E+01  0.17770000000E+01 0. -1.
</event>
<event>
 6    1  0.6506903E-004  0.5025033E+03  0.7546771E-02  0.9394226E-01
        -11   -1    0    0    0    0  0.00000000000E+00  0.00000000000E+00  0.50000000000E+03  0.50000000000E+03  0.00000000000E+00 0. -1.
         11   -1    0    0    0    0 -0.00000000000E+00 -0.00000000000E+00 -0.50000000000E+03  0.50000000000E+03  0.00000000000E+00 0.  1.
        -11    1    1    2    0    0 -0.25210895517E+02 -0.13449955759E+02  0.39196295283E+03  0.39300311316E+03  0.00000000000E+00 0. -1.
         11    1    1    2    0    0  0.32415094904E+02  0.20323576250E+02 -0.49602340786E+03  0.49749674097E+03  0.00000000000E+00 0.  1.
        -15    1    1    2    0    0  0.76938041409E+01 -0.10733125826E+02  0.78411446799E+02  0.79535572735E+02  0.17770000000E+01 0. -1.
         15    1    1    2    0    0 -0.14898003528E+02  0.38595053349E+01  0.25649008238E+02  0.29964573135E+02  0.17770000000E+01 0.  1.
</event>
<event>
 6    1  0.6506903E-004  0.5006812E+03  0.7546771E-02  0.9398287E-01
        -11   -1    0    0    0    0  0.00000000000E+00  0.00000000000E+00  0.50000000000E+03  0.50000000000E+03  0.00000000000E+00 0.  1.
         11   -1    0    0    0    0 -0.00000000000E+00 -0.00000000000E+00 -0.50000000000E+03  0.50000000000E+03  0.00000000000E+00 0.  1.
        -11    1    1    2    0    0 -0.50003054645E+01  0.60922447543E+01  0.49925661623E+03  0.49931882335E+03  0.00000000000E+00 0.  1.
         11    1    1    2    0    0  0.14855726547E+01  0.14018915894E+02 -0.25957223214E+03  0.25995476650E+03  0.00000000000E+00 0.  1.
        -15    1    1    2    0    0  0.36475144253E+01 -0.10935088885E+02 -0.90344908123E+02  0.91094679774E+02  0.17770000000E+01 0.  1.
         15    1    1    2    0    0 -0.13278161543E+00 -0.91760717632E+01 -0.14933947597E+03  0.14963173037E+03  0.17770000000E+01 0. -1.
</event>
<event>
 6    1  0.6506903E-004  0.5030466E+03  0.7546771E-02  0.9393018E-01
        -11   -1    0    0    0    0  0.00000000000E+00  0.00000000000E+00  0.50000000000E+03  0.50000000000E+03  0.00000000000E+00 0.  1.
         11   -1    0    0    0    0 -0.00000000000E+00 -0.00000000000E+00 -0.50000000000E+03  0.50000000000E+03  0.00000000000E+00 0.  1.
        -11    1    1    2    0    0  0.73233254647E+00  0.84909912363E+01  0.30563141172E+03  0.30575021353E+03  0.00000000000E+00 0.  1.
         11    1    1    2    0    0 -0.96807274299E+01  0.44275367484E+02 -0.49488246721E+03  0.49695339923E+03  0.00000000000E+00 0.  1.
        -15    1    1    2    0    0  0.78313134990E+01 -0.51416906763E+02  0.16737736548E+03  0.17528082604E+03  0.17770000000E+01 0.  1.
         15    1    1    2    0    0  0.11170813844E+01 -0.13494519567E+01  0.21873690009E+02  0.22015561201E+02  0.17770000000E+01 0. -1.
</event>
<event>
 6    1  0.6506903E-004  0.5007180E+03  0.7546771E-02  0.9398205E-01
        -11   -1    0    0    0    0  0.00000000000E+00  0.00000000000E+00  0.50000000000E+03  0.50000000000E+03  0.00000000000E+00 0. -1.
         11   -1    0    0    0    0 -0.00000000000E+00 -0.00000000000E+00 -0.50000000000E+03  0.50000000000E+03  0.00000000000E+00 0. -1.
        -11    1    1    2    0    0  0.82687037434E+01 -0.94445640428E+00  0.49921265524E+03  0.49928202312E+03  0.00000000000E+00 0. -1.
         11    1    1    2    0    0  0.89860889814E+01 -0.16472035968E-01 -0.34639093633E+02  0.35785707681E+02  0.00000000000E+00 0. -1.
        -15    1    1    2    0    0 -0.18594254564E+01 -0.71712740713E+00 -0.65832531729E+02  0.65886657964E+02  0.17770000000E+01 0. -1.
         15    1    1    2    0    0 -0.15395367268E+02  0.16780558474E+01 -0.39874102988E+03  0.39904561123E+03  0.17770000000E+01 0. -1.
</event>
<event>
 6    1  0.6506903E-004  0.5000583E+03  0.7546771E-02  0.9399679E-01
        -11   -1    0    0    0    0  0.00000000000E+00  0.00000000000E+00  0.50000000000E+03  0.50000000000E+03  0.00000000000E+00 0. -1.
         11   -1    0    0    0    0 -0.00000000000E+00 -0.00000000000E+00 -0.50000000000E+03  0.50000000000E+03  0.00000000000E+00 0. -1.
        -11    1    1    2    0    0 -0.87308242717E+01 -0.36803337936E+01  0.49985189997E+03  0.49994169065E+03  0.00000000000E+00 0. -1.
         11    1    1    2    0    0  0.58830798378E+01  0.63440967815E+01 -0.31157291105E+03  0.31169301740E+03  0.00000000000E+00 0. -1.
        -15    1    1    2    0    0  0.16893149825E+01 -0.24243718234E+00 -0.89219528160E+02  0.89253540518E+02  0.17770000000E+01 0. -1.
         15    1    1    2    0    0  0.11584294515E+01 -0.24213258056E+01 -0.99059460756E+02  0.99111751431E+02  0.17770000000E+01 0. -1.
</event>
<event>
 6    1  0.6506903E-004  0.5084377E+03  0.7546771E-02  0.9381125E-01
        -11   -1    0    0    0    0  0.00000000000E+00  0.00000000000E+00  0.50000000000E+03  0.50000000000E+03  0.00000000000E+00 0.  1.
         11   -1    0    0    0    0 -0.00000000000E+00 -0.00000000000E+00 -0.50000000000E+03  0.50000000000E+03  0.00000000000E+00 0.  1.
        -11    1    1    2    0    0 -0.68954401807E+01 -0.26882523563E+01  0.46569706429E+03  0.46575586897E+03  0.00000000000E+00 0.  1.
         11    1    1    2    0    0  0.17619508915E+02 -0.15497372135E+02 -0.49100195389E+03  0.49156234026E+03  0.00000000000E+00 0.  1.
        -15    1    1    2    0    0 -0.15162150103E+02  0.11989357785E+02  0.28287083549E+02  0.34306738704E+02  0.17770000000E+01 0. -1.
         15    1    1    2    0    0  0.44380813682E+01  0.61962667063E+01 -0.29821939500E+01  0.83750520644E+01  0.17770000000E+01 0.  1.
</event>
<event>
 6    1  0.6506903E-004  0.5003980E+03  0.7546771E-02  0.9398920E-01
        -11   -1    0    0    0    0  0.00000000000E+00  0.00000000000E+00  0.50000000000E+03  0.50000000000E+03  0.00000000000E+00 0. -1.
         11   -1    0    0    0    0 -0.00000000000E+00 -0.00000000000E+00 -0.50000000000E+03  0.50000000000E+03  0.00000000000E+00 0.  1.
        -11    1    1    2    0    0  0.88744293814E+00 -0.34346058427E+01  0.53188311700E+02  0.53306477785E+02  0.00000000000E+00 0. -1.
         11    1    1    2    0    0  0.23893064623E+02 -0.73827893443E+01 -0.49897569570E+03  0.49960197059E+03  0.00000000000E+00 0.  1.
        -15    1    1    2    0    0 -0.49635230176E+01  0.85777670035E+01  0.64715606493E+02  0.65494137907E+02  0.17770000000E+01 0.  1.
         15    1    1    2    0    0 -0.19816984544E+02  0.22396281835E+01  0.38107177751E+03  0.38159741372E+03  0.17770000000E+01 0. -1.
</event>
<event>
 6    1  0.6506903E-004  0.5009931E+03  0.7546771E-02  0.9397590E-01
        -11   -1    0    0    0    0  0.00000000000E+00  0.00000000000E+00  0.50000000000E+03  0.50000000000E+03  0.00000000000E+00 0. -1.
         11   -1    0    0    0    0 -0.00000000000E+00 -0.00000000000E+00 -0.50000000000E+03  0.50000000000E+03  0.00000000000E+00 0.  1.
        -11    1    1    2    0    0  0.45035006925E+02  0.20688440675E+02  0.49653973047E+03  0.49900688107E+03  0.00000000000E+00 0. -1.
         11    1    1    2    0    0 -0.54045003075E+01  0.39925421820E+01 -0.15961807350E+02  0.17318438455E+02  0.00000000000E+00 0.  1.
        -15    1    1    2    0    0 -0.41644739301E+02 -0.28115880514E+02 -0.44028749699E+03  0.44314898712E+03  0.17770000000E+01 0.  1.
         15    1    1    2    0    0  0.20142326836E+01  0.34348976573E+01 -0.40290426126E+02  0.40525693351E+02  0.17770000000E+01 0. -1.
</event>
<event>
 6    1  0.6506903E-004  0.4917606E+03  0.7546771E-02  0.9418437E-01
        -11   -1    0    0    0    0  0.00000000000E+00  0.00000000000E+00  0.50000000000E+03  0.50000000000E+03  0.00000000000E+00 0.  1.
         11   -1    0    0    0    0 -0.00000000000E+00 -0.00000000000E+00 -0.50000000000E+03  0.50000000000E+03  0.00000000000E+00 0.  1.
        -11    1    1    2    0    0  0.40788454702E+01  0.11287539881E+02  0.49182659012E+03  0.49197300768E+03  0.00000000000E+00 0.  1.
         11    1    1    2    0    0  0.54450299391E+01 -0.19928459657E+02 -0.49119819055E+03  0.49163243816E+03  0.00000000000E+00 0.  1.
        -15    1    1    2    0    0 -0.76533694925E+01  0.57442256816E+00  0.23628793100E+00  0.78814711103E+01  0.17770000000E+01 0.  1.
         15    1    1    2    0    0 -0.18705059168E+01  0.80664972080E+01 -0.86468750073E+00  0.85130830529E+01  0.17770000000E+01 0. -1.
</event>
<event>
 6    1  0.6506903E-004  0.5040301E+03  0.7546771E-02  0.9390837E-01
        -11   -1    0    0    0    0  0.00000000000E+00  0.00000000000E+00  0.50000000000E+03  0.50000000000E+03  0.00000000000E+00 0. -1.
         11   -1    0    0    0    0 -0.00000000000E+00 -0.00000000000E+00 -0.50000000000E+03  0.50000000000E+03  0.00000000000E+00 0. -1.
        -11    1    1    2    0    0 -0.72784532090E+01 -0.15794514393E+02  0.41284114278E+03  0.41320727455E+03  0.00000000000E+00 0. -1.
         11    1    1    2    0    0 -0.21654321000E+02 -0.10010906898E+01 -0.49549590565E+03  0.49596986231E+03  0.00000000000E+00 0. -1.
        -15    1    1    2    0    0  0.26642110173E+02  0.18977446515E+02  0.64872970333E+02  0.72674655276E+02  0.17770000000E+01 0. -1.
         15    1    1    2    0    0  0.22906640355E+01 -0.21818414324E+01  0.17781792540E+02  0.18148207865E+02  0.17770000000E+01 0.  1.
</event>
<event>
 6    1  0.6506903E-004  0.5066788E+03  0.7546771E-02  0.9384988E-01
        -11   -1    0    0    0    0  0.00000000000E+00  0.00000000000E+00  0.50000000000E+03  0.50000000000E+03  0.00000000000E+00 0.  1.
         11   -1    0    0    0    0 -0.00000000000E+00 -0.00000000000E+00 -0.50000000000E+03  0.50000000000E+03  0.00000000000E+00 0.  1.
        -11    1    1    2    0    0  0.24461719530E+02 -0.25837952965E+01  0.49270752525E+03  0.49332115012E+03  0.00000000000E+00 0.  1.
         11    1    1    2    0    0  0.28410933526E+02  0.68761887482E-01 -0.12070772635E+03  0.12400621385E+03  0.00000000000E+00 0.  1.
        -15    1    1    2    0    0 -0.16633870937E+02 -0.28169568447E+02 -0.74275386648E+02  0.81180053212E+02  0.17770000000E+01 0. -1.
         15    1    1    2    0    0 -0.36238782119E+02  0.30684601856E+02 -0.29772441224E+03  0.30149258282E+03  0.17770000000E+01 0.  1.
</event>
<event>
 6    1  0.6506903E-004  0.5082722E+03  0.7546771E-02  0.9381488E-01
        -11   -1    0    0    0    0  0.00000000000E+00  0.00000000000E+00  0.50000000000E+03  0.50000000000E+03  0.00000000000E+00 0.  1.
         11   -1    0    0    0    0 -0.00000000000E+00 -0.00000000000E+00 -0.50000000000E+03  0.50000000000E+03  0.00000000000E+00 0.  1.
        -11    1    1    2    0    0  0.32692976469E+01  0.17517134637E+02  0.49140477564E+03  0.49172776191E+03  0.00000000000E+00 0.  1.
         11    1    1    2    0    0 -0.26531331365E+02 -0.11579522620E+02 -0.48334976904E+02  0.56340632588E+02  0.00000000000E+00 0.  1.
        -15    1    1    2    0    0 -0.11303305526E+02 -0.18386028315E+02 -0.36488495226E+03  0.36552701250E+03  0.17770000000E+01 0.  1.
         15    1    1    2    0    0  0.34565339244E+02  0.12448416298E+02 -0.78184846475E+02  0.86404593007E+02  0.17770000000E+01 0. -1.
</event>
<event>
 6    1  0.6506903E-004  0.5016062E+03  0.7546771E-02  0.9396223E-01
        -11   -1    0    0    0    0  0.00000000000E+00  0.00000000000E+00  0.50000000000E+03  0.50000000000E+03  0.00000000000E+00 0. -1.
         11   -1    0    0    0    0 -0.00000000000E+00 -0.00000000000E+00 -0.50000000000E+03  0.50000000000E+03  0.00000000000E+00 0. -1.
        -11    1    1    2    0    0 -0.10044119017E+02 -0.35144398170E+00  0.27341477622E+03  0.27359942926E+03  0.00000000000E+00 0. -1.
         11    1    1    2    0    0 -0.30806896545E+02  0.97841913195E+01 -0.49734457099E+03  0.49839383781E+03  0.00000000000E+00 0. -1.
        -15    1    1    2    0    0  0.35287990560E+02 -0.10751227239E+02  0.19392595718E+03  0.19741141244E+03  0.17770000000E+01 0. -1.
         15    1    1    2    0    0  0.55630250022E+01  0.13184799012E+01  0.30003837588E+02  0.30595320483E+02  0.17770000000E+01 0.  1.
</event>
<event>
 6    1  0.6506903E-004  0.5036707E+03  0.7546771E-02  0.9391634E-01
        -11   -1    0    0    0    0  0.00000000000E+00  0.00000000000E+00  0.50000000000E+03  0.50000000000E+03  0.00000000000E+00 0. -1.
         11   -1    0    0    0    0 -0.00000000000E+00 -0.00000000000E+00 -0.50000000000E+03  0.50000000000E+03  0.00000000000E+00 0. -1.
        -11    1    1    2    0    0 -0.56078142881E+01 -0.13097703916E+02  0.43203155365E+03  0.43226642338E+03  0.00000000000E+00 0. -1.
         11    1    1    2    0    0  0.23784789530E+02  0.13689080211E+02 -0.49557007300E+03  0.49632933057E+03  0.00000000000E+00 0. -1.
        -15    1    1    2    0    0 -0.86736076553E+01  0.12822951657E+02  0.36839449102E+02  0.39999528723E+02  0.17770000000E+01 0.  1.
         15    1    1    2    0    0 -0.95033675862E+01 -0.13414327952E+02  0.26699070244E+02  0.31404717333E+02  0.17770000000E+01 0. -1.
</event>
<event>
 6    1  0.6506903E-004  0.5056559E+03  0.7546771E-02  0.9387242E-01
        -11   -1    0    0    0    0  0.00000000000E+00  0.00000000000E+00  0.50000000000E+03  0.50000000000E+03  0.00000000000E+00 0. -1.
         11   -1    0    0    0    0 -0.00000000000E+00 -0.00000000000E+00 -0.50000000000E+03  0.50000000000E+03  0.00000000000E+00 0.  1.
        -11    1    1    2    0    0 -0.76567919420E+01 -0.12229144670E+02  0.48376736670E+03  0.48398248266E+03  0.00000000000E+00 0. -1.
         11    1    1    2    0    0  0.88310357728E+01 -0.48445082784E+01 -0.49424142980E+03  0.49434405770E+03  0.00000000000E+00 0.  1.
        -15    1    1    2    0    0  0.13957252113E+01  0.11558545283E+02  0.97577645698E+01  0.15294434162E+02  0.17770000000E+01 0. -1.
         15    1    1    2    0    0 -0.25699690422E+01  0.55151076645E+01  0.71629852765E+00  0.63790254749E+01  0.17770000000E+01 0.  1.
</event>
<event>
 6    1  0.6506903E-004  0.5060814E+03  0.7546771E-02  0.9386304E-01
        -11   -1    0    0    0    0  0.00000000000E+00  0.00000000000E+00  0.50000000000E+03  0.50000000000E+03  0.00000000000E+00 0.  1.
         11   -1    0    0    0    0 -0.00000000000E+00 -0.00000000000E+00 -0.50000000000E+03  0.50000000000E+03  0.00000000000E+00 0. -1.
        -11    1    1    2    0    0  0.13703294166E+01 -0.12536556826E+02  0.49375756966E+03  0.49391859719E+03  0.00000000000E+00 0.  1.
         11    1    1    2    0    0  0.64670582632E-01  0.19868361955E+02 -0.48493437125E+03  0.48534122059E+03  0.00000000000E+00 0. -1.
        -15    1    1    2    0    0  0.58889982146E+01 -0.55576942075E+01  0.86856292229E+00  0.83354901131E+01  0.17770000000E+01 0.  1.
         15    1    1    2    0    0 -0.73239982139E+01 -0.17741109221E+01 -0.96917613347E+01  0.12404692103E+02  0.17770000000E+01 0. -1.
</event>
<event>
 6    1  0.6506903E-004  0.5007216E+03  0.7546771E-02  0.9398197E-01
        -11   -1    0    0    0    0  0.00000000000E+00  0.00000000000E+00  0.50000000000E+03  0.50000000000E+03  0.00000000000E+00 0. -1.
         11   -1    0    0    0    0 -0.00000000000E+00 -0.00000000000E+00 -0.50000000000E+03  0.50000000000E+03  0.00000000000E+00 0. -1.
        -11    1    1    2    0    0 -0.14995381218E+02 -0.32473432669E+01  0.27555964176E+03  0.27598645413E+03  0.00000000000E+00 0. -1.
         11    1    1    2    0    0  0.25110053078E+02  0.14054920463E+02 -0.49844847658E+03  0.49927841868E+03  0.00000000000E+00 0. -1.
        -15    1    1    2    0    0  0.43085141418E+01 -0.76457244635E+01  0.15395730428E+03  0.15421747523E+03  0.17770000000E+01 0.  1.
         15    1    1    2    0    0 -0.14423186002E+02 -0.31618527330E+01  0.68931530543E+02  0.70517651968E+02  0.17770000000E+01 0. -1.
</event>
<event>
 6    1  0.6506903E-004  0.5003800E+03  0.7546771E-02  0.9398960E-01
        -11   -1    0    0    0    0  0.00000000000E+00  0.00000000000E+00  0.50000000000E+03  0.50000000000E+03  0.00000000000E+00 0. -1.
         11   -1    0    0    0    0 -0.00000000000E+00 -0.00000000000E+00 -0.50000000000E+03  0.50000000000E+03  0.00000000000E+00 0.  1.
        -11    1    1    2    0    0 -0.11954705083E+01 -0.53871749769E+01  0.39753614921E+03  0.39757444678E+03  0.00000000000E+00 0. -1.
         11    1    1    2    0    0 -0.91334052577E+01  0.16975431079E+01 -0.49953361168E+03  0.49961998553E+03  0.00000000000E+00 0.  1.
        -15    1    1    2    0    0  0.27046962739E+01  0.29765921330E+00  0.12999012614E+02  0.13399105973E+02  0.17770000000E+01 0.  1.
         15    1    1    2    0    0  0.76241794921E+01  0.33919726558E+01  0.88998449858E+02  0.89406461721E+02  0.17770000000E+01 0. -1.
</event>
<event>
 6    1  0.6506903E-004  0.5056704E+03  0.7546771E-02  0.9387210E-01
        -11   -1    0    0    0    0  0.00000000000E+00  0.00000000000E+00  0.50000000000E+03  0.50000000000E+03  0.00000000000E+00 0.  1.
         11   -1    0    0    0    0 -0.00000000000E+00 -0.00000000000E+00 -0.50000000000E+03  0.50000000000E+03  0.00000000000E+00 0. -1.
        -11    1    1    2    0    0  0.46219051698E+01  0.54841312291E+01  0.47258513957E+03  0.47263955806E+03  0.00000000000E+00 0.  1.
         11    1    1    2    0    0  0.48042615719E+01  0.14725375545E+02 -0.49408688625E+03  0.49432961552E+03  0.00000000000E+00 0. -1.
        -15    1    1    2    0    0 -0.32432424623E+01 -0.12494323999E+02  0.18343943110E+02  0.22500771802E+02  0.17770000000E+01 0.  1.
         15    1    1    2    0    0 -0.61829242794E+01 -0.77151827750E+01  0.31578035658E+01  0.10530054618E+02  0.17770000000E+01 0. -1.
</event>
<event>
 6    1  0.6506903E-004  0.5015610E+03  0.7546771E-02  0.9396324E-01
        -11   -1    0    0    0    0  0.00000000000E+00  0.00000000000E+00  0.50000000000E+03  0.50000000000E+03  0.00000000000E+00 0. -1.
         11   -1    0    0    0    0 -0.00000000000E+00 -0.00000000000E+00 -0.50000000000E+03  0.50000000000E+03  0.00000000000E+00 0. -1.
        -11    1    1    2    0    0 -0.65420797419E+01 -0.94796115142E+01  0.45381977625E+03  0.45396591409E+03  0.00000000000E+00 0. -1.
         11    1    1    2    0    0  0.16927374948E+02  0.59703240971E+01 -0.49811573157E+03  0.49843902619E+03  0.00000000000E+00 0. -1.
        -15    1    1    2    0    0 -0.40463585429E+01  0.81558573382E+01  0.25924469955E+02  0.27534104268E+02  0.17770000000E+01 0.  1.
         15    1    1    2    0    0 -0.63389366626E+01 -0.46465699211E+01  0.18371485362E+02  0.20060955447E+02  0.17770000000E+01 0. -1.
</event>
<event>
 6    1  0.6506903E-004  0.5040349E+03  0.7546771E-02  0.9390826E-01
        -11   -1    0    0    0    0  0.00000000000E+00  0.00000000000E+00  0.50000000000E+03  0.50000000000E+03  0.00000000000E+00 0. -1.
         11   -1    0    0    0    0 -0.00000000000E+00 -0.00000000000E+00 -0.50000000000E+03  0.50000000000E+03  0.00000000000E+00 0. -1.
        -11    1    1    2    0    0  0.12586076250E+01 -0.70179881642E+01  0.49591385852E+03  0.49596511100E+03  0.00000000000E+00 0. -1.
         11    1    1    2    0    0  0.47710286635E+01 -0.10429643601E+02 -0.46722892380E+03  0.46736966891E+03  0.00000000000E+00 0. -1.
        -15    1    1    2    0    0  0.32294640756E+00  0.10554530535E+01  0.84209056905E+00  0.22550212985E+01  0.17770000000E+01 0.  1.
         15    1    1    2    0    0 -0.63525826960E+01  0.16392178712E+02 -0.29527025290E+02  0.34410198798E+02  0.17770000000E+01 0. -1.
</event>
<event>
 6    1  0.6506903E-004  0.5006347E+03  0.7546771E-02  0.9398391E-01
        -11   -1    0    0    0    0  0.00000000000E+00  0.00000000000E+00  0.50000000000E+03  0.50000000000E+03  0.00000000000E+00 0. -1.
         11   -1    0    0    0    0 -0.00000000000E+00 -0.00000000000E+00 -0.50000000000E+03  0.50000000000E+03  0.00000000000E+00 0.  1.
        -11    1    1    2    0    0 -0.24379044139E+00 -0.23236016682E+02  0.49882438581E+03  0.49936533699E+03  0.00000000000E+00 0. -1.
         11    1    1    2    0    0 -0.15597611162E+01  0.24922628962E+02 -0.17647005725E+03  0.17822808812E+03  0.00000000000E+00 0.  1.
        -15    1    1    2    0    0  0.27534759682E+01 -0.16996956548E+00 -0.18443762736E+03  0.18446681716E+03  0.17770000000E+01 0. -1.
         15    1    1    2    0    0 -0.94992441060E+00 -0.15166427149E+01 -0.13791670121E+03  0.13793975773E+03  0.17770000000E+01 0. -1.
</event>
<event>
 6    1  0.6506903E-004  0.5002559E+03  0.7546771E-02  0.9399237E-01
        -11   -1    0    0    0    0  0.00000000000E+00  0.00000000000E+00  0.50000000000E+03  0.50000000000E+03  0.00000000000E+00 0.  1.
         11   -1    0    0    0    0 -0.00000000000E+00 -0.00000000000E+00 -0.50000000000E+03  0.50000000000E+03  0.00000000000E+00 0.  1.
        -11    1    1    2    0    0  0.62500675704E+01 -0.23068089710E+00  0.44350043151E+03  0.44354452912E+03  0.00000000000E+00 0.  1.
         11    1    1    2    0    0 -0.71242297279E+01  0.27718816339E+01 -0.49968561489E+03  0.49974408622E+03  0.00000000000E+00 0.  1.
        -15    1    1    2    0    0 -0.20327558832E+01  0.85140516462E+00  0.24594741830E+02  0.24757141231E+02  0.17770000000E+01 0.  1.
         15    1    1    2    0    0  0.29069180407E+01 -0.33926059014E+01  0.31590441551E+02  0.31954243438E+02  0.17770000000E+01 0. -1.
</event>
<event>
 6    1  0.6506903E-004  0.5006687E+03  0.7546771E-02  0.9398315E-01
        -11   -1    0    0    0    0  0.00000000000E+00  0.00000000000E+00  0.50000000000E+03  0.50000000000E+03  0.00000000000E+00 0.  1.
         11   -1    0    0    0    0 -0.00000000000E+00 -0.00000000000E+00 -0.50000000000E+03  0.50000000000E+03  0.00000000000E+00 0. -1.
        -11    1    1    2    0    0  0.56611852185E+01 -0.36479474970E+01  0.49928585134E+03  0.49933127069E+03  0.00000000000E+00 0.  1.
         11    1    1    2    0    0  0.73225639741E+00 -0.15146591837E+02 -0.24302870808E+03  0.24350135194E+03  0.00000000000E+00 0. -1.
        -15    1    1    2    0    0 -0.76813823013E+01  0.16038166508E+02 -0.22607752242E+03  0.22678278218E+03  0.17770000000E+01 0. -1.
         15    1    1    2    0    0  0.12879406854E+01  0.27563728265E+01 -0.30179620840E+02  0.30384595199E+02  0.17770000000E+01 0.  1.
</event>
<event>
 6    1  0.6506903E-004  0.5261402E+03  0.7546771E-02  0.9343147E-01
        -11   -1    0    0    0    0  0.00000000000E+00  0.00000000000E+00  0.50000000000E+03  0.50000000000E+03  0.00000000000E+00 0. -1.
         11   -1    0    0    0    0 -0.00000000000E+00 -0.00000000000E+00 -0.50000000000E+03  0.50000000000E+03  0.00000000000E+00 0. -1.
        -11    1    1    2    0    0 -0.30859182298E+02 -0.27527376808E+02  0.38777006095E+03  0.38996880103E+03  0.00000000000E+00 0. -1.
         11    1    1    2    0    0 -0.18679573664E+02 -0.68465766791E+02 -0.46851533491E+03  0.47385979650E+03  0.00000000000E+00 0. -1.
        -15    1    1    2    0    0  0.62660127740E+01  0.12288493964E+02  0.18823536307E+02  0.23404128869E+02  0.17770000000E+01 0. -1.
         15    1    1    2    0    0  0.43272743188E+02  0.83704649635E+02  0.61921737652E+02  0.11276727361E+03  0.17770000000E+01 0.  1.
</event>
<event>
 6    1  0.6506903E-004  0.5000522E+03  0.7546771E-02  0.9399693E-01
        -11   -1    0    0    0    0  0.00000000000E+00  0.00000000000E+00  0.50000000000E+03  0.50000000000E+03  0.00000000000E+00 0. -1.
         11   -1    0    0    0    0 -0.00000000000E+00 -0.00000000000E+00 -0.50000000000E+03  0.50000000000E+03  0.00000000000E+00 0.  1.
        -11    1    1    2    0    0 -0.56594764704E+01  0.11398813634E+01  0.34582874698E+03  0.34587693078E+03  0.00000000000E+00 0. -1.
         11    1    1    2    0    0  0.11635831359E+02  0.41414888408E+00 -0.49981222248E+03  0.49994781911E+03  0.00000000000E+00 0.  1.
        -15    1    1    2    0    0 -0.18148273355E+01 -0.18162248836E+01  0.69870201131E+02  0.69939938563E+02  0.17770000000E+01 0.  1.
         15    1    1    2    0    0 -0.41615275535E+01  0.26219463612E+00  0.84113274368E+02  0.84235311548E+02  0.17770000000E+01 0. -1.
</event>
<event>
 6    1  0.6506903E-004  0.4534344E+03  0.7546771E-02  0.9510491E-01
        -11   -1    0    0    0    0  0.00000000000E+00  0.00000000000E+00  0.50000000000E+03  0.50000000000E+03  0.00000000000E+00 0.  1.
         11   -1    0    0    0    0 -0.00000000000E+00 -0.00000000000E+00 -0.50000000000E+03  0.50000000000E+03  0.00000000000E+00 0.  1.
        -11    1    1    2    0    0 -0.17703832261E+02 -0.58272090810E+01  0.44160353533E+03  0.44199667924E+03  0.00000000000E+00 0.  1.
         11    1    1    2    0    0 -0.42999079186E+02 -0.49466796520E+02 -0.46425982576E+03  0.46886359486E+03  0.00000000000E+00 0.  1.
        -15    1    1    2    0    0  0.45314946011E+02  0.34461497995E+02  0.38587928678E+01  0.57088415528E+02  0.17770000000E+01 0. -1.
         15    1    1    2    0    0  0.15387965435E+02  0.20832507606E+02  0.18797497560E+02  0.32051310377E+02  0.17770000000E+01 0.  1.
</event>
<event>
 6    1  0.6506903E-004  0.5030847E+03  0.7546771E-02  0.9392934E-01
        -11   -1    0    0    0    0  0.00000000000E+00  0.00000000000E+00  0.50000000000E+03  0.50000000000E+03  0.00000000000E+00 0. -1.
         11   -1    0    0    0    0 -0.00000000000E+00 -0.00000000000E+00 -0.50000000000E+03  0.50000000000E+03  0.00000000000E+00 0. -1.
        -11    1    1    2    0    0  0.31016070047E+01  0.62122739755E+01  0.49686682621E+03  0.49691534017E+03  0.00000000000E+00 0. -1.
         11    1    1    2    0    0  0.73566668852E+00 -0.19764917507E+02 -0.46588634363E+03  0.46630599219E+03  0.00000000000E+00 0. -1.
        -15    1    1    2    0    0  0.51305610375E+00  0.13073096872E+02 -0.28574761767E+02  0.31477671887E+02  0.17770000000E+01 0. -1.
         15    1    1    2    0    0 -0.43503297969E+01  0.47954665873E+00 -0.24057208048E+01  0.53009957490E+01  0.17770000000E+01 0.  1.
</event>
<event>
 6    1  0.6506903E-004  0.5001325E+03  0.7546771E-02  0.9399513E-01
        -11   -1    0    0    0    0  0.00000000000E+00  0.00000000000E+00  0.50000000000E+03  0.50000000000E+03  0.00000000000E+00 0.  1.
         11   -1    0    0    0    0 -0.00000000000E+00 -0.00000000000E+00 -0.50000000000E+03  0.50000000000E+03  0.00000000000E+00 0.  1.
        -11    1    1    2    0    0  0.75200470235E+00 -0.20629535037E+01  0.83798337645E+02  0.83827099916E+02  0.00000000000E+00 0.  1.
         11    1    1    2    0    0  0.25492151307E+01 -0.11931766520E+02 -0.49971853560E+03  0.49986746281E+03  0.00000000000E+00 0.  1.
        -15    1    1    2    0    0 -0.26160635201E+01  0.10501808107E+02  0.17018757886E+03  0.17054061536E+03  0.17770000000E+01 0.  1.
         15    1    1    2    0    0 -0.68515631294E+00  0.34929119158E+01  0.24573261910E+03  0.24576482192E+03  0.17770000000E+01 0.  1.
</event>
<event>
 6    1  0.6506903E-004  0.5033400E+03  0.7546771E-02  0.9392367E-01
        -11   -1    0    0    0    0  0.00000000000E+00  0.00000000000E+00  0.50000000000E+03  0.50000000000E+03  0.00000000000E+00 0. -1.
         11   -1    0    0    0    0 -0.00000000000E+00 -0.00000000000E+00 -0.50000000000E+03  0.50000000000E+03  0.00000000000E+00 0. -1.
        -11    1    1    2    0    0 -0.15440006163E+01 -0.89373253166E+01  0.49657716869E+03  0.49665998851E+03  0.00000000000E+00 0. -1.
         11    1    1    2    0    0 -0.12824845523E+02  0.34243640732E+01 -0.47153424951E+03  0.47172105252E+03  0.00000000000E+00 0. -1.
        -15    1    1    2    0    0  0.90784790922E+00  0.53631936941E+01 -0.76402882648E+01  0.95456675092E+01  0.17770000000E+01 0. -1.
         15    1    1    2    0    0  0.13460998230E+02  0.14976754927E+00 -0.17402630919E+02  0.22073291453E+02  0.17770000000E+01 0.  1.
</event>
<event>
 6    1  0.6506903E-004  0.4715932E+03  0.7546771E-02  0.9465716E-01
        -11   -1    0    0    0    0  0.00000000000E+00  0.00000000000E+00  0.50000000000E+03  0.50000000000E+03  0.00000000000E+00 0.  1.
         11   -1    0    0    0    0 -0.00000000000E+00 -0.00000000000E+00 -0.50000000000E+03  0.50000000000E+03  0.00000000000E+00 0.  1.
        -11    1    1    2    0    0 -0.16675729870E+02 -0.37897426214E+00  0.48196684921E+03  0.48225539637E+03  0.00000000000E+00 0.  1.
         11    1    1    2    0    0 -0.26432492625E+02  0.93459458223E-01 -0.46138343324E+03  0.46213997649E+03  0.00000000000E+00 0.  1.
        -15    1    1    2    0    0  0.41133422649E+02 -0.68288450954E+01 -0.22978116784E+02  0.47641821587E+02  0.17770000000E+01 0. -1.
         15    1    1    2    0    0  0.19747998460E+01  0.71143598993E+01  0.23947008160E+01  0.79628055487E+01  0.17770000000E+01 0.  1.
</event>
<event>
 6    1  0.6506903E-004  0.5001105E+03  0.7546771E-02  0.9399562E-01
        -11   -1    0    0    0    0  0.00000000000E+00  0.00000000000E+00  0.50000000000E+03  0.50000000000E+03  0.00000000000E+00 0. -1.
         11   -1    0    0    0    0 -0.00000000000E+00 -0.00000000000E+00 -0.50000000000E+03  0.50000000000E+03  0.00000000000E+00 0. -1.
        -11    1    1    2    0    0  0.14317192408E+02 -0.71607385386E+01  0.49963307503E+03  0.49988945562E+03  0.00000000000E+00 0. -1.
         11    1    1    2    0    0 -0.83132998273E+01  0.77813747773E+01 -0.29952878853E+03  0.29974515160E+03  0.00000000000E+00 0. -1.
        -15    1    1    2    0    0 -0.50844685426E+01  0.94693920037E+00 -0.18215143109E+03  0.18223350431E+03  0.17770000000E+01 0. -1.
         15    1    1    2    0    0 -0.91942403810E+00 -0.15675754391E+01 -0.17952855411E+02  0.18131888476E+02  0.17770000000E+01 0. -1.
</event>
<event>
 6    1  0.6506903E-004  0.5038793E+03  0.7546771E-02  0.9391171E-01
        -11   -1    0    0    0    0  0.00000000000E+00  0.00000000000E+00  0.50000000000E+03  0.50000000000E+03  0.00000000000E+00 0. -1.
         11   -1    0    0    0    0 -0.00000000000E+00 -0.00000000000E+00 -0.50000000000E+03  0.50000000000E+03  0.00000000000E+00 0.  1.
        -11    1    1    2    0    0  0.43909407180E+01  0.66637882641E+01  0.47985792073E+03  0.47992427582E+03  0.00000000000E+00 0. -1.
         11    1    1    2    0    0 -0.17688226524E+02 -0.13059130081E+02 -0.49563328118E+03  0.49612071480E+03  0.00000000000E+00 0.  1.
        -15    1    1    2    0    0  0.14522326908E+02  0.60264927284E+01  0.14160905910E+02  0.21234537400E+02  0.17770000000E+01 0.  1.
         15    1    1    2    0    0 -0.12250411013E+01  0.36884908856E+00  0.16144545384E+01  0.27204719823E+01  0.17770000000E+01 0. -1.
</event>
<event>
 6    1  0.6506903E-004  0.5094075E+03  0.7546771E-02  0.9379002E-01
        -11   -1    0    0    0    0  0.00000000000E+00  0.00000000000E+00  0.50000000000E+03  0.50000000000E+03  0.00000000000E+00 0. -1.
         11   -1    0    0    0    0 -0.00000000000E+00 -0.00000000000E+00 -0.50000000000E+03  0.50000000000E+03  0.00000000000E+00 0.  1.
        -11    1    1    2    0    0 -0.13363911888E+02 -0.32986227245E+01  0.46800459688E+03  0.46820698175E+03  0.00000000000E+00 0. -1.
         11    1    1    2    0    0 -0.14011282120E+02 -0.54334516407E+01 -0.49036230671E+03  0.49059252977E+03  0.00000000000E+00 0.  1.
        -15    1    1    2    0    0  0.28677276618E+02  0.39825340525E+01  0.20942575869E+02  0.35777031525E+02  0.17770000000E+01 0. -1.
         15    1    1    2    0    0 -0.13020826097E+01  0.47495403127E+01  0.14151339533E+01  0.54234569612E+01  0.17770000000E+01 0.  1.
</event>
<event>
 6    1  0.6506903E-004  0.5059879E+03  0.7546771E-02  0.9386510E-01
        -11   -1    0    0    0    0  0.00000000000E+00  0.00000000000E+00  0.50000000000E+03  0.50000000000E+03  0.00000000000E+00 0. -1.
         11   -1    0    0    0    0 -0.00000000000E+00 -0.00000000000E+00 -0.50000000000E+03  0.50000000000E+03  0.00000000000E+00 0. -1.
        -11    1    1    2    0    0 -0.45213347194E+01 -0.51383780310E+01  0.49396463763E+03  0.49401205312E+03  0.00000000000E+00 0. -1.
         11    1    1    2    0    0  0.90943579085E+01 -0.15526367163E+02 -0.41016653355E+03  0.41056103160E+03  0.00000000000E+00 0. -1.
        -15    1    1    2    0    0  0.26863726833E+01  0.17367628487E+02 -0.85310000307E+02  0.87119486906E+02  0.17770000000E+01 0. -1.
         15    1    1    2    0    0 -0.72593958723E+01  0.32971167073E+01  0.15118962259E+01  0.83074283753E+01  0.17770000000E+01 0.  1.
</event>
<event>
 6    1  0.6506903E-004  0.5015695E+03  0.7546771E-02  0.9396305E-01
        -11   -1    0    0    0    0  0.00000000000E+00  0.00000000000E+00  0.50000000000E+03  0.50000000000E+03  0.00000000000E+00 0. -1.
         11   -1    0    0    0    0 -0.00000000000E+00 -0.00000000000E+00 -0.50000000000E+03  0.50000000000E+03  0.00000000000E+00 0.  1.
        -11    1    1    2    0    0  0.66778203819E+00  0.12070187469E+02  0.49828390462E+03  0.49843052170E+03  0.00000000000E+00 0. -1.
         11    1    1    2    0    0 -0.18196022050E+02 -0.95242885590E+01 -0.39982660608E+03  0.40035374636E+03  0.00000000000E+00 0.  1.
        -15    1    1    2    0    0  0.34065644741E+01  0.28667636673E+01 -0.54209131792E+02  0.54420682779E+02  0.17770000000E+01 0.  1.
         15    1    1    2    0    0  0.14121675538E+02 -0.54126625776E+01 -0.44248166749E+02  0.46795049160E+02  0.17770000000E+01 0. -1.
</event>
<event>
 6    1  0.9765814E-004  0.5000930E+03  0.7546771E-02  0.9399602E-01
        -11   -1    0    0    0    0  0.00000000000E+00  0.00000000000E+00  0.50000000000E+03  0.50000000000E+03  0.00000000000E+00 0. -1.
         11   -1    0    0    0    0 -0.00000000000E+00 -0.00000000000E+00 -0.50000000000E+03  0.50000000000E+03  0.00000000000E+00 0.  1.
        -11    1    1    2    0    0 -0.14435557057E+01  0.35084242388E+01  0.21185889857E+03  0.21189286396E+03  0.00000000000E+00 0. -1.
         11    1    1    2    0    0 -0.75086138865E+01 -0.51279103965E-01 -0.49985057644E+03  0.49990697203E+03  0.00000000000E+00 0.  1.
        -15    1    1    2    0    0  0.20956329317E+01  0.48593200005E+00  0.88086650680E+02  0.88130832087E+02  0.17770000000E+01 0.  1.
         15    1    1    2    0    0  0.68565366605E+01 -0.39430771349E+01  0.19990502719E+03  0.20006933192E+03  0.17770000000E+01 0. -1.
</event>
<event>
 6    1  0.6506903E-004  0.5008157E+03  0.7546771E-02  0.9397986E-01
        -11   -1    0    0    0    0  0.00000000000E+00  0.00000000000E+00  0.50000000000E+03  0.50000000000E+03  0.00000000000E+00 0.  1.
         11   -1    0    0    0    0 -0.00000000000E+00 -0.00000000000E+00 -0.50000000000E+03  0.50000000000E+03  0.00000000000E+00 0.  1.
        -11    1    1    2    0    0  0.61219998692E+01  0.52339489911E+00  0.38736314519E+03  0.38741187266E+03  0.00000000000E+00 0.  1.
         11    1    1    2    0    0 -0.10226020935E+02 -0.61962925975E+01 -0.49904107469E+03  0.49918429440E+03  0.00000000000E+00 0.  1.
        -15    1    1    2    0    0  0.94268895267E+01  0.38245620504E+01  0.34821072471E+02  0.36320219410E+02  0.17770000000E+01 0.  1.
         15    1    1    2    0    0 -0.53228684604E+01  0.18483356480E+01  0.76856857033E+02  0.77083613533E+02  0.17770000000E+01 0. -1.
</event>
<event>
 6    1  0.6506903E-004  0.4738587E+03  0.7546771E-02  0.9460281E-01
        -11   -1    0    0    0    0  0.00000000000E+00  0.00000000000E+00  0.50000000000E+03  0.50000000000E+03  0.00000000000E+00 0.  1.
         11   -1    0    0    0    0 -0.00000000000E+00 -0.00000000000E+00 -0.50000000000E+03  0.50000000000E+03  0.00000000000E+00 0.  1.
        -11    1    1    2    0    0  0.82272859175E+01 -0.10573521742E+01  0.47385834488E+03  0.47393094142E+03  0.00000000000E+00 0.  1.
         11    1    1    2    0    0 -0.41265446105E+02 -0.42834861172E+01 -0.47256050976E+03  0.47437814103E+03  0.00000000000E+00 0.  1.
        -15    1    1    2    0    0  0.34432234361E+02  0.13232923460E+02  0.94946371271E+01  0.38131284919E+02  0.17770000000E+01 0.  1.
         15    1    1    2    0    0 -0.13940741736E+01 -0.78920851688E+01 -0.10792472239E+02  0.13559632633E+02  0.17770000000E+01 0. -1.
</event>
<event>
 6    1  0.6506903E-004  0.5034925E+03  0.7546771E-02  0.9392029E-01
        -11   -1    0    0    0    0  0.00000000000E+00  0.00000000000E+00  0.50000000000E+03  0.50000000000E+03  0.00000000000E+00 0.  1.
         11   -1    0    0    0    0 -0.00000000000E+00 -0.00000000000E+00 -0.50000000000E+03  0.50000000000E+03  0.00000000000E+00 0. -1.
        -11    1    1    2    0    0  0.45267980889E+01  0.91173079248E+01  0.49640311231E+03  0.49650746935E+03  0.00000000000E+00 0.  1.
         11    1    1    2    0    0  0.40165532006E+01  0.10110667781E+02 -0.46025985544E+03  0.46038841518E+03  0.00000000000E+00 0. -1.
        -15    1    1    2    0    0  0.19573923579E+01 -0.44179685390E+01 -0.64179837091E+01  0.82278839774E+01  0.17770000000E+01 0. -1.
         15    1    1    2    0    0 -0.10500743647E+02 -0.14810007167E+02 -0.29725273163E+02  0.34876231491E+02  0.17770000000E+01 0.  1.
</event>
<event>
 6    1  0.6506903E-004  0.4929222E+03  0.7546771E-02  0.9415788E-01
        -11   -1    0    0    0    0  0.00000000000E+00  0.00000000000E+00  0.50000000000E+03  0.50000000000E+03  0.00000000000E+00 0. -1.
         11   -1    0    0    0    0 -0.00000000000E+00 -0.00000000000E+00 -0.50000000000E+03  0.50000000000E+03  0.00000000000E+00 0.  1.
        -11    1    1    2    0    0 -0.75871163299E+01 -0.43061483090E+01  0.49435493489E+03  0.49443190522E+03  0.00000000000E+00 0. -1.
         11    1    1    2    0    0  0.66381397349E+01 -0.50162149029E+01 -0.49139101043E+03  0.49146144553E+03  0.00000000000E+00 0.  1.
        -15    1    1    2    0    0 -0.10401163437E+01  0.72914932146E+01  0.22538188836E+01  0.79047545102E+01  0.17770000000E+01 0. -1.
         15    1    1    2    0    0  0.19890929386E+01  0.20308699973E+01 -0.52177433440E+01  0.62018947321E+01  0.17770000000E+01 0.  1.
</event>
<event>
 6    1  0.6506903E-004  0.4855918E+03  0.7546771E-02  0.9432639E-01
        -11   -1    0    0    0    0  0.00000000000E+00  0.00000000000E+00  0.50000000000E+03  0.50000000000E+03  0.00000000000E+00 0.  1.
         11   -1    0    0    0    0 -0.00000000000E+00 -0.00000000000E+00 -0.50000000000E+03  0.50000000000E+03  0.00000000000E+00 0. -1.
        -11    1    1    2    0    0 -0.95469035435E+01 -0.53324980879E+01  0.48341937956E+03  0.48354304404E+03  0.00000000000E+00 0.  1.
         11    1    1    2    0    0 -0.17300994654E+02  0.92079528008E+01 -0.48763474045E+03  0.48802843247E+03  0.00000000000E+00 0. -1.
        -15    1    1    2    0    0  0.17369873889E+02 -0.35131281255E+01  0.56217043329E+01  0.18676613097E+02  0.17770000000E+01 0. -1.
         15    1    1    2    0    0  0.94780243084E+01 -0.36232658737E+00 -0.14063434509E+01  0.97519103897E+01  0.17770000000E+01 0.  1.
</event>
<event>
 6    1  0.6506903E-004  0.5004957E+03  0.7546771E-02  0.9398701E-01
        -11   -1    0    0    0    0  0.00000000000E+00  0.00000000000E+00  0.50000000000E+03  0.50000000000E+03  0.00000000000E+00 0. -1.
         11   -1    0    0    0    0 -0.00000000000E+00 -0.00000000000E+00 -0.50000000000E+03  0.50000000000E+03  0.00000000000E+00 0.  1.
        -11    1    1    2    0    0  0.40034363436E+02  0.19856946702E+02  0.49750124378E+03  0.49950429042E+03  0.00000000000E+00 0. -1.
         11    1    1    2    0    0 -0.37289027763E+02 -0.15323523496E+02 -0.28578546926E+03  0.28861499685E+03  0.00000000000E+00 0.  1.
        -15    1    1    2    0    0  0.34211567280E+00 -0.44070104698E+01 -0.11211685576E+03  0.11221802823E+03  0.17770000000E+01 0.  1.
         15    1    1    2    0    0 -0.30874513455E+01 -0.12641273578E+00 -0.99598918754E+02  0.99662684501E+02  0.17770000000E+01 0. -1.
</event>
<event>
 6    1  0.6506903E-004  0.5001785E+03  0.7546771E-02  0.9399410E-01
        -11   -1    0    0    0    0  0.00000000000E+00  0.00000000000E+00  0.50000000000E+03  0.50000000000E+03  0.00000000000E+00 0. -1.
         11   -1    0    0    0    0 -0.00000000000E+00 -0.00000000000E+00 -0.50000000000E+03  0.50000000000E+03  0.00000000000E+00 0. -1.
        -11    1    1    2    0    0 -0.49483098450E+01 -0.51393874768E+01  0.34639345121E+03  0.34646691345E+03  0.00000000000E+00 0. -1.
         11    1    1    2    0    0  0.16700889171E+02  0.11241179201E+02 -0.49941593233E+03  0.49982152542E+03  0.00000000000E+00 0. -1.
        -15    1    1    2    0    0 -0.28890980748E+01 -0.25933048582E+01  0.29271808380E+02  0.29581558658E+02  0.17770000000E+01 0. -1.
         15    1    1    2    0    0 -0.88634812508E+01 -0.35084868659E+01  0.12375067274E+03  0.12413000247E+03  0.17770000000E+01 0. -1.
</event>
<event>
 6    1  0.6506903E-004  0.5066507E+03  0.7546771E-02  0.9385050E-01
        -11   -1    0    0    0    0  0.00000000000E+00  0.00000000000E+00  0.50000000000E+03  0.50000000000E+03  0.00000000000E+00 0.  1.
         11   -1    0    0    0    0 -0.00000000000E+00 -0.00000000000E+00 -0.50000000000E+03  0.50000000000E+03  0.00000000000E+00 0.  1.
        -11    1    1    2    0    0  0.50906638840E-01  0.46157169687E+01  0.19668920724E+03  0.19674336502E+03  0.00000000000E+00 0.  1.
         11    1    1    2    0    0  0.18181637065E+02  0.28311933094E+02 -0.49220052982E+03  0.49334926679E+03  0.00000000000E+00 0.  1.
        -15    1    1    2    0    0  0.11497226936E+02 -0.10400044499E+02  0.25235674626E+03  0.25283874756E+03  0.17770000000E+01 0.  1.
         15    1    1    2    0    0 -0.29729770640E+02 -0.22527605564E+02  0.43154576324E+02  0.57068620637E+02  0.17770000000E+01 0. -1.
</event>
<event>
 6    1  0.6506903E-004  0.5032540E+03  0.7546771E-02  0.9392558E-01
        -11   -1    0    0    0    0  0.00000000000E+00  0.00000000000E+00  0.50000000000E+03  0.50000000000E+03  0.00000000000E+00 0.  1.
         11   -1    0    0    0    0 -0.00000000000E+00 -0.00000000000E+00 -0.50000000000E+03  0.50000000000E+03  0.00000000000E+00 0.  1.
        -11    1    1    2    0    0  0.76302119429E+01  0.19891319731E+00  0.49668731224E+03  0.49674595704E+03  0.00000000000E+00 0.  1.
         11    1    1    2    0    0  0.19738500059E+01 -0.17860260051E+02 -0.43677202824E+03  0.43714149841E+03  0.00000000000E+00 0.  1.
        -15    1    1    2    0    0  0.55398359322E+01  0.80149943620E+01 -0.21260023774E+02  0.23453704540E+02  0.17770000000E+01 0.  1.
         15    1    1    2    0    0 -0.15143897881E+02  0.96463524921E+01 -0.38655260221E+02  0.42658840012E+02  0.17770000000E+01 0. -1.
</event>
<event>
 6    1  0.6506903E-004  0.5014276E+03  0.7546771E-02  0.9396621E-01
        -11   -1    0    0    0    0  0.00000000000E+00  0.00000000000E+00  0.50000000000E+03  0.50000000000E+03  0.00000000000E+00 0.  1.
         11   -1    0    0    0    0 -0.00000000000E+00 -0.00000000000E+00 -0.50000000000E+03  0.50000000000E+03  0.00000000000E+00 0. -1.
        -11    1    1    2    0    0  0.37670872036E+01 -0.93021374927E+01  0.49847139629E+03  0.49857241563E+03  0.00000000000E+00 0.  1.
         11    1    1    2    0    0 -0.73871319109E+01 -0.63276793381E+01 -0.37964371766E+02  0.39190595393E+02  0.00000000000E+00 0. -1.
        -15    1    1    2    0    0 -0.14527173233E+02  0.48899242384E+00 -0.11691184592E+03  0.11782535941E+03  0.17770000000E+01 0.  1.
         15    1    1    2    0    0  0.18147217940E+02  0.15140824407E+02 -0.34359517861E+03  0.34441162956E+03  0.17770000000E+01 0. -1.
</event>
<event>
 6    1  0.6506903E-004  0.5014430E+03  0.7546771E-02  0.9396587E-01
        -11   -1    0    0    0    0  0.00000000000E+00  0.00000000000E+00  0.50000000000E+03  0.50000000000E+03  0.00000000000E+00 0. -1.
         11   -1    0    0    0    0 -0.00000000000E+00 -0.00000000000E+00 -0.50000000000E+03  0.50000000000E+03  0.00000000000E+00 0. -1.
        -11    1    1    2    0    0  0.18143587474E+01  0.57471217839E+01  0.26431181357E+03  0.26438051384E+03  0.00000000000E+00 0. -1.
         11    1    1    2    0    0 -0.43758829841E+02  0.67890649032E+01 -0.49658651487E+03  0.49855701113E+03  0.00000000000E+00 0. -1.
        -15    1    1    2    0    0  0.27786841225E+02 -0.21878964697E+01  0.17238361383E+03  0.17463150770E+03  0.17770000000E+01 0. -1.
         15    1    1    2    0    0  0.14157629868E+02 -0.10348290217E+02  0.59891087473E+02  0.62430967329E+02  0.17770000000E+01 0.  1.
</event>
<event>
 6    1  0.6506903E-004  0.5022358E+03  0.7546771E-02  0.9394821E-01
        -11   -1    0    0    0    0  0.00000000000E+00  0.00000000000E+00  0.50000000000E+03  0.50000000000E+03  0.00000000000E+00 0.  1.
         11   -1    0    0    0    0 -0.00000000000E+00 -0.00000000000E+00 -0.50000000000E+03  0.50000000000E+03  0.00000000000E+00 0.  1.
        -11    1    1    2    0    0 -0.43253790943E+01 -0.16563911054E+02  0.49746967570E+03  0.49776415127E+03  0.00000000000E+00 0.  1.
         11    1    1    2    0    0 -0.19010166105E+00 -0.15157833240E+02 -0.23756982720E+03  0.23805297487E+03  0.00000000000E+00 0.  1.
        -15    1    1    2    0    0 -0.55044937319E+00  0.22696529735E+02 -0.24441193684E+03  0.24547054417E+03  0.17770000000E+01 0.  1.
         15    1    1    2    0    0  0.50659301286E+01  0.90252145599E+01 -0.15487911658E+02  0.18712329691E+02  0.17770000000E+01 0. -1.
</event>
<event>
 6    1  0.6506903E-004  0.5001842E+03  0.7546771E-02  0.9399398E-01
        -11   -1    0    0    0    0  0.00000000000E+00  0.00000000000E+00  0.50000000000E+03  0.50000000000E+03  0.00000000000E+00 0.  1.
         11   -1    0    0    0    0 -0.00000000000E+00 -0.00000000000E+00 -0.50000000000E+03  0.50000000000E+03  0.00000000000E+00 0.  1.
        -11    1    1    2    0    0 -0.26940852770E+01  0.33008118652E+01  0.14925369190E+03  0.14931449360E+03  0.00000000000E+00 0.  1.
         11    1    1    2    0    0 -0.60887047480E+00  0.95691132821E+01 -0.49972378369E+03  0.49981576469E+03  0.00000000000E+00 0.  1.
        -15    1    1    2    0    0 -0.78339871894E+00 -0.11876148105E+01  0.14598557321E+03  0.14600332002E+03  0.17770000000E+01 0.  1.
         15    1    1    2    0    0  0.40863544708E+01 -0.11682310337E+02  0.20448451857E+03  0.20486642168E+03  0.17770000000E+01 0.  1.
</event>
<event>
 6    1  0.6506903E-004  0.5036246E+03  0.7546771E-02  0.9391736E-01
        -11   -1    0    0    0    0  0.00000000000E+00  0.00000000000E+00  0.50000000000E+03  0.50000000000E+03  0.00000000000E+00 0.  1.
         11   -1    0    0    0    0 -0.00000000000E+00 -0.00000000000E+00 -0.50000000000E+03  0.50000000000E+03  0.00000000000E+00 0. -1.
        -11    1    1    2    0    0 -0.71719731402E+01  0.23649781535E+01  0.49631794364E+03  0.49637539373E+03  0.00000000000E+00 0.  1.
         11    1    1    2    0    0  0.21532301229E+02  0.15834845665E+02 -0.34903676091E+03  0.35005862767E+03  0.00000000000E+00 0. -1.
        -15    1    1    2    0    0 -0.19028712249E+02  0.46635198216E+01 -0.56927366724E+02  0.60230582913E+02  0.17770000000E+01 0. -1.
         15    1    1    2    0    0  0.46683841599E+01 -0.22863343640E+02 -0.90353816005E+02  0.93335395690E+02  0.17770000000E+01 0.  1.
</event>
<event>
 6    1  0.6506903E-004  0.5053482E+03  0.7546771E-02  0.9387922E-01
        -11   -1    0    0    0    0  0.00000000000E+00  0.00000000000E+00  0.50000000000E+03  0.50000000000E+03  0.00000000000E+00 0. -1.
         11   -1    0    0    0    0 -0.00000000000E+00 -0.00000000000E+00 -0.50000000000E+03  0.50000000000E+03  0.00000000000E+00 0.  1.
        -11    1    1    2    0    0  0.63169417544E+01  0.95146980067E+01  0.49451992257E+03  0.49465178364E+03  0.00000000000E+00 0. -1.
         11    1    1    2    0    0 -0.47351664122E+02 -0.70223181810E+01 -0.30466164667E+03  0.30839943579E+03  0.00000000000E+00 0.  1.
        -15    1    1    2    0    0  0.16401884777E+01  0.57370224657E+01 -0.57168901655E+01  0.84524675201E+01  0.17770000000E+01 0. -1.
         15    1    1    2    0    0  0.39394533890E+02 -0.82294022914E+01 -0.18414138574E+03  0.18849631305E+03  0.17770000000E+01 0.  1.
</event>
<event>
 6    1  0.6506903E-004  0.5016429E+03  0.7546771E-02  0.9396141E-01
        -11   -1    0    0    0    0  0.00000000000E+00  0.00000000000E+00  0.50000000000E+03  0.50000000000E+03  0.00000000000E+00 0.  1.
         11   -1    0    0    0    0 -0.00000000000E+00 -0.00000000000E+00 -0.50000000000E+03  0.50000000000E+03  0.00000000000E+00 0.  1.
        -11    1    1    2    0    0 -0.12342061238E+02 -0.36206222062E+01  0.49819112207E+03  0.49835713047E+03  0.00000000000E+00 0.  1.
         11    1    1    2    0    0 -0.11019899079E+02  0.32578589671E+01 -0.40994722123E+03  0.41010824914E+03  0.00000000000E+00 0.  1.
        -15    1    1    2    0    0  0.16428503253E+02 -0.22981157414E+01 -0.61233550617E+02  0.63465600961E+02  0.17770000000E+01 0.  1.
         15    1    1    2    0    0  0.69334570642E+01  0.26608789805E+01 -0.27010350218E+02  0.28069019429E+02  0.17770000000E+01 0. -1.
</event>
<event>
 6    1  0.6506903E-004  0.4889998E+03  0.7546771E-02  0.9424765E-01
        -11   -1    0    0    0    0  0.00000000000E+00  0.00000000000E+00  0.50000000000E+03  0.50000000000E+03  0.00000000000E+00 0.  1.
         11   -1    0    0    0    0 -0.00000000000E+00 -0.00000000000E+00 -0.50000000000E+03  0.50000000000E+03  0.00000000000E+00 0.  1.
        -11    1    1    2    0    0 -0.73348811966E+01 -0.33196694826E+02  0.49130657461E+03  0.49248144258E+03  0.00000000000E+00 0.  1.
         11    1    1    2    0    0 -0.33284100655E+01 -0.19788717062E+02 -0.92666007930E+01  0.22102975519E+02  0.00000000000E+00 0.  1.
        -15    1    1    2    0    0  0.29400616804E+01  0.42914635037E+02 -0.40903083044E+03  0.41129027200E+03  0.17770000000E+01 0.  1.
         15    1    1    2    0    0  0.77232295818E+01  0.10070776851E+02 -0.73009143376E+02  0.74125309895E+02  0.17770000000E+01 0. -1.
</event>
<event>
 6    1  0.6506903E-004  0.5000759E+03  0.7546771E-02  0.9399640E-01
        -11   -1    0    0    0    0  0.00000000000E+00  0.00000000000E+00  0.50000000000E+03  0.50000000000E+03  0.00000000000E+00 0. -1.
         11   -1    0    0    0    0 -0.00000000000E+00 -0.00000000000E+00 -0.50000000000E+03  0.50000000000E+03  0.00000000000E+00 0.  1.
        -11    1    1    2    0    0  0.30343689010E+01 -0.73533160446E+01  0.49986082191E+03  0.49992411418E+03  0.00000000000E+00 0. -1.
         11    1    1    2    0    0 -0.61031617981E+01  0.44444217840E+01 -0.25409024520E+03  0.25420238822E+03  0.00000000000E+00 0.  1.
        -15    1    1    2    0    0  0.14005861170E-01  0.19313293936E+01 -0.16371496130E+03  0.16373599639E+03  0.17770000000E+01 0.  1.
         15    1    1    2    0    0  0.30547870360E+01  0.97756486697E+00 -0.82055615412E+02  0.82137501219E+02  0.17770000000E+01 0.  1.
</event>
<event>
 6    1  0.6506903E-004  0.5001632E+03  0.7546771E-02  0.9399445E-01
        -11   -1    0    0    0    0  0.00000000000E+00  0.00000000000E+00  0.50000000000E+03  0.50000000000E+03  0.00000000000E+00 0.  1.
         11   -1    0    0    0    0 -0.00000000000E+00 -0.00000000000E+00 -0.50000000000E+03  0.50000000000E+03  0.00000000000E+00 0. -1.
        -11    1    1    2    0    0 -0.24437674895E+01  0.41669702675E+01  0.31677482334E+03  0.31681165437E+03  0.00000000000E+00 0.  1.
         11    1    1    2    0    0 -0.76705615224E+01 -0.50747799081E+01 -0.49975221986E+03  0.49983684554E+03  0.00000000000E+00 0. -1.
        -15    1    1    2    0    0  0.22761321214E+01  0.61904717030E+00  0.25797562815E+02  0.25966054244E+02  0.17770000000E+01 0. -1.
         15    1    1    2    0    0  0.78381968906E+01  0.28876247029E+00  0.15717983370E+03  0.15738544585E+03  0.17770000000E+01 0.  1.
</event>
<event>
 6    1  0.6506903E-004  0.4905551E+03  0.7546771E-02  0.9421195E-01
        -11   -1    0    0    0    0  0.00000000000E+00  0.00000000000E+00  0.50000000000E+03  0.50000000000E+03  0.00000000000E+00 0.  1.
         11   -1    0    0    0    0 -0.00000000000E+00 -0.00000000000E+00 -0.50000000000E+03  0.50000000000E+03  0.00000000000E+00 0. -1.
        -11    1    1    2    0    0  0.13050660668E+01 -0.78285165583E+01  0.49114450384E+03  0.49120862423E+03  0.00000000000E+00 0.  1.
         11    1    1    2    0    0 -0.50034747463E+01  0.12302243092E+02 -0.48973970977E+03  0.48991975186E+03  0.00000000000E+00 0. -1.
        -15    1    1    2    0    0  0.31589793457E+01 -0.48449667289E+01 -0.91104406793E+01  0.10936668207E+02  0.17770000000E+01 0.  1.
         15    1    1    2    0    0  0.53942933374E+00  0.37124019517E+00  0.77056466061E+01  0.79349556966E+01  0.17770000000E+01 0. -1.
</event>
<event>
 6    1  0.6506903E-004  0.5038420E+03  0.7546771E-02  0.9391254E-01
        -11   -1    0    0    0    0  0.00000000000E+00  0.00000000000E+00  0.50000000000E+03  0.50000000000E+03  0.00000000000E+00 0. -1.
         11   -1    0    0    0    0 -0.00000000000E+00 -0.00000000000E+00 -0.50000000000E+03  0.50000000000E+03  0.00000000000E+00 0. -1.
        -11    1    1    2    0    0  0.32019793862E+01 -0.10618395662E+02  0.42112003187E+03  0.42126604923E+03  0.00000000000E+00 0. -1.
         11    1    1    2    0    0  0.24452519935E+02  0.20534128897E+02 -0.49512943859E+03  0.49615797599E+03  0.00000000000E+00 0. -1.
        -15    1    1    2    0    0 -0.31360435041E+01  0.46739437212E+01  0.26332339321E+02  0.26985743308E+02  0.17770000000E+01 0. -1.
         15    1    1    2    0    0 -0.24518455817E+02 -0.14589676956E+02  0.47677067404E+02  0.55590231468E+02  0.17770000000E+01 0. -1.
</event>
<event>
 6    1  0.6506903E-004  0.5024966E+03  0.7546771E-02  0.9394241E-01
        -11   -1    0    0    0    0  0.00000000000E+00  0.00000000000E+00  0.50000000000E+03  0.50000000000E+03  0.00000000000E+00 0. -1.
         11   -1    0    0    0    0 -0.00000000000E+00 -0.00000000000E+00 -0.50000000000E+03  0.50000000000E+03  0.00000000000E+00 0.  1.
        -11    1    1    2    0    0  0.94840011749E+01  0.91746172464E+00  0.49741212781E+03  0.49750337979E+03  0.00000000000E+00 0. -1.
         11    1    1    2    0    0 -0.51935306569E+01 -0.12333708277E+02 -0.47740052774E+03  0.47758806205E+03  0.00000000000E+00 0.  1.
        -15    1    1    2    0    0 -0.18288879596E+01  0.27586835732E+01 -0.11413626371E+01  0.39262709910E+01  0.17770000000E+01 0. -1.
         15    1    1    2    0    0 -0.24615825584E+01  0.86575629795E+01 -0.18870237424E+02  0.20982287170E+02  0.17770000000E+01 0.  1.
</event>
<event>
 6    1  0.6506903E-004  0.5004539E+03  0.7546771E-02  0.9398795E-01
        -11   -1    0    0    0    0  0.00000000000E+00  0.00000000000E+00  0.50000000000E+03  0.50000000000E+03  0.00000000000E+00 0.  1.
         11   -1    0    0    0    0 -0.00000000000E+00 -0.00000000000E+00 -0.50000000000E+03  0.50000000000E+03  0.00000000000E+00 0. -1.
        -11    1    1    2    0    0 -0.11307479743E+01  0.18191714046E+01  0.15171487522E+03  0.15172999485E+03  0.00000000000E+00 0.  1.
         11    1    1    2    0    0  0.37347427391E+02 -0.23553408814E+02 -0.49759093978E+03  0.49954613076E+03  0.00000000000E+00 0. -1.
        -15    1    1    2    0    0 -0.18179296256E+02  0.15994000383E+02  0.23257210286E+03  0.23383591601E+03  0.17770000000E+01 0.  1.
         15    1    1    2    0    0 -0.18037383161E+02  0.57402370269E+01  0.11330396171E+03  0.11488795838E+03  0.17770000000E+01 0. -1.
</event>
<event>
 6    1  0.6506903E-004  0.5078715E+03  0.7546771E-02  0.9382367E-01
        -11   -1    0    0    0    0  0.00000000000E+00  0.00000000000E+00  0.50000000000E+03  0.50000000000E+03  0.00000000000E+00 0.  1.
         11   -1    0    0    0    0 -0.00000000000E+00 -0.00000000000E+00 -0.50000000000E+03  0.50000000000E+03  0.00000000000E+00 0. -1.
        -11    1    1    2    0    0 -0.10606021463E+02 -0.37627203909E+01  0.49199978789E+03  0.49212847615E+03  0.00000000000E+00 0.  1.
         11    1    1    2    0    0 -0.85334750623E+01  0.18432581429E+02 -0.47678640567E+03  0.47721887733E+03  0.00000000000E+00 0. -1.
        -15    1    1    2    0    0  0.11020021045E+02 -0.11258258604E+02 -0.41261432353E+01  0.16382064510E+02  0.17770000000E+01 0.  1.
         15    1    1    2    0    0  0.81194754801E+01 -0.34116024345E+01 -0.11087238989E+02  0.14270582001E+02  0.17770000000E+01 0. -1.
</event>
<event>
 6    1  0.6506903E-004  0.5006522E+03  0.7546771E-02  0.9398351E-01
        -11   -1    0    0    0    0  0.00000000000E+00  0.00000000000E+00  0.50000000000E+03  0.50000000000E+03  0.00000000000E+00 0. -1.
         11   -1    0    0    0    0 -0.00000000000E+00 -0.00000000000E+00 -0.50000000000E+03  0.50000000000E+03  0.00000000000E+00 0. -1.
        -11    1    1    2    0    0 -0.62778738783E+01  0.62036742779E+01  0.28502268442E+03  0.28515930269E+03  0.00000000000E+00 0. -1.
         11    1    1    2    0    0 -0.89083749550E+01  0.68640962109E+01 -0.49922109855E+03  0.49934775478E+03  0.00000000000E+00 0. -1.
        -15    1    1    2    0    0  0.14979667733E+02 -0.68832257606E+01  0.17323341203E+03  0.17402511891E+03  0.17770000000E+01 0. -1.
         15    1    1    2    0    0  0.20658109984E+00 -0.61845447281E+01  0.40965002107E+02  0.41467823621E+02  0.17770000000E+01 0.  1.
</event>
<event>
 6    1  0.6506903E-004  0.5019661E+03  0.7546771E-02  0.9395421E-01
        -11   -1    0    0    0    0  0.00000000000E+00  0.00000000000E+00  0.50000000000E+03  0.50000000000E+03  0.00000000000E+00 0.  1.
         11   -1    0    0    0    0 -0.00000000000E+00 -0.00000000000E+00 -0.50000000000E+03  0.50000000000E+03  0.00000000000E+00 0.  1.
        -11    1    1    2    0    0  0.49949635604E+01  0.58367031202E+01  0.49797468706E+03  0.49803394033E+03  0.00000000000E+00 0.  1.
         11    1    1    2    0    0  0.13976069814E+02 -0.22930730313E+02 -0.29412323988E+03  0.29534662544E+03  0.00000000000E+00 0.  1.
        -15    1    1    2    0    0 -0.25050066187E+01  0.15590975451E+02 -0.72602198226E+02  0.74320861741E+02  0.17770000000E+01 0. -1.
         15    1    1    2    0    0 -0.16466026756E+02  0.15030517415E+01 -0.13124924896E+03  0.13229857249E+03  0.17770000000E+01 0.  1.
</event>
<event>
 6    1  0.6506903E-004  0.5002196E+03  0.7546771E-02  0.9399319E-01
        -11   -1    0    0    0    0  0.00000000000E+00  0.00000000000E+00  0.50000000000E+03  0.50000000000E+03  0.00000000000E+00 0. -1.
         11   -1    0    0    0    0 -0.00000000000E+00 -0.00000000000E+00 -0.50000000000E+03  0.50000000000E+03  0.00000000000E+00 0.  1.
        -11    1    1    2    0    0  0.60614306266E+01 -0.10135492911E+02  0.49964088065E+03  0.49978043056E+03  0.00000000000E+00 0. -1.
         11    1    1    2    0    0 -0.42729563091E+01  0.10097753853E+02 -0.17146199966E+03  0.17181222342E+03  0.00000000000E+00 0.  1.
        -15    1    1    2    0    0  0.20059096328E+01  0.45928907564E+01 -0.97008413209E+02  0.97154044081E+02  0.17770000000E+01 0. -1.
         15    1    1    2    0    0 -0.37943839502E+01 -0.45551516992E+01 -0.23117046778E+03  0.23125330194E+03  0.17770000000E+01 0.  1.
</event>
<event>
 6    1  0.6506903E-004  0.4884059E+03  0.7546771E-02  0.9426133E-01
        -11   -1    0    0    0    0  0.00000000000E+00  0.00000000000E+00  0.50000000000E+03  0.50000000000E+03  0.00000000000E+00 0.  1.
         11   -1    0    0    0    0 -0.00000000000E+00 -0.00000000000E+00 -0.50000000000E+03  0.50000000000E+03  0.00000000000E+00 0.  1.
        -11    1    1    2    0    0  0.75480998627E+00  0.84972196359E+01  0.48346954826E+03  0.48354480307E+03  0.00000000000E+00 0.  1.
         11    1    1    2    0    0  0.32817031433E+01  0.79382763860E+01 -0.49338911673E+03  0.49346388552E+03  0.00000000000E+00 0.  1.
        -15    1    1    2    0    0  0.16079237447E+01 -0.13660061025E+02  0.47554570794E+01  0.14661336467E+02  0.17770000000E+01 0. -1.
         15    1    1    2    0    0 -0.56444368743E+01 -0.27754349971E+01  0.51641113866E+01  0.83299749378E+01  0.17770000000E+01 0.  1.
</event>
<event>
 6    1  0.6506903E-004  0.4760538E+03  0.7546771E-02  0.9455045E-01
        -11   -1    0    0    0    0  0.00000000000E+00  0.00000000000E+00  0.50000000000E+03  0.50000000000E+03  0.00000000000E+00 0. -1.
         11   -1    0    0    0    0 -0.00000000000E+00 -0.00000000000E+00 -0.50000000000E+03  0.50000000000E+03  0.00000000000E+00 0.  1.
        -11    1    1    2    0    0  0.18109063360E+02 -0.98715166380E+00  0.48586484136E+03  0.48620320516E+03  0.00000000000E+00 0. -1.
         11    1    1    2    0    0  0.91516594197E+01  0.28253229071E+02 -0.46594737306E+03  0.46689287024E+03  0.00000000000E+00 0.  1.
        -15    1    1    2    0    0 -0.15003334281E+02 -0.24716595865E+02 -0.18023540927E+02  0.34117677343E+02  0.17770000000E+01 0. -1.
         15    1    1    2    0    0 -0.12257388499E+02 -0.25494815416E+01 -0.18939273703E+01  0.12786247254E+02  0.17770000000E+01 0.  1.
</event>
<event>
 6    1  0.6506903E-004  0.5001835E+03  0.7546771E-02  0.9399399E-01
        -11   -1    0    0    0    0  0.00000000000E+00  0.00000000000E+00  0.50000000000E+03  0.50000000000E+03  0.00000000000E+00 0. -1.
         11   -1    0    0    0    0 -0.00000000000E+00 -0.00000000000E+00 -0.50000000000E+03  0.50000000000E+03  0.00000000000E+00 0.  1.
        -11    1    1    2    0    0  0.82065744024E+01  0.40390547499E+02  0.49811418451E+03  0.49981645131E+03  0.00000000000E+00 0. -1.
         11    1    1    2    0    0 -0.91418059371E+01 -0.31013446223E+02 -0.42829653548E+03  0.42951522530E+03  0.00000000000E+00 0.  1.
        -15    1    1    2    0    0 -0.14160834086E+01 -0.21912460892E+01 -0.21462604945E+02  0.21693501139E+02  0.17770000000E+01 0.  1.
         15    1    1    2    0    0  0.23513149433E+01 -0.71858551866E+01 -0.48355044085E+02  0.48974822248E+02  0.17770000000E+01 0. -1.
</event>
<event>
 6    1  0.6506903E-004  0.5005341E+03  0.7546771E-02  0.9398615E-01
        -11   -1    0    0    0    0  0.00000000000E+00  0.00000000000E+00  0.50000000000E+03  0.50000000000E+03  0.00000000000E+00 0.  1.
         11   -1    0    0    0    0 -0.00000000000E+00 -0.00000000000E+00 -0.50000000000E+03  0.50000000000E+03  0.00000000000E+00 0.  1.
        -11    1    1    2    0    0  0.32180632651E+01 -0.68981257071E+01  0.49940790219E+03  0.49946590759E+03  0.00000000000E+00 0.  1.
         11    1    1    2    0    0  0.29680612590E+01  0.10632202178E+02 -0.37757765743E+03  0.37773898462E+03  0.00000000000E+00 0.  1.
        -15    1    1    2    0    0 -0.60015683838E+00  0.20621684919E+01 -0.54337125437E+01  0.61070195781E+01  0.17770000000E+01 0.  1.
         15    1    1    2    0    0 -0.55859676857E+01 -0.57962449630E+01 -0.11639653221E+03  0.11668808821E+03  0.17770000000E+01 0. -1.
</event>
<event>
 6    1  0.6506903E-004  0.5001182E+03  0.7546771E-02  0.9399545E-01
        -11   -1    0    0    0    0  0.00000000000E+00  0.00000000000E+00  0.50000000000E+03  0.50000000000E+03  0.00000000000E+00 0.  1.
         11   -1    0    0    0    0 -0.00000000000E+00 -0.00000000000E+00 -0.50000000000E+03  0.50000000000E+03  0.00000000000E+00 0.  1.
        -11    1    1    2    0    0 -0.13657253903E+01 -0.15235106074E+01  0.77020011358E+02  0.77047183206E+02  0.00000000000E+00 0.  1.
         11    1    1    2    0    0  0.83146579375E+01  0.10126853621E+02 -0.49971002780E+03  0.49988178461E+03  0.00000000000E+00 0.  1.
        -15    1    1    2    0    0  0.17415762664E+01 -0.52571296415E+01  0.28295814260E+03  0.28301791232E+03  0.17770000000E+01 0.  1.
         15    1    1    2    0    0 -0.86905088135E+01 -0.33462133716E+01  0.13973187384E+03  0.14005311987E+03  0.17770000000E+01 0. -1.
</event>
<event>
 6    1  0.6506903E-004  0.4373238E+03  0.7546771E-02  0.9552126E-01
        -11   -1    0    0    0    0  0.00000000000E+00  0.00000000000E+00  0.50000000000E+03  0.50000000000E+03  0.00000000000E+00 0. -1.
         11   -1    0    0    0    0 -0.00000000000E+00 -0.00000000000E+00 -0.50000000000E+03  0.50000000000E+03  0.00000000000E+00 0. -1.
        -11    1    1    2    0    0  0.14636931667E+02 -0.10660914677E+02  0.46723437779E+03  0.46758513520E+03  0.00000000000E+00 0. -1.
         11    1    1    2    0    0 -0.17992401492E+02 -0.70752525630E+02 -0.40644616778E+03  0.41295052209E+03  0.00000000000E+00 0. -1.
        -15    1    1    2    0    0  0.19326330750E+02  0.14501037806E+02  0.44597543546E+01  0.24634006893E+02  0.17770000000E+01 0.  1.
         15    1    1    2    0    0 -0.15970860925E+02  0.66912402501E+02 -0.65247964369E+02  0.94830335813E+02  0.17770000000E+01 0. -1.
</event>
<event>
 6    1  0.6506903E-004  0.5021405E+03  0.7546771E-02  0.9395033E-01
        -11   -1    0    0    0    0  0.00000000000E+00  0.00000000000E+00  0.50000000000E+03  0.50000000000E+03  0.00000000000E+00 0.  1.
         11   -1    0    0    0    0 -0.00000000000E+00 -0.00000000000E+00 -0.50000000000E+03  0.50000000000E+03  0.00000000000E+00 0.  1.
        -11    1    1    2    0    0  0.10637741677E+01 -0.71667138917E+01  0.49780680748E+03  0.49785952937E+03  0.00000000000E+00 0.  1.
         11    1    1    2    0    0  0.23470051831E+01  0.84406884075E+01 -0.47434602271E+03  0.47442692052E+03  0.00000000000E+00 0.  1.
        -15    1    1    2    0    0  0.32602217449E-01 -0.73144155467E+01 -0.13132686864E+02  0.15136939286E+02  0.17770000000E+01 0. -1.
         15    1    1    2    0    0 -0.34433815683E+01  0.60404410310E+01 -0.10328097906E+02  0.12576610824E+02  0.17770000000E+01 0.  1.
</event>
<event>
 6    1  0.6506903E-004  0.5010753E+03  0.7546771E-02  0.9397407E-01
        -11   -1    0    0    0    0  0.00000000000E+00  0.00000000000E+00  0.50000000000E+03  0.50000000000E+03  0.00000000000E+00 0.  1.
         11   -1    0    0    0    0 -0.00000000000E+00 -0.00000000000E+00 -0.50000000000E+03  0.50000000000E+03  0.00000000000E+00 0.  1.
        -11    1    1    2    0    0  0.74203085273E+01 -0.42093196947E+01  0.47311009196E+03  0.47318700158E+03  0.00000000000E+00 0.  1.
         11    1    1    2    0    0 -0.33513622497E+01  0.86867703880E+01 -0.49883782657E+03  0.49892471258E+03  0.00000000000E+00 0.  1.
        -15    1    1    2    0    0  0.93792903658E+00 -0.50140812995E+01  0.13814442562E+02  0.14832979284E+02  0.17770000000E+01 0. -1.
         15    1    1    2    0    0 -0.50068753141E+01  0.53663060618E+00  0.11913292047E+02  0.13055306554E+02  0.17770000000E+01 0.  1.
</event>
<event>
 6    1  0.6506903E-004  0.5060597E+03  0.7546771E-02  0.9386352E-01
        -11   -1    0    0    0    0  0.00000000000E+00  0.00000000000E+00  0.50000000000E+03  0.50000000000E+03  0.00000000000E+00 0. -1.
         11   -1    0    0    0    0 -0.00000000000E+00 -0.00000000000E+00 -0.50000000000E+03  0.50000000000E+03  0.00000000000E+00 0. -1.
        -11    1    1    2    0    0  0.90491495530E+01 -0.10000977121E+01  0.47179645170E+03  0.47188428575E+03  0.00000000000E+00 0. -1.
         11    1    1    2    0    0  0.12881388042E+02  0.10538421497E+02 -0.49365987306E+03  0.49394033927E+03  0.00000000000E+00 0. -1.
        -15    1    1    2    0    0 -0.22416073909E+01  0.18598546493E+01  0.22683603936E+01  0.40972003718E+01  0.17770000000E+01 0.  1.
         15    1    1    2    0    0 -0.19688930204E+02 -0.11398178434E+02  0.19595060973E+02  0.30078174608E+02  0.17770000000E+01 0. -1.
</event>
<event>
 6    1  0.6506903E-004  0.5052643E+03  0.7546771E-02  0.9388107E-01
        -11   -1    0    0    0    0  0.00000000000E+00  0.00000000000E+00  0.50000000000E+03  0.50000000000E+03  0.00000000000E+00 0. -1.
         11   -1    0    0    0    0 -0.00000000000E+00 -0.00000000000E+00 -0.50000000000E+03  0.50000000000E+03  0.00000000000E+00 0.  1.
        -11    1    1    2    0    0 -0.46063986321E+01 -0.46039759525E+01  0.48067573162E+03  0.48071985030E+03  0.00000000000E+00 0. -1.
         11    1    1    2    0    0 -0.52009582396E+01  0.15278804883E+02 -0.49447239523E+03  0.49473572894E+03  0.00000000000E+00 0.  1.
        -15    1    1    2    0    0  0.74468680368E+01  0.12819263550E+01  0.71269392637E+01  0.10538034494E+02  0.17770000000E+01 0.  1.
         15    1    1    2    0    0  0.23604888349E+01 -0.11956755285E+02  0.66697243409E+01  0.14006386267E+02  0.17770000000E+01 0. -1.
</event>
<event>
 6    1  0.6506903E-004  0.5026397E+03  0.7546771E-02  0.9393922E-01
        -11   -1    0    0    0    0  0.00000000000E+00  0.00000000000E+00  0.50000000000E+03  0.50000000000E+03  0.00000000000E+00 0.  1.
         11   -1    0    0    0    0 -0.00000000000E+00 -0.00000000000E+00 -0.50000000000E+03  0.50000000000E+03  0.00000000000E+00 0.  1.
        -11    1    1    2    0    0  0.37029177482E+02  0.13810567972E+02  0.49578760271E+03  0.49736027060E+03  0.00000000000E+00 0.  1.
         11    1    1    2    0    0 -0.17502350789E+02  0.13218723306E+02 -0.62069038762E+02  0.65830331169E+02  0.00000000000E+00 0.  1.
        -15    1    1    2    0    0 -0.21506273715E+01  0.80792885685E+01 -0.30089414027E+02  0.31279876396E+02  0.17770000000E+01 0. -1.
         15    1    1    2    0    0 -0.17376199322E+02 -0.35108579846E+02 -0.40362914992E+03  0.40552952183E+03  0.17770000000E+01 0.  1.
</event>
<event>
 6    1  0.6506903E-004  0.5000897E+03  0.7546771E-02  0.9399609E-01
        -11   -1    0    0    0    0  0.00000000000E+00  0.00000000000E+00  0.50000000000E+03  0.50000000000E+03  0.00000000000E+00 0. -1.
         11   -1    0    0    0    0 -0.00000000000E+00 -0.00000000000E+00 -0.50000000000E+03  0.50000000000E+03  0.00000000000E+00 0.  1.
        -11    1    1    2    0    0  0.62535321156E+01 -0.97697057857E+01  0.49977570404E+03  0.49991030012E+03  0.00000000000E+00 0. -1.
         11    1    1    2    0    0 -0.40636259789E+01  0.10099547651E+02 -0.27261813634E+03  0.27283541226E+03  0.00000000000E+00 0.  1.
        -15    1    1    2    0    0 -0.25104313058E+01  0.16138773814E+01 -0.16965291054E+03  0.16968846351E+03  0.17770000000E+01 0.  1.
         15    1    1    2    0    0  0.32052516913E+00 -0.19437192470E+01 -0.57504657160E+02  0.57565824106E+02  0.17770000000E+01 0. -1.
</event>
<event>
 6    1  0.6506903E-004  0.5046070E+03  0.7546771E-02  0.9389560E-01
        -11   -1    0    0    0    0  0.00000000000E+00  0.00000000000E+00  0.50000000000E+03  0.50000000000E+03  0.00000000000E+00 0.  1.
         11   -1    0    0    0    0 -0.00000000000E+00 -0.00000000000E+00 -0.50000000000E+03  0.50000000000E+03  0.00000000000E+00 0.  1.
        -11    1    1    2    0    0 -0.12364264191E+02  0.36146002903E+01  0.49522548413E+03  0.49539299601E+03  0.00000000000E+00 0.  1.
         11    1    1    2    0    0  0.12888190581E+02 -0.24970620534E+02 -0.45180229400E+03  0.45267532538E+03  0.00000000000E+00 0.  1.
        -15    1    1    2    0    0 -0.61299568210E+01  0.12457343304E+02 -0.11009533923E+02  0.17808125646E+02  0.17770000000E+01 0.  1.
         15    1    1    2    0    0  0.56060304313E+01  0.88986769388E+01 -0.32413656211E+02  0.34123552958E+02  0.17770000000E+01 0. -1.
</event>
<event>
 6    1  0.6506903E-004  0.4829571E+03  0.7546771E-02  0.9438773E-01
        -11   -1    0    0    0    0  0.00000000000E+00  0.00000000000E+00  0.50000000000E+03  0.50000000000E+03  0.00000000000E+00 0.  1.
         11   -1    0    0    0    0 -0.00000000000E+00 -0.00000000000E+00 -0.50000000000E+03  0.50000000000E+03  0.00000000000E+00 0. -1.
        -11    1    1    2    0    0  0.24153909758E+01  0.11216751592E+02  0.48442401686E+03  0.48455988045E+03  0.00000000000E+00 0.  1.
         11    1    1    2    0    0 -0.28031067159E+02 -0.59072903220E+01 -0.48086253114E+03  0.48171507207E+03  0.00000000000E+00 0. -1.
        -15    1    1    2    0    0  0.26282588828E+02  0.15640061361E+01 -0.32393974395E+01  0.26587064815E+02  0.17770000000E+01 0.  1.
         15    1    1    2    0    0 -0.66691264462E+00 -0.68734674063E+01 -0.32208827235E+00  0.71379826643E+01  0.17770000000E+01 0. -1.
</event>
<event>
 6    1  0.6506903E-004  0.4882951E+03  0.7546771E-02  0.9426388E-01
        -11   -1    0    0    0    0  0.00000000000E+00  0.00000000000E+00  0.50000000000E+03  0.50000000000E+03  0.00000000000E+00 0.  1.
         11   -1    0    0    0    0 -0.00000000000E+00 -0.00000000000E+00 -0.50000000000E+03  0.50000000000E+03  0.00000000000E+00 0.  1.
        -11    1    1    2    0    0 -0.34315650059E+01 -0.91317643670E+01  0.48513166847E+03  0.48522973993E+03  0.00000000000E+00 0.  1.
         11    1    1    2    0    0  0.14750632845E+02 -0.14094044209E+00 -0.49126798748E+03  0.49148940635E+03  0.00000000000E+00 0.  1.
        -15    1    1    2    0    0 -0.87491479130E+01 -0.31987159169E+01  0.14353334151E+01  0.95915214503E+01  0.17770000000E+01 0.  1.
         15    1    1    2    0    0 -0.25699199264E+01  0.12471420726E+02  0.47009855989E+01  0.13689332268E+02  0.17770000000E+01 0. -1.
</event>
<event>
 6    1  0.6506903E-004  0.5007864E+03  0.7546771E-02  0.9398052E-01
        -11   -1    0    0    0    0  0.00000000000E+00  0.00000000000E+00  0.50000000000E+03  0.50000000000E+03  0.00000000000E+00 0. -1.
         11   -1    0    0    0    0 -0.00000000000E+00 -0.00000000000E+00 -0.50000000000E+03  0.50000000000E+03  0.00000000000E+00 0.  1.
        -11    1    1    2    0    0  0.49580477011E+01 -0.87219536951E+01  0.49911278708E+03  0.49921361053E+03  0.00000000000E+00 0. -1.
         11    1    1    2    0    0  0.61923262276E+01  0.16674097615E+02 -0.24698948670E+03  0.24762911173E+03  0.00000000000E+00 0.  1.
        -15    1    1    2    0    0 -0.12469568384E+02 -0.10672942401E+02 -0.13859744892E+03  0.13957726324E+03  0.17770000000E+01 0.  1.
         15    1    1    2    0    0  0.13191944553E+01  0.27207984813E+01 -0.11352585145E+03  0.11358001451E+03  0.17770000000E+01 0. -1.
</event>
<event>
 6    1  0.6506903E-004  0.4793381E+03  0.7546771E-02  0.9447267E-01
        -11   -1    0    0    0    0  0.00000000000E+00  0.00000000000E+00  0.50000000000E+03  0.50000000000E+03  0.00000000000E+00 0. -1.
         11   -1    0    0    0    0 -0.00000000000E+00 -0.00000000000E+00 -0.50000000000E+03  0.50000000000E+03  0.00000000000E+00 0.  1.
        -11    1    1    2    0    0  0.14121365370E+02 -0.10146251745E+01  0.47198907224E+03  0.47220136249E+03  0.00000000000E+00 0. -1.
         11    1    1    2    0    0 -0.29441091658E+01  0.23844016340E+02 -0.48632590657E+03  0.48691897919E+03  0.00000000000E+00 0.  1.
        -15    1    1    2    0    0 -0.74124606081E+01 -0.29471481024E+02  0.11606397871E+02  0.32578811620E+02  0.17770000000E+01 0. -1.
         15    1    1    2    0    0 -0.37647955959E+01  0.66420898588E+01  0.27304364605E+01  0.83008466939E+01  0.17770000000E+01 0.  1.
</event>
<event>
 6    1  0.6506903E-004  0.4914984E+03  0.7546771E-02  0.9419036E-01
        -11   -1    0    0    0    0  0.00000000000E+00  0.00000000000E+00  0.50000000000E+03  0.50000000000E+03  0.00000000000E+00 0. -1.
         11   -1    0    0    0    0 -0.00000000000E+00 -0.00000000000E+00 -0.50000000000E+03  0.50000000000E+03  0.00000000000E+00 0.  1.
        -11    1    1    2    0    0 -0.63547525470E+01 -0.19479821288E+01  0.49032418710E+03  0.49036923433E+03  0.00000000000E+00 0. -1.
         11    1    1    2    0    0  0.34902524348E+01 -0.11364598111E+02 -0.49258097302E+03  0.49272441683E+03  0.00000000000E+00 0.  1.
        -15    1    1    2    0    0  0.21765978396E+01  0.11703489716E+02 -0.17742739899E+01  0.12166142646E+02  0.17770000000E+01 0. -1.
         15    1    1    2    0    0  0.68790227247E+00  0.16090905243E+01  0.40310599079E+01  0.47402062015E+01  0.17770000000E+01 0.  1.
</event>
<event>
 6    1  0.6506903E-004  0.5008428E+03  0.7546771E-02  0.9397926E-01
        -11   -1    0    0    0    0  0.00000000000E+00  0.00000000000E+00  0.50000000000E+03  0.50000000000E+03  0.00000000000E+00 0. -1.
         11   -1    0    0    0    0 -0.00000000000E+00 -0.00000000000E+00 -0.50000000000E+03  0.50000000000E+03  0.00000000000E+00 0. -1.
        -11    1    1    2    0    0  0.77438921931E+01 -0.65918126041E+00  0.49909669960E+03  0.49915720764E+03  0.00000000000E+00 0. -1.
         11    1    1    2    0    0  0.91096341494E+01  0.63838077819E+01 -0.36689230815E+03  0.36706089987E+03  0.00000000000E+00 0. -1.
        -15    1    1    2    0    0 -0.16172992195E+02 -0.21483269048E+01 -0.10838688973E+03  0.10962233613E+03  0.17770000000E+01 0. -1.
         15    1    1    2    0    0 -0.68053414713E+00 -0.35762996167E+01 -0.23817501727E+02  0.24159556353E+02  0.17770000000E+01 0.  1.
</event>
<event>
 6    1  0.6506903E-004  0.5022743E+03  0.7546771E-02  0.9394735E-01
        -11   -1    0    0    0    0  0.00000000000E+00  0.00000000000E+00  0.50000000000E+03  0.50000000000E+03  0.00000000000E+00 0. -1.
         11   -1    0    0    0    0 -0.00000000000E+00 -0.00000000000E+00 -0.50000000000E+03  0.50000000000E+03  0.00000000000E+00 0.  1.
        -11    1    1    2    0    0  0.10621952515E+02 -0.29240995072E+01  0.49760374368E+03  0.49772568947E+03  0.00000000000E+00 0. -1.
         11    1    1    2    0    0  0.93523998102E+01 -0.10278799591E+02 -0.42053776174E+03  0.42076731117E+03  0.00000000000E+00 0.  1.
        -15    1    1    2    0    0 -0.13965245504E+02  0.60823775062E+01 -0.32414579093E+02  0.35859253546E+02  0.17770000000E+01 0.  1.
         15    1    1    2    0    0 -0.60091068217E+01  0.71205215915E+01 -0.44651402849E+02  0.45647745814E+02  0.17770000000E+01 0. -1.
</event>
<event>
 6    1  0.6506903E-004  0.5039562E+03  0.7546771E-02  0.9391001E-01
        -11   -1    0    0    0    0  0.00000000000E+00  0.00000000000E+00  0.50000000000E+03  0.50000000000E+03  0.00000000000E+00 0. -1.
         11   -1    0    0    0    0 -0.00000000000E+00 -0.00000000000E+00 -0.50000000000E+03  0.50000000000E+03  0.00000000000E+00 0. -1.
        -11    1    1    2    0    0  0.18952133930E+01 -0.10497362882E+02  0.49592910979E+03  0.49604381702E+03  0.00000000000E+00 0. -1.
         11    1    1    2    0    0 -0.55801619871E+00  0.68076439165E+01 -0.48954357163E+03  0.48959122124E+03  0.00000000000E+00 0. -1.
        -15    1    1    2    0    0  0.60498748269E+00 -0.13812872921E+01  0.27407499562E+01  0.35976942282E+01  0.17770000000E+01 0.  1.
         15    1    1    2    0    0 -0.19421846770E+01  0.50710062574E+01 -0.91262881212E+01  0.10767267511E+02  0.17770000000E+01 0. -1.
</event>
<event>
 6    1  0.6506903E-004  0.5042066E+03  0.7546771E-02  0.9390446E-01
        -11   -1    0    0    0    0  0.00000000000E+00  0.00000000000E+00  0.50000000000E+03  0.50000000000E+03  0.00000000000E+00 0.  1.
         11   -1    0    0    0    0 -0.00000000000E+00 -0.00000000000E+00 -0.50000000000E+03  0.50000000000E+03  0.00000000000E+00 0.  1.
        -11    1    1    2    0    0  0.27648203630E+01 -0.70738097325E+01  0.48093232855E+03  0.48099229481E+03  0.00000000000E+00 0.  1.
         11    1    1    2    0    0 -0.90513623830E+01 -0.54569480794E+01 -0.49568070440E+03  0.49579337043E+03  0.00000000000E+00 0.  1.
        -15    1    1    2    0    0 -0.80194388960E-01 -0.14845261691E+01  0.28763175489E+01  0.36933969092E+01  0.17770000000E+01 0. -1.
         15    1    1    2    0    0  0.63667364090E+01  0.14015283981E+02  0.11872058298E+02  0.19520937856E+02  0.17770000000E+01 0.  1.
</event>
<event>
 6    1  0.6506903E-004  0.5001581E+03  0.7546771E-02  0.9399456E-01
        -11   -1    0    0    0    0  0.00000000000E+00  0.00000000000E+00  0.50000000000E+03  0.50000000000E+03  0.00000000000E+00 0. -1.
         11   -1    0    0    0    0 -0.00000000000E+00 -0.00000000000E+00 -0.50000000000E+03  0.50000000000E+03  0.00000000000E+00 0.  1.
        -11    1    1    2    0    0  0.88769621756E+01  0.22797734140E+02  0.49924277899E+03  0.49984186450E+03  0.00000000000E+00 0. -1.
         11    1    1    2    0    0 -0.89286726360E+01 -0.21643471234E+02 -0.32350840533E+03  0.32435451186E+03  0.00000000000E+00 0.  1.
        -15    1    1    2    0    0  0.16225976012E+01 -0.36329746940E+00 -0.86045277603E+02  0.86079685959E+02  0.17770000000E+01 0. -1.
         15    1    1    2    0    0 -0.15708871408E+01 -0.79096543631E+00 -0.89689096052E+02  0.89723937678E+02  0.17770000000E+01 0.  1.
</event>
<event>
 6    1  0.6506903E-004  0.5019660E+03  0.7546771E-02  0.9395421E-01
        -11   -1    0    0    0    0  0.00000000000E+00  0.00000000000E+00  0.50000000000E+03  0.50000000000E+03  0.00000000000E+00 0.  1.
         11   -1    0    0    0    0 -0.00000000000E+00 -0.00000000000E+00 -0.50000000000E+03  0.50000000000E+03  0.00000000000E+00 0. -1.
        -11    1    1    2    0    0 -0.15839817008E+02 -0.14042605936E+01  0.49778008877E+03  0.49803402347E+03  0.00000000000E+00 0.  1.
         11    1    1    2    0    0  0.12030502324E+02 -0.91234765346E+01 -0.33110502604E+03  0.33144910481E+03  0.00000000000E+00 0. -1.
        -15    1    1    2    0    0  0.14224587100E+02  0.81015563519E+00 -0.31934507949E+02  0.35013793814E+02  0.17770000000E+01 0.  1.
         15    1    1    2    0    0 -0.10415272416E+02  0.97175814930E+01 -0.13474055479E+03  0.13550307791E+03  0.17770000000E+01 0. -1.
</event>
<event>
 6    1  0.6506903E-004  0.5040349E+03  0.7546771E-02  0.9390826E-01
        -11   -1    0    0    0    0  0.00000000000E+00  0.00000000000E+00  0.50000000000E+03  0.50000000000E+03  0.00000000000E+00 0.  1.
         11   -1    0    0    0    0 -0.00000000000E+00 -0.00000000000E+00 -0.50000000000E+03  0.50000000000E+03  0.00000000000E+00 0.  1.
        -11    1    1    2    0    0  0.16476983257E+01 -0.40813441224E+01  0.26685676004E+03  0.26689305473E+03  0.00000000000E+00 0.  1.
         11    1    1    2    0    0  0.68614473748E+02  0.39155542003E+02 -0.48963284915E+03  0.49596514943E+03  0.00000000000E+00 0.  1.
        -15    1    1    2    0    0 -0.58950146159E+02 -0.22709252185E+02  0.15703169181E+03  0.16927179277E+03  0.17770000000E+01 0.  1.
         15    1    1    2    0    0 -0.11312025915E+02 -0.12364945696E+02  0.65744397300E+02  0.67870003077E+02  0.17770000000E+01 0. -1.
</event>
<event>
 6    1  0.6506903E-004  0.5039467E+03  0.7546771E-02  0.9391022E-01
        -11   -1    0    0    0    0  0.00000000000E+00  0.00000000000E+00  0.50000000000E+03  0.50000000000E+03  0.00000000000E+00 0. -1.
         11   -1    0    0    0    0 -0.00000000000E+00 -0.00000000000E+00 -0.50000000000E+03  0.50000000000E+03  0.00000000000E+00 0.  1.
        -11    1    1    2    0    0  0.10806938983E+02 -0.11060867901E+02  0.38076081196E+03  0.38107470220E+03  0.00000000000E+00 0. -1.
         11    1    1    2    0    0 -0.25335158986E+02 -0.14455759404E+02 -0.49519492574E+03  0.49605327712E+03  0.00000000000E+00 0.  1.
        -15    1    1    2    0    0  0.21312071557E+02  0.20773097091E+02  0.52607716420E+02  0.60468632470E+02  0.17770000000E+01 0.  1.
         15    1    1    2    0    0 -0.67838515540E+01  0.47435302141E+01  0.61826397360E+02  0.62403388212E+02  0.17770000000E+01 0. -1.
</event>
<event>
 6    1  0.6506903E-004  0.4064258E+03  0.7546771E-02  0.9637603E-01
        -11   -1    0    0    0    0  0.00000000000E+00  0.00000000000E+00  0.50000000000E+03  0.50000000000E+03  0.00000000000E+00 0.  1.
         11   -1    0    0    0    0 -0.00000000000E+00 -0.00000000000E+00 -0.50000000000E+03  0.50000000000E+03  0.00000000000E+00 0. -1.
        -11    1    1    2    0    0 -0.24427134648E+02  0.18282178772E+02  0.42218154490E+03  0.42328262405E+03  0.00000000000E+00 0.  1.
         11    1    1    2    0    0 -0.87919404607E+02 -0.14700974861E+01 -0.38833507644E+03  0.39816593839E+03  0.00000000000E+00 0. -1.
        -15    1    1    2    0    0  0.12412546792E+03  0.83741766079E+01 -0.61939621309E+02  0.13898536986E+03  0.17770000000E+01 0. -1.
         15    1    1    2    0    0 -0.11778928662E+02 -0.25186257893E+02  0.28093152853E+02  0.39566067701E+02  0.17770000000E+01 0.  1.
</event>
<event>
 6    1  0.6506903E-004  0.5006744E+03  0.7546771E-02  0.9398302E-01
        -11   -1    0    0    0    0  0.00000000000E+00  0.00000000000E+00  0.50000000000E+03  0.50000000000E+03  0.00000000000E+00 0. -1.
         11   -1    0    0    0    0 -0.00000000000E+00 -0.00000000000E+00 -0.50000000000E+03  0.50000000000E+03  0.00000000000E+00 0. -1.
        -11    1    1    2    0    0  0.37901689961E+01  0.97171461117E+01  0.15783573734E+03  0.15817998701E+03  0.00000000000E+00 0. -1.
         11    1    1    2    0    0 -0.63728800401E+01  0.14026347284E+02 -0.49908790684E+03  0.49932563600E+03  0.00000000000E+00 0. -1.
        -15    1    1    2    0    0  0.37825477610E+01 -0.14727982259E+02  0.11041855511E+03  0.11147482303E+03  0.17770000000E+01 0. -1.
         15    1    1    2    0    0 -0.11998367169E+01 -0.90155111366E+01  0.23083361439E+03  0.23101955396E+03  0.17770000000E+01 0.  1.
</event>
<event>
 6    1  0.6506903E-004  0.5052117E+03  0.7546771E-02  0.9388223E-01
        -11   -1    0    0    0    0  0.00000000000E+00  0.00000000000E+00  0.50000000000E+03  0.50000000000E+03  0.00000000000E+00 0. -1.
         11   -1    0    0    0    0 -0.00000000000E+00 -0.00000000000E+00 -0.50000000000E+03  0.50000000000E+03  0.00000000000E+00 0.  1.
        -11    1    1    2    0    0  0.70355189280E+01  0.11721904588E+01  0.48605535018E+03  0.48610767942E+03  0.00000000000E+00 0. -1.
         11    1    1    2    0    0 -0.28892394791E+00  0.99567183034E+01 -0.49468806133E+03  0.49478833630E+03  0.00000000000E+00 0.  1.
        -15    1    1    2    0    0 -0.33533975963E+01 -0.55303884838E+01 -0.15354141973E+01  0.68808210250E+01  0.17770000000E+01 0. -1.
         15    1    1    2    0    0 -0.33931973838E+01 -0.55985202783E+01  0.10168125347E+02  0.12223163251E+02  0.17770000000E+01 0.  1.
</event>
<event>
 6    1  0.6506903E-004  0.5000474E+03  0.7546771E-02  0.9399704E-01
        -11   -1    0    0    0    0  0.00000000000E+00  0.00000000000E+00  0.50000000000E+03  0.50000000000E+03  0.00000000000E+00 0.  1.
         11   -1    0    0    0    0 -0.00000000000E+00 -0.00000000000E+00 -0.50000000000E+03  0.50000000000E+03  0.00000000000E+00 0.  1.
        -11    1    1    2    0    0  0.13792195518E+01  0.75750513051E+01  0.49989330934E+03  0.49995260213E+03  0.00000000000E+00 0.  1.
         11    1    1    2    0    0  0.18438397097E+00  0.12858911629E+01 -0.67742399051E+02  0.67754853278E+02  0.00000000000E+00 0.  1.
        -15    1    1    2    0    0 -0.29736463401E+01 -0.41477846280E+01 -0.27901149926E+03  0.27906382987E+03  0.17770000000E+01 0.  1.
         15    1    1    2    0    0  0.14100428173E+01 -0.47131578400E+01 -0.15313941103E+03  0.15322871473E+03  0.17770000000E+01 0. -1.
</event>
<event>
 6    1  0.6506903E-004  0.5000578E+03  0.7546771E-02  0.9399680E-01
        -11   -1    0    0    0    0  0.00000000000E+00  0.00000000000E+00  0.50000000000E+03  0.50000000000E+03  0.00000000000E+00 0.  1.
         11   -1    0    0    0    0 -0.00000000000E+00 -0.00000000000E+00 -0.50000000000E+03  0.50000000000E+03  0.00000000000E+00 0.  1.
        -11    1    1    2    0    0 -0.95097740205E+01  0.46156522340E+01  0.49983044863E+03  0.49994221409E+03  0.00000000000E+00 0.  1.
         11    1    1    2    0    0  0.30504954221E+01  0.25800814959E+01 -0.17333341514E+03  0.17337945423E+03  0.00000000000E+00 0.  1.
        -15    1    1    2    0    0  0.50700558349E+01 -0.45403382957E+01 -0.17512479496E+03  0.17526600263E+03  0.17770000000E+01 0.  1.
         15    1    1    2    0    0  0.13892227635E+01 -0.26553954342E+01 -0.15137223852E+03  0.15141232905E+03  0.17770000000E+01 0. -1.
</event>
<event>
 6    1  0.6506903E-004  0.5076951E+03  0.7546771E-02  0.9382754E-01
        -11   -1    0    0    0    0  0.00000000000E+00  0.00000000000E+00  0.50000000000E+03  0.50000000000E+03  0.00000000000E+00 0. -1.
         11   -1    0    0    0    0 -0.00000000000E+00 -0.00000000000E+00 -0.50000000000E+03  0.50000000000E+03  0.00000000000E+00 0.  1.
        -11    1    1    2    0    0  0.97288583511E+01 -0.82587996506E+00  0.49220804166E+03  0.49230487407E+03  0.00000000000E+00 0. -1.
         11    1    1    2    0    0  0.64157132592E+01 -0.12916967429E+02 -0.47757853122E+03  0.47779625669E+03  0.00000000000E+00 0.  1.
        -15    1    1    2    0    0 -0.15234649641E+02  0.78763006825E+01 -0.41663532370E+01  0.17738288824E+02  0.17770000000E+01 0.  1.
         15    1    1    2    0    0 -0.90992196963E+00  0.58665467115E+01 -0.10463157204E+02  0.12160580413E+02  0.17770000000E+01 0. -1.
</event>
<event>
 6    1  0.6506903E-004  0.4990743E+03  0.7546771E-02  0.9401884E-01
        -11   -1    0    0    0    0  0.00000000000E+00  0.00000000000E+00  0.50000000000E+03  0.50000000000E+03  0.00000000000E+00 0.  1.
         11   -1    0    0    0    0 -0.00000000000E+00 -0.00000000000E+00 -0.50000000000E+03  0.50000000000E+03  0.00000000000E+00 0. -1.
        -11    1    1    2    0    0 -0.17401755195E+02 -0.10425159119E+01  0.49911381257E+03  0.49941816729E+03  0.00000000000E+00 0.  1.
         11    1    1    2    0    0  0.16401164803E+01 -0.64600900717E+00 -0.83949240303E+00  0.19524490265E+01  0.00000000000E+00 0. -1.
        -15    1    1    2    0    0  0.69684219278E+00  0.23430706909E+01 -0.45317761115E+02  0.45418418850E+02  0.17770000000E+01 0.  1.
         15    1    1    2    0    0  0.15064796522E+02 -0.65454577185E+00 -0.45295655905E+03  0.45321096483E+03  0.17770000000E+01 0. -1.
</event>
<event>
 6    1  0.6506903E-004  0.5065230E+03  0.7546771E-02  0.9385331E-01
        -11   -1    0    0    0    0  0.00000000000E+00  0.00000000000E+00  0.50000000000E+03  0.50000000000E+03  0.00000000000E+00 0. -1.
         11   -1    0    0    0    0 -0.00000000000E+00 -0.00000000000E+00 -0.50000000000E+03  0.50000000000E+03  0.00000000000E+00 0.  1.
        -11    1    1    2    0    0  0.84960815338E+01 -0.71092692980E+01  0.47845152284E+03  0.47857975805E+03  0.00000000000E+00 0. -1.
         11    1    1    2    0    0  0.11056627361E+02  0.69060568651E+01 -0.49330474625E+03  0.49347696532E+03  0.00000000000E+00 0.  1.
        -15    1    1    2    0    0 -0.60602700691E+01 -0.43030150862E+01  0.50180675235E+00  0.76584823013E+01  0.17770000000E+01 0.  1.
         15    1    1    2    0    0 -0.13492438826E+02  0.45062275191E+01  0.14351416658E+02  0.20284794330E+02  0.17770000000E+01 0. -1.
</event>
<event>
 6    1  0.6506903E-004  0.4923152E+03  0.7546771E-02  0.9417171E-01
        -11   -1    0    0    0    0  0.00000000000E+00  0.00000000000E+00  0.50000000000E+03  0.50000000000E+03  0.00000000000E+00 0. -1.
         11   -1    0    0    0    0 -0.00000000000E+00 -0.00000000000E+00 -0.50000000000E+03  0.50000000000E+03  0.00000000000E+00 0. -1.
        -11    1    1    2    0    0 -0.10398625460E+02 -0.40424002818E+00  0.49364904450E+03  0.49375872038E+03  0.00000000000E+00 0. -1.
         11    1    1    2    0    0  0.90838596969E+00  0.79728658886E+01 -0.49088475313E+03  0.49095033620E+03  0.00000000000E+00 0. -1.
        -15    1    1    2    0    0  0.77329062935E+01 -0.86451407450E+01 -0.38666443765E+01  0.12354957142E+02  0.17770000000E+01 0.  1.
         15    1    1    2    0    0  0.17573331965E+01  0.10765148846E+01  0.11023530104E+01  0.29359862772E+01  0.17770000000E+01 0. -1.
</event>
<event>
 6    1  0.6506903E-004  0.5066435E+03  0.7546771E-02  0.9385066E-01
        -11   -1    0    0    0    0  0.00000000000E+00  0.00000000000E+00  0.50000000000E+03  0.50000000000E+03  0.00000000000E+00 0. -1.
         11   -1    0    0    0    0 -0.00000000000E+00 -0.00000000000E+00 -0.50000000000E+03  0.50000000000E+03  0.00000000000E+00 0.  1.
        -11    1    1    2    0    0 -0.41313496184E+01 -0.81919548511E+01  0.48274046369E+03  0.48282764157E+03  0.00000000000E+00 0. -1.
         11    1    1    2    0    0  0.10170284656E+02  0.10947977011E+01 -0.49325041963E+03  0.49335647329E+03  0.00000000000E+00 0.  1.
        -15    1    1    2    0    0  0.38280025203E+01  0.69087751365E+01  0.11137251482E+02  0.13768837161E+02  0.17770000000E+01 0. -1.
         15    1    1    2    0    0 -0.98669375579E+01  0.18838201342E+00 -0.62729555012E+00  0.10047047987E+02  0.17770000000E+01 0. -1.
</event>
<event>
 6    1  0.6506903E-004  0.5028242E+03  0.7546771E-02  0.9393513E-01
        -11   -1    0    0    0    0  0.00000000000E+00  0.00000000000E+00  0.50000000000E+03  0.50000000000E+03  0.00000000000E+00 0. -1.
         11   -1    0    0    0    0 -0.00000000000E+00 -0.00000000000E+00 -0.50000000000E+03  0.50000000000E+03  0.00000000000E+00 0.  1.
        -11    1    1    2    0    0  0.42199619427E+01  0.55906131183E+01  0.48823143842E+03  0.48828168150E+03  0.00000000000E+00 0. -1.
         11    1    1    2    0    0 -0.11946949319E+02  0.11951088129E+01 -0.49703083453E+03  0.49717583244E+03  0.00000000000E+00 0.  1.
        -15    1    1    2    0    0  0.50998542100E+01 -0.45528846829E+01  0.32588491082E+01  0.77791450949E+01  0.17770000000E+01 0. -1.
         15    1    1    2    0    0  0.26271331668E+01 -0.22328372484E+01  0.55405470091E+01  0.67633409654E+01  0.17770000000E+01 0.  1.
</event>
<event>
 6    1  0.6506903E-004  0.4720911E+03  0.7546771E-02  0.9464519E-01
        -11   -1    0    0    0    0  0.00000000000E+00  0.00000000000E+00  0.50000000000E+03  0.50000000000E+03  0.00000000000E+00 0.  1.
         11   -1    0    0    0    0 -0.00000000000E+00 -0.00000000000E+00 -0.50000000000E+03  0.50000000000E+03  0.00000000000E+00 0.  1.
        -11    1    1    2    0    0 -0.84994745462E+01 -0.14963989760E+01  0.48635522836E+03  0.48643179216E+03  0.00000000000E+00 0.  1.
         11    1    1    2    0    0 -0.35499820476E+02  0.83060963045E+01 -0.45778174185E+03  0.45923126163E+03  0.00000000000E+00 0.  1.
        -15    1    1    2    0    0  0.29324536962E+01 -0.14721087385E+01 -0.61934470100E+01  0.72306917846E+01  0.17770000000E+01 0.  1.
         15    1    1    2    0    0  0.41066841326E+02 -0.53375885900E+01 -0.22380039496E+02  0.47106254418E+02  0.17770000000E+01 0. -1.
</event>
<event>
 6    1  0.6506903E-004  0.5003509E+03  0.7546771E-02  0.9399025E-01
        -11   -1    0    0    0    0  0.00000000000E+00  0.00000000000E+00  0.50000000000E+03  0.50000000000E+03  0.00000000000E+00 0. -1.
         11   -1    0    0    0    0 -0.00000000000E+00 -0.00000000000E+00 -0.50000000000E+03  0.50000000000E+03  0.00000000000E+00 0. -1.
        -11    1    1    2    0    0  0.11053290835E+02 -0.29544781019E+01  0.49951812910E+03  0.49964914238E+03  0.00000000000E+00 0. -1.
         11    1    1    2    0    0 -0.31864872891E+01  0.20979676419E+01 -0.11070123819E+02  0.11709090949E+02  0.00000000000E+00 0. -1.
        -15    1    1    2    0    0 -0.96876730420E+01 -0.12304056297E+01 -0.41687935184E+03  0.41699750194E+03  0.17770000000E+01 0. -1.
         15    1    1    2    0    0  0.18208694963E+01  0.20869160897E+01 -0.71568653439E+02  0.71644264729E+02  0.17770000000E+01 0.  1.
</event>
<event>
 6    1  0.6506903E-004  0.5025937E+03  0.7546771E-02  0.9394025E-01
        -11   -1    0    0    0    0  0.00000000000E+00  0.00000000000E+00  0.50000000000E+03  0.50000000000E+03  0.00000000000E+00 0.  1.
         11   -1    0    0    0    0 -0.00000000000E+00 -0.00000000000E+00 -0.50000000000E+03  0.50000000000E+03  0.00000000000E+00 0. -1.
        -11    1    1    2    0    0  0.93978851254E+02 -0.21853208676E+02  0.35632977360E+03  0.36916188152E+03  0.00000000000E+00 0.  1.
         11    1    1    2    0    0 -0.89151755580E+02  0.13674060865E+02 -0.48916049610E+03  0.49740627902E+03  0.00000000000E+00 0. -1.
        -15    1    1    2    0    0  0.15067845721E+01  0.16951313481E+01  0.51028441079E+02  0.51109719212E+02  0.17770000000E+01 0. -1.
         15    1    1    2    0    0 -0.63338802468E+01  0.64840164638E+01  0.81802281420E+02  0.82322120253E+02  0.17770000000E+01 0.  1.
</event>
<event>
 6    1  0.6506903E-004  0.5082882E+03  0.7546771E-02  0.9381453E-01
        -11   -1    0    0    0    0  0.00000000000E+00  0.00000000000E+00  0.50000000000E+03  0.50000000000E+03  0.00000000000E+00 0. -1.
         11   -1    0    0    0    0 -0.00000000000E+00 -0.00000000000E+00 -0.50000000000E+03  0.50000000000E+03  0.00000000000E+00 0. -1.
        -11    1    1    2    0    0 -0.59758294527E+01 -0.48029627864E+01  0.49165201302E+03  0.49171178641E+03  0.00000000000E+00 0. -1.
         11    1    1    2    0    0 -0.28738898834E+02  0.15171866720E+01 -0.45549619386E+03  0.45640443554E+03  0.00000000000E+00 0. -1.
        -15    1    1    2    0    0  0.33865294159E+02  0.36705646601E+01 -0.30057124176E+02  0.45463387865E+02  0.17770000000E+01 0.  1.
         15    1    1    2    0    0  0.84943412713E+00 -0.38478854566E+00 -0.60986949853E+01  0.64203901817E+01  0.17770000000E+01 0. -1.
</event>
<event>
 6    1  0.6506903E-004  0.5012883E+03  0.7546771E-02  0.9396932E-01
        -11   -1    0    0    0    0  0.00000000000E+00  0.00000000000E+00  0.50000000000E+03  0.50000000000E+03  0.00000000000E+00 0.  1.
         11   -1    0    0    0    0 -0.00000000000E+00 -0.00000000000E+00 -0.50000000000E+03  0.50000000000E+03  0.00000000000E+00 0. -1.
        -11    1    1    2    0    0 -0.54949036378E+01 -0.44360000250E+01  0.34122588468E+03  0.34129895464E+03  0.00000000000E+00 0.  1.
         11    1    1    2    0    0 -0.10945803194E+02 -0.15213755109E+02 -0.49835939763E+03  0.49871169844E+03  0.00000000000E+00 0. -1.
        -15    1    1    2    0    0  0.46176143051E+01  0.98495261842E-01  0.59361927010E+02  0.59567845106E+02  0.17770000000E+01 0.  1.
         15    1    1    2    0    0  0.11823092527E+02  0.19551259872E+02  0.97771585947E+02  0.10042150182E+03  0.17770000000E+01 0. -1.
</event>
<event>
 6    1  0.6506903E-004  0.5020986E+03  0.7546771E-02  0.9395126E-01
        -11   -1    0    0    0    0  0.00000000000E+00  0.00000000000E+00  0.50000000000E+03  0.50000000000E+03  0.00000000000E+00 0. -1.
         11   -1    0    0    0    0 -0.00000000000E+00 -0.00000000000E+00 -0.50000000000E+03  0.50000000000E+03  0.00000000000E+00 0. -1.
        -11    1    1    2    0    0 -0.24628123839E+01 -0.90033369661E+01  0.45533365232E+03  0.45542931444E+03  0.00000000000E+00 0. -1.
         11    1    1    2    0    0 -0.99849920770E+01 -0.25693629594E+01 -0.49779461232E+03  0.49790137351E+03  0.00000000000E+00 0. -1.
        -15    1    1    2    0    0  0.10550525024E+02  0.52872258614E+01  0.32370972337E+02  0.34500810347E+02  0.17770000000E+01 0.  1.
         15    1    1    2    0    0  0.18972794367E+01  0.62854740640E+01  0.10089987663E+02  0.12168501696E+02  0.17770000000E+01 0. -1.
</event>
<event>
 6    1  0.6506903E-004  0.5049136E+03  0.7546771E-02  0.9388882E-01
        -11   -1    0    0    0    0  0.00000000000E+00  0.00000000000E+00  0.50000000000E+03  0.50000000000E+03  0.00000000000E+00 0.  1.
         11   -1    0    0    0    0 -0.00000000000E+00 -0.00000000000E+00 -0.50000000000E+03  0.50000000000E+03  0.00000000000E+00 0.  1.
        -11    1    1    2    0    0  0.47535697252E+01  0.46964008282E+01  0.45633201457E+03  0.45638093752E+03  0.00000000000E+00 0.  1.
         11    1    1    2    0    0  0.12174571674E+02  0.13659842945E+02 -0.49474810451E+03  0.49508635451E+03  0.00000000000E+00 0.  1.
        -15    1    1    2    0    0 -0.15489114607E+02 -0.16749093702E+02  0.21536495174E+02  0.31423290161E+02  0.17770000000E+01 0.  1.
         15    1    1    2    0    0 -0.14390267914E+01 -0.16071500715E+01  0.16879594767E+02  0.17109417814E+02  0.17770000000E+01 0. -1.
</event>
<event>
 6    1  0.6506903E-004  0.5030870E+03  0.7546771E-02  0.9392929E-01
        -11   -1    0    0    0    0  0.00000000000E+00  0.00000000000E+00  0.50000000000E+03  0.50000000000E+03  0.00000000000E+00 0.  1.
         11   -1    0    0    0    0 -0.00000000000E+00 -0.00000000000E+00 -0.50000000000E+03  0.50000000000E+03  0.00000000000E+00 0.  1.
        -11    1    1    2    0    0  0.39971202565E+01  0.71625298412E+01  0.45844750653E+03  0.45852087744E+03  0.00000000000E+00 0.  1.
         11    1    1    2    0    0 -0.14797393877E+02  0.62781977497E+01 -0.49665297071E+03  0.49691302252E+03  0.00000000000E+00 0.  1.
        -15    1    1    2    0    0  0.84578377552E+01 -0.67015172178E+01  0.34772011993E+02  0.36451281179E+02  0.17770000000E+01 0. -1.
         15    1    1    2    0    0  0.23424358657E+01 -0.67392103732E+01  0.34334521911E+01  0.81148188635E+01  0.17770000000E+01 0.  1.
</event>
<event>
 6    1  0.6506903E-004  0.5012579E+03  0.7546771E-02  0.9396999E-01
        -11   -1    0    0    0    0  0.00000000000E+00  0.00000000000E+00  0.50000000000E+03  0.50000000000E+03  0.00000000000E+00 0. -1.
         11   -1    0    0    0    0 -0.00000000000E+00 -0.00000000000E+00 -0.50000000000E+03  0.50000000000E+03  0.00000000000E+00 0. -1.
        -11    1    1    2    0    0  0.64686508573E+00 -0.92698453757E+01  0.49865553940E+03  0.49874211316E+03  0.00000000000E+00 0. -1.
         11    1    1    2    0    0  0.12095755058E+02  0.88741641695E+01 -0.41384953203E+03  0.41412135086E+03  0.00000000000E+00 0. -1.
        -15    1    1    2    0    0 -0.13225468137E+02  0.25782942607E+00 -0.84111208194E+02  0.85163563548E+02  0.17770000000E+01 0.  1.
         15    1    1    2    0    0  0.48284799315E+00  0.13785178007E+00 -0.69479917690E+00  0.19729724261E+01  0.17770000000E+01 0.  1.
</event>
<event>
 6    1  0.6506903E-004  0.5122979E+03  0.7546771E-02  0.9372705E-01
        -11   -1    0    0    0    0  0.00000000000E+00  0.00000000000E+00  0.50000000000E+03  0.50000000000E+03  0.00000000000E+00 0. -1.
         11   -1    0    0    0    0 -0.00000000000E+00 -0.00000000000E+00 -0.50000000000E+03  0.50000000000E+03  0.00000000000E+00 0. -1.
        -11    1    1    2    0    0  0.10313546431E+02 -0.14301553298E+02  0.46243684357E+03  0.46277287946E+03  0.00000000000E+00 0. -1.
         11    1    1    2    0    0 -0.24315082140E+02 -0.19174104455E+02 -0.48671808316E+03  0.48770212422E+03  0.00000000000E+00 0. -1.
        -15    1    1    2    0    0  0.24376453551E+01  0.27789832761E+02  0.23456428053E+02  0.36490802482E+02  0.17770000000E+01 0. -1.
         15    1    1    2    0    0  0.11563890354E+02  0.56858249916E+01  0.82481153036E+00  0.13034193838E+02  0.17770000000E+01 0.  1.
</event>
<event>
 6    1  0.6506903E-004  0.5002410E+03  0.7546771E-02  0.9399271E-01
        -11   -1    0    0    0    0  0.00000000000E+00  0.00000000000E+00  0.50000000000E+03  0.50000000000E+03  0.00000000000E+00 0. -1.
         11   -1    0    0    0    0 -0.00000000000E+00 -0.00000000000E+00 -0.50000000000E+03  0.50000000000E+03  0.00000000000E+00 0.  1.
        -11    1    1    2    0    0  0.49623867541E+00  0.72682962263E+01  0.49970591796E+03  0.49975902075E+03  0.00000000000E+00 0. -1.
         11    1    1    2    0    0  0.54756326748E+01  0.12643056392E+01 -0.29122618184E+03  0.29128039758E+03  0.00000000000E+00 0.  1.
        -15    1    1    2    0    0 -0.26872626122E+01 -0.60019376630E+01 -0.55805610536E+02  0.56219823304E+02  0.17770000000E+01 0.  1.
         15    1    1    2    0    0 -0.32846087379E+01 -0.25306642024E+01 -0.15267412558E+03  0.15274075837E+03  0.17770000000E+01 0. -1.
</event>
<event>
 6    1  0.6506903E-004  0.4913164E+03  0.7546771E-02  0.9419452E-01
        -11   -1    0    0    0    0  0.00000000000E+00  0.00000000000E+00  0.50000000000E+03  0.50000000000E+03  0.00000000000E+00 0. -1.
         11   -1    0    0    0    0 -0.00000000000E+00 -0.00000000000E+00 -0.50000000000E+03  0.50000000000E+03  0.00000000000E+00 0. -1.
        -11    1    1    2    0    0 -0.64014883602E+01 -0.42020274884E+01  0.49380472818E+03  0.49386409635E+03  0.00000000000E+00 0. -1.
         11    1    1    2    0    0 -0.23590266755E+01  0.94980198812E+01 -0.48873709105E+03  0.48883506580E+03  0.00000000000E+00 0. -1.
        -15    1    1    2    0    0  0.31139901036E+01 -0.68663935323E+01 -0.74330903933E+01  0.10735588307E+02  0.17770000000E+01 0. -1.
         15    1    1    2    0    0  0.56465249321E+01  0.15704011395E+01  0.23654532608E+01  0.65652495518E+01  0.17770000000E+01 0.  1.
</event>
<event>
 6    1  0.6506903E-004  0.5008706E+03  0.7546771E-02  0.9397864E-01
        -11   -1    0    0    0    0  0.00000000000E+00  0.00000000000E+00  0.50000000000E+03  0.50000000000E+03  0.00000000000E+00 0. -1.
         11   -1    0    0    0    0 -0.00000000000E+00 -0.00000000000E+00 -0.50000000000E+03  0.50000000000E+03  0.00000000000E+00 0.  1.
        -11    1    1    2    0    0 -0.68236639291E+01 -0.90481334305E+00  0.49908188696E+03  0.49912935295E+03  0.00000000000E+00 0. -1.
         11    1    1    2    0    0  0.20148481015E+01 -0.10443602446E+02 -0.42329778738E+03  0.42343139379E+03  0.00000000000E+00 0.  1.
        -15    1    1    2    0    0  0.38694592525E+01  0.20782035583E+00 -0.14309636327E+02  0.14931152836E+02  0.17770000000E+01 0. -1.
         15    1    1    2    0    0  0.93935657511E+00  0.11140595433E+02 -0.61474463260E+02  0.62508100431E+02  0.17770000000E+01 0.  1.
</event>
<event>
 6    1  0.6506903E-004  0.5002397E+03  0.7546771E-02  0.9399274E-01
        -11   -1    0    0    0    0  0.00000000000E+00  0.00000000000E+00  0.50000000000E+03  0.50000000000E+03  0.00000000000E+00 0.  1.
         11   -1    0    0    0    0 -0.00000000000E+00 -0.00000000000E+00 -0.50000000000E+03  0.50000000000E+03  0.00000000000E+00 0.  1.
        -11    1    1    2    0    0 -0.13783672669E+01 -0.48967202622E+01  0.36799975609E+03  0.36803491444E+03  0.00000000000E+00 0.  1.
         11    1    1    2    0    0  0.12643000692E+02  0.37912758067E+01 -0.49958597241E+03  0.49976030561E+03  0.00000000000E+00 0.  1.
        -15    1    1    2    0    0 -0.93159016658E+01  0.11429758335E+01  0.11639199646E+03  0.11678333351E+03  0.17770000000E+01 0.  1.
         15    1    1    2    0    0 -0.19487317597E+01 -0.37531377994E-01  0.15194219864E+02  0.15421446441E+02  0.17770000000E+01 0. -1.
</event>
<event>
 6    1  0.6506903E-004  0.5006731E+03  0.7546771E-02  0.9398305E-01
        -11   -1    0    0    0    0  0.00000000000E+00  0.00000000000E+00  0.50000000000E+03  0.50000000000E+03  0.00000000000E+00 0. -1.
         11   -1    0    0    0    0 -0.00000000000E+00 -0.00000000000E+00 -0.50000000000E+03  0.50000000000E+03  0.00000000000E+00 0.  1.
        -11    1    1    2    0    0  0.23460881458E+01  0.13462276287E+02  0.49913984364E+03  0.49932686741E+03  0.00000000000E+00 0. -1.
         11    1    1    2    0    0 -0.17303817262E+02 -0.14584910109E+02 -0.32791170899E+03  0.32869169534E+03  0.00000000000E+00 0.  1.
        -15    1    1    2    0    0  0.22054388268E+01  0.20362555591E+00 -0.46648930142E+02  0.46735274003E+02  0.17770000000E+01 0. -1.
         15    1    1    2    0    0  0.12752290289E+02  0.91900826576E+00 -0.12457920451E+03  0.12524616325E+03  0.17770000000E+01 0.  1.
</event>
<event>
 6    1  0.6506903E-004  0.5057220E+03  0.7546771E-02  0.9387097E-01
        -11   -1    0    0    0    0  0.00000000000E+00  0.00000000000E+00  0.50000000000E+03  0.50000000000E+03  0.00000000000E+00 0. -1.
         11   -1    0    0    0    0 -0.00000000000E+00 -0.00000000000E+00 -0.50000000000E+03  0.50000000000E+03  0.00000000000E+00 0. -1.
        -11    1    1    2    0    0 -0.10046517387E+02  0.15052891921E+02  0.46264622515E+03  0.46300005584E+03  0.00000000000E+00 0. -1.
         11    1    1    2    0    0 -0.98689546658E+01  0.11073987455E+01 -0.49417826659E+03  0.49427804095E+03  0.00000000000E+00 0. -1.
        -15    1    1    2    0    0  0.86186900402E+01 -0.55916386861E+00  0.58979080333E+01  0.10608370771E+02  0.17770000000E+01 0. -1.
         15    1    1    2    0    0  0.11296782013E+02 -0.15601126798E+02  0.25634133403E+02  0.32113532436E+02  0.17770000000E+01 0.  1.
</event>
<event>
 6    1  0.6506903E-004  0.5045483E+03  0.7546771E-02  0.9389690E-01
        -11   -1    0    0    0    0  0.00000000000E+00  0.00000000000E+00  0.50000000000E+03  0.50000000000E+03  0.00000000000E+00 0.  1.
         11   -1    0    0    0    0 -0.00000000000E+00 -0.00000000000E+00 -0.50000000000E+03  0.50000000000E+03  0.00000000000E+00 0. -1.
        -11    1    1    2    0    0  0.44039742982E+01 -0.68853643143E+01  0.47581402914E+03  0.47588422285E+03  0.00000000000E+00 0.  1.
         11    1    1    2    0    0  0.15427736384E+02  0.82759732470E+01 -0.49514232152E+03  0.49545173866E+03  0.00000000000E+00 0. -1.
        -15    1    1    2    0    0 -0.70182893181E+01 -0.29339320614E+01  0.97538007745E+01  0.12496347500E+02  0.17770000000E+01 0.  1.
         15    1    1    2    0    0 -0.12813421364E+02  0.15433231287E+01  0.95744916098E+01  0.16167690989E+02  0.17770000000E+01 0. -1.
</event>
<event>
 6    1  0.6506903E-004  0.5034505E+03  0.7546771E-02  0.9392122E-01
        -11   -1    0    0    0    0  0.00000000000E+00  0.00000000000E+00  0.50000000000E+03  0.50000000000E+03  0.00000000000E+00 0. -1.
         11   -1    0    0    0    0 -0.00000000000E+00 -0.00000000000E+00 -0.50000000000E+03  0.50000000000E+03  0.00000000000E+00 0. -1.
        -11    1    1    2    0    0  0.12558966330E+01  0.11161907911E+02  0.49642243077E+03  0.49654948921E+03  0.00000000000E+00 0. -1.
         11    1    1    2    0    0  0.20355318711E+02  0.55555744928E+01 -0.42522147906E+03  0.42574465312E+03  0.00000000000E+00 0. -1.
        -15    1    1    2    0    0 -0.46667045762E+01 -0.93622434273E+01 -0.13978428412E+02  0.17549470746E+02  0.17770000000E+01 0. -1.
         15    1    1    2    0    0 -0.16944510768E+02 -0.73552389761E+01 -0.57222523301E+02  0.60156386922E+02  0.17770000000E+01 0.  1.
</event>
<event>
 6    1  0.6506903E-004  0.5014997E+03  0.7546771E-02  0.9396460E-01
        -11   -1    0    0    0    0  0.00000000000E+00  0.00000000000E+00  0.50000000000E+03  0.50000000000E+03  0.00000000000E+00 0.  1.
         11   -1    0    0    0    0 -0.00000000000E+00 -0.00000000000E+00 -0.50000000000E+03  0.50000000000E+03  0.00000000000E+00 0.  1.
        -11    1    1    2    0    0  0.47976277383E+02 -0.19380006406E+02  0.49580768235E+03  0.49850031667E+03  0.00000000000E+00 0.  1.
         11    1    1    2    0    0 -0.54707840294E+02  0.19886355813E+02 -0.32331623874E+03  0.32851454331E+03  0.00000000000E+00 0.  1.
        -15    1    1    2    0    0 -0.59308237111E+00  0.38354448822E+01 -0.47500708595E+02  0.47692110775E+02  0.17770000000E+01 0.  1.
         15    1    1    2    0    0  0.73246452820E+01 -0.43417942883E+01 -0.12499073502E+03  0.12529302924E+03  0.17770000000E+01 0. -1.
</event>
<event>
 6    1  0.6506903E-004  0.5002005E+03  0.7546771E-02  0.9399361E-01
        -11   -1    0    0    0    0  0.00000000000E+00  0.00000000000E+00  0.50000000000E+03  0.50000000000E+03  0.00000000000E+00 0.  1.
         11   -1    0    0    0    0 -0.00000000000E+00 -0.00000000000E+00 -0.50000000000E+03  0.50000000000E+03  0.00000000000E+00 0. -1.
        -11    1    1    2    0    0 -0.68678362215E+00  0.44752826475E+01  0.32328480201E+03  0.32331650597E+03  0.00000000000E+00 0.  1.
         11    1    1    2    0    0  0.52323913765E+01 -0.11519046024E+02 -0.49963930481E+03  0.49979946103E+03  0.00000000000E+00 0. -1.
        -15    1    1    2    0    0  0.25302995771E+01  0.40260499315E+00  0.71053801019E+02  0.71122182721E+02  0.17770000000E+01 0.  1.
         15    1    1    2    0    0 -0.70759073314E+01  0.66411583830E+01  0.10530070178E+03  0.10576185027E+03  0.17770000000E+01 0. -1.
</event>
<event>
 6    1  0.6506903E-004  0.4505503E+03  0.7546771E-02  0.9517808E-01
        -11   -1    0    0    0    0  0.00000000000E+00  0.00000000000E+00  0.50000000000E+03  0.50000000000E+03  0.00000000000E+00 0.  1.
         11   -1    0    0    0    0 -0.00000000000E+00 -0.00000000000E+00 -0.50000000000E+03  0.50000000000E+03  0.00000000000E+00 0. -1.
        -11    1    1    2    0    0  0.20294857139E+01 -0.61460348394E+01  0.45082541277E+03  0.45087187243E+03  0.00000000000E+00 0.  1.
         11    1    1    2    0    0 -0.23324434701E+02 -0.68674645608E+02 -0.44774948107E+03  0.45358553107E+03  0.00000000000E+00 0. -1.
        -15    1    1    2    0    0  0.51578512551E+01  0.63568381514E+02 -0.22679581353E+02  0.67713098417E+02  0.17770000000E+01 0. -1.
         15    1    1    2    0    0  0.16137097732E+02  0.11252298934E+02  0.19603649653E+02  0.27829498077E+02  0.17770000000E+01 0.  1.
</event>
<event>
 6    1  0.6506903E-004  0.5102101E+03  0.7546771E-02  0.9377249E-01
        -11   -1    0    0    0    0  0.00000000000E+00  0.00000000000E+00  0.50000000000E+03  0.50000000000E+03  0.00000000000E+00 0.  1.
         11   -1    0    0    0    0 -0.00000000000E+00 -0.00000000000E+00 -0.50000000000E+03  0.50000000000E+03  0.00000000000E+00 0.  1.
        -11    1    1    2    0    0 -0.94317541112E+01 -0.27827867904E+01  0.48969121846E+03  0.48978994613E+03  0.00000000000E+00 0.  1.
         11    1    1    2    0    0  0.83363723830E+01 -0.24800503612E+02 -0.46756730259E+03  0.46829877486E+03  0.00000000000E+00 0.  1.
        -15    1    1    2    0    0 -0.62702749062E+01  0.22769676570E+02 -0.22844119151E+02  0.32905714204E+02  0.17770000000E+01 0.  1.
         15    1    1    2    0    0  0.73656566344E+01  0.48136138329E+01  0.72020327691E+00  0.90055648101E+01  0.17770000000E+01 0. -1.
</event>
<event>
 6    1  0.6506903E-004  0.5000393E+03  0.7546771E-02  0.9399722E-01
        -11   -1    0    0    0    0  0.00000000000E+00  0.00000000000E+00  0.50000000000E+03  0.50000000000E+03  0.00000000000E+00 0. -1.
         11   -1    0    0    0    0 -0.00000000000E+00 -0.00000000000E+00 -0.50000000000E+03  0.50000000000E+03  0.00000000000E+00 0. -1.
        -11    1    1    2    0    0  0.59074466307E+01  0.39173229412E+01  0.49991041030E+03  0.49996066012E+03  0.00000000000E+00 0. -1.
         11    1    1    2    0    0 -0.21084640702E+01 -0.21522555161E+01 -0.59861120529E+02  0.59936896613E+02  0.00000000000E+00 0. -1.
        -15    1    1    2    0    0 -0.57606536346E+00 -0.24600511966E+01 -0.19013269209E+03  0.19015778194E+03  0.17770000000E+01 0.  1.
         15    1    1    2    0    0 -0.32229171971E+01  0.69498377150E+00 -0.24991659768E+03  0.24994466132E+03  0.17770000000E+01 0. -1.
</event>
<event>
 6    1  0.6506903E-004  0.5006129E+03  0.7546771E-02  0.9398439E-01
        -11   -1    0    0    0    0  0.00000000000E+00  0.00000000000E+00  0.50000000000E+03  0.50000000000E+03  0.00000000000E+00 0.  1.
         11   -1    0    0    0    0 -0.00000000000E+00 -0.00000000000E+00 -0.50000000000E+03  0.50000000000E+03  0.00000000000E+00 0.  1.
        -11    1    1    2    0    0  0.71107156944E+01  0.14344989442E+01  0.35718929322E+03  0.35726294414E+03  0.00000000000E+00 0.  1.
         11    1    1    2    0    0  0.78605383276E+01 -0.69921901077E+01 -0.49927627091E+03  0.49938709783E+03  0.00000000000E+00 0.  1.
        -15    1    1    2    0    0 -0.13322955874E+02  0.82650401183E+00  0.11069029167E+03  0.11150642431E+03  0.17770000000E+01 0.  1.
         15    1    1    2    0    0 -0.16482981485E+01  0.47311871517E+01  0.31396686017E+02  0.31843533732E+02  0.17770000000E+01 0. -1.
</event>
<event>
 6    1  0.6506903E-004  0.4868821E+03  0.7546771E-02  0.9429650E-01
        -11   -1    0    0    0    0  0.00000000000E+00  0.00000000000E+00  0.50000000000E+03  0.50000000000E+03  0.00000000000E+00 0. -1.
         11   -1    0    0    0    0 -0.00000000000E+00 -0.00000000000E+00 -0.50000000000E+03  0.50000000000E+03  0.00000000000E+00 0. -1.
        -11    1    1    2    0    0  0.28249428142E+01 -0.73429356889E+01  0.48066627524E+03  0.48073065968E+03  0.00000000000E+00 0. -1.
         11    1    1    2    0    0 -0.35245828703E+01 -0.14450287237E+02 -0.49313313887E+03  0.49335740203E+03  0.00000000000E+00 0. -1.
        -15    1    1    2    0    0 -0.16023859051E+01  0.12236632922E+02  0.49700786358E+01  0.13422452701E+02  0.17770000000E+01 0.  1.
         15    1    1    2    0    0  0.23020259612E+01  0.95565900040E+01  0.74967849983E+01  0.12489485592E+02  0.17770000000E+01 0. -1.
</event>
<event>
 6    1  0.6506903E-004  0.5100160E+03  0.7546771E-02  0.9377673E-01
        -11   -1    0    0    0    0  0.00000000000E+00  0.00000000000E+00  0.50000000000E+03  0.50000000000E+03  0.00000000000E+00 0.  1.
         11   -1    0    0    0    0 -0.00000000000E+00 -0.00000000000E+00 -0.50000000000E+03  0.50000000000E+03  0.00000000000E+00 0.  1.
        -11    1    1    2    0    0  0.34432044288E+01 -0.25837686757E+02  0.48929018510E+03  0.48998400683E+03  0.00000000000E+00 0.  1.
         11    1    1    2    0    0 -0.14181271737E+02 -0.10212871079E+02 -0.45623808096E+03  0.45657266423E+03  0.00000000000E+00 0.  1.
        -15    1    1    2    0    0  0.74682609107E+01  0.39941816319E+01 -0.12429056188E+02  0.15144886089E+02  0.17770000000E+01 0. -1.
         15    1    1    2    0    0  0.32698063973E+01  0.32056376205E+02 -0.20623047948E+02  0.38298442853E+02  0.17770000000E+01 0. -1.
</event>
<event>
 6    1  0.6506903E-004  0.5014079E+03  0.7546771E-02  0.9396665E-01
        -11   -1    0    0    0    0  0.00000000000E+00  0.00000000000E+00  0.50000000000E+03  0.50000000000E+03  0.00000000000E+00 0. -1.
         11   -1    0    0    0    0 -0.00000000000E+00 -0.00000000000E+00 -0.50000000000E+03  0.50000000000E+03  0.00000000000E+00 0.  1.
        -11    1    1    2    0    0  0.77841409609E+01 -0.32196181463E+01  0.49852098059E+03  0.49859214482E+03  0.00000000000E+00 0. -1.
         11    1    1    2    0    0 -0.27529234790E+01 -0.13121248324E+02 -0.34154937177E+02  0.36692035632E+02  0.00000000000E+00 0.  1.
        -15    1    1    2    0    0 -0.28808557386E+00  0.83182084112E+01 -0.23263330076E+03  0.23278893001E+03  0.17770000000E+01 0.  1.
         15    1    1    2    0    0 -0.47431319081E+01  0.80226580589E+01 -0.23173274265E+03  0.23192688953E+03  0.17770000000E+01 0. -1.
</event>
<event>
 6    1  0.6506903E-004  0.5000765E+03  0.7546771E-02  0.9399639E-01
        -11   -1    0    0    0    0  0.00000000000E+00  0.00000000000E+00  0.50000000000E+03  0.50000000000E+03  0.00000000000E+00 0. -1.
         11   -1    0    0    0    0 -0.00000000000E+00 -0.00000000000E+00 -0.50000000000E+03  0.50000000000E+03  0.00000000000E+00 0.  1.
        -11    1    1    2    0    0  0.53042120671E+01  0.10349121632E+02  0.30466357842E+03  0.30488544570E+03  0.00000000000E+00 0. -1.
         11    1    1    2    0    0 -0.68460760454E+01 -0.15691276587E+02 -0.49963030557E+03  0.49992352131E+03  0.00000000000E+00 0.  1.
        -15    1    1    2    0    0 -0.26013268643E+01  0.18643568523E+01  0.75304441285E+02  0.75393363993E+02  0.17770000000E+01 0. -1.
         15    1    1    2    0    0  0.41431908426E+01  0.34777981028E+01  0.11966228586E+03  0.11979766899E+03  0.17770000000E+01 0. -1.
</event>
<event>
 6    1  0.6506903E-004  0.5018946E+03  0.7546771E-02  0.9395580E-01
        -11   -1    0    0    0    0  0.00000000000E+00  0.00000000000E+00  0.50000000000E+03  0.50000000000E+03  0.00000000000E+00 0.  1.
         11   -1    0    0    0    0 -0.00000000000E+00 -0.00000000000E+00 -0.50000000000E+03  0.50000000000E+03  0.00000000000E+00 0.  1.
        -11    1    1    2    0    0 -0.17158824954E+02  0.13666526734E+02  0.49762213905E+03  0.49810540300E+03  0.00000000000E+00 0.  1.
         11    1    1    2    0    0  0.26225312817E+02  0.79685219138E+01 -0.18412173252E+03  0.18615068294E+03  0.00000000000E+00 0.  1.
        -15    1    1    2    0    0 -0.78471713300E+01 -0.40919302160E+01 -0.23023594225E+02  0.24729852624E+02  0.17770000000E+01 0. -1.
         15    1    1    2    0    0 -0.12193165325E+01 -0.17543118432E+02 -0.29047681230E+03  0.29101406143E+03  0.17770000000E+01 0.  1.
</event>
<event>
 6    1  0.6506903E-004  0.5012194E+03  0.7546771E-02  0.9397085E-01
        -11   -1    0    0    0    0  0.00000000000E+00  0.00000000000E+00  0.50000000000E+03  0.50000000000E+03  0.00000000000E+00 0. -1.
         11   -1    0    0    0    0 -0.00000000000E+00 -0.00000000000E+00 -0.50000000000E+03  0.50000000000E+03  0.00000000000E+00 0.  1.
        -11    1    1    2    0    0  0.17939381524E+01  0.63303953702E+01  0.44232241209E+03  0.44237134667E+03  0.00000000000E+00 0. -1.
         11    1    1    2    0    0 -0.35123746696E+01 -0.11459604198E+02 -0.49863661306E+03  0.49878064436E+03  0.00000000000E+00 0.  1.
        -15    1    1    2    0    0  0.33402050058E+01  0.10497750776E+02  0.38757166895E+02  0.40331568970E+02  0.17770000000E+01 0.  1.
         15    1    1    2    0    0 -0.16217684887E+01 -0.53685419476E+01  0.17557034080E+02  0.18516440002E+02  0.17770000000E+01 0.  1.
</event>
<event>
 6    1  0.6506903E-004  0.5001075E+03  0.7546771E-02  0.9399569E-01
        -11   -1    0    0    0    0  0.00000000000E+00  0.00000000000E+00  0.50000000000E+03  0.50000000000E+03  0.00000000000E+00 0.  1.
         11   -1    0    0    0    0 -0.00000000000E+00 -0.00000000000E+00 -0.50000000000E+03  0.50000000000E+03  0.00000000000E+00 0.  1.
        -11    1    1    2    0    0  0.50610189535E+01  0.48900454034E+01  0.49984293967E+03  0.49989247923E+03  0.00000000000E+00 0.  1.
         11    1    1    2    0    0 -0.45629206871E+01 -0.79008226239E+01 -0.18231277187E+03  0.18254092700E+03  0.00000000000E+00 0.  1.
        -15    1    1    2    0    0  0.22124076394E+00  0.14910174569E+01 -0.13633909684E+03  0.13635900827E+03  0.17770000000E+01 0.  1.
         15    1    1    2    0    0 -0.71933903028E+00  0.15197597636E+01 -0.18119107096E+03  0.18120758550E+03  0.17770000000E+01 0. -1.
</event>
<event>
 6    1  0.6506903E-004  0.5010580E+03  0.7546771E-02  0.9397446E-01
        -11   -1    0    0    0    0  0.00000000000E+00  0.00000000000E+00  0.50000000000E+03  0.50000000000E+03  0.00000000000E+00 0.  1.
         11   -1    0    0    0    0 -0.00000000000E+00 -0.00000000000E+00 -0.50000000000E+03  0.50000000000E+03  0.00000000000E+00 0. -1.
        -11    1    1    2    0    0  0.72875361974E+01 -0.60886939853E+01  0.49885164818E+03  0.49894202796E+03  0.00000000000E+00 0.  1.
         11    1    1    2    0    0  0.16208441573E+01  0.20046005578E+02 -0.40709948586E+03  0.40759595296E+03  0.00000000000E+00 0. -1.
        -15    1    1    2    0    0 -0.63316703329E+01 -0.88154937070E+01 -0.45029072049E+02  0.46352756521E+02  0.17770000000E+01 0. -1.
         15    1    1    2    0    0 -0.25767100218E+01 -0.51418178859E+01 -0.46723090266E+02  0.47109262558E+02  0.17770000000E+01 0.  1.
</event>
<event>
 6    1  0.6506903E-004  0.5012224E+03  0.7546771E-02  0.9397079E-01
        -11   -1    0    0    0    0  0.00000000000E+00  0.00000000000E+00  0.50000000000E+03  0.50000000000E+03  0.00000000000E+00 0.  1.
         11   -1    0    0    0    0 -0.00000000000E+00 -0.00000000000E+00 -0.50000000000E+03  0.50000000000E+03  0.00000000000E+00 0.  1.
        -11    1    1    2    0    0 -0.79335160436E+01 -0.21269395238E+02  0.49826071392E+03  0.49877757256E+03  0.00000000000E+00 0.  1.
         11    1    1    2    0    0  0.13114226400E+02  0.19493191974E+02 -0.11939392057E+03  0.12168350642E+03  0.00000000000E+00 0.  1.
        -15    1    1    2    0    0 -0.40716082756E+00  0.86070597159E+01 -0.69480362220E+02  0.70035174878E+02  0.17770000000E+01 0. -1.
         15    1    1    2    0    0 -0.47735495285E+01 -0.68308564522E+01 -0.30938643114E+03  0.30950374614E+03  0.17770000000E+01 0.  1.
</event>
<event>
 6    1  0.6506903E-004  0.4979261E+03  0.7546771E-02  0.9404462E-01
        -11   -1    0    0    0    0  0.00000000000E+00  0.00000000000E+00  0.50000000000E+03  0.50000000000E+03  0.00000000000E+00 0. -1.
         11   -1    0    0    0    0 -0.00000000000E+00 -0.00000000000E+00 -0.50000000000E+03  0.50000000000E+03  0.00000000000E+00 0. -1.
        -11    1    1    2    0    0 -0.98091265948E+01  0.13103786450E+02  0.49787134090E+03  0.49814034195E+03  0.00000000000E+00 0. -1.
         11    1    1    2    0    0  0.41362469623E+01  0.63686892716E+00 -0.53249872964E+00  0.42187315464E+01  0.00000000000E+00 0. -1.
        -15    1    1    2    0    0  0.68585004686E+00 -0.72960941508E+00 -0.21941796784E+02  0.22036399327E+02  0.17770000000E+01 0. -1.
         15    1    1    2    0    0  0.49870295856E+01 -0.13011045962E+02 -0.47539704539E+03  0.47560452718E+03  0.17770000000E+01 0. -1.
</event>
<event>
 6    1  0.6506903E-004  0.5017836E+03  0.7546771E-02  0.9395828E-01
        -11   -1    0    0    0    0  0.00000000000E+00  0.00000000000E+00  0.50000000000E+03  0.50000000000E+03  0.00000000000E+00 0.  1.
         11   -1    0    0    0    0 -0.00000000000E+00 -0.00000000000E+00 -0.50000000000E+03  0.50000000000E+03  0.00000000000E+00 0. -1.
        -11    1    1    2    0    0 -0.50283017367E+01 -0.10129457742E+02  0.46905377155E+03  0.46919007911E+03  0.00000000000E+00 0.  1.
         11    1    1    2    0    0  0.89149413285E+00  0.10934649177E+02 -0.49809560949E+03  0.49821641634E+03  0.00000000000E+00 0. -1.
        -15    1    1    2    0    0  0.74907564500E+00 -0.68651417141E+01  0.10293460884E+02  0.12522154409E+02  0.17770000000E+01 0. -1.
         15    1    1    2    0    0  0.33877319588E+01  0.60599502786E+01  0.18748377058E+02  0.20071350142E+02  0.17770000000E+01 0.  1.
</event>
<event>
 6    1  0.6506903E-004  0.5004745E+03  0.7546771E-02  0.9398749E-01
        -11   -1    0    0    0    0  0.00000000000E+00  0.00000000000E+00  0.50000000000E+03  0.50000000000E+03  0.00000000000E+00 0.  1.
         11   -1    0    0    0    0 -0.00000000000E+00 -0.00000000000E+00 -0.50000000000E+03  0.50000000000E+03  0.00000000000E+00 0.  1.
        -11    1    1    2    0    0 -0.15285922437E+01  0.67681766687E+01  0.49947727785E+03  0.49952547072E+03  0.00000000000E+00 0.  1.
         11    1    1    2    0    0  0.12413222077E+01 -0.76989889970E+01 -0.33462695932E+03  0.33471781729E+03  0.00000000000E+00 0.  1.
        -15    1    1    2    0    0 -0.59655716934E+01  0.60290687723E+01 -0.10165681033E+03  0.10202549941E+03  0.17770000000E+01 0. -1.
         15    1    1    2    0    0  0.62528417295E+01 -0.50982564441E+01 -0.63193508203E+02  0.63731212576E+02  0.17770000000E+01 0.  1.
</event>
<event>
 6    1  0.6506903E-004  0.5011005E+03  0.7546771E-02  0.9397351E-01
        -11   -1    0    0    0    0  0.00000000000E+00  0.00000000000E+00  0.50000000000E+03  0.50000000000E+03  0.00000000000E+00 0. -1.
         11   -1    0    0    0    0 -0.00000000000E+00 -0.00000000000E+00 -0.50000000000E+03  0.50000000000E+03  0.00000000000E+00 0.  1.
        -11    1    1    2    0    0  0.12863902070E+01 -0.83899475159E+01  0.49882733365E+03  0.49889954381E+03  0.00000000000E+00 0. -1.
         11    1    1    2    0    0 -0.12061578770E+01  0.10561146014E+02 -0.46996417958E+03  0.47008437829E+03  0.00000000000E+00 0.  1.
        -15    1    1    2    0    0 -0.29408877498E+00 -0.49112098592E+01 -0.26417532497E+02  0.26930470155E+02  0.17770000000E+01 0. -1.
         15    1    1    2    0    0  0.21385644505E+00  0.27400113612E+01 -0.24456215692E+01  0.40856077514E+01  0.17770000000E+01 0.  1.
</event>
<event>
 6    1  0.6506903E-004  0.5030305E+03  0.7546771E-02  0.9393054E-01
        -11   -1    0    0    0    0  0.00000000000E+00  0.00000000000E+00  0.50000000000E+03  0.50000000000E+03  0.00000000000E+00 0. -1.
         11   -1    0    0    0    0 -0.00000000000E+00 -0.00000000000E+00 -0.50000000000E+03  0.50000000000E+03  0.00000000000E+00 0.  1.
        -11    1    1    2    0    0  0.98001217164E+01 -0.53655259536E+01  0.49684389664E+03  0.49696950499E+03  0.00000000000E+00 0. -1.
         11    1    1    2    0    0  0.10680338629E+02  0.62609310964E+01 -0.45851744132E+03  0.45868454616E+03  0.00000000000E+00 0.  1.
        -15    1    1    2    0    0 -0.52727054605E+00 -0.13028006486E+00 -0.62503051991E+01  0.65206618687E+01  0.17770000000E+01 0. -1.
         15    1    1    2    0    0 -0.19953189800E+02 -0.76512507798E+00 -0.32076150125E+02  0.37825286984E+02  0.17770000000E+01 0.  1.
</event>
<event>
 6    1  0.6506903E-004  0.5041284E+03  0.7546771E-02  0.9390619E-01
        -11   -1    0    0    0    0  0.00000000000E+00  0.00000000000E+00  0.50000000000E+03  0.50000000000E+03  0.00000000000E+00 0.  1.
         11   -1    0    0    0    0 -0.00000000000E+00 -0.00000000000E+00 -0.50000000000E+03  0.50000000000E+03  0.00000000000E+00 0.  1.
        -11    1    1    2    0    0  0.85660055281E+00 -0.11829029288E+02  0.46793230360E+03  0.46808257867E+03  0.00000000000E+00 0.  1.
         11    1    1    2    0    0 -0.24025446294E+01  0.91770800434E+01 -0.49578088049E+03  0.49587162904E+03  0.00000000000E+00 0.  1.
        -15    1    1    2    0    0  0.29464930125E+01 -0.84687256737E+01  0.47306968087E+01  0.10292636052E+02  0.17770000000E+01 0.  1.
         15    1    1    2    0    0 -0.14005489359E+01  0.11120674918E+02  0.23117880081E+02  0.25753156241E+02  0.17770000000E+01 0.  1.
</event>
<event>
 6    1  0.6506903E-004  0.5004628E+03  0.7546771E-02  0.9398775E-01
        -11   -1    0    0    0    0  0.00000000000E+00  0.00000000000E+00  0.50000000000E+03  0.50000000000E+03  0.00000000000E+00 0.  1.
         11   -1    0    0    0    0 -0.00000000000E+00 -0.00000000000E+00 -0.50000000000E+03  0.50000000000E+03  0.00000000000E+00 0.  1.
        -11    1    1    2    0    0 -0.74521274968E+01 -0.78697443209E+01  0.49941962063E+03  0.49953721038E+03  0.00000000000E+00 0.  1.
         11    1    1    2    0    0  0.57149785026E+01  0.17659670354E+02 -0.21817416978E+03  0.21896231022E+03  0.00000000000E+00 0.  1.
        -15    1    1    2    0    0 -0.94882049192E+00 -0.52231634443E+01 -0.90358989544E+02  0.90532239656E+02  0.17770000000E+01 0.  1.
         15    1    1    2    0    0  0.26859694861E+01 -0.45667625888E+01 -0.19088646131E+03  0.19096823975E+03  0.17770000000E+01 0. -1.
</event>
<event>
 6    1  0.6506903E-004  0.5001361E+03  0.7546771E-02  0.9399505E-01
        -11   -1    0    0    0    0  0.00000000000E+00  0.00000000000E+00  0.50000000000E+03  0.50000000000E+03  0.00000000000E+00 0.  1.
         11   -1    0    0    0    0 -0.00000000000E+00 -0.00000000000E+00 -0.50000000000E+03  0.50000000000E+03  0.00000000000E+00 0. -1.
        -11    1    1    2    0    0  0.35673698903E+02  0.31498883068E+01  0.49857935216E+03  0.49986388647E+03  0.00000000000E+00 0.  1.
         11    1    1    2    0    0 -0.28340168554E+02  0.12131713332E+01 -0.30398687347E+03  0.30530747810E+03  0.00000000000E+00 0. -1.
        -15    1    1    2    0    0 -0.28002501239E+01 -0.30124378627E+01 -0.80986418975E+02  0.81110258106E+02  0.17770000000E+01 0. -1.
         15    1    1    2    0    0 -0.45332802248E+01 -0.13506217773E+01 -0.11360605972E+03  0.11371837733E+03  0.17770000000E+01 0.  1.
</event>
<event>
 6    1  0.6506903E-004  0.5002331E+03  0.7546771E-02  0.9399288E-01
        -11   -1    0    0    0    0  0.00000000000E+00  0.00000000000E+00  0.50000000000E+03  0.50000000000E+03  0.00000000000E+00 0.  1.
         11   -1    0    0    0    0 -0.00000000000E+00 -0.00000000000E+00 -0.50000000000E+03  0.50000000000E+03  0.00000000000E+00 0. -1.
        -11    1    1    2    0    0 -0.71046409660E+01 -0.89982356515E+01  0.37621307776E+03  0.37638773100E+03  0.00000000000E+00 0.  1.
         11    1    1    2    0    0  0.12096329105E+02  0.17156258644E+02 -0.49932581914E+03  0.49976687771E+03  0.00000000000E+00 0. -1.
        -15    1    1    2    0    0 -0.14878222155E+01  0.22760160911E+00  0.61166364139E+02  0.61210679202E+02  0.17770000000E+01 0.  1.
         15    1    1    2    0    0 -0.35038659235E+01 -0.83856246017E+01  0.61946377246E+02  0.62634712095E+02  0.17770000000E+01 0. -1.
</event>
<event>
 6    1  0.6506903E-004  0.5020959E+03  0.7546771E-02  0.9395132E-01
        -11   -1    0    0    0    0  0.00000000000E+00  0.00000000000E+00  0.50000000000E+03  0.50000000000E+03  0.00000000000E+00 0.  1.
         11   -1    0    0    0    0 -0.00000000000E+00 -0.00000000000E+00 -0.50000000000E+03  0.50000000000E+03  0.00000000000E+00 0.  1.
        -11    1    1    2    0    0  0.14374122017E+01  0.40974356632E+01  0.31250043044E+03  0.31253059715E+03  0.00000000000E+00 0.  1.
         11    1    1    2    0    0 -0.28264194096E+01  0.25871370749E+02 -0.49722345897E+03  0.49790409179E+03  0.00000000000E+00 0.  1.
        -15    1    1    2    0    0  0.45074311185E+01 -0.15954205182E+01  0.10029902718E+03  0.10042865570E+03  0.17770000000E+01 0. -1.
         15    1    1    2    0    0 -0.31184239105E+01 -0.28373385894E+02  0.84424001354E+02  0.89136655358E+02  0.17770000000E+01 0.  1.
</event>
<event>
 6    1  0.6506903E-004  0.5011422E+03  0.7546771E-02  0.9397258E-01
        -11   -1    0    0    0    0  0.00000000000E+00  0.00000000000E+00  0.50000000000E+03  0.50000000000E+03  0.00000000000E+00 0. -1.
         11   -1    0    0    0    0 -0.00000000000E+00 -0.00000000000E+00 -0.50000000000E+03  0.50000000000E+03  0.00000000000E+00 0.  1.
        -11    1    1    2    0    0  0.97828355815E+01 -0.78528819734E+00  0.49876128902E+03  0.49885783945E+03  0.00000000000E+00 0. -1.
         11    1    1    2    0    0  0.27403409800E+01  0.45343940877E+01 -0.17695661583E+02  0.18471779484E+02  0.00000000000E+00 0.  1.
        -15    1    1    2    0    0 -0.11169645971E+02 -0.20142525107E+01 -0.47907272455E+03  0.47921044578E+03  0.17770000000E+01 0.  1.
         15    1    1    2    0    0 -0.13535305906E+01 -0.17348533797E+01 -0.19929028895E+01  0.34599352935E+01  0.17770000000E+01 0.  1.
</event>
<event>
 6    1  0.6506903E-004  0.5029751E+03  0.7546771E-02  0.9393177E-01
        -11   -1    0    0    0    0  0.00000000000E+00  0.00000000000E+00  0.50000000000E+03  0.50000000000E+03  0.00000000000E+00 0.  1.
         11   -1    0    0    0    0 -0.00000000000E+00 -0.00000000000E+00 -0.50000000000E+03  0.50000000000E+03  0.00000000000E+00 0.  1.
        -11    1    1    2    0    0  0.96521237531E+01 -0.23122192198E+01  0.49692575498E+03  0.49702486438E+03  0.00000000000E+00 0.  1.
         11    1    1    2    0    0  0.13908349978E+02 -0.15371892393E+02 -0.40345226847E+03  0.40398449253E+03  0.00000000000E+00 0.  1.
        -15    1    1    2    0    0 -0.18742769024E+02  0.19235703231E+02 -0.82432689228E+02  0.86715682848E+02  0.17770000000E+01 0.  1.
         15    1    1    2    0    0 -0.48177047073E+01 -0.15515916187E+01 -0.11040797284E+02  0.12274960239E+02  0.17770000000E+01 0. -1.
</event>
<event>
 6    1  0.6506903E-004  0.5068801E+03  0.7546771E-02  0.9384545E-01
        -11   -1    0    0    0    0  0.00000000000E+00  0.00000000000E+00  0.50000000000E+03  0.50000000000E+03  0.00000000000E+00 0. -1.
         11   -1    0    0    0    0 -0.00000000000E+00 -0.00000000000E+00 -0.50000000000E+03  0.50000000000E+03  0.00000000000E+00 0. -1.
        -11    1    1    2    0    0 -0.12049305888E+02 -0.49726361429E+01  0.49294758031E+03  0.49311989396E+03  0.00000000000E+00 0. -1.
         11    1    1    2    0    0  0.50881519686E+02  0.38380300234E+02 -0.26968453927E+03  0.27711320288E+03  0.00000000000E+00 0. -1.
        -15    1    1    2    0    0 -0.39274681510E+02 -0.28508927416E+02 -0.19069381472E+03  0.19678045698E+03  0.17770000000E+01 0.  1.
         15    1    1    2    0    0  0.44246771243E+00 -0.48987366748E+01 -0.32569226326E+02  0.32986446174E+02  0.17770000000E+01 0. -1.
</event>
<event>
 6    1  0.6506903E-004  0.5000950E+03  0.7546771E-02  0.9399597E-01
        -11   -1    0    0    0    0  0.00000000000E+00  0.00000000000E+00  0.50000000000E+03  0.50000000000E+03  0.00000000000E+00 0.  1.
         11   -1    0    0    0    0 -0.00000000000E+00 -0.00000000000E+00 -0.50000000000E+03  0.50000000000E+03  0.00000000000E+00 0. -1.
        -11    1    1    2    0    0  0.42150688152E+01  0.14768559596E+02  0.49966905192E+03  0.49990502958E+03  0.00000000000E+00 0.  1.
         11    1    1    2    0    0 -0.19487841958E+01 -0.13063760617E+02 -0.24148486298E+03  0.24184581586E+03  0.00000000000E+00 0. -1.
        -15    1    1    2    0    0 -0.83299532364E+00  0.67626042650E+00 -0.15086668251E+03  0.15088096245E+03  0.17770000000E+01 0. -1.
         15    1    1    2    0    0 -0.14332892958E+01 -0.23810594052E+01 -0.10731750643E+03  0.10736819211E+03  0.17770000000E+01 0. -1.
</event>
<event>
 6    1  0.6506903E-004  0.5000731E+03  0.7546771E-02  0.9399646E-01
        -11   -1    0    0    0    0  0.00000000000E+00  0.00000000000E+00  0.50000000000E+03  0.50000000000E+03  0.00000000000E+00 0. -1.
         11   -1    0    0    0    0 -0.00000000000E+00 -0.00000000000E+00 -0.50000000000E+03  0.50000000000E+03  0.00000000000E+00 0. -1.
        -11    1    1    2    0    0  0.12995860134E+02  0.81039625327E+01  0.49969224288E+03  0.49992689884E+03  0.00000000000E+00 0. -1.
         11    1    1    2    0    0 -0.11251253826E+02 -0.91184269829E+01 -0.31896375452E+03  0.31929236308E+03  0.00000000000E+00 0. -1.
        -15    1    1    2    0    0 -0.80254627052E+00  0.52805706588E+00 -0.12001097715E+03  0.12002797711E+03  0.17770000000E+01 0. -1.
         15    1    1    2    0    0 -0.94206003757E+00  0.48640738435E+00 -0.60717511209E+02  0.60752760972E+02  0.17770000000E+01 0. -1.
</event>
<event>
 6    1  0.6506903E-004  0.5015647E+03  0.7546771E-02  0.9396315E-01
        -11   -1    0    0    0    0  0.00000000000E+00  0.00000000000E+00  0.50000000000E+03  0.50000000000E+03  0.00000000000E+00 0.  1.
         11   -1    0    0    0    0 -0.00000000000E+00 -0.00000000000E+00 -0.50000000000E+03  0.50000000000E+03  0.00000000000E+00 0. -1.
        -11    1    1    2    0    0  0.12022362758E+02  0.17533827048E+01  0.42947783178E+03  0.42964964745E+03  0.00000000000E+00 0.  1.
         11    1    1    2    0    0 -0.48281070179E+01 -0.13001754751E+02 -0.49824226493E+03  0.49843526240E+03  0.00000000000E+00 0. -1.
        -15    1    1    2    0    0  0.31798487013E+01  0.37807371259E+01  0.40560290140E+02  0.40898658611E+02  0.17770000000E+01 0.  1.
         15    1    1    2    0    0 -0.10374104441E+02  0.74676349206E+01  0.28204143002E+02  0.31016431545E+02  0.17770000000E+01 0. -1.
</event>
<event>
 6    1  0.6506903E-004  0.4826415E+03  0.7546771E-02  0.9439511E-01
        -11   -1    0    0    0    0  0.00000000000E+00  0.00000000000E+00  0.50000000000E+03  0.50000000000E+03  0.00000000000E+00 0. -1.
         11   -1    0    0    0    0 -0.00000000000E+00 -0.00000000000E+00 -0.50000000000E+03  0.50000000000E+03  0.00000000000E+00 0.  1.
        -11    1    1    2    0    0  0.18360939868E+01  0.66503416832E+01  0.48605553429E+03  0.48610449566E+03  0.00000000000E+00 0. -1.
         11    1    1    2    0    0  0.23248648843E+02 -0.19489975540E+02 -0.47865771919E+03  0.47961815120E+03  0.00000000000E+00 0.  1.
        -15    1    1    2    0    0 -0.12931130790E+02 -0.29264751414E+01 -0.43124172402E+01  0.14054645912E+02  0.17770000000E+01 0. -1.
         15    1    1    2    0    0 -0.12153612041E+02  0.15766108998E+02 -0.30853978619E+01  0.20222707226E+02  0.17770000000E+01 0.  1.
</event>
<event>
 6    1  0.6506903E-004  0.5045704E+03  0.7546771E-02  0.9389641E-01
        -11   -1    0    0    0    0  0.00000000000E+00  0.00000000000E+00  0.50000000000E+03  0.50000000000E+03  0.00000000000E+00 0.  1.
         11   -1    0    0    0    0 -0.00000000000E+00 -0.00000000000E+00 -0.50000000000E+03  0.50000000000E+03  0.00000000000E+00 0. -1.
        -11    1    1    2    0    0  0.55830632438E+01  0.43414901494E+01  0.46753187588E+03  0.46758536557E+03  0.00000000000E+00 0.  1.
         11    1    1    2    0    0 -0.10477244364E+02  0.15163817984E+02 -0.49508664664E+03  0.49542961327E+03  0.00000000000E+00 0. -1.
        -15    1    1    2    0    0 -0.45051423464E+01 -0.89629173137E+01  0.89630724858E+01  0.13569251701E+02  0.17770000000E+01 0. -1.
         15    1    1    2    0    0  0.93993234668E+01 -0.10542390819E+02  0.18591698267E+02  0.23415769457E+02  0.17770000000E+01 0.  1.
</event>
<event>
 6    1  0.6506903E-004  0.5040772E+03  0.7546771E-02  0.9390733E-01
        -11   -1    0    0    0    0  0.00000000000E+00  0.00000000000E+00  0.50000000000E+03  0.50000000000E+03  0.00000000000E+00 0. -1.
         11   -1    0    0    0    0 -0.00000000000E+00 -0.00000000000E+00 -0.50000000000E+03  0.50000000000E+03  0.00000000000E+00 0.  1.
        -11    1    1    2    0    0  0.90073742006E+01 -0.41832785415E+01  0.44759240977E+03  0.44770257749E+03  0.00000000000E+00 0. -1.
         11    1    1    2    0    0  0.35066481793E+01  0.17411996882E+02 -0.49560461818E+03  0.49592278812E+03  0.00000000000E+00 0.  1.
        -15    1    1    2    0    0 -0.10400000232E+02 -0.20402241100E+01  0.42046011216E+02  0.43397549556E+02  0.17770000000E+01 0. -1.
         15    1    1    2    0    0 -0.21140221474E+01 -0.11188494230E+02  0.59661971944E+01  0.12977084832E+02  0.17770000000E+01 0.  1.
</event>
<event>
 6    1  0.6506903E-004  0.4859661E+03  0.7546771E-02  0.9431771E-01
        -11   -1    0    0    0    0  0.00000000000E+00  0.00000000000E+00  0.50000000000E+03  0.50000000000E+03  0.00000000000E+00 0.  1.
         11   -1    0    0    0    0 -0.00000000000E+00 -0.00000000000E+00 -0.50000000000E+03  0.50000000000E+03  0.00000000000E+00 0.  1.
        -11    1    1    2    0    0  0.74833302194E+01  0.78918223378E+01  0.48770579161E+03  0.48782703929E+03  0.00000000000E+00 0.  1.
         11    1    1    2    0    0  0.41925882083E+00  0.17636654011E+02 -0.48415757960E+03  0.48447888419E+03  0.00000000000E+00 0.  1.
        -15    1    1    2    0    0 -0.38603116333E+01 -0.19543658765E+02 -0.20287031624E+01  0.20102984091E+02  0.17770000000E+01 0.  1.
         15    1    1    2    0    0 -0.40422774070E+01 -0.59848175834E+01 -0.15195088435E+01  0.75910924291E+01  0.17770000000E+01 0. -1.
</event>
<event>
 6    1  0.5408314E-003  0.5000277E+03  0.7546771E-02  0.9399748E-01
        -11   -1    0    0    0    0  0.00000000000E+00  0.00000000000E+00  0.50000000000E+03  0.50000000000E+03  0.00000000000E+00 0. -1.
         11   -1    0    0    0    0 -0.00000000000E+00 -0.00000000000E+00 -0.50000000000E+03  0.50000000000E+03  0.00000000000E+00 0.  1.
        -11    1    1    2    0    0 -0.37212630572E+00  0.21368206062E+01  0.14694159835E+03  0.14695760547E+03  0.00000000000E+00 0. -1.
         11    1    1    2    0    0 -0.14177989530E+01 -0.88110542471E+01 -0.49989263867E+03  0.49997229426E+03  0.00000000000E+00 0.  1.
        -15    1    1    2    0    0  0.18457214478E+01  0.41966727293E+01  0.29325945202E+03  0.29330066941E+03  0.17770000000E+01 0.  1.
         15    1    1    2    0    0 -0.55796189157E-01  0.24775609116E+01  0.59691588305E+02  0.59769430854E+02  0.17770000000E+01 0.  1.
</event>
<event>
 6    1  0.6506903E-004  0.4922003E+03  0.7546771E-02  0.9417433E-01
        -11   -1    0    0    0    0  0.00000000000E+00  0.00000000000E+00  0.50000000000E+03  0.50000000000E+03  0.00000000000E+00 0.  1.
         11   -1    0    0    0    0 -0.00000000000E+00 -0.00000000000E+00 -0.50000000000E+03  0.50000000000E+03  0.00000000000E+00 0.  1.
        -11    1    1    2    0    0 -0.56006251155E+01  0.60994683498E+01  0.49285231187E+03  0.49292187193E+03  0.00000000000E+00 0.  1.
         11    1    1    2    0    0 -0.10639342224E+01 -0.15608202040E+02 -0.49129942011E+03  0.49154843925E+03  0.00000000000E+00 0.  1.
        -15    1    1    2    0    0  0.21600593815E+01 -0.29288495232E+00  0.26047438991E+01  0.38332829151E+01  0.17770000000E+01 0.  1.
         15    1    1    2    0    0  0.45044999564E+01  0.98016186425E+01 -0.41576356548E+01  0.11696405906E+02  0.17770000000E+01 0. -1.
</event>
<event>
 6    1  0.6506903E-004  0.4867833E+03  0.7546771E-02  0.9429879E-01
        -11   -1    0    0    0    0  0.00000000000E+00  0.00000000000E+00  0.50000000000E+03  0.50000000000E+03  0.00000000000E+00 0. -1.
         11   -1    0    0    0    0 -0.00000000000E+00 -0.00000000000E+00 -0.50000000000E+03  0.50000000000E+03  0.00000000000E+00 0.  1.
        -11    1    1    2    0    0 -0.35299084207E+01 -0.15353021622E+02  0.48973876382E+03  0.48999207372E+03  0.00000000000E+00 0. -1.
         11    1    1    2    0    0  0.55238404454E+01  0.37279802140E+02 -0.48238123238E+03  0.48385116494E+03  0.00000000000E+00 0.  1.
        -15    1    1    2    0    0  0.33593343865E+00 -0.95569066858E+00  0.21304544611E+01  0.29534320951E+01  0.17770000000E+01 0. -1.
         15    1    1    2    0    0 -0.23298654634E+01 -0.20971089850E+02 -0.94879859003E+01  0.23203329244E+02  0.17770000000E+01 0.  1.
</event>
<event>
 6    1  0.6506903E-004  0.5048112E+03  0.7546771E-02  0.9389108E-01
        -11   -1    0    0    0    0  0.00000000000E+00  0.00000000000E+00  0.50000000000E+03  0.50000000000E+03  0.00000000000E+00 0.  1.
         11   -1    0    0    0    0 -0.00000000000E+00 -0.00000000000E+00 -0.50000000000E+03  0.50000000000E+03  0.00000000000E+00 0.  1.
        -11    1    1    2    0    0 -0.50548553923E+01  0.47976812894E+01  0.49513974793E+03  0.49518879156E+03  0.00000000000E+00 0.  1.
         11    1    1    2    0    0 -0.16460047964E+02 -0.94888646988E+01 -0.43296569128E+03  0.43338235030E+03  0.00000000000E+00 0.  1.
        -15    1    1    2    0    0  0.60922743465E+01  0.15056149819E+02 -0.32410083914E+02  0.36295657073E+02  0.17770000000E+01 0. -1.
         15    1    1    2    0    0  0.15422629010E+02 -0.10364966409E+02 -0.29763972742E+02  0.35133201059E+02  0.17770000000E+01 0.  1.
</event>
<event>
 6    1  0.6506903E-004  0.5000758E+03  0.7546771E-02  0.9399640E-01
        -11   -1    0    0    0    0  0.00000000000E+00  0.00000000000E+00  0.50000000000E+03  0.50000000000E+03  0.00000000000E+00 0. -1.
         11   -1    0    0    0    0 -0.00000000000E+00 -0.00000000000E+00 -0.50000000000E+03  0.50000000000E+03  0.00000000000E+00 0.  1.
        -11    1    1    2    0    0 -0.50581873801E+01 -0.44734594456E+01  0.37506165500E+03  0.37512243622E+03  0.00000000000E+00 0. -1.
         11    1    1    2    0    0  0.67856793912E+01  0.84801614606E+00 -0.49987740297E+03  0.49992417683E+03  0.00000000000E+00 0.  1.
        -15    1    1    2    0    0 -0.47719527124E+00  0.75029998568E+00  0.64091427260E+02  0.64122222689E+02  0.17770000000E+01 0. -1.
         15    1    1    2    0    0 -0.12502967399E+01  0.28751433139E+01  0.60724320710E+02  0.60831164264E+02  0.17770000000E+01 0. -1.
</event>
<event>
 6    1  0.6506903E-004  0.5152256E+03  0.7546771E-02  0.9366371E-01
        -11   -1    0    0    0    0  0.00000000000E+00  0.00000000000E+00  0.50000000000E+03  0.50000000000E+03  0.00000000000E+00 0. -1.
         11   -1    0    0    0    0 -0.00000000000E+00 -0.00000000000E+00 -0.50000000000E+03  0.50000000000E+03  0.00000000000E+00 0. -1.
        -11    1    1    2    0    0 -0.96828530352E+01 -0.22240058461E+02  0.48416716530E+03  0.48477440300E+03  0.00000000000E+00 0. -1.
         11    1    1    2    0    0 -0.22709131955E+02  0.92607958709E+01 -0.46169202960E+03  0.46234294329E+03  0.00000000000E+00 0. -1.
        -15    1    1    2    0    0  0.14217678236E+02 -0.10622208875E+02 -0.10718841928E+02  0.20809252679E+02  0.17770000000E+01 0. -1.
         15    1    1    2    0    0  0.18174306754E+02  0.23601471464E+02 -0.11756293773E+02  0.32073401029E+02  0.17770000000E+01 0.  1.
</event>
<event>
 6    1  0.6506903E-004  0.5065659E+03  0.7546771E-02  0.9385237E-01
        -11   -1    0    0    0    0  0.00000000000E+00  0.00000000000E+00  0.50000000000E+03  0.50000000000E+03  0.00000000000E+00 0.  1.
         11   -1    0    0    0    0 -0.00000000000E+00 -0.00000000000E+00 -0.50000000000E+03  0.50000000000E+03  0.00000000000E+00 0. -1.
        -11    1    1    2    0    0  0.25986562980E+02  0.23864577518E+02  0.34539067583E+03  0.34718804482E+03  0.00000000000E+00 0.  1.
         11    1    1    2    0    0 -0.39106953637E+02 -0.12170073750E+02 -0.49173138066E+03  0.49343410426E+03  0.00000000000E+00 0. -1.
        -15    1    1    2    0    0 -0.48314383343E+01 -0.11492328232E+02  0.68722581158E+00  0.12611360469E+02  0.17770000000E+01 0. -1.
         15    1    1    2    0    0  0.17951828991E+02 -0.20217553611E+00  0.14565347902E+03  0.14676649045E+03  0.17770000000E+01 0.  1.
</event>
<event>
 6    1  0.6506903E-004  0.5010529E+03  0.7546771E-02  0.9397457E-01
        -11   -1    0    0    0    0  0.00000000000E+00  0.00000000000E+00  0.50000000000E+03  0.50000000000E+03  0.00000000000E+00 0. -1.
         11   -1    0    0    0    0 -0.00000000000E+00 -0.00000000000E+00 -0.50000000000E+03  0.50000000000E+03  0.00000000000E+00 0. -1.
        -11    1    1    2    0    0  0.69120387952E+01  0.16256495272E+01  0.40541835533E+03  0.40548053203E+03  0.00000000000E+00 0. -1.
         11    1    1    2    0    0 -0.15560358243E+02  0.13996335453E+02 -0.49850794919E+03  0.49894708894E+03  0.00000000000E+00 0. -1.
        -15    1    1    2    0    0  0.68993758507E+00 -0.40229482847E+01  0.50263082518E+02  0.50459838684E+02  0.17770000000E+01 0.  1.
         15    1    1    2    0    0  0.79583818628E+01 -0.11599036695E+02  0.42826511342E+02  0.45112540351E+02  0.17770000000E+01 0. -1.
</event>
<event>
 6    1  0.6506903E-004  0.4869819E+03  0.7546771E-02  0.9429419E-01
        -11   -1    0    0    0    0  0.00000000000E+00  0.00000000000E+00  0.50000000000E+03  0.50000000000E+03  0.00000000000E+00 0.  1.
         11   -1    0    0    0    0 -0.00000000000E+00 -0.00000000000E+00 -0.50000000000E+03  0.50000000000E+03  0.00000000000E+00 0.  1.
        -11    1    1    2    0    0 -0.42487383561E+01  0.71053406215E+01  0.48755830876E+03  0.48762859031E+03  0.00000000000E+00 0.  1.
         11    1    1    2    0    0  0.17781443538E+02  0.68036005980E+01 -0.48615687605E+03  0.48652952310E+03  0.00000000000E+00 0.  1.
        -15    1    1    2    0    0 -0.16640408896E+02 -0.14033423958E+02 -0.27534813137E+01  0.22013168435E+02  0.17770000000E+01 0.  1.
         15    1    1    2    0    0  0.31077037140E+01  0.12448273860E+00  0.13520486050E+01  0.38287181610E+01  0.17770000000E+01 0. -1.
</event>
<event>
 6    1  0.6506903E-004  0.5004185E+03  0.7546771E-02  0.9398874E-01
        -11   -1    0    0    0    0  0.00000000000E+00  0.00000000000E+00  0.50000000000E+03  0.50000000000E+03  0.00000000000E+00 0.  1.
         11   -1    0    0    0    0 -0.00000000000E+00 -0.00000000000E+00 -0.50000000000E+03  0.50000000000E+03  0.00000000000E+00 0.  1.
        -11    1    1    2    0    0 -0.29041988371E+01 -0.62890306313E+01  0.37631142762E+03  0.37637518095E+03  0.00000000000E+00 0.  1.
         11    1    1    2    0    0 -0.88506876878E+01  0.42825754405E+01 -0.49948472543E+03  0.49958149092E+03  0.00000000000E+00 0.  1.
        -15    1    1    2    0    0  0.41974647504E+01  0.45957716731E+01  0.52243735262E+02  0.52643189785E+02  0.17770000000E+01 0. -1.
         15    1    1    2    0    0  0.75574217745E+01 -0.25893164823E+01  0.70929562547E+02  0.71400138346E+02  0.17770000000E+01 0.  1.
</event>
<event>
 6    1  0.6506903E-004  0.5011244E+03  0.7546771E-02  0.9397297E-01
        -11   -1    0    0    0    0  0.00000000000E+00  0.00000000000E+00  0.50000000000E+03  0.50000000000E+03  0.00000000000E+00 0. -1.
         11   -1    0    0    0    0 -0.00000000000E+00 -0.00000000000E+00 -0.50000000000E+03  0.50000000000E+03  0.00000000000E+00 0.  1.
        -11    1    1    2    0    0  0.13343490734E+01 -0.79136065333E+01  0.43812265228E+03  0.43819614797E+03  0.00000000000E+00 0. -1.
         11    1    1    2    0    0  0.10541923252E+02  0.28114343432E+01 -0.49875625244E+03  0.49887557131E+03  0.00000000000E+00 0.  1.
        -15    1    1    2    0    0 -0.47527106047E+00  0.24242360317E+01  0.28833874939E+02  0.28994014485E+02  0.17770000000E+01 0. -1.
         15    1    1    2    0    0 -0.11401001265E+02  0.26779361583E+01  0.31799725219E+02  0.33934266235E+02  0.17770000000E+01 0.  1.
</event>
<event>
 6    1  0.6506903E-004  0.5023496E+03  0.7546771E-02  0.9394568E-01
        -11   -1    0    0    0    0  0.00000000000E+00  0.00000000000E+00  0.50000000000E+03  0.50000000000E+03  0.00000000000E+00 0. -1.
         11   -1    0    0    0    0 -0.00000000000E+00 -0.00000000000E+00 -0.50000000000E+03  0.50000000000E+03  0.00000000000E+00 0. -1.
        -11    1    1    2    0    0  0.42230616331E+01 -0.10691702818E+02  0.49751757331E+03  0.49765036171E+03  0.00000000000E+00 0. -1.
         11    1    1    2    0    0 -0.10794025866E+02 -0.83777907356E+01 -0.44583447741E+03  0.44604380908E+03  0.00000000000E+00 0. -1.
        -15    1    1    2    0    0  0.38795013623E+01  0.11258690435E+02 -0.40726734543E+02  0.42469203862E+02  0.17770000000E+01 0.  1.
         15    1    1    2    0    0  0.26914628705E+01  0.78108031179E+01 -0.10956361361E+02  0.13836625347E+02  0.17770000000E+01 0. -1.
</event>
<event>
 6    1  0.6506903E-004  0.5006433E+03  0.7546771E-02  0.9398371E-01
        -11   -1    0    0    0    0  0.00000000000E+00  0.00000000000E+00  0.50000000000E+03  0.50000000000E+03  0.00000000000E+00 0.  1.
         11   -1    0    0    0    0 -0.00000000000E+00 -0.00000000000E+00 -0.50000000000E+03  0.50000000000E+03  0.00000000000E+00 0.  1.
        -11    1    1    2    0    0  0.19677092763E+01  0.45388087175E+00  0.63316247595E+02  0.63348441947E+02  0.00000000000E+00 0.  1.
         11    1    1    2    0    0 -0.29688302151E+02  0.44036006300E+02 -0.49652444924E+03  0.49935667996E+03  0.00000000000E+00 0.  1.
        -15    1    1    2    0    0 -0.53724619733E+01 -0.28740213460E+01  0.38972207125E+02  0.39485617679E+02  0.17770000000E+01 0. -1.
         15    1    1    2    0    0  0.33093054848E+02 -0.41615865825E+02  0.39423599452E+03  0.39780926041E+03  0.17770000000E+01 0.  1.
</event>
<event>
 6    1  0.6506903E-004  0.5067342E+03  0.7546771E-02  0.9384866E-01
        -11   -1    0    0    0    0  0.00000000000E+00  0.00000000000E+00  0.50000000000E+03  0.50000000000E+03  0.00000000000E+00 0.  1.
         11   -1    0    0    0    0 -0.00000000000E+00 -0.00000000000E+00 -0.50000000000E+03  0.50000000000E+03  0.00000000000E+00 0.  1.
        -11    1    1    2    0    0 -0.24324397647E+02  0.82805750020E+01  0.49259606661E+03  0.49326577936E+03  0.00000000000E+00 0.  1.
         11    1    1    2    0    0  0.21095381391E+02 -0.20815225660E+02 -0.24572168334E+02  0.38497794637E+02  0.00000000000E+00 0.  1.
        -15    1    1    2    0    0  0.28575754596E+01  0.40268116010E+01 -0.14341251890E+03  0.14350849890E+03  0.17770000000E+01 0. -1.
         15    1    1    2    0    0  0.37144079660E+00  0.85078390568E+01 -0.32461137937E+03  0.32472792711E+03  0.17770000000E+01 0.  1.
</event>
<event>
 6    1  0.6506903E-004  0.5000744E+03  0.7546771E-02  0.9399643E-01
        -11   -1    0    0    0    0  0.00000000000E+00  0.00000000000E+00  0.50000000000E+03  0.50000000000E+03  0.00000000000E+00 0. -1.
         11   -1    0    0    0    0 -0.00000000000E+00 -0.00000000000E+00 -0.50000000000E+03  0.50000000000E+03  0.00000000000E+00 0. -1.
        -11    1    1    2    0    0  0.25776028000E+01  0.33503342445E+01  0.17819311623E+03  0.17824324797E+03  0.00000000000E+00 0. -1.
         11    1    1    2    0    0 -0.74291373928E+01  0.18774753658E+01 -0.49986690616E+03  0.49992563534E+03  0.00000000000E+00 0. -1.
        -15    1    1    2    0    0  0.58272545146E+01 -0.52166393554E+01  0.26333874414E+03  0.26346085500E+03  0.17770000000E+01 0. -1.
         15    1    1    2    0    0 -0.97571992179E+00 -0.11170254936E-01  0.58335045789E+02  0.58370261695E+02  0.17770000000E+01 0. -1.
</event>
<event>
 6    1  0.6506903E-004  0.5003807E+03  0.7546771E-02  0.9398958E-01
        -11   -1    0    0    0    0  0.00000000000E+00  0.00000000000E+00  0.50000000000E+03  0.50000000000E+03  0.00000000000E+00 0. -1.
         11   -1    0    0    0    0 -0.00000000000E+00 -0.00000000000E+00 -0.50000000000E+03  0.50000000000E+03  0.00000000000E+00 0. -1.
        -11    1    1    2    0    0  0.33417391302E+01  0.18002844050E+02  0.49928368690E+03  0.49961932471E+03  0.00000000000E+00 0. -1.
         11    1    1    2    0    0  0.55299000562E+01 -0.43886385636E+01 -0.30133244275E+03  0.30141513067E+03  0.00000000000E+00 0. -1.
        -15    1    1    2    0    0 -0.40247850652E+01 -0.85973951269E+01 -0.16272374864E+03  0.16301009232E+03  0.17770000000E+01 0. -1.
         15    1    1    2    0    0 -0.48468541213E+01 -0.50168103600E+01 -0.35227495518E+02  0.35955452306E+02  0.17770000000E+01 0.  1.
</event>
<event>
 6    1  0.6506903E-004  0.5016288E+03  0.7546771E-02  0.9396172E-01
        -11   -1    0    0    0    0  0.00000000000E+00  0.00000000000E+00  0.50000000000E+03  0.50000000000E+03  0.00000000000E+00 0.  1.
         11   -1    0    0    0    0 -0.00000000000E+00 -0.00000000000E+00 -0.50000000000E+03  0.50000000000E+03  0.00000000000E+00 0. -1.
        -11    1    1    2    0    0 -0.81576229587E+01 -0.14201246374E+02  0.49810201670E+03  0.49837118823E+03  0.00000000000E+00 0.  1.
         11    1    1    2    0    0  0.18872752963E+02  0.11236613956E+02 -0.77540278306E+02  0.80591172329E+02  0.00000000000E+00 0. -1.
        -15    1    1    2    0    0 -0.39085612652E+01 -0.61912611713E+01 -0.23230555063E+03  0.23242769876E+03  0.17770000000E+01 0. -1.
         15    1    1    2    0    0 -0.68065687392E+01  0.91558935896E+01 -0.18825618777E+03  0.18860994069E+03  0.17770000000E+01 0.  1.
</event>
<event>
 6    1  0.6506903E-004  0.5089335E+03  0.7546771E-02  0.9380039E-01
        -11   -1    0    0    0    0  0.00000000000E+00  0.00000000000E+00  0.50000000000E+03  0.50000000000E+03  0.00000000000E+00 0. -1.
         11   -1    0    0    0    0 -0.00000000000E+00 -0.00000000000E+00 -0.50000000000E+03  0.50000000000E+03  0.00000000000E+00 0.  1.
        -11    1    1    2    0    0 -0.58644699362E+00  0.11666875703E+02  0.49092749159E+03  0.49106645365E+03  0.00000000000E+00 0. -1.
         11    1    1    2    0    0 -0.18168010824E+02  0.24088128488E+02 -0.44598650375E+03  0.44700590161E+03  0.00000000000E+00 0.  1.
        -15    1    1    2    0    0  0.19198621004E+02 -0.25546702134E+02 -0.36584295367E+02  0.48608532531E+02  0.17770000000E+01 0.  1.
         15    1    1    2    0    0 -0.44416318649E+00 -0.10208302057E+02 -0.83566924693E+01  0.13319112202E+02  0.17770000000E+01 0. -1.
</event>
<event>
 6    1  0.6506903E-004  0.5001854E+03  0.7546771E-02  0.9399395E-01
        -11   -1    0    0    0    0  0.00000000000E+00  0.00000000000E+00  0.50000000000E+03  0.50000000000E+03  0.00000000000E+00 0.  1.
         11   -1    0    0    0    0 -0.00000000000E+00 -0.00000000000E+00 -0.50000000000E+03  0.50000000000E+03  0.00000000000E+00 0. -1.
        -11    1    1    2    0    0 -0.13658361311E+02  0.32360174078E+01  0.49961750513E+03  0.49981463972E+03  0.00000000000E+00 0.  1.
         11    1    1    2    0    0  0.15060138568E+02 -0.10320560356E+00 -0.21678281943E+03  0.21730533640E+03  0.00000000000E+00 0. -1.
        -15    1    1    2    0    0 -0.11926715187E+01 -0.13719709777E+01 -0.15199514058E+03  0.15201639799E+03  0.17770000000E+01 0. -1.
         15    1    1    2    0    0 -0.20910573790E+00 -0.17608408265E+01 -0.13083954512E+03  0.13086362589E+03  0.17770000000E+01 0. -1.
</event>
<event>
 6    1  0.6506903E-004  0.5019992E+03  0.7546771E-02  0.9395347E-01
        -11   -1    0    0    0    0  0.00000000000E+00  0.00000000000E+00  0.50000000000E+03  0.50000000000E+03  0.00000000000E+00 0.  1.
         11   -1    0    0    0    0 -0.00000000000E+00 -0.00000000000E+00 -0.50000000000E+03  0.50000000000E+03  0.00000000000E+00 0.  1.
        -11    1    1    2    0    0  0.46956728935E+01  0.93659886451E+01  0.49789053086E+03  0.49800075482E+03  0.00000000000E+00 0.  1.
         11    1    1    2    0    0 -0.72966225160E+01 -0.14242515071E+02 -0.97356237104E+02  0.98662692233E+02  0.00000000000E+00 0.  1.
        -15    1    1    2    0    0  0.10480281100E+02 -0.16711374557E+02 -0.10143790855E+03  0.10335334223E+03  0.17770000000E+01 0. -1.
         15    1    1    2    0    0 -0.78793314770E+01  0.21587900983E+02 -0.29909638521E+03  0.29998321071E+03  0.17770000000E+01 0.  1.
</event>
<event>
 6    1  0.6506903E-004  0.5051794E+03  0.7546771E-02  0.9388294E-01
        -11   -1    0    0    0    0  0.00000000000E+00  0.00000000000E+00  0.50000000000E+03  0.50000000000E+03  0.00000000000E+00 0.  1.
         11   -1    0    0    0    0 -0.00000000000E+00 -0.00000000000E+00 -0.50000000000E+03  0.50000000000E+03  0.00000000000E+00 0.  1.
        -11    1    1    2    0    0  0.34887915300E+01  0.84971686253E+01  0.45892300742E+03  0.45901492381E+03  0.00000000000E+00 0.  1.
         11    1    1    2    0    0 -0.10670178350E+01 -0.24532105771E+02 -0.49421093810E+03  0.49482058777E+03  0.00000000000E+00 0.  1.
        -15    1    1    2    0    0 -0.40347701198E+01 -0.34393252391E+01  0.21417632191E+02  0.22135515031E+02  0.17770000000E+01 0. -1.
         15    1    1    2    0    0  0.16129964249E+01  0.19474262385E+02  0.13870298493E+02  0.24028973390E+02  0.17770000000E+01 0. -1.
</event>
<event>
 6    1  0.6506903E-004  0.5023251E+03  0.7546771E-02  0.9394622E-01
        -11   -1    0    0    0    0  0.00000000000E+00  0.00000000000E+00  0.50000000000E+03  0.50000000000E+03  0.00000000000E+00 0.  1.
         11   -1    0    0    0    0 -0.00000000000E+00 -0.00000000000E+00 -0.50000000000E+03  0.50000000000E+03  0.00000000000E+00 0. -1.
        -11    1    1    2    0    0 -0.57028386158E+00  0.94852638350E+01  0.45826143928E+03  0.45835994827E+03  0.00000000000E+00 0.  1.
         11    1    1    2    0    0 -0.12723276256E+02 -0.71355198543E+01 -0.49746109278E+03  0.49767493028E+03  0.00000000000E+00 0. -1.
        -15    1    1    2    0    0  0.14061670435E+02  0.11307439019E+01  0.21175799790E+02  0.25506496877E+02  0.17770000000E+01 0.  1.
         15    1    1    2    0    0 -0.76811031717E+00 -0.34804878825E+01  0.18023853713E+02  0.18458624570E+02  0.17770000000E+01 0.  1.
</event>
<event>
 6    1  0.6506903E-004  0.5003365E+03  0.7546771E-02  0.9399057E-01
        -11   -1    0    0    0    0  0.00000000000E+00  0.00000000000E+00  0.50000000000E+03  0.50000000000E+03  0.00000000000E+00 0. -1.
         11   -1    0    0    0    0 -0.00000000000E+00 -0.00000000000E+00 -0.50000000000E+03  0.50000000000E+03  0.00000000000E+00 0. -1.
        -11    1    1    2    0    0 -0.29133784130E+01 -0.66659537582E+01  0.30304442792E+03  0.30313173375E+03  0.00000000000E+00 0. -1.
         11    1    1    2    0    0 -0.74799545588E+01 -0.40421443199E+01 -0.49959115547E+03  0.49966349804E+03  0.00000000000E+00 0. -1.
        -15    1    1    2    0    0  0.93201608334E+01  0.10242295415E+02  0.16844380422E+03  0.16902142741E+03  0.17770000000E+01 0.  1.
         15    1    1    2    0    0  0.10731721384E+01  0.46580266308E+00  0.28102923324E+02  0.28183340805E+02  0.17770000000E+01 0. -1.
</event>
<event>
 6    1  0.6506903E-004  0.5063260E+03  0.7546771E-02  0.9385765E-01
        -11   -1    0    0    0    0  0.00000000000E+00  0.00000000000E+00  0.50000000000E+03  0.50000000000E+03  0.00000000000E+00 0. -1.
         11   -1    0    0    0    0 -0.00000000000E+00 -0.00000000000E+00 -0.50000000000E+03  0.50000000000E+03  0.00000000000E+00 0.  1.
        -11    1    1    2    0    0  0.11061888881E+02  0.21249289963E+01  0.49354543614E+03  0.49367395946E+03  0.00000000000E+00 0. -1.
         11    1    1    2    0    0 -0.18680047328E+02  0.44225123886E+01 -0.48361109224E+03  0.48399193312E+03  0.00000000000E+00 0.  1.
        -15    1    1    2    0    0 -0.49147075246E+01  0.91938805366E+00 -0.26880478186E+01  0.59483572960E+01  0.17770000000E+01 0.  1.
         15    1    1    2    0    0  0.12532865972E+02 -0.74668294385E+01 -0.72462960792E+01  0.16385750126E+02  0.17770000000E+01 0. -1.
</event>
<event>
 6    1  0.6506903E-004  0.5051421E+03  0.7546771E-02  0.9388377E-01
        -11   -1    0    0    0    0  0.00000000000E+00  0.00000000000E+00  0.50000000000E+03  0.50000000000E+03  0.00000000000E+00 0.  1.
         11   -1    0    0    0    0 -0.00000000000E+00 -0.00000000000E+00 -0.50000000000E+03  0.50000000000E+03  0.00000000000E+00 0. -1.
        -11    1    1    2    0    0  0.30086324327E+01  0.98011235963E+01  0.49475168797E+03  0.49485790551E+03  0.00000000000E+00 0.  1.
         11    1    1    2    0    0 -0.17285345048E+02 -0.90883333223E+00 -0.45709647348E+03  0.45742408681E+03  0.00000000000E+00 0. -1.
        -15    1    1    2    0    0  0.17064661525E+02  0.14138377324E+01 -0.29539685348E+02  0.34189945153E+02  0.17770000000E+01 0.  1.
         15    1    1    2    0    0 -0.27879489100E+01 -0.10306127996E+02 -0.81155291448E+01  0.13528062526E+02  0.17770000000E+01 0. -1.
</event>
<event>
 6    1  0.6506903E-004  0.5007026E+03  0.7546771E-02  0.9398239E-01
        -11   -1    0    0    0    0  0.00000000000E+00  0.00000000000E+00  0.50000000000E+03  0.50000000000E+03  0.00000000000E+00 0.  1.
         11   -1    0    0    0    0 -0.00000000000E+00 -0.00000000000E+00 -0.50000000000E+03  0.50000000000E+03  0.00000000000E+00 0.  1.
        -11    1    1    2    0    0  0.71093331138E+01 -0.19860017722E+01  0.14904004260E+03  0.14922272320E+03  0.00000000000E+00 0.  1.
         11    1    1    2    0    0 -0.32018437156E+02 -0.37281267295E+02 -0.49687300968E+03  0.49929736727E+03  0.00000000000E+00 0.  1.
        -15    1    1    2    0    0  0.48239060253E-01  0.12254525446E+02  0.12777569405E+03  0.12837430210E+03  0.17770000000E+01 0. -1.
         15    1    1    2    0    0  0.24860864982E+02  0.27012743621E+02  0.22005727303E+03  0.22310560743E+03  0.17770000000E+01 0.  1.
</event>
<event>
 6    1  0.6506903E-004  0.5001913E+03  0.7546771E-02  0.9399382E-01
        -11   -1    0    0    0    0  0.00000000000E+00  0.00000000000E+00  0.50000000000E+03  0.50000000000E+03  0.00000000000E+00 0. -1.
         11   -1    0    0    0    0 -0.00000000000E+00 -0.00000000000E+00 -0.50000000000E+03  0.50000000000E+03  0.00000000000E+00 0. -1.
        -11    1    1    2    0    0  0.60872710176E+01  0.60810982677E+00  0.24152573805E+03  0.24160320115E+03  0.00000000000E+00 0. -1.
         11    1    1    2    0    0  0.13465109116E+01 -0.71159561076E+01 -0.49975621671E+03  0.49980868947E+03  0.00000000000E+00 0. -1.
        -15    1    1    2    0    0 -0.88347949004E+01  0.35866808546E+01  0.16542786015E+03  0.16571195649E+03  0.17770000000E+01 0. -1.
         15    1    1    2    0    0  0.14010129712E+01  0.29211654263E+01  0.92802618514E+02  0.92876152897E+02  0.17770000000E+01 0.  1.
</event>
<event>
 6    1  0.6506903E-004  0.5070421E+03  0.7546771E-02  0.9384189E-01
        -11   -1    0    0    0    0  0.00000000000E+00  0.00000000000E+00  0.50000000000E+03  0.50000000000E+03  0.00000000000E+00 0.  1.
         11   -1    0    0    0    0 -0.00000000000E+00 -0.00000000000E+00 -0.50000000000E+03  0.50000000000E+03  0.00000000000E+00 0. -1.
        -11    1    1    2    0    0  0.13028511871E+02  0.13265520272E+02  0.49260716864E+03  0.49295794825E+03  0.00000000000E+00 0.  1.
         11    1    1    2    0    0  0.85506539788E+00  0.20799167349E+02 -0.42437587342E+03  0.42488612409E+03  0.00000000000E+00 0. -1.
        -15    1    1    2    0    0 -0.10653656886E+02 -0.27016524822E+02 -0.25493391765E+02  0.38684154006E+02  0.17770000000E+01 0. -1.
         15    1    1    2    0    0 -0.32299203833E+01 -0.70481627990E+01 -0.42737903451E+02  0.43471773658E+02  0.17770000000E+01 0.  1.
</event>
<event>
 6    1  0.6506903E-004  0.5001827E+03  0.7546771E-02  0.9399401E-01
        -11   -1    0    0    0    0  0.00000000000E+00  0.00000000000E+00  0.50000000000E+03  0.50000000000E+03  0.00000000000E+00 0.  1.
         11   -1    0    0    0    0 -0.00000000000E+00 -0.00000000000E+00 -0.50000000000E+03  0.50000000000E+03  0.00000000000E+00 0. -1.
        -11    1    1    2    0    0  0.48110012402E+01 -0.78130469821E+01  0.49973309065E+03  0.49981731796E+03  0.00000000000E+00 0.  1.
         11    1    1    2    0    0 -0.57036929066E+01  0.11713996472E+02 -0.26739801048E+03  0.26771523273E+03  0.00000000000E+00 0. -1.
        -15    1    1    2    0    0  0.24663844156E+01  0.23046468542E+00 -0.10083929140E+03  0.10088536358E+03  0.17770000000E+01 0. -1.
         15    1    1    2    0    0 -0.15736927493E+01 -0.41314141756E+01 -0.13149578877E+03  0.13158208573E+03  0.17770000000E+01 0.  1.
</event>
<event>
 6    1  0.6506903E-004  0.5003876E+03  0.7546771E-02  0.9398943E-01
        -11   -1    0    0    0    0  0.00000000000E+00  0.00000000000E+00  0.50000000000E+03  0.50000000000E+03  0.00000000000E+00 0.  1.
         11   -1    0    0    0    0 -0.00000000000E+00 -0.00000000000E+00 -0.50000000000E+03  0.50000000000E+03  0.00000000000E+00 0.  1.
        -11    1    1    2    0    0  0.71866567658E+01  0.18439254858E+02  0.49922033499E+03  0.49961244682E+03  0.00000000000E+00 0.  1.
         11    1    1    2    0    0  0.20072540684E+01 -0.16395775257E+02 -0.14530921867E+03  0.14624506674E+03  0.00000000000E+00 0.  1.
        -15    1    1    2    0    0 -0.16576867298E+01  0.23315493336E+01 -0.14959802196E+03  0.14963592467E+03  0.17770000000E+01 0.  1.
         15    1    1    2    0    0 -0.75362241045E+01 -0.43750289352E+01 -0.20431309435E+03  0.20450656176E+03  0.17770000000E+01 0.  1.
</event>
<event>
 6    1  0.6506903E-004  0.5018397E+03  0.7546771E-02  0.9395703E-01
        -11   -1    0    0    0    0  0.00000000000E+00  0.00000000000E+00  0.50000000000E+03  0.50000000000E+03  0.00000000000E+00 0.  1.
         11   -1    0    0    0    0 -0.00000000000E+00 -0.00000000000E+00 -0.50000000000E+03  0.50000000000E+03  0.00000000000E+00 0.  1.
        -11    1    1    2    0    0 -0.22558046596E+01  0.57723658056E+01  0.43647712375E+03  0.43652112025E+03  0.00000000000E+00 0.  1.
         11    1    1    2    0    0  0.11880329372E+02  0.76173733492E+01 -0.49796036261E+03  0.49816030486E+03  0.00000000000E+00 0.  1.
        -15    1    1    2    0    0 -0.35319886942E+01 -0.27442606821E+01  0.33135119258E+01  0.58432012724E+01  0.17770000000E+01 0.  1.
         15    1    1    2    0    0 -0.60925360180E+01 -0.10645478473E+02  0.58169726934E+02  0.59475373623E+02  0.17770000000E+01 0. -1.
</event>
<event>
 6    1  0.6506903E-004  0.4889865E+03  0.7546771E-02  0.9424796E-01
        -11   -1    0    0    0    0  0.00000000000E+00  0.00000000000E+00  0.50000000000E+03  0.50000000000E+03  0.00000000000E+00 0.  1.
         11   -1    0    0    0    0 -0.00000000000E+00 -0.00000000000E+00 -0.50000000000E+03  0.50000000000E+03  0.00000000000E+00 0.  1.
        -11    1    1    2    0    0 -0.27884742286E+02  0.11936456019E+02  0.49356159607E+03  0.49449275723E+03  0.00000000000E+00 0.  1.
         11    1    1    2    0    0  0.19072106168E+02 -0.21631162071E+01 -0.13784860982E+02  0.23631476841E+02  0.00000000000E+00 0.  1.
        -15    1    1    2    0    0  0.23688972664E+02 -0.66169866722E+00 -0.36440130332E+03  0.36517540013E+03  0.17770000000E+01 0.  1.
         15    1    1    2    0    0 -0.14876336545E+02 -0.91116411446E+01 -0.11537543177E+03  0.11670036580E+03  0.17770000000E+01 0. -1.
</event>
<event>
 6    1  0.6506903E-004  0.5000618E+03  0.7546771E-02  0.9399672E-01
        -11   -1    0    0    0    0  0.00000000000E+00  0.00000000000E+00  0.50000000000E+03  0.50000000000E+03  0.00000000000E+00 0. -1.
         11   -1    0    0    0    0 -0.00000000000E+00 -0.00000000000E+00 -0.50000000000E+03  0.50000000000E+03  0.00000000000E+00 0.  1.
        -11    1    1    2    0    0 -0.26191553467E+00  0.11561938306E+02  0.49980446578E+03  0.49993824722E+03  0.00000000000E+00 0. -1.
         11    1    1    2    0    0 -0.71396093098E+00 -0.37467206904E+01 -0.52286687320E+02  0.52425617088E+02  0.00000000000E+00 0.  1.
        -15    1    1    2    0    0 -0.22864905756E+01 -0.33430163273E+01 -0.17050809816E+03  0.17056545097E+03  0.17770000000E+01 0. -1.
         15    1    1    2    0    0  0.32623670413E+01 -0.44722012885E+01 -0.27700968030E+03  0.27707068472E+03  0.17770000000E+01 0.  1.
</event>
<event>
 6    1  0.6506903E-004  0.5014211E+03  0.7546771E-02  0.9396635E-01
        -11   -1    0    0    0    0  0.00000000000E+00  0.00000000000E+00  0.50000000000E+03  0.50000000000E+03  0.00000000000E+00 0.  1.
         11   -1    0    0    0    0 -0.00000000000E+00 -0.00000000000E+00 -0.50000000000E+03  0.50000000000E+03  0.00000000000E+00 0. -1.
        -11    1    1    2    0    0 -0.90930756742E+01  0.13192146169E+01  0.49849419561E+03  0.49857886779E+03  0.00000000000E+00 0.  1.
         11    1    1    2    0    0 -0.14783938484E+02 -0.12212078728E+02 -0.91631853866E+02  0.93616752490E+02  0.00000000000E+00 0. -1.
        -15    1    1    2    0    0  0.20394598319E+02  0.81699924570E+01 -0.28597875987E+03  0.28682694651E+03  0.17770000000E+01 0. -1.
         15    1    1    2    0    0  0.34824158392E+01  0.27228716545E+01 -0.12088358187E+03  0.12097743321E+03  0.17770000000E+01 0.  1.
</event>
<event>
 6    1  0.6506903E-004  0.5017631E+03  0.7546771E-02  0.9395873E-01
        -11   -1    0    0    0    0  0.00000000000E+00  0.00000000000E+00  0.50000000000E+03  0.50000000000E+03  0.00000000000E+00 0.  1.
         11   -1    0    0    0    0 -0.00000000000E+00 -0.00000000000E+00 -0.50000000000E+03  0.50000000000E+03  0.00000000000E+00 0. -1.
        -11    1    1    2    0    0  0.80431945532E+01 -0.47985028224E+01  0.49814887007E+03  0.49823690687E+03  0.00000000000E+00 0.  1.
         11    1    1    2    0    0 -0.96369072474E+01 -0.10941641241E+02 -0.38094938682E+03  0.38122831061E+03  0.00000000000E+00 0. -1.
        -15    1    1    2    0    0  0.45876782774E+01 -0.32661717201E+01 -0.10046289042E+02  0.11653339530E+02  0.17770000000E+01 0.  1.
         15    1    1    2    0    0 -0.29939655832E+01  0.19006315783E+02 -0.10715319421E+03  0.10888144300E+03  0.17770000000E+01 0. -1.
</event>
<event>
 6    1  0.6506903E-004  0.5000527E+03  0.7546771E-02  0.9399692E-01
        -11   -1    0    0    0    0  0.00000000000E+00  0.00000000000E+00  0.50000000000E+03  0.50000000000E+03  0.00000000000E+00 0. -1.
         11   -1    0    0    0    0 -0.00000000000E+00 -0.00000000000E+00 -0.50000000000E+03  0.50000000000E+03  0.00000000000E+00 0. -1.
        -11    1    1    2    0    0  0.11751893538E+02  0.38755009588E+01  0.49979411658E+03  0.49994728270E+03  0.00000000000E+00 0. -1.
         11    1    1    2    0    0 -0.63736414405E+01  0.10745641604E+01 -0.17167203767E+03  0.17179367425E+03  0.00000000000E+00 0. -1.
        -15    1    1    2    0    0 -0.55734631277E+00 -0.37773150268E+01 -0.14588614264E+03  0.14594691873E+03  0.17770000000E+01 0.  1.
         15    1    1    2    0    0 -0.48209057846E+01 -0.11727500924E+01 -0.18223593627E+03  0.18231212432E+03  0.17770000000E+01 0. -1.
</event>
<event>
 6    1  0.6506903E-004  0.5016235E+03  0.7546771E-02  0.9396184E-01
        -11   -1    0    0    0    0  0.00000000000E+00  0.00000000000E+00  0.50000000000E+03  0.50000000000E+03  0.00000000000E+00 0.  1.
         11   -1    0    0    0    0 -0.00000000000E+00 -0.00000000000E+00 -0.50000000000E+03  0.50000000000E+03  0.00000000000E+00 0.  1.
        -11    1    1    2    0    0 -0.49771400196E+01  0.97541227903E+01  0.45610015725E+03  0.45623159500E+03  0.00000000000E+00 0.  1.
         11    1    1    2    0    0  0.89856479987E+01  0.41839099503E+01 -0.49827795331E+03  0.49837653008E+03  0.00000000000E+00 0.  1.
        -15    1    1    2    0    0 -0.54433077914E-01 -0.11802459014E+02  0.30668893514E+02  0.32909569430E+02  0.17770000000E+01 0. -1.
         15    1    1    2    0    0 -0.39540749012E+01 -0.21355737266E+01  0.11508902550E+02  0.12482305491E+02  0.17770000000E+01 0.  1.
</event>
<event>
 6    1  0.6506903E-004  0.5003630E+03  0.7546771E-02  0.9398998E-01
        -11   -1    0    0    0    0  0.00000000000E+00  0.00000000000E+00  0.50000000000E+03  0.50000000000E+03  0.00000000000E+00 0. -1.
         11   -1    0    0    0    0 -0.00000000000E+00 -0.00000000000E+00 -0.50000000000E+03  0.50000000000E+03  0.00000000000E+00 0. -1.
        -11    1    1    2    0    0  0.45550600676E+00  0.15144470992E+02  0.49940726398E+03  0.49963704607E+03  0.00000000000E+00 0. -1.
         11    1    1    2    0    0 -0.99119613314E+01  0.51472903253E+00 -0.16925082000E+03  0.16954159370E+03  0.00000000000E+00 0. -1.
        -15    1    1    2    0    0  0.11109361152E+02 -0.13272981655E+02 -0.25921004725E+03  0.25979337226E+03  0.17770000000E+01 0. -1.
         15    1    1    2    0    0 -0.16529058274E+01 -0.23862183690E+01 -0.70946396735E+02  0.71027987966E+02  0.17770000000E+01 0.  1.
</event>
<event>
 6    1  0.6506903E-004  0.5006559E+03  0.7546771E-02  0.9398343E-01
        -11   -1    0    0    0    0  0.00000000000E+00  0.00000000000E+00  0.50000000000E+03  0.50000000000E+03  0.00000000000E+00 0. -1.
         11   -1    0    0    0    0 -0.00000000000E+00 -0.00000000000E+00 -0.50000000000E+03  0.50000000000E+03  0.00000000000E+00 0.  1.
        -11    1    1    2    0    0 -0.46475295257E+01 -0.45064137666E+01  0.39741340744E+03  0.39746612901E+03  0.00000000000E+00 0. -1.
         11    1    1    2    0    0  0.20427723783E+02  0.65234075778E+01 -0.49888340071E+03  0.49934406399E+03  0.00000000000E+00 0.  1.
        -15    1    1    2    0    0 -0.13959909848E+02 -0.46481080802E+01  0.87614701870E+02  0.88859314112E+02  0.17770000000E+01 0.  1.
         15    1    1    2    0    0 -0.18202844096E+01  0.26311142690E+01  0.13855291396E+02  0.14330492884E+02  0.17770000000E+01 0. -1.
</event>
<event>
 6    1  0.6506903E-004  0.4929739E+03  0.7546771E-02  0.9415670E-01
        -11   -1    0    0    0    0  0.00000000000E+00  0.00000000000E+00  0.50000000000E+03  0.50000000000E+03  0.00000000000E+00 0.  1.
         11   -1    0    0    0    0 -0.00000000000E+00 -0.00000000000E+00 -0.50000000000E+03  0.50000000000E+03  0.00000000000E+00 0.  1.
        -11    1    1    2    0    0 -0.98827109787E+01  0.46304398616E+00  0.48960478604E+03  0.48970473644E+03  0.00000000000E+00 0.  1.
         11    1    1    2    0    0  0.12497533736E+02 -0.35820161697E+01  0.59930398181E+01  0.14315575978E+02  0.00000000000E+00 0.  1.
        -15    1    1    2    0    0  0.55821024730E+01  0.33589884938E+01 -0.38674360693E+03  0.38680255674E+03  0.17770000000E+01 0.  1.
         15    1    1    2    0    0 -0.81969252307E+01 -0.24001631029E+00 -0.10885421892E+03  0.10917713084E+03  0.17770000000E+01 0. -1.
</event>
<event>
 6    1  0.6506903E-004  0.5004274E+03  0.7546771E-02  0.9398854E-01
        -11   -1    0    0    0    0  0.00000000000E+00  0.00000000000E+00  0.50000000000E+03  0.50000000000E+03  0.00000000000E+00 0. -1.
         11   -1    0    0    0    0 -0.00000000000E+00 -0.00000000000E+00 -0.50000000000E+03  0.50000000000E+03  0.00000000000E+00 0. -1.
        -11    1    1    2    0    0  0.11172906290E+02 -0.43121041234E+01  0.49942902505E+03  0.49957259646E+03  0.00000000000E+00 0. -1.
         11    1    1    2    0    0 -0.78425499544E+01  0.52160726587E+01 -0.15957910739E+03  0.15985682506E+03  0.00000000000E+00 0. -1.
        -15    1    1    2    0    0  0.88739002698E+01  0.19130590566E+01 -0.11924459182E+03  0.11960282735E+03  0.17770000000E+01 0.  1.
         15    1    1    2    0    0 -0.12204256605E+02 -0.28170275919E+01 -0.22060532583E+03  0.22096775113E+03  0.17770000000E+01 0. -1.
</event>
<event>
 6    1  0.6506903E-004  0.5001123E+03  0.7546771E-02  0.9399558E-01
        -11   -1    0    0    0    0  0.00000000000E+00  0.00000000000E+00  0.50000000000E+03  0.50000000000E+03  0.00000000000E+00 0.  1.
         11   -1    0    0    0    0 -0.00000000000E+00 -0.00000000000E+00 -0.50000000000E+03  0.50000000000E+03  0.00000000000E+00 0.  1.
        -11    1    1    2    0    0 -0.63795307399E+01  0.30427503084E+01  0.49983769428E+03  0.49988766474E+03  0.00000000000E+00 0.  1.
         11    1    1    2    0    0 -0.13208079407E+01  0.38461845601E+01 -0.17629049593E+03  0.17633739429E+03  0.00000000000E+00 0.  1.
        -15    1    1    2    0    0  0.17505839041E+00 -0.28977629377E+01 -0.10268436603E+03  0.10274076324E+03  0.17770000000E+01 0. -1.
         15    1    1    2    0    0  0.75252802902E+01 -0.39911719308E+01 -0.22086283232E+03  0.22103417774E+03  0.17770000000E+01 0.  1.
</event>
<event>
 6    1  0.6506903E-004  0.5021489E+03  0.7546771E-02  0.9395014E-01
        -11   -1    0    0    0    0  0.00000000000E+00  0.00000000000E+00  0.50000000000E+03  0.50000000000E+03  0.00000000000E+00 0. -1.
         11   -1    0    0    0    0 -0.00000000000E+00 -0.00000000000E+00 -0.50000000000E+03  0.50000000000E+03  0.00000000000E+00 0. -1.
        -11    1    1    2    0    0  0.12555976257E+02  0.73022735421E+01  0.49763919305E+03  0.49785112453E+03  0.00000000000E+00 0. -1.
         11    1    1    2    0    0  0.14356567554E+02 -0.17098101790E+02 -0.11369965710E+03  0.11587091154E+03  0.00000000000E+00 0. -1.
        -15    1    1    2    0    0 -0.28401212694E+02  0.15265062957E+02 -0.23364148478E+03  0.23586257051E+03  0.17770000000E+01 0.  1.
         15    1    1    2    0    0  0.14886688831E+01 -0.54692347092E+01 -0.15029805117E+03  0.15041539342E+03  0.17770000000E+01 0. -1.
</event>
<event>
 6    1  0.6506903E-004  0.5001496E+03  0.7546771E-02  0.9399475E-01
        -11   -1    0    0    0    0  0.00000000000E+00  0.00000000000E+00  0.50000000000E+03  0.50000000000E+03  0.00000000000E+00 0. -1.
         11   -1    0    0    0    0 -0.00000000000E+00 -0.00000000000E+00 -0.50000000000E+03  0.50000000000E+03  0.00000000000E+00 0. -1.
        -11    1    1    2    0    0 -0.10665661956E+02 -0.57417973708E+01  0.49970362910E+03  0.49985041914E+03  0.00000000000E+00 0. -1.
         11    1    1    2    0    0 -0.12062378028E+01  0.47129833187E+01 -0.18860693183E+03  0.18866966358E+03  0.00000000000E+00 0. -1.
        -15    1    1    2    0    0  0.81550825558E+00  0.12305548633E+01 -0.15510373796E+02  0.15681477714E+02  0.17770000000E+01 0. -1.
         15    1    1    2    0    0  0.11056391503E+02 -0.20174081126E+00 -0.29558632348E+03  0.29579843956E+03  0.17770000000E+01 0. -1.
</event>
<event>
 6    1  0.6506903E-004  0.5004154E+03  0.7546771E-02  0.9398881E-01
        -11   -1    0    0    0    0  0.00000000000E+00  0.00000000000E+00  0.50000000000E+03  0.50000000000E+03  0.00000000000E+00 0. -1.
         11   -1    0    0    0    0 -0.00000000000E+00 -0.00000000000E+00 -0.50000000000E+03  0.50000000000E+03  0.00000000000E+00 0. -1.
        -11    1    1    2    0    0 -0.49377494853E+01  0.28677350565E+01  0.37820708389E+03  0.37825018649E+03  0.00000000000E+00 0. -1.
         11    1    1    2    0    0  0.81822002486E+00  0.78454623138E+01 -0.49952234232E+03  0.49958461870E+03  0.00000000000E+00 0. -1.
        -15    1    1    2    0    0  0.27152243493E+01 -0.57889810600E+01  0.31754301317E+02  0.32440378020E+02  0.17770000000E+01 0.  1.
         15    1    1    2    0    0  0.14043051111E+01 -0.49242163103E+01  0.89560957120E+02  0.89724816792E+02  0.17770000000E+01 0. -1.
</event>
<event>
 6    1  0.6506903E-004  0.4856730E+03  0.7546771E-02  0.9432451E-01
        -11   -1    0    0    0    0  0.00000000000E+00  0.00000000000E+00  0.50000000000E+03  0.50000000000E+03  0.00000000000E+00 0. -1.
         11   -1    0    0    0    0 -0.00000000000E+00 -0.00000000000E+00 -0.50000000000E+03  0.50000000000E+03  0.00000000000E+00 0. -1.
        -11    1    1    2    0    0  0.73308231329E+01 -0.20588599310E+01  0.47888933923E+03  0.47894987117E+03  0.00000000000E+00 0. -1.
         11    1    1    2    0    0  0.15892045826E+02 -0.29857255310E+01 -0.49251692361E+03  0.49278229648E+03  0.00000000000E+00 0. -1.
        -15    1    1    2    0    0 -0.17563006662E+02  0.29382355089E+01  0.72549610938E+01  0.19310220620E+02  0.17770000000E+01 0.  1.
         15    1    1    2    0    0 -0.56598622968E+01  0.21063499531E+01  0.63726232888E+01  0.89576117311E+01  0.17770000000E+01 0. -1.
</event>
<event>
 6    1  0.6506903E-004  0.5004573E+03  0.7546771E-02  0.9398787E-01
        -11   -1    0    0    0    0  0.00000000000E+00  0.00000000000E+00  0.50000000000E+03  0.50000000000E+03  0.00000000000E+00 0.  1.
         11   -1    0    0    0    0 -0.00000000000E+00 -0.00000000000E+00 -0.50000000000E+03  0.50000000000E+03  0.00000000000E+00 0.  1.
        -11    1    1    2    0    0 -0.10711505782E+02 -0.19018217704E+01  0.49942423825E+03  0.49954271392E+03  0.00000000000E+00 0.  1.
         11    1    1    2    0    0  0.36272215610E+01  0.10880016802E+01 -0.72263279416E+01  0.81584495726E+01  0.00000000000E+00 0.  1.
        -15    1    1    2    0    0  0.54317624350E+01  0.22617399344E+01 -0.42101217993E+03  0.42105704232E+03  0.17770000000E+01 0.  1.
         15    1    1    2    0    0  0.16525217865E+01 -0.14479198441E+01 -0.71185730375E+02  0.71241794181E+02  0.17770000000E+01 0. -1.
</event>
<event>
 6    1  0.6506903E-004  0.5001155E+03  0.7546771E-02  0.9399551E-01
        -11   -1    0    0    0    0  0.00000000000E+00  0.00000000000E+00  0.50000000000E+03  0.50000000000E+03  0.00000000000E+00 0. -1.
         11   -1    0    0    0    0 -0.00000000000E+00 -0.00000000000E+00 -0.50000000000E+03  0.50000000000E+03  0.00000000000E+00 0. -1.
        -11    1    1    2    0    0 -0.63637079571E+01 -0.15819550097E+01  0.41430727222E+03  0.41435916205E+03  0.00000000000E+00 0. -1.
         11    1    1    2    0    0  0.78730158928E+01 -0.34247038343E+01 -0.49981075433E+03  0.49988448978E+03  0.00000000000E+00 0. -1.
        -15    1    1    2    0    0 -0.13982209832E+01  0.25265391935E+01  0.53593577216E+02  0.53700723179E+02  0.17770000000E+01 0. -1.
         15    1    1    2    0    0 -0.11108695249E+00  0.24801196504E+01  0.31909904895E+02  0.32055624986E+02  0.17770000000E+01 0. -1.
</event>
<event>
 6    1  0.6506903E-004  0.5001411E+03  0.7546771E-02  0.9399494E-01
        -11   -1    0    0    0    0  0.00000000000E+00  0.00000000000E+00  0.50000000000E+03  0.50000000000E+03  0.00000000000E+00 0.  1.
         11   -1    0    0    0    0 -0.00000000000E+00 -0.00000000000E+00 -0.50000000000E+03  0.50000000000E+03  0.00000000000E+00 0. -1.
        -11    1    1    2    0    0  0.26750452611E+01 -0.14106172768E+01  0.17355594824E+03  0.17358229426E+03  0.00000000000E+00 0.  1.
         11    1    1    2    0    0 -0.10696057894E+02 -0.36631350779E+01 -0.49973102001E+03  0.49985889667E+03  0.00000000000E+00 0. -1.
        -15    1    1    2    0    0 -0.25892800970E+01  0.23594394796E+01  0.47189551438E+02  0.47352748811E+02  0.17770000000E+01 0. -1.
         15    1    1    2    0    0  0.10610292730E+02  0.27143128751E+01  0.27898552033E+03  0.27920606027E+03  0.17770000000E+01 0.  1.
</event>
<event>
 6    1  0.6506903E-004  0.5016435E+03  0.7546771E-02  0.9396140E-01
        -11   -1    0    0    0    0  0.00000000000E+00  0.00000000000E+00  0.50000000000E+03  0.50000000000E+03  0.00000000000E+00 0. -1.
         11   -1    0    0    0    0 -0.00000000000E+00 -0.00000000000E+00 -0.50000000000E+03  0.50000000000E+03  0.00000000000E+00 0.  1.
        -11    1    1    2    0    0  0.17733979509E+01  0.17600057294E+01  0.14305718763E+03  0.14307900438E+03  0.00000000000E+00 0. -1.
         11    1    1    2    0    0  0.73160910161E+02  0.26379730826E+02 -0.49225069767E+03  0.49835645710E+03  0.00000000000E+00 0.  1.
        -15    1    1    2    0    0 -0.72766142287E+02 -0.26395649960E+02  0.32232301000E+03  0.33149196417E+03  0.17770000000E+01 0. -1.
         15    1    1    2    0    0 -0.21681658247E+01 -0.17440865954E+01  0.26870500039E+02  0.27072574359E+02  0.17770000000E+01 0. -1.
</event>
<event>
 6    1  0.6506903E-004  0.5006357E+03  0.7546771E-02  0.9398388E-01
        -11   -1    0    0    0    0  0.00000000000E+00  0.00000000000E+00  0.50000000000E+03  0.50000000000E+03  0.00000000000E+00 0.  1.
         11   -1    0    0    0    0 -0.00000000000E+00 -0.00000000000E+00 -0.50000000000E+03  0.50000000000E+03  0.00000000000E+00 0.  1.
        -11    1    1    2    0    0 -0.41513927039E+01  0.36163801528E+01  0.17680620140E+03  0.17689190236E+03  0.00000000000E+00 0.  1.
         11    1    1    2    0    0  0.26859494158E+02 -0.18312153151E+02 -0.49830502353E+03  0.49936425969E+03  0.00000000000E+00 0.  1.
        -15    1    1    2    0    0  0.43774320980E+01  0.38414535440E+01  0.11788361270E+03  0.11804076647E+03  0.17770000000E+01 0.  1.
         15    1    1    2    0    0 -0.27085533552E+02  0.10854319454E+02  0.20361520943E+03  0.20570307148E+03  0.17770000000E+01 0. -1.
</event>
<event>
 6    1  0.6506903E-004  0.5000281E+03  0.7546771E-02  0.9399747E-01
        -11   -1    0    0    0    0  0.00000000000E+00  0.00000000000E+00  0.50000000000E+03  0.50000000000E+03  0.00000000000E+00 0. -1.
         11   -1    0    0    0    0 -0.00000000000E+00 -0.00000000000E+00 -0.50000000000E+03  0.50000000000E+03  0.00000000000E+00 0.  1.
        -11    1    1    2    0    0 -0.42052135285E+01 -0.57163191319E+01  0.30919074323E+03  0.30927217111E+03  0.00000000000E+00 0. -1.
         11    1    1    2    0    0  0.47958646474E+01  0.10271536957E+02 -0.49984339524E+03  0.49997192376E+03  0.00000000000E+00 0.  1.
        -15    1    1    2    0    0  0.73472826438E+00 -0.27155031664E+01  0.11593392825E+03  0.11598166765E+03  0.17770000000E+01 0.  1.
         15    1    1    2    0    0 -0.13253793833E+01 -0.18397146582E+01  0.74718723766E+02  0.74774237480E+02  0.17770000000E+01 0.  1.
</event>
<event>
 6    1  0.6506903E-004  0.5003069E+03  0.7546771E-02  0.9399123E-01
        -11   -1    0    0    0    0  0.00000000000E+00  0.00000000000E+00  0.50000000000E+03  0.50000000000E+03  0.00000000000E+00 0.  1.
         11   -1    0    0    0    0 -0.00000000000E+00 -0.00000000000E+00 -0.50000000000E+03  0.50000000000E+03  0.00000000000E+00 0. -1.
        -11    1    1    2    0    0 -0.84644447716E+01 -0.78547836421E+01  0.49955970100E+03  0.49969314516E+03  0.00000000000E+00 0.  1.
         11    1    1    2    0    0  0.28076202065E+01 -0.55892604119E+01 -0.44238431177E+02  0.44678421595E+02  0.00000000000E+00 0. -1.
        -15    1    1    2    0    0  0.25577622374E+01  0.10688214635E+02 -0.38599023197E+03  0.38615074386E+03  0.17770000000E+01 0. -1.
         15    1    1    2    0    0  0.30990623276E+01  0.27558294194E+01 -0.69331037855E+02  0.69477689384E+02  0.17770000000E+01 0.  1.
</event>
<event>
 6    1  0.6506903E-004  0.4134067E+03  0.7546771E-02  0.9617597E-01
        -11   -1    0    0    0    0  0.00000000000E+00  0.00000000000E+00  0.50000000000E+03  0.50000000000E+03  0.00000000000E+00 0.  1.
         11   -1    0    0    0    0 -0.00000000000E+00 -0.00000000000E+00 -0.50000000000E+03  0.50000000000E+03  0.00000000000E+00 0.  1.
        -11    1    1    2    0    0  0.73334549680E+01 -0.35244085802E+00  0.42255602686E+03  0.42261980504E+03  0.00000000000E+00 0.  1.
         11    1    1    2    0    0  0.25518935850E+02 -0.13453238446E+03 -0.39311893383E+03  0.41628436758E+03  0.00000000000E+00 0.  1.
        -15    1    1    2    0    0 -0.44053988342E+02  0.11681293554E+03 -0.47051820170E+02  0.13342806042E+03  0.17770000000E+01 0. -1.
         15    1    1    2    0    0  0.11201597524E+02  0.18071889783E+02  0.17614727144E+02  0.27667766964E+02  0.17770000000E+01 0.  1.
</event>
<event>
 6    1  0.6506903E-004  0.5020930E+03  0.7546771E-02  0.9395139E-01
        -11   -1    0    0    0    0  0.00000000000E+00  0.00000000000E+00  0.50000000000E+03  0.50000000000E+03  0.00000000000E+00 0. -1.
         11   -1    0    0    0    0 -0.00000000000E+00 -0.00000000000E+00 -0.50000000000E+03  0.50000000000E+03  0.00000000000E+00 0.  1.
        -11    1    1    2    0    0 -0.43364828098E+01  0.58493668148E+01  0.47754419111E+03  0.47759970125E+03  0.00000000000E+00 0. -1.
         11    1    1    2    0    0 -0.49420474442E+01 -0.11684537374E+02 -0.49774530256E+03  0.49790695764E+03  0.00000000000E+00 0.  1.
        -15    1    1    2    0    0  0.61120820721E+01  0.73598958654E+01  0.16066240848E+02  0.18783169019E+02  0.17770000000E+01 0.  1.
         15    1    1    2    0    0  0.31664481819E+01 -0.15247253061E+01  0.41348706059E+01  0.57101720881E+01  0.17770000000E+01 0. -1.
</event>
<event>
 6    1  0.6506903E-004  0.5020419E+03  0.7546771E-02  0.9395252E-01
        -11   -1    0    0    0    0  0.00000000000E+00  0.00000000000E+00  0.50000000000E+03  0.50000000000E+03  0.00000000000E+00 0. -1.
         11   -1    0    0    0    0 -0.00000000000E+00 -0.00000000000E+00 -0.50000000000E+03  0.50000000000E+03  0.00000000000E+00 0.  1.
        -11    1    1    2    0    0 -0.40148292341E+01  0.20295301485E+02  0.49752811250E+03  0.49795807137E+03  0.00000000000E+00 0. -1.
         11    1    1    2    0    0  0.21639633754E+02 -0.16302659794E+02 -0.18682045758E+03  0.18877482309E+03  0.00000000000E+00 0.  1.
        -15    1    1    2    0    0  0.37236811466E+01 -0.75864482450E+01 -0.20461164919E+02  0.22208939577E+02  0.17770000000E+01 0. -1.
         15    1    1    2    0    0 -0.21348485666E+02  0.35938065538E+01 -0.29024649000E+03  0.29105816596E+03  0.17770000000E+01 0.  1.
</event>
<event>
 6    1  0.6506903E-004  0.5011102E+03  0.7546771E-02  0.9397329E-01
        -11   -1    0    0    0    0  0.00000000000E+00  0.00000000000E+00  0.50000000000E+03  0.50000000000E+03  0.00000000000E+00 0. -1.
         11   -1    0    0    0    0 -0.00000000000E+00 -0.00000000000E+00 -0.50000000000E+03  0.50000000000E+03  0.00000000000E+00 0. -1.
        -11    1    1    2    0    0 -0.62472875107E+01 -0.39437376519E+01  0.49883506333E+03  0.49888976946E+03  0.00000000000E+00 0. -1.
         11    1    1    2    0    0  0.24759788913E+02  0.53996236360E+01 -0.20603203857E+03  0.20758469115E+03  0.00000000000E+00 0. -1.
        -15    1    1    2    0    0 -0.75575025659E+01  0.24434009106E+01 -0.84645459343E+02  0.85035860491E+02  0.17770000000E+01 0. -1.
         15    1    1    2    0    0 -0.10954998837E+02 -0.38992868947E+01 -0.20815756542E+03  0.20848967890E+03  0.17770000000E+01 0. -1.
</event>
<event>
 6    1  0.6506903E-004  0.5010192E+03  0.7546771E-02  0.9397532E-01
        -11   -1    0    0    0    0  0.00000000000E+00  0.00000000000E+00  0.50000000000E+03  0.50000000000E+03  0.00000000000E+00 0. -1.
         11   -1    0    0    0    0 -0.00000000000E+00 -0.00000000000E+00 -0.50000000000E+03  0.50000000000E+03  0.00000000000E+00 0. -1.
        -11    1    1    2    0    0  0.18460728419E+03  0.10379213399E+03  0.41561272736E+03  0.46646178364E+03  0.00000000000E+00 0. -1.
         11    1    1    2    0    0 -0.20045694726E+03 -0.10176831123E+03 -0.44546839198E+03  0.49898082641E+03  0.00000000000E+00 0. -1.
        -15    1    1    2    0    0  0.13875958796E+02 -0.19180423791E+01  0.20955206706E+02  0.25268548359E+02  0.17770000000E+01 0. -1.
         15    1    1    2    0    0  0.19737042713E+01 -0.10578037976E+00  0.89004579101E+01  0.92888415881E+01  0.17770000000E+01 0.  1.
</event>
<event>
 6    1  0.6506903E-004  0.5005811E+03  0.7546771E-02  0.9398510E-01
        -11   -1    0    0    0    0  0.00000000000E+00  0.00000000000E+00  0.50000000000E+03  0.50000000000E+03  0.00000000000E+00 0. -1.
         11   -1    0    0    0    0 -0.00000000000E+00 -0.00000000000E+00 -0.50000000000E+03  0.50000000000E+03  0.00000000000E+00 0. -1.
        -11    1    1    2    0    0  0.74264307304E+01  0.71070073891E+01  0.49931308971E+03  0.49941888529E+03  0.00000000000E+00 0. -1.
         11    1    1    2    0    0  0.97582234401E+01  0.14042888220E+01 -0.72259967940E+02  0.72929403662E+02  0.00000000000E+00 0. -1.
        -15    1    1    2    0    0 -0.16534353579E+02 -0.10629977908E+02 -0.38134675109E+03  0.38185715075E+03  0.17770000000E+01 0. -1.
         15    1    1    2    0    0 -0.65030059143E+00  0.21186816968E+01 -0.45706370683E+02  0.45794560299E+02  0.17770000000E+01 0.  1.
</event>
<event>
 6    1  0.6506903E-004  0.4733456E+03  0.7546771E-02  0.9461509E-01
        -11   -1    0    0    0    0  0.00000000000E+00  0.00000000000E+00  0.50000000000E+03  0.50000000000E+03  0.00000000000E+00 0.  1.
         11   -1    0    0    0    0 -0.00000000000E+00 -0.00000000000E+00 -0.50000000000E+03  0.50000000000E+03  0.00000000000E+00 0.  1.
        -11    1    1    2    0    0 -0.19733500761E+02 -0.26564055960E+01  0.48653614970E+03  0.48694341818E+03  0.00000000000E+00 0.  1.
         11    1    1    2    0    0 -0.21660160548E+02  0.66518205724E+01 -0.46046232318E+03  0.46101947935E+03  0.00000000000E+00 0.  1.
        -15    1    1    2    0    0  0.80916801304E+01 -0.37564362212E+01  0.90433380899E+00  0.91412061050E+01  0.17770000000E+01 0. -1.
         15    1    1    2    0    0  0.33301981179E+02 -0.23897875523E+00 -0.26978160334E+02  0.42895896369E+02  0.17770000000E+01 0.  1.
</event>
<event>
 6    1  0.6506903E-004  0.5028596E+03  0.7546771E-02  0.9393434E-01
        -11   -1    0    0    0    0  0.00000000000E+00  0.00000000000E+00  0.50000000000E+03  0.50000000000E+03  0.00000000000E+00 0.  1.
         11   -1    0    0    0    0 -0.00000000000E+00 -0.00000000000E+00 -0.50000000000E+03  0.50000000000E+03  0.00000000000E+00 0. -1.
        -11    1    1    2    0    0 -0.64384754354E+01  0.63124102618E+01  0.49705863609E+03  0.49714041095E+03  0.00000000000E+00 0.  1.
         11    1    1    2    0    0  0.10700597837E+02  0.23628789970E+01 -0.48069777688E+03  0.48082266865E+03  0.00000000000E+00 0. -1.
        -15    1    1    2    0    0  0.48608851612E+00 -0.47227385493E+01 -0.71200520061E+00  0.51191036184E+01  0.17770000000E+01 0. -1.
         15    1    1    2    0    0 -0.47482109173E+01 -0.39525507096E+01 -0.15648854008E+02  0.16917816785E+02  0.17770000000E+01 0.  1.
</event>
<event>
 6    1  0.6506903E-004  0.5002702E+03  0.7546771E-02  0.9399205E-01
        -11   -1    0    0    0    0  0.00000000000E+00  0.00000000000E+00  0.50000000000E+03  0.50000000000E+03  0.00000000000E+00 0.  1.
         11   -1    0    0    0    0 -0.00000000000E+00 -0.00000000000E+00 -0.50000000000E+03  0.50000000000E+03  0.00000000000E+00 0.  1.
        -11    1    1    2    0    0 -0.46809565500E+01  0.55166954926E+01  0.29726085510E+03  0.29734888811E+03  0.00000000000E+00 0.  1.
         11    1    1    2    0    0  0.90475198556E+01  0.24325846016E+01 -0.49964193552E+03  0.49972976578E+03  0.00000000000E+00 0.  1.
        -15    1    1    2    0    0  0.31168674437E+01 -0.57046693254E+01  0.10049183184E+03  0.10071754619E+03  0.17770000000E+01 0.  1.
         15    1    1    2    0    0 -0.74834307493E+01 -0.22446107688E+01  0.10188924857E+03  0.10220379992E+03  0.17770000000E+01 0. -1.
</event>
<event>
 6    1  0.6506903E-004  0.5016668E+03  0.7546771E-02  0.9396088E-01
        -11   -1    0    0    0    0  0.00000000000E+00  0.00000000000E+00  0.50000000000E+03  0.50000000000E+03  0.00000000000E+00 0. -1.
         11   -1    0    0    0    0 -0.00000000000E+00 -0.00000000000E+00 -0.50000000000E+03  0.50000000000E+03  0.00000000000E+00 0. -1.
        -11    1    1    2    0    0 -0.55931228233E+01  0.18858644070E+01  0.41686714718E+03  0.41690893239E+03  0.00000000000E+00 0. -1.
         11    1    1    2    0    0 -0.11144110057E+02  0.13656761108E+02 -0.49802133334E+03  0.49833316844E+03  0.00000000000E+00 0. -1.
        -15    1    1    2    0    0  0.45304177211E+01 -0.82102674475E+01  0.23960002499E+02  0.25790940755E+02  0.17770000000E+01 0.  1.
         15    1    1    2    0    0  0.12206815159E+02 -0.73323580671E+01  0.57194183652E+02  0.58966958407E+02  0.17770000000E+01 0. -1.
</event>
<event>
 6    1  0.6506903E-004  0.5004501E+03  0.7546771E-02  0.9398803E-01
        -11   -1    0    0    0    0  0.00000000000E+00  0.00000000000E+00  0.50000000000E+03  0.50000000000E+03  0.00000000000E+00 0.  1.
         11   -1    0    0    0    0 -0.00000000000E+00 -0.00000000000E+00 -0.50000000000E+03  0.50000000000E+03  0.00000000000E+00 0.  1.
        -11    1    1    2    0    0 -0.37941805561E+01 -0.28213155541E+01  0.20019669295E+03  0.20025251933E+03  0.00000000000E+00 0.  1.
         11    1    1    2    0    0  0.50500865740E+01 -0.15851196917E+02 -0.49927282120E+03  0.49954991122E+03  0.00000000000E+00 0.  1.
        -15    1    1    2    0    0 -0.44091239983E+01  0.19016538112E+02  0.17966864879E+03  0.18073475090E+03  0.17770000000E+01 0.  1.
         15    1    1    2    0    0  0.31532179803E+01 -0.34402564075E+00  0.11940747945E+03  0.11946281855E+03  0.17770000000E+01 0.  1.
</event>
<event>
 6    1  0.6506903E-004  0.4870963E+03  0.7546771E-02  0.9429155E-01
        -11   -1    0    0    0    0  0.00000000000E+00  0.00000000000E+00  0.50000000000E+03  0.50000000000E+03  0.00000000000E+00 0.  1.
         11   -1    0    0    0    0 -0.00000000000E+00 -0.00000000000E+00 -0.50000000000E+03  0.50000000000E+03  0.00000000000E+00 0. -1.
        -11    1    1    2    0    0 -0.40082987220E+01  0.10336675118E+02  0.49252017983E+03  0.49264494401E+03  0.00000000000E+00 0.  1.
         11    1    1    2    0    0 -0.91410373576E+00  0.89722704891E+01 -0.48172681333E+03  0.48181122850E+03  0.00000000000E+00 0. -1.
        -15    1    1    2    0    0  0.37931374907E+01 -0.99754896506E+01 -0.11696738245E+02  0.15933289063E+02  0.17770000000E+01 0. -1.
         15    1    1    2    0    0  0.11292649670E+01 -0.93334559564E+01  0.90337174373E+00  0.96105384326E+01  0.17770000000E+01 0.  1.
</event>
<event>
 6    1  0.6506903E-004  0.5002983E+03  0.7546771E-02  0.9399143E-01
        -11   -1    0    0    0    0  0.00000000000E+00  0.00000000000E+00  0.50000000000E+03  0.50000000000E+03  0.00000000000E+00 0. -1.
         11   -1    0    0    0    0 -0.00000000000E+00 -0.00000000000E+00 -0.50000000000E+03  0.50000000000E+03  0.00000000000E+00 0.  1.
        -11    1    1    2    0    0  0.55430295781E+01 -0.66403181390E+00  0.32814012051E+03  0.32818760611E+03  0.00000000000E+00 0. -1.
         11    1    1    2    0    0  0.93808954401E-02  0.99044773662E+01 -0.49960357277E+03  0.49970173973E+03  0.00000000000E+00 0.  1.
        -15    1    1    2    0    0 -0.62035364188E+01 -0.96169927535E+01  0.10825185780E+03  0.10886961403E+03  0.17770000000E+01 0.  1.
         15    1    1    2    0    0  0.65112594525E+00  0.37654720113E+00  0.63211594469E+02  0.63241040133E+02  0.17770000000E+01 0.  1.
</event>
