<event>
 7    1  0.3915547E-004  0.4851790E+03  0.7546771E-02  0.9433597E-01
        -11   -1    0    0    0    0  0.00000000000E+00  0.00000000000E+00  0.50000000000E+03  0.50000000000E+03  0.00000000000E+00 0.  1.
         11   -1    0    0    0    0 -0.00000000000E+00 -0.00000000000E+00 -0.50000000000E+03  0.50000000000E+03  0.00000000000E+00 0.  1.
         23    2    1    2    0    0  0.22757012155E+02  0.21820262891E+02  0.46317981538E+03  0.47314701678E+03  0.91315675754E+02 0.  0.
        -11    1    1    2    0    0 -0.17642173643E+01 -0.27442733666E+02  0.25611489158E+02  0.37578776867E+02  0.00000000000E+00 0.  1.
         11    1    1    2    0    0 -0.20992794790E+02  0.56224707757E+01 -0.48879130454E+03  0.48927420635E+03  0.00000000000E+00 0.  1.
        -15    1    3    3    0    0  0.45438925192E+02 -0.66929573971E+01  0.37372137806E+03  0.37653727273E+03  0.17770000000E+01 0.  1.
         15    1    3    3    0    0 -0.22681913037E+02  0.28513220288E+02  0.89458437315E+02  0.96609744053E+02  0.17770000000E+01 0. -1.
</event>
<event>
 7    1  0.3915547E-004  0.4795918E+03  0.7546771E-02  0.9446669E-01
        -11   -1    0    0    0    0  0.00000000000E+00  0.00000000000E+00  0.50000000000E+03  0.50000000000E+03  0.00000000000E+00 0.  1.
         11   -1    0    0    0    0 -0.00000000000E+00 -0.00000000000E+00 -0.50000000000E+03  0.50000000000E+03  0.00000000000E+00 0. -1.
         23    2    1    2    0    0  0.25919883555E+02 -0.12032986925E+02  0.46536720255E+03  0.47515371915E+03  0.91584881241E+02 0.  0.
        -11    1    1    2    0    0 -0.44113923715E+02  0.16824965991E+02  0.10697229211E+02  0.48410210276E+02  0.00000000000E+00 0.  1.
         11    1    1    2    0    0  0.18194040160E+02 -0.47919790659E+01 -0.47606443176E+03  0.47643607058E+03  0.00000000000E+00 0. -1.
        -15    1    3    3    0    0  0.11629248908E+02 -0.37143478391E+02  0.41678055149E+03  0.41859773440E+03  0.17770000000E+01 0. -1.
         15    1    3    3    0    0  0.14290634647E+02  0.25110491466E+02  0.48586651063E+02  0.56555984748E+02  0.17770000000E+01 0.  1.
</event>
<event>
 7    1  0.3915547E-004  0.5369745E+03  0.7546771E-02  0.9320677E-01
        -11   -1    0    0    0    0  0.00000000000E+00  0.00000000000E+00  0.50000000000E+03  0.50000000000E+03  0.00000000000E+00 0.  1.
         11   -1    0    0    0    0 -0.00000000000E+00 -0.00000000000E+00 -0.50000000000E+03  0.50000000000E+03  0.00000000000E+00 0.  1.
         23    2    1    2    0    0  0.10913796167E+03 -0.40824759556E+02  0.29021517303E+03  0.32422448470E+03  0.85550652547E+02 0.  0.
        -11    1    1    2    0    0 -0.12117201911E+03  0.28725265355E+02  0.17249573147E+03  0.21275003281E+03  0.00000000000E+00 0.  1.
         11    1    1    2    0    0  0.12034057439E+02  0.12099494201E+02 -0.46271090450E+03  0.46302548249E+03  0.00000000000E+00 0.  1.
        -15    1    3    3    0    0  0.12075372402E+03 -0.41443347853E+02  0.28287582565E+03  0.31035609131E+03  0.17770000000E+01 0.  1.
         15    1    3    3    0    0 -0.11615762343E+02  0.61858829770E+00  0.73393473736E+01  0.13868393388E+02  0.17770000000E+01 0. -1.
</event>
<event>
 7    1  0.3915547E-004  0.3469980E+03  0.7546771E-02  0.9827430E-01
        -11   -1    0    0    0    0  0.00000000000E+00  0.00000000000E+00  0.50000000000E+03  0.50000000000E+03  0.00000000000E+00 0.  1.
         11   -1    0    0    0    0 -0.00000000000E+00 -0.00000000000E+00 -0.50000000000E+03  0.50000000000E+03  0.00000000000E+00 0.  1.
         23    2    1    2    0    0 -0.20231427943E+03  0.10678774691E+03  0.88929596059E+02  0.26387941220E+03  0.96897784163E+02 0.  0.
        -11    1    1    2    0    0  0.28446196854E+03 -0.84065727075E+02  0.24920276155E+03  0.38741150522E+03  0.00000000000E+00 0.  1.
         11    1    1    2    0    0 -0.82147689113E+02 -0.22722019834E+02 -0.33813235761E+03  0.34870908258E+03  0.00000000000E+00 0.  1.
        -15    1    3    3    0    0 -0.13984016045E+03  0.11703763293E+03  0.82702555953E+02  0.20023972754E+03  0.17770000000E+01 0.  1.
         15    1    3    3    0    0 -0.62474118974E+02 -0.10249886020E+02  0.62270401058E+01  0.63639684651E+02  0.17770000000E+01 0. -1.
</event>
<event>
 7    1  0.3915547E-004  0.5140400E+03  0.7546771E-02  0.9368931E-01
        -11   -1    0    0    0    0  0.00000000000E+00  0.00000000000E+00  0.50000000000E+03  0.50000000000E+03  0.00000000000E+00 0. -1.
         11   -1    0    0    0    0 -0.00000000000E+00 -0.00000000000E+00 -0.50000000000E+03  0.50000000000E+03  0.00000000000E+00 0.  1.
         23    2    1    2    0    0 -0.28233265341E+02  0.41922597941E+02 -0.15854960298E+03  0.18982484586E+03  0.91328385558E+02 0.  0.
        -11    1    1    2    0    0  0.43728930416E+02 -0.39374170052E+02  0.48238423890E+03  0.48595997630E+03  0.00000000000E+00 0. -1.
         11    1    1    2    0    0 -0.15495665075E+02 -0.25484278892E+01 -0.32383463592E+03  0.32421517784E+03  0.00000000000E+00 0.  1.
        -15    1    3    3    0    0 -0.41049321551E+02  0.48049607001E+02 -0.50729084680E+02  0.81058061254E+02  0.17770000000E+01 0.  1.
         15    1    3    3    0    0  0.12816056210E+02 -0.61270090598E+01 -0.10782051830E+03  0.10876678460E+03  0.17770000000E+01 0. -1.
</event>
<event>
 7    1  0.3915547E-004  0.5106447E+03  0.7546771E-02  0.9376301E-01
        -11   -1    0    0    0    0  0.00000000000E+00  0.00000000000E+00  0.50000000000E+03  0.50000000000E+03  0.00000000000E+00 0.  1.
         11   -1    0    0    0    0 -0.00000000000E+00 -0.00000000000E+00 -0.50000000000E+03  0.50000000000E+03  0.00000000000E+00 0. -1.
         23    2    1    2    0    0 -0.19910240842E+02 -0.20761628807E+02 -0.16626423155E+03  0.18794300762E+03  0.82772679668E+02 0.  0.
        -11    1    1    2    0    0  0.63531995342E+01  0.25579704022E+02  0.48864500626E+03  0.48935531727E+03  0.00000000000E+00 0.  1.
         11    1    1    2    0    0  0.13557041307E+02 -0.48180752146E+01 -0.32238077471E+03  0.32270167511E+03  0.00000000000E+00 0. -1.
        -15    1    3    3    0    0 -0.25337726757E+02  0.13423777167E+02 -0.14379713964E+03  0.14663892147E+03  0.17770000000E+01 0.  1.
         15    1    3    3    0    0  0.54274859152E+01 -0.34185405975E+02 -0.22467091902E+02  0.41304086148E+02  0.17770000000E+01 0. -1.
</event>
<event>
 7    1  0.3915547E-004  0.5334842E+03  0.7546771E-02  0.9327854E-01
        -11   -1    0    0    0    0  0.00000000000E+00  0.00000000000E+00  0.50000000000E+03  0.50000000000E+03  0.00000000000E+00 0. -1.
         11   -1    0    0    0    0 -0.00000000000E+00 -0.00000000000E+00 -0.50000000000E+03  0.50000000000E+03  0.00000000000E+00 0.  1.
         23    2    1    2    0    0 -0.51473252008E+02  0.56916619656E+02  0.64731407830E+02  0.12686884636E+03  0.77566434436E+02 0.  0.
        -11    1    1    2    0    0  0.44373320148E+02 -0.45696906665E+02  0.40159539351E+03  0.40661536973E+03  0.00000000000E+00 0. -1.
         11    1    1    2    0    0  0.70999318597E+01 -0.11219712991E+02 -0.46632680134E+03  0.46651578391E+03  0.00000000000E+00 0.  1.
        -15    1    3    3    0    0  0.15384728905E+02  0.19172293587E+02 -0.25375482414E+01  0.24776271005E+02  0.17770000000E+01 0.  1.
         15    1    3    3    0    0 -0.66857980912E+02  0.37744326069E+02  0.67268956071E+02  0.10209257535E+03  0.17770000000E+01 0. -1.
</event>
<event>
 7    1  0.3915547E-004  0.4878501E+03  0.7546771E-02  0.9427414E-01
        -11   -1    0    0    0    0  0.00000000000E+00  0.00000000000E+00  0.50000000000E+03  0.50000000000E+03  0.00000000000E+00 0. -1.
         11   -1    0    0    0    0 -0.00000000000E+00 -0.00000000000E+00 -0.50000000000E+03  0.50000000000E+03  0.00000000000E+00 0. -1.
         23    2    1    2    0    0  0.13194330773E+02 -0.16661569595E+02  0.46441421253E+03  0.47391148979E+03  0.91977394433E+02 0.  0.
        -11    1    1    2    0    0 -0.58459970839E+01  0.13233968453E+02  0.29105084268E+02  0.32502608098E+02  0.00000000000E+00 0. -1.
         11    1    1    2    0    0 -0.73483336888E+01  0.34276011420E+01 -0.49351929680E+03  0.49358590212E+03  0.00000000000E+00 0. -1.
        -15    1    3    3    0    0  0.36994427702E+02 -0.11094321318E+02  0.81414620952E+02  0.90128629637E+02  0.17770000000E+01 0.  1.
         15    1    3    3    0    0 -0.23800096929E+02 -0.55672482772E+01  0.38299959158E+03  0.38378286015E+03  0.17770000000E+01 0. -1.
</event>
<event>
 7    1  0.3915547E-004  0.4720148E+03  0.7546771E-02  0.9464702E-01
        -11   -1    0    0    0    0  0.00000000000E+00  0.00000000000E+00  0.50000000000E+03  0.50000000000E+03  0.00000000000E+00 0.  1.
         11   -1    0    0    0    0 -0.00000000000E+00 -0.00000000000E+00 -0.50000000000E+03  0.50000000000E+03  0.00000000000E+00 0.  1.
         23    2    1    2    0    0 -0.11259578527E+02  0.43933163374E+02  0.44081693490E+03  0.45260649098E+03  0.92066088381E+02 0.  0.
        -11    1    1    2    0    0  0.43813465484E+02  0.24979910203E+02  0.37622779355E+02  0.62921293676E+02  0.00000000000E+00 0.  1.
         11    1    1    2    0    0 -0.32553886957E+02 -0.68913073577E+02 -0.47843971425E+03  0.48447221535E+03  0.00000000000E+00 0.  1.
        -15    1    3    3    0    0 -0.21726818414E+00  0.68262835570E+02  0.38097881949E+03  0.38705023002E+03  0.17770000000E+01 0.  1.
         15    1    3    3    0    0 -0.11042310343E+02 -0.24329672196E+02  0.59838115406E+02  0.65556260961E+02  0.17770000000E+01 0. -1.
</event>
<event>
 7    1  0.3915547E-004  0.4345819E+03  0.7546771E-02  0.9559403E-01
        -11   -1    0    0    0    0  0.00000000000E+00  0.00000000000E+00  0.50000000000E+03  0.50000000000E+03  0.00000000000E+00 0.  1.
         11   -1    0    0    0    0 -0.00000000000E+00 -0.00000000000E+00 -0.50000000000E+03  0.50000000000E+03  0.00000000000E+00 0.  1.
         23    2    1    2    0    0  0.90570971976E+02  0.17809851938E+01  0.59129215224E+01  0.12610824701E+03  0.87533161997E+02 0.  0.
        -11    1    1    2    0    0 -0.84182365111E+02  0.20158654254E+02  0.42937036783E+03  0.43800908063E+03  0.00000000000E+00 0.  1.
         11    1    1    2    0    0 -0.63886068650E+01 -0.21939639447E+02 -0.43528328936E+03  0.43588267237E+03  0.00000000000E+00 0.  1.
        -15    1    3    3    0    0  0.33081522391E+02 -0.10691048769E+01 -0.40364824321E+02  0.52230325295E+02  0.17770000000E+01 0.  1.
         15    1    3    3    0    0  0.57489449585E+02  0.28500900708E+01  0.46277745844E+02  0.73877921712E+02  0.17770000000E+01 0. -1.
</event>
<event>
 7    1  0.3915547E-004  0.5139505E+03  0.7546771E-02  0.9369124E-01
        -11   -1    0    0    0    0  0.00000000000E+00  0.00000000000E+00  0.50000000000E+03  0.50000000000E+03  0.00000000000E+00 0.  1.
         11   -1    0    0    0    0 -0.00000000000E+00 -0.00000000000E+00 -0.50000000000E+03  0.50000000000E+03  0.00000000000E+00 0. -1.
         23    2    1    2    0    0  0.56675572323E+02  0.94628015350E+01  0.28343412752E+03  0.30322644508E+03  0.91157595621E+02 0.  0.
        -11    1    1    2    0    0 -0.57972861453E+02 -0.29892407576E+01  0.20257055323E+03  0.21072403105E+03  0.00000000000E+00 0.  1.
         11    1    1    2    0    0  0.12972891307E+01 -0.64735607773E+01 -0.48600468075E+03  0.48604952388E+03  0.00000000000E+00 0. -1.
        -15    1    3    3    0    0  0.39734536784E+02  0.17883892702E+02  0.28065432976E+03  0.28402231880E+03  0.17770000000E+01 0.  1.
         15    1    3    3    0    0  0.16941035538E+02 -0.84210911668E+01  0.27797977575E+01  0.19204126279E+02  0.17770000000E+01 0. -1.
</event>
<event>
 7    1  0.3915547E-004  0.5117563E+03  0.7546771E-02  0.9373882E-01
        -11   -1    0    0    0    0  0.00000000000E+00  0.00000000000E+00  0.50000000000E+03  0.50000000000E+03  0.00000000000E+00 0. -1.
         11   -1    0    0    0    0 -0.00000000000E+00 -0.00000000000E+00 -0.50000000000E+03  0.50000000000E+03  0.00000000000E+00 0. -1.
         23    2    1    2    0    0 -0.74003699942E+02  0.10968286580E+01  0.30666140127E+03  0.32312290003E+03  0.69924551168E+02 0.  0.
        -11    1    1    2    0    0  0.50546745476E+02 -0.19708022548E+02  0.18066320397E+03  0.18863343526E+03  0.00000000000E+00 0. -1.
         11    1    1    2    0    0  0.23456954466E+02  0.18611193890E+02 -0.48732460524E+03  0.48824366471E+03  0.00000000000E+00 0. -1.
        -15    1    3    3    0    0 -0.31387401952E+01 -0.25762859855E+02  0.78344337456E+02  0.82550406289E+02  0.17770000000E+01 0. -1.
         15    1    3    3    0    0 -0.70864959746E+02  0.26859688513E+02  0.22831706382E+03  0.24057249374E+03  0.17770000000E+01 0.  1.
</event>
<event>
 7    1  0.3915547E-004  0.4821148E+03  0.7546771E-02  0.9440743E-01
        -11   -1    0    0    0    0  0.00000000000E+00  0.00000000000E+00  0.50000000000E+03  0.50000000000E+03  0.00000000000E+00 0.  1.
         11   -1    0    0    0    0 -0.00000000000E+00 -0.00000000000E+00 -0.50000000000E+03  0.50000000000E+03  0.00000000000E+00 0.  1.
         23    2    1    2    0    0  0.86518858237E+01  0.24195469005E+02  0.46152061661E+03  0.47109582902E+03  0.90938026783E+02 0.  0.
        -11    1    1    2    0    0 -0.29454018556E+02 -0.21618918172E+02  0.23493048822E+02  0.43437773596E+02  0.00000000000E+00 0.  1.
         11    1    1    2    0    0  0.20802132732E+02 -0.25765508325E+01 -0.48501366543E+03  0.48546639739E+03  0.00000000000E+00 0.  1.
        -15    1    3    3    0    0  0.17550087563E+02 -0.16683154061E+02  0.35419656348E+02  0.42942321638E+02  0.17770000000E+01 0. -1.
         15    1    3    3    0    0 -0.88982017391E+01  0.40878623066E+02  0.42610096026E+03  0.42815350738E+03  0.17770000000E+01 0.  1.
</event>
<event>
 7    1  0.3915547E-004  0.3538449E+03  0.7546771E-02  0.9803555E-01
        -11   -1    0    0    0    0  0.00000000000E+00  0.00000000000E+00  0.50000000000E+03  0.50000000000E+03  0.00000000000E+00 0. -1.
         11   -1    0    0    0    0 -0.00000000000E+00 -0.00000000000E+00 -0.50000000000E+03  0.50000000000E+03  0.00000000000E+00 0.  1.
         23    2    1    2    0    0 -0.38602089641E+03  0.13376114840E+03  0.32086791355E+02  0.41792990807E+03  0.82046746359E+02 0.  0.
        -11    1    1    2    0    0  0.15409116653E+03 -0.77661911000E+02  0.18959943629E+03  0.25636576656E+03  0.00000000000E+00 0. -1.
         11    1    1    2    0    0  0.23192972988E+03 -0.56099237404E+02 -0.22168622764E+03  0.32570432537E+03  0.00000000000E+00 0.  1.
        -15    1    3    3    0    0 -0.35886815899E+03  0.10226940871E+03  0.16621529586E+02  0.37353021359E+03  0.17770000000E+01 0. -1.
         15    1    3    3    0    0 -0.27152737425E+02  0.31491739696E+02  0.15465261769E+02  0.44399694474E+02  0.17770000000E+01 0.  1.
</event>
<event>
 7    1  0.3915547E-004  0.5037772E+03  0.7546771E-02  0.9391397E-01
        -11   -1    0    0    0    0  0.00000000000E+00  0.00000000000E+00  0.50000000000E+03  0.50000000000E+03  0.00000000000E+00 0. -1.
         11   -1    0    0    0    0 -0.00000000000E+00 -0.00000000000E+00 -0.50000000000E+03  0.50000000000E+03  0.00000000000E+00 0. -1.
         23    2    1    2    0    0 -0.21757243828E+02 -0.74104079739E+01  0.49548363256E+03  0.50377724695E+03  0.88086279266E+02 0.  0.
        -11    1    1    2    0    0  0.17415796804E+02  0.52818695309E+01 -0.23839399264E+03  0.23908764889E+03  0.00000000000E+00 0. -1.
         11    1    1    2    0    0  0.43414470248E+01  0.21285384430E+01 -0.25708963992E+03  0.25713510417E+03  0.00000000000E+00 0. -1.
        -15    1    3    3    0    0  0.89262595051E+01 -0.25389916517E+02  0.49474578800E+02  0.56349069610E+02  0.17770000000E+01 0.  1.
         15    1    3    3    0    0 -0.30683503334E+02  0.17979508543E+02  0.44600905376E+03  0.44742817734E+03  0.17770000000E+01 0. -1.
</event>
<event>
 7    1  0.3915547E-004  0.5037961E+03  0.7546771E-02  0.9391356E-01
        -11   -1    0    0    0    0  0.00000000000E+00  0.00000000000E+00  0.50000000000E+03  0.50000000000E+03  0.00000000000E+00 0.  1.
         11   -1    0    0    0    0 -0.00000000000E+00 -0.00000000000E+00 -0.50000000000E+03  0.50000000000E+03  0.00000000000E+00 0.  1.
         23    2    1    2    0    0  0.33193405681E+02  0.36605478490E+02  0.48526608981E+03  0.49620393157E+03  0.91068109386E+02 0.  0.
        -11    1    1    2    0    0 -0.30254203078E+02 -0.29829062982E+02 -0.39634328480E+02  0.58103096271E+02  0.00000000000E+00 0.  1.
         11    1    1    2    0    0 -0.29392026037E+01 -0.67764155081E+01 -0.44563176134E+03  0.44569297216E+03  0.00000000000E+00 0.  1.
        -15    1    3    3    0    0 -0.28469951772E+02 -0.49899988643E+01  0.12099832637E+03  0.12441539678E+03  0.17770000000E+01 0.  1.
         15    1    3    3    0    0  0.61663357453E+02  0.41595477355E+02  0.36426776344E+03  0.37178853479E+03  0.17770000000E+01 0. -1.
</event>
<event>
 7    1  0.3915547E-004  0.3981991E+03  0.7546771E-02  0.9661737E-01
        -11   -1    0    0    0    0  0.00000000000E+00  0.00000000000E+00  0.50000000000E+03  0.50000000000E+03  0.00000000000E+00 0.  1.
         11   -1    0    0    0    0 -0.00000000000E+00 -0.00000000000E+00 -0.50000000000E+03  0.50000000000E+03  0.00000000000E+00 0.  1.
         23    2    1    2    0    0  0.64183934832E+02  0.11554382336E+03  0.34836856023E+03  0.38354928567E+03  0.90991473080E+02 0.  0.
        -11    1    1    2    0    0 -0.58365633544E+02 -0.16647045530E+03  0.73771684553E+02  0.19120988758E+03  0.00000000000E+00 0.  1.
         11    1    1    2    0    0 -0.58183012883E+01  0.50926631942E+02 -0.42214024478E+03  0.42524082675E+03  0.00000000000E+00 0.  1.
        -15    1    3    3    0    0  0.55643052424E+02  0.13147313093E+02  0.13932314802E+03  0.15060909145E+03  0.17770000000E+01 0.  1.
         15    1    3    3    0    0  0.85408824077E+01  0.10239651026E+03  0.20904541221E+03  0.23294019422E+03  0.17770000000E+01 0. -1.
</event>
<event>
 7    1  0.3915547E-004  0.4804722E+03  0.7546771E-02  0.9444597E-01
        -11   -1    0    0    0    0  0.00000000000E+00  0.00000000000E+00  0.50000000000E+03  0.50000000000E+03  0.00000000000E+00 0.  1.
         11   -1    0    0    0    0 -0.00000000000E+00 -0.00000000000E+00 -0.50000000000E+03  0.50000000000E+03  0.00000000000E+00 0. -1.
         23    2    1    2    0    0 -0.24781196107E+02  0.12042873633E+02  0.47073107559E+03  0.48034558474E+03  0.91569627933E+02 0.  0.
        -11    1    1    2    0    0  0.19662529591E+02 -0.42360189010E+02  0.12060904837E+01  0.46716756492E+02  0.00000000000E+00 0.  1.
         11    1    1    2    0    0  0.51186665159E+01  0.30317315377E+02 -0.47193716608E+03  0.47293765877E+03  0.00000000000E+00 0. -1.
        -15    1    3    3    0    0 -0.13662659706E+02  0.18021800474E+02  0.46629609676E+03  0.46684757806E+03  0.17770000000E+01 0.  1.
         15    1    3    3    0    0 -0.11118536401E+02 -0.59789268416E+01  0.44349788363E+01  0.13498006673E+02  0.17770000000E+01 0. -1.
</event>
<event>
 7    1  0.3915547E-004  0.5238020E+03  0.7546771E-02  0.9348071E-01
        -11   -1    0    0    0    0  0.00000000000E+00  0.00000000000E+00  0.50000000000E+03  0.50000000000E+03  0.00000000000E+00 0. -1.
         11   -1    0    0    0    0 -0.00000000000E+00 -0.00000000000E+00 -0.50000000000E+03  0.50000000000E+03  0.00000000000E+00 0.  1.
         23    2    1    2    0    0  0.11040276008E+02 -0.56768094219E+02 -0.99244705554E+02  0.14943864226E+03  0.95592321890E+02 0.  0.
        -11    1    1    2    0    0 -0.13749056524E+02  0.48622050156E+02  0.47350963953E+03  0.47619798303E+03  0.00000000000E+00 0. -1.
         11    1    1    2    0    0  0.27087805159E+01  0.81460440626E+01 -0.37426493397E+03  0.37436337471E+03  0.00000000000E+00 0.  1.
        -15    1    3    3    0    0 -0.25586186134E+02 -0.67337714679E+02 -0.52825139647E+02  0.89345810460E+02  0.17770000000E+01 0.  1.
         15    1    3    3    0    0  0.36626462142E+02  0.10569620460E+02 -0.46419565907E+02  0.60092831799E+02  0.17770000000E+01 0. -1.
</event>
<event>
 7    1  0.3915547E-004  0.4877502E+03  0.7546771E-02  0.9427644E-01
        -11   -1    0    0    0    0  0.00000000000E+00  0.00000000000E+00  0.50000000000E+03  0.50000000000E+03  0.00000000000E+00 0. -1.
         11   -1    0    0    0    0 -0.00000000000E+00 -0.00000000000E+00 -0.50000000000E+03  0.50000000000E+03  0.00000000000E+00 0. -1.
         23    2    1    2    0    0  0.19236375535E+02 -0.16694219085E+02  0.47930367308E+03  0.48853881332E+03  0.91046284905E+02 0.  0.
        -11    1    1    2    0    0 -0.32512843803E+02  0.37101308658E+00 -0.83045659124E+00  0.32525564115E+02  0.00000000000E+00 0. -1.
         11    1    1    2    0    0  0.13276468268E+02  0.16323205999E+02 -0.47847321649E+03  0.47893562257E+03  0.00000000000E+00 0. -1.
        -15    1    3    3    0    0  0.22764569913E+02 -0.30223817488E+02  0.47028015456E+03  0.47180322836E+03  0.17770000000E+01 0. -1.
         15    1    3    3    0    0 -0.35281943777E+01  0.13529598403E+02  0.90235185230E+01  0.16735584963E+02  0.17770000000E+01 0.  1.
</event>
<event>
 7    1  0.3915547E-004  0.5072398E+03  0.7546771E-02  0.9383754E-01
        -11   -1    0    0    0    0  0.00000000000E+00  0.00000000000E+00  0.50000000000E+03  0.50000000000E+03  0.00000000000E+00 0. -1.
         11   -1    0    0    0    0 -0.00000000000E+00 -0.00000000000E+00 -0.50000000000E+03  0.50000000000E+03  0.00000000000E+00 0. -1.
         23    2    1    2    0    0 -0.35825700521E+01 -0.20908697470E+02  0.36059425760E+03  0.37200243477E+03  0.88924599654E+02 0.  0.
        -11    1    1    2    0    0  0.11104122547E+01  0.28968260012E+02  0.13209377489E+03  0.13523741519E+03  0.00000000000E+00 0. -1.
         11    1    1    2    0    0  0.24721577974E+01 -0.80595625416E+01 -0.49268803249E+03  0.49276015004E+03  0.00000000000E+00 0. -1.
        -15    1    3    3    0    0 -0.36656441540E+02 -0.35482935388E-01  0.72492463469E+02  0.81252759671E+02  0.17770000000E+01 0.  1.
         15    1    3    3    0    0  0.33073871488E+02 -0.20873214535E+02  0.28810179413E+03  0.29074967510E+03  0.17770000000E+01 0. -1.
</event>
<event>
 7    1  0.3915547E-004  0.4726346E+03  0.7546771E-02  0.9463214E-01
        -11   -1    0    0    0    0  0.00000000000E+00  0.00000000000E+00  0.50000000000E+03  0.50000000000E+03  0.00000000000E+00 0.  1.
         11   -1    0    0    0    0 -0.00000000000E+00 -0.00000000000E+00 -0.50000000000E+03  0.50000000000E+03  0.00000000000E+00 0. -1.
         23    2    1    2    0    0  0.30545856346E+02  0.40869494195E+02  0.45031425292E+03  0.46225256515E+03  0.91055712135E+02 0.  0.
        -11    1    1    2    0    0 -0.37931354278E+02 -0.41048436520E+02  0.25812509970E+02  0.61563361255E+02  0.00000000000E+00 0.  1.
         11    1    1    2    0    0  0.73854979316E+01  0.17894232510E+00 -0.47612676289E+03  0.47618407359E+03  0.00000000000E+00 0. -1.
        -15    1    3    3    0    0  0.44639274509E+02 -0.73842389930E+01  0.12248726419E+03  0.13058897133E+03  0.17770000000E+01 0. -1.
         15    1    3    3    0    0 -0.14093418162E+02  0.48253733188E+02  0.32782698873E+03  0.33166359383E+03  0.17770000000E+01 0.  1.
</event>
<event>
 7    1  0.3915547E-004  0.4919209E+03  0.7546771E-02  0.9418071E-01
        -11   -1    0    0    0    0  0.00000000000E+00  0.00000000000E+00  0.50000000000E+03  0.50000000000E+03  0.00000000000E+00 0.  1.
         11   -1    0    0    0    0 -0.00000000000E+00 -0.00000000000E+00 -0.50000000000E+03  0.50000000000E+03  0.00000000000E+00 0.  1.
         23    2    1    2    0    0 -0.60541894867E+01  0.84062643859E+01  0.47623319466E+03  0.48487630731E+03  0.90551969601E+02 0.  0.
        -11    1    1    2    0    0  0.18063567813E+02  0.77674466789E+01  0.14214356611E+02  0.24262597633E+02  0.00000000000E+00 0.  1.
         11    1    1    2    0    0 -0.12009378327E+02 -0.16173711065E+02 -0.49044755127E+03  0.49086109506E+03  0.00000000000E+00 0.  1.
        -15    1    3    3    0    0  0.32222095484E+02 -0.86481779471E+01  0.83895725141E+02  0.90303404394E+02  0.17770000000E+01 0. -1.
         15    1    3    3    0    0 -0.38276284970E+02  0.17054442333E+02  0.39233746952E+03  0.39457290291E+03  0.17770000000E+01 0.  1.
</event>
<event>
 7    1  0.3915547E-004  0.4447088E+03  0.7546771E-02  0.9532808E-01
        -11   -1    0    0    0    0  0.00000000000E+00  0.00000000000E+00  0.50000000000E+03  0.50000000000E+03  0.00000000000E+00 0.  1.
         11   -1    0    0    0    0 -0.00000000000E+00 -0.00000000000E+00 -0.50000000000E+03  0.50000000000E+03  0.00000000000E+00 0.  1.
         23    2    1    2    0    0 -0.61817802827E+01 -0.53954351468E+02  0.45226117027E+03  0.46449395858E+03  0.90913062687E+02 0.  0.
        -11    1    1    2    0    0  0.91870966499E+02  0.53017590833E+02 -0.38309596920E+02  0.11277750059E+03  0.00000000000E+00 0.  1.
         11    1    1    2    0    0 -0.85689186216E+02  0.93676063480E+00 -0.41395157335E+03  0.42272854083E+03  0.00000000000E+00 0.  1.
        -15    1    3    3    0    0  0.23963010869E+02  0.16560768318E+02  0.12697461356E+03  0.13028505346E+03  0.17770000000E+01 0. -1.
         15    1    3    3    0    0 -0.30144791152E+02 -0.70515119786E+02  0.32528655671E+03  0.33420890512E+03  0.17770000000E+01 0.  1.
</event>
<event>
 7    1  0.3915547E-004  0.5132469E+03  0.7546771E-02  0.9370647E-01
        -11   -1    0    0    0    0  0.00000000000E+00  0.00000000000E+00  0.50000000000E+03  0.50000000000E+03  0.00000000000E+00 0.  1.
         11   -1    0    0    0    0 -0.00000000000E+00 -0.00000000000E+00 -0.50000000000E+03  0.50000000000E+03  0.00000000000E+00 0. -1.
         23    2    1    2    0    0  0.51880424711E+02 -0.41107231377E+02  0.30649831962E+03  0.32610061744E+03  0.89548924187E+02 0.  0.
        -11    1    1    2    0    0 -0.37277513544E+02  0.35135357516E+02  0.17999899493E+03  0.18714631853E+03  0.00000000000E+00 0.  1.
         11    1    1    2    0    0 -0.14602911167E+02  0.59718738605E+01 -0.48649731454E+03  0.48675306404E+03  0.00000000000E+00 0. -1.
        -15    1    3    3    0    0  0.50049398637E+02 -0.65056977421E+02  0.27130070475E+03  0.28345119993E+03  0.17770000000E+01 0.  1.
         15    1    3    3    0    0  0.18310260741E+01  0.23949746045E+02  0.35197614870E+02  0.42649417506E+02  0.17770000000E+01 0. -1.
</event>
<event>
 7    1  0.3915547E-004  0.5282877E+03  0.7546771E-02  0.9338648E-01
        -11   -1    0    0    0    0  0.00000000000E+00  0.00000000000E+00  0.50000000000E+03  0.50000000000E+03  0.00000000000E+00 0. -1.
         11   -1    0    0    0    0 -0.00000000000E+00 -0.00000000000E+00 -0.50000000000E+03  0.50000000000E+03  0.00000000000E+00 0. -1.
         23    2    1    2    0    0 -0.21718817054E+02  0.76277560371E+02  0.62205589840E+02  0.11948664058E+03  0.64168127917E+02 0.  0.
        -11    1    1    2    0    0 -0.73060593555E+01 -0.37491769456E+02  0.40701262530E+03  0.40880103771E+03  0.00000000000E+00 0. -1.
         11    1    1    2    0    0  0.29024876410E+02 -0.38785790914E+02 -0.46921821514E+03  0.47171232170E+03  0.00000000000E+00 0. -1.
        -15    1    3    3    0    0 -0.25938538038E+02  0.26462068700E+02 -0.30955249414E+01  0.37226184858E+02  0.17770000000E+01 0.  1.
         15    1    3    3    0    0  0.42197209840E+01  0.49815491671E+02  0.65301114781E+02  0.82260455726E+02  0.17770000000E+01 0. -1.
</event>
<event>
 7    1  0.3915547E-004  0.4905898E+03  0.7546771E-02  0.9421115E-01
        -11   -1    0    0    0    0  0.00000000000E+00  0.00000000000E+00  0.50000000000E+03  0.50000000000E+03  0.00000000000E+00 0.  1.
         11   -1    0    0    0    0 -0.00000000000E+00 -0.00000000000E+00 -0.50000000000E+03  0.50000000000E+03  0.00000000000E+00 0.  1.
         23    2    1    2    0    0 -0.47465651648E+01  0.32866309553E+02  0.47662940921E+03  0.48591250950E+03  0.88502254080E+02 0.  0.
        -11    1    1    2    0    0 -0.22695636498E+02 -0.97421314021E+01  0.96274143567E+01  0.26508265645E+02  0.00000000000E+00 0.  1.
         11    1    1    2    0    0  0.27442201663E+02 -0.23124178151E+02 -0.48625682357E+03  0.48757922486E+03  0.00000000000E+00 0.  1.
        -15    1    3    3    0    0 -0.10368855203E+02 -0.23377711592E+02  0.57126194149E+02  0.62614617658E+02  0.17770000000E+01 0. -1.
         15    1    3    3    0    0  0.56222900380E+01  0.56244021145E+02  0.41950321506E+03  0.42329789184E+03  0.17770000000E+01 0.  1.
</event>
<event>
 7    1  0.3915547E-004  0.5191338E+03  0.7546771E-02  0.9357986E-01
        -11   -1    0    0    0    0  0.00000000000E+00  0.00000000000E+00  0.50000000000E+03  0.50000000000E+03  0.00000000000E+00 0.  1.
         11   -1    0    0    0    0 -0.00000000000E+00 -0.00000000000E+00 -0.50000000000E+03  0.50000000000E+03  0.00000000000E+00 0. -1.
         23    2    1    2    0    0 -0.57428028469E+02 -0.14323907341E+02  0.19969639030E+03  0.22695590075E+03  0.90150872503E+02 0.  0.
        -11    1    1    2    0    0  0.83589433886E+02 -0.25315101548E+02  0.27881867662E+03  0.29217786065E+03  0.00000000000E+00 0.  1.
         11    1    1    2    0    0 -0.26161405417E+02  0.39639008889E+02 -0.47851506691E+03  0.48086623860E+03  0.00000000000E+00 0. -1.
        -15    1    3    3    0    0 -0.73481204459E+02 -0.34358145928E+02  0.13762690746E+03  0.15976324041E+03  0.17770000000E+01 0.  1.
         15    1    3    3    0    0  0.16053175990E+02  0.20034238586E+02  0.62069482841E+02  0.67192660345E+02  0.17770000000E+01 0. -1.
</event>
<event>
 7    1  0.3915547E-004  0.4883997E+03  0.7546771E-02  0.9426147E-01
        -11   -1    0    0    0    0  0.00000000000E+00  0.00000000000E+00  0.50000000000E+03  0.50000000000E+03  0.00000000000E+00 0.  1.
         11   -1    0    0    0    0 -0.00000000000E+00 -0.00000000000E+00 -0.50000000000E+03  0.50000000000E+03  0.00000000000E+00 0.  1.
         23    2    1    2    0    0 -0.17918313517E+02 -0.18685542908E+02  0.48045831152E+03  0.48931451657E+03  0.88984782631E+02 0.  0.
        -11    1    1    2    0    0  0.25955629145E+02  0.16719507051E+02 -0.72727368138E+00  0.30883094523E+02  0.00000000000E+00 0.  1.
         11    1    1    2    0    0 -0.80373156275E+01  0.19660358572E+01 -0.47973103784E+03  0.47980238891E+03  0.00000000000E+00 0.  1.
        -15    1    3    3    0    0  0.26760886304E+02 -0.93454386103E+01  0.60004592102E+02  0.66386678339E+02  0.17770000000E+01 0. -1.
         15    1    3    3    0    0 -0.44679199822E+02 -0.93401042975E+01  0.42045371942E+03  0.42292783823E+03  0.17770000000E+01 0.  1.
</event>
<event>
 7    1  0.3915547E-004  0.4339009E+03  0.7546771E-02  0.9561219E-01
        -11   -1    0    0    0    0  0.00000000000E+00  0.00000000000E+00  0.50000000000E+03  0.50000000000E+03  0.00000000000E+00 0.  1.
         11   -1    0    0    0    0 -0.00000000000E+00 -0.00000000000E+00 -0.50000000000E+03  0.50000000000E+03  0.00000000000E+00 0.  1.
         23    2    1    2    0    0 -0.37772192307E+02 -0.41161980583E+02  0.25220748648E+02  0.13003611513E+03  0.11468329399E+03 0.  0.
        -11    1    1    2    0    0  0.46342264118E+02  0.40985266981E+02  0.42006467679E+03  0.42459596116E+03  0.00000000000E+00 0.  1.
         11    1    1    2    0    0 -0.85700718110E+01  0.17671360201E+00 -0.44528542543E+03  0.44536792370E+03  0.00000000000E+00 0.  1.
        -15    1    3    3    0    0 -0.44830995844E+02 -0.38644647412E+02  0.65922281064E+02  0.88612255539E+02  0.17770000000E+01 0. -1.
         15    1    3    3    0    0  0.70588035372E+01 -0.25173331715E+01 -0.40701532416E+02  0.41423859594E+02  0.17770000000E+01 0.  1.
</event>
<event>
 7    1  0.3915547E-004  0.5211317E+03  0.7546771E-02  0.9353729E-01
        -11   -1    0    0    0    0  0.00000000000E+00  0.00000000000E+00  0.50000000000E+03  0.50000000000E+03  0.00000000000E+00 0. -1.
         11   -1    0    0    0    0 -0.00000000000E+00 -0.00000000000E+00 -0.50000000000E+03  0.50000000000E+03  0.00000000000E+00 0.  1.
         23    2    1    2    0    0 -0.53697815076E+02 -0.39842000466E+02  0.26586117759E+03  0.29973206110E+03  0.12118705524E+03 0.  0.
        -11    1    1    2    0    0  0.49958107384E+02  0.34209720256E+02  0.21295937053E+03  0.22139966339E+03  0.00000000000E+00 0. -1.
         11    1    1    2    0    0  0.37397076923E+01  0.56322802103E+01 -0.47882054812E+03  0.47886827551E+03  0.00000000000E+00 0.  1.
        -15    1    3    3    0    0 -0.24069196987E+01  0.13552837060E+02 -0.80094368182E+01  0.16024402078E+02  0.17770000000E+01 0.  1.
         15    1    3    3    0    0 -0.51290895377E+02 -0.53394837527E+02  0.27387061441E+03  0.28370765902E+03  0.17770000000E+01 0. -1.
</event>
<event>
 7    1  0.3915547E-004  0.4924728E+03  0.7546771E-02  0.9416812E-01
        -11   -1    0    0    0    0  0.00000000000E+00  0.00000000000E+00  0.50000000000E+03  0.50000000000E+03  0.00000000000E+00 0. -1.
         11   -1    0    0    0    0 -0.00000000000E+00 -0.00000000000E+00 -0.50000000000E+03  0.50000000000E+03  0.00000000000E+00 0.  1.
         23    2    1    2    0    0 -0.85985918571E+01 -0.10981385860E+02  0.47338284666E+03  0.48238077206E+03  0.91680767447E+02 0.  0.
        -11    1    1    2    0    0  0.10496209752E+02  0.22633301554E+01  0.20772395711E+02  0.23383445130E+02  0.00000000000E+00 0. -1.
         11    1    1    2    0    0 -0.18976178951E+01  0.87180557047E+01 -0.49415524237E+03  0.49423578281E+03  0.00000000000E+00 0.  1.
        -15    1    3    3    0    0 -0.32914917373E+02  0.19510417433E+02  0.10206085558E+03  0.10901203670E+03  0.17770000000E+01 0.  1.
         15    1    3    3    0    0  0.24316325516E+02 -0.30491803293E+02  0.37132199108E+03  0.37336873536E+03  0.17770000000E+01 0. -1.
</event>
<event>
 7    1  0.3915547E-004  0.5154549E+03  0.7546771E-02  0.9365877E-01
        -11   -1    0    0    0    0  0.00000000000E+00  0.00000000000E+00  0.50000000000E+03  0.50000000000E+03  0.00000000000E+00 0. -1.
         11   -1    0    0    0    0 -0.00000000000E+00 -0.00000000000E+00 -0.50000000000E+03  0.50000000000E+03  0.00000000000E+00 0. -1.
         23    2    1    2    0    0 -0.15613702226E+02  0.60875623558E+02 -0.13826055203E+03  0.17413958272E+03  0.85199675946E+02 0.  0.
        -11    1    1    2    0    0  0.15074081182E+02 -0.68098711147E+02  0.47949900268E+03  0.48454510209E+03  0.00000000000E+00 0. -1.
         11    1    1    2    0    0  0.53962104403E+00  0.72230875891E+01 -0.34123845065E+03  0.34131531519E+03  0.00000000000E+00 0. -1.
        -15    1    3    3    0    0  0.19867978667E+02 -0.69589442385E+01 -0.64290499192E+02  0.67672664323E+02  0.17770000000E+01 0.  1.
         15    1    3    3    0    0 -0.35481680892E+02  0.67834567796E+02 -0.73970052841E+02  0.10646691840E+03  0.17770000000E+01 0. -1.
</event>
<event>
 7    1  0.3915547E-004  0.4904152E+03  0.7546771E-02  0.9421515E-01
        -11   -1    0    0    0    0  0.00000000000E+00  0.00000000000E+00  0.50000000000E+03  0.50000000000E+03  0.00000000000E+00 0.  1.
         11   -1    0    0    0    0 -0.00000000000E+00 -0.00000000000E+00 -0.50000000000E+03  0.50000000000E+03  0.00000000000E+00 0. -1.
         23    2    1    2    0    0  0.63607017826E+02  0.44147748322E+02  0.47973135966E+03  0.49396188025E+03  0.88663889474E+02 0.  0.
        -11    1    1    2    0    0 -0.22434074771E+02 -0.14440776373E+02 -0.32703852981E+01  0.26879716388E+02  0.00000000000E+00 0.  1.
         11    1    1    2    0    0 -0.41172943055E+02 -0.29706971948E+02 -0.47646097436E+03  0.47915840336E+03  0.00000000000E+00 0. -1.
        -15    1    3    3    0    0 -0.14910611614E+02 -0.11940158768E+02  0.11933707431E+03  0.12086930448E+03  0.17770000000E+01 0.  1.
         15    1    3    3    0    0  0.78517629440E+02  0.56087907090E+02  0.36039428535E+03  0.37309257577E+03  0.17770000000E+01 0. -1.
</event>
<event>
 7    1  0.3915547E-004  0.4935919E+03  0.7546771E-02  0.9414264E-01
        -11   -1    0    0    0    0  0.00000000000E+00  0.00000000000E+00  0.50000000000E+03  0.50000000000E+03  0.00000000000E+00 0. -1.
         11   -1    0    0    0    0 -0.00000000000E+00 -0.00000000000E+00 -0.50000000000E+03  0.50000000000E+03  0.00000000000E+00 0.  1.
         23    2    1    2    0    0  0.20876763514E+02 -0.20634991072E+02  0.47911015628E+03  0.48890060627E+03  0.92820357932E+02 0.  0.
        -11    1    1    2    0    0 -0.16854926006E+02  0.80466006058E+01  0.10422476944E+02  0.21388415968E+02  0.00000000000E+00 0. -1.
         11    1    1    2    0    0 -0.40218375085E+01  0.12588390466E+02 -0.48953263322E+03  0.48971097776E+03  0.00000000000E+00 0.  1.
        -15    1    3    3    0    0 -0.35367884853E+02  0.31155425271E+01  0.14851333169E+03  0.15270874665E+03  0.17770000000E+01 0.  1.
         15    1    3    3    0    0  0.56244648367E+02 -0.23750533599E+02  0.33059682459E+03  0.33619185962E+03  0.17770000000E+01 0. -1.
</event>
<event>
 7    1  0.3915547E-004  0.4813739E+03  0.7546771E-02  0.9442479E-01
        -11   -1    0    0    0    0  0.00000000000E+00  0.00000000000E+00  0.50000000000E+03  0.50000000000E+03  0.00000000000E+00 0.  1.
         11   -1    0    0    0    0 -0.00000000000E+00 -0.00000000000E+00 -0.50000000000E+03  0.50000000000E+03  0.00000000000E+00 0. -1.
         23    2    1    2    0    0  0.45019828527E+02 -0.51969613849E+01  0.46572230945E+03  0.47667860987E+03  0.90947425612E+02 0.  0.
        -11    1    1    2    0    0 -0.34570116072E+02 -0.26146881097E+02  0.11589651135E+02  0.44867274597E+02  0.00000000000E+00 0.  1.
         11    1    1    2    0    0 -0.10449712455E+02  0.31343842482E+02 -0.47731196058E+03  0.47845411553E+03  0.00000000000E+00 0. -1.
        -15    1    3    3    0    0  0.24293662916E+02  0.37967078169E+02  0.32283890848E+03  0.32597515187E+03  0.17770000000E+01 0.  1.
         15    1    3    3    0    0  0.20726165611E+02 -0.43164039554E+02  0.14288340097E+03  0.15070345800E+03  0.17770000000E+01 0. -1.
</event>
<event>
 7    1  0.3915547E-004  0.5048216E+03  0.7546771E-02  0.9389085E-01
        -11   -1    0    0    0    0  0.00000000000E+00  0.00000000000E+00  0.50000000000E+03  0.50000000000E+03  0.00000000000E+00 0.  1.
         11   -1    0    0    0    0 -0.00000000000E+00 -0.00000000000E+00 -0.50000000000E+03  0.50000000000E+03  0.00000000000E+00 0.  1.
         23    2    1    2    0    0  0.66267299363E+02 -0.10835620295E+03  0.46968477523E+03  0.49517839933E+03  0.92007811618E+02 0.  0.
        -11    1    1    2    0    0 -0.48474460251E+02  0.41375404041E+02 -0.54394089045E+02  0.83787912489E+02  0.00000000000E+00 0.  1.
         11    1    1    2    0    0 -0.17792839111E+02  0.66980798912E+02 -0.41529068619E+03  0.42103368818E+03  0.00000000000E+00 0.  1.
        -15    1    3    3    0    0  0.63180591625E+02 -0.76059826708E+02  0.44062631328E+03  0.45158785422E+03  0.17770000000E+01 0.  1.
         15    1    3    3    0    0  0.30867077374E+01 -0.32296376245E+02  0.29058461955E+02  0.43590545115E+02  0.17770000000E+01 0. -1.
</event>
<event>
 7    1  0.3915547E-004  0.3767392E+03  0.7546771E-02  0.9727741E-01
        -11   -1    0    0    0    0  0.00000000000E+00  0.00000000000E+00  0.50000000000E+03  0.50000000000E+03  0.00000000000E+00 0.  1.
         11   -1    0    0    0    0 -0.00000000000E+00 -0.00000000000E+00 -0.50000000000E+03  0.50000000000E+03  0.00000000000E+00 0. -1.
         23    2    1    2    0    0 -0.29724114357E+00  0.74819801313E+02  0.43120017772E+03  0.44718562130E+03  0.91887407217E+02 0.  0.
        -11    1    1    2    0    0  0.16399288546E+03 -0.34010858246E+02 -0.14971363377E+03  0.22464322179E+03  0.00000000000E+00 0.  1.
         11    1    1    2    0    0 -0.16369564432E+03 -0.40808943067E+02 -0.28148654395E+03  0.32817115691E+03  0.00000000000E+00 0. -1.
        -15    1    3    3    0    0 -0.56546993140E+01  0.90825554356E+02  0.41024008978E+03  0.42021583257E+03  0.17770000000E+01 0.  1.
         15    1    3    3    0    0  0.53574581705E+01 -0.16005753043E+02  0.20960087943E+02  0.26969788729E+02  0.17770000000E+01 0. -1.
</event>
<event>
 7    1  0.3915547E-004  0.4453524E+03  0.7546771E-02  0.9531143E-01
        -11   -1    0    0    0    0  0.00000000000E+00  0.00000000000E+00  0.50000000000E+03  0.50000000000E+03  0.00000000000E+00 0. -1.
         11   -1    0    0    0    0 -0.00000000000E+00 -0.00000000000E+00 -0.50000000000E+03  0.50000000000E+03  0.00000000000E+00 0. -1.
         23    2    1    2    0    0  0.54040356392E+02 -0.12188534935E+02 -0.15998297869E+02  0.10743069545E+03  0.90644846994E+02 0.  0.
        -11    1    1    2    0    0 -0.57200907289E+02  0.30578195559E+02  0.45176796510E+03  0.45640033319E+03  0.00000000000E+00 0. -1.
         11    1    1    2    0    0  0.31605508966E+01 -0.18389660624E+02 -0.43576966724E+03  0.43616897137E+03  0.00000000000E+00 0. -1.
        -15    1    3    3    0    0 -0.14090968894E+02  0.10236978082E+00  0.23681986578E+02  0.27614490784E+02  0.17770000000E+01 0. -1.
         15    1    3    3    0    0  0.68131325286E+02 -0.12290904716E+02 -0.39680284447E+02  0.79816204663E+02  0.17770000000E+01 0.  1.
</event>
<event>
 7    1  0.3915547E-004  0.5305322E+03  0.7546771E-02  0.9333969E-01
        -11   -1    0    0    0    0  0.00000000000E+00  0.00000000000E+00  0.50000000000E+03  0.50000000000E+03  0.00000000000E+00 0.  1.
         11   -1    0    0    0    0 -0.00000000000E+00 -0.00000000000E+00 -0.50000000000E+03  0.50000000000E+03  0.00000000000E+00 0. -1.
         23    2    1    2    0    0  0.68311451734E+02  0.49502892246E+02 -0.73010131877E+02  0.13978900989E+03  0.84222901580E+02 0.  0.
        -11    1    1    2    0    0 -0.55205499996E+02 -0.49893211203E+02  0.46353324006E+03  0.46946783106E+03  0.00000000000E+00 0.  1.
         11    1    1    2    0    0 -0.13105951738E+02  0.39031895706E+00 -0.39052310819E+03  0.39074315905E+03  0.00000000000E+00 0. -1.
        -15    1    3    3    0    0  0.52581745026E+02  0.13786985713E+02  0.28474353616E+01  0.54462707445E+02  0.17770000000E+01 0.  1.
         15    1    3    3    0    0  0.15729706708E+02  0.35715906533E+02 -0.75857567239E+02  0.85326302445E+02  0.17770000000E+01 0. -1.
</event>
<event>
 7    1  0.3915547E-004  0.5008974E+03  0.7546771E-02  0.9397804E-01
        -11   -1    0    0    0    0  0.00000000000E+00  0.00000000000E+00  0.50000000000E+03  0.50000000000E+03  0.00000000000E+00 0.  1.
         11   -1    0    0    0    0 -0.00000000000E+00 -0.00000000000E+00 -0.50000000000E+03  0.50000000000E+03  0.00000000000E+00 0. -1.
         23    2    1    2    0    0 -0.60290784041E+01 -0.12417262345E+02  0.49222289807E+03  0.50089735404E+03  0.91783657114E+02 0.  0.
        -11    1    1    2    0    0 -0.18707212853E+01  0.16842079193E+02 -0.17738308755E+02  0.24531669881E+02  0.00000000000E+00 0.  1.
         11    1    1    2    0    0  0.78997996894E+01 -0.44248168486E+01 -0.47448458931E+03  0.47457097608E+03  0.00000000000E+00 0. -1.
        -15    1    3    3    0    0  0.65729196024E+01  0.27883651709E+02  0.58932742448E+02  0.65550950917E+02  0.17770000000E+01 0. -1.
         15    1    3    3    0    0 -0.12601998006E+02 -0.40300914054E+02  0.43329015562E+03  0.43534640312E+03  0.17770000000E+01 0.  1.
</event>
<event>
 7    1  0.3915547E-004  0.5236340E+03  0.7546771E-02  0.9348426E-01
        -11   -1    0    0    0    0  0.00000000000E+00  0.00000000000E+00  0.50000000000E+03  0.50000000000E+03  0.00000000000E+00 0.  1.
         11   -1    0    0    0    0 -0.00000000000E+00 -0.00000000000E+00 -0.50000000000E+03  0.50000000000E+03  0.00000000000E+00 0. -1.
         23    2    1    2    0    0 -0.28983883786E+02  0.62310927791E+02  0.26852092823E+03  0.29162628815E+03  0.90662482861E+02 0.  0.
        -11    1    1    2    0    0  0.15688267013E+02 -0.10630493619E+03  0.20562280353E+03  0.23200775529E+03  0.00000000000E+00 0.  1.
         11    1    1    2    0    0  0.13295616773E+02  0.43994008403E+02 -0.47414373177E+03  0.47636595656E+03  0.00000000000E+00 0. -1.
        -15    1    3    3    0    0 -0.22573524866E+02  0.77898557399E+02  0.26057055086E+03  0.27290642897E+03  0.17770000000E+01 0.  1.
         15    1    3    3    0    0 -0.64103589194E+01 -0.15587629608E+02  0.79503773753E+01  0.18719859179E+02  0.17770000000E+01 0. -1.
</event>
<event>
 7    1  0.3915547E-004  0.5091554E+03  0.7546771E-02  0.9379554E-01
        -11   -1    0    0    0    0  0.00000000000E+00  0.00000000000E+00  0.50000000000E+03  0.50000000000E+03  0.00000000000E+00 0.  1.
         11   -1    0    0    0    0 -0.00000000000E+00 -0.00000000000E+00 -0.50000000000E+03  0.50000000000E+03  0.00000000000E+00 0.  1.
         23    2    1    2    0    0  0.39173513229E+02  0.23002915338E+02  0.30130087153E+03  0.31627958029E+03  0.84775347056E+02 0.  0.
        -11    1    1    2    0    0 -0.27870703826E+02 -0.23385245066E+02  0.18941341294E+03  0.19287583265E+03  0.00000000000E+00 0.  1.
         11    1    1    2    0    0 -0.11302809403E+02  0.38232972867E+00 -0.49071428447E+03  0.49084458707E+03  0.00000000000E+00 0.  1.
        -15    1    3    3    0    0  0.50283910514E+02 -0.10142251087E+02  0.24230255167E+03  0.24767927080E+03  0.17770000000E+01 0.  1.
         15    1    3    3    0    0 -0.11110397285E+02  0.33145166425E+02  0.58998319864E+02  0.68600309481E+02  0.17770000000E+01 0. -1.
</event>
<event>
 7    1  0.3915547E-004  0.3832998E+03  0.7546771E-02  0.9707074E-01
        -11   -1    0    0    0    0  0.00000000000E+00  0.00000000000E+00  0.50000000000E+03  0.50000000000E+03  0.00000000000E+00 0.  1.
         11   -1    0    0    0    0 -0.00000000000E+00 -0.00000000000E+00 -0.50000000000E+03  0.50000000000E+03  0.00000000000E+00 0.  1.
         23    2    1    2    0    0 -0.16488367741E+02  0.20265727551E+03  0.32043853557E+03  0.39024154878E+03  0.90916300655E+02 0.  0.
        -11    1    1    2    0    0  0.24135892069E+02 -0.19958863313E+03  0.74745965382E+02  0.21448804885E+03  0.00000000000E+00 0.  1.
         11    1    1    2    0    0 -0.76475243280E+01 -0.30686423804E+01 -0.39518450095E+03  0.39527040237E+03  0.00000000000E+00 0.  1.
        -15    1    3    3    0    0 -0.50233240764E+01  0.20885936661E+03  0.30771459917E+03  0.37193937823E+03  0.17770000000E+01 0.  1.
         15    1    3    3    0    0 -0.11465043665E+02 -0.62020911006E+01  0.12723936406E+02  0.18302170552E+02  0.17770000000E+01 0. -1.
</event>
<event>
 7    1  0.3915547E-004  0.5073492E+03  0.7546771E-02  0.9383514E-01
        -11   -1    0    0    0    0  0.00000000000E+00  0.00000000000E+00  0.50000000000E+03  0.50000000000E+03  0.00000000000E+00 0. -1.
         11   -1    0    0    0    0 -0.00000000000E+00 -0.00000000000E+00 -0.50000000000E+03  0.50000000000E+03  0.00000000000E+00 0. -1.
         23    2    1    2    0    0  0.42636245665E+02  0.30451174711E+02 -0.20398700530E+03  0.22115708493E+03  0.67488031543E+02 0.  0.
        -11    1    1    2    0    0 -0.51039509813E+02 -0.16579338675E+02  0.48971920235E+03  0.49265079233E+03  0.00000000000E+00 0. -1.
         11    1    1    2    0    0  0.84032641476E+01 -0.13871836035E+02 -0.28573219705E+03  0.28619212274E+03  0.00000000000E+00 0. -1.
        -15    1    3    3    0    0  0.45560588325E+02 -0.65535173406E+01 -0.13720863646E+03  0.14473452748E+03  0.17770000000E+01 0.  1.
         15    1    3    3    0    0 -0.29243426601E+01  0.37004692051E+02 -0.66778368836E+02  0.76422557450E+02  0.17770000000E+01 0. -1.
</event>
<event>
 7    1  0.3915547E-004  0.4907873E+03  0.7546771E-02  0.9420663E-01
        -11   -1    0    0    0    0  0.00000000000E+00  0.00000000000E+00  0.50000000000E+03  0.50000000000E+03  0.00000000000E+00 0.  1.
         11   -1    0    0    0    0 -0.00000000000E+00 -0.00000000000E+00 -0.50000000000E+03  0.50000000000E+03  0.00000000000E+00 0. -1.
         23    2    1    2    0    0  0.78425720816E+00  0.28062445501E+02  0.47839520736E+03  0.48773844714E+03  0.90767298534E+02 0.  0.
        -11    1    1    2    0    0 -0.19962477541E+02 -0.16092775309E+02  0.68097792436E+01  0.26530190728E+02  0.00000000000E+00 0.  1.
         11    1    1    2    0    0  0.19178220333E+02 -0.11969670193E+02 -0.48520498660E+03  0.48573136214E+03  0.00000000000E+00 0. -1.
        -15    1    3    3    0    0  0.21829853938E+02  0.12631512141E+02  0.44303118786E+03  0.44375205776E+03  0.17770000000E+01 0.  1.
         15    1    3    3    0    0 -0.21045596730E+02  0.15430933360E+02  0.35364019503E+02  0.43986389378E+02  0.17770000000E+01 0. -1.
</event>
<event>
 7    1  0.3915547E-004  0.5031352E+03  0.7546771E-02  0.9392822E-01
        -11   -1    0    0    0    0  0.00000000000E+00  0.00000000000E+00  0.50000000000E+03  0.50000000000E+03  0.00000000000E+00 0. -1.
         11   -1    0    0    0    0 -0.00000000000E+00 -0.00000000000E+00 -0.50000000000E+03  0.50000000000E+03  0.00000000000E+00 0.  1.
         23    2    1    2    0    0 -0.27904055211E+02  0.27691419414E+02  0.41684259023E+03  0.42429585451E+03  0.68729732436E+02 0.  0.
        -11    1    1    2    0    0  0.33199115313E+01  0.12345998736E+02  0.77795892886E+02  0.78839371175E+02  0.00000000000E+00 0. -1.
         11    1    1    2    0    0  0.24584143679E+02 -0.40037418150E+02 -0.49463848312E+03  0.49686477431E+03  0.00000000000E+00 0.  1.
        -15    1    3    3    0    0 -0.74982582889E+01  0.11486724036E+02  0.37304947342E+03  0.37330582108E+03  0.17770000000E+01 0. -1.
         15    1    3    3    0    0 -0.20405796922E+02  0.16204695378E+02  0.43793116813E+02  0.50990033433E+02  0.17770000000E+01 0.  1.
</event>
<event>
 7    1  0.3915547E-004  0.5030680E+03  0.7546771E-02  0.9392971E-01
        -11   -1    0    0    0    0  0.00000000000E+00  0.00000000000E+00  0.50000000000E+03  0.50000000000E+03  0.00000000000E+00 0. -1.
         11   -1    0    0    0    0 -0.00000000000E+00 -0.00000000000E+00 -0.50000000000E+03  0.50000000000E+03  0.00000000000E+00 0. -1.
         23    2    1    2    0    0 -0.31253014927E+02  0.61472097762E+01  0.48788612282E+03  0.49693201984E+03  0.88848322311E+02 0.  0.
        -11    1    1    2    0    0  0.21295356193E+02 -0.16163796487E+02 -0.16387344218E+02  0.31357703404E+02  0.00000000000E+00 0. -1.
         11    1    1    2    0    0  0.99576587344E+01  0.10016586711E+02 -0.47149877860E+03  0.47171027675E+03  0.00000000000E+00 0. -1.
        -15    1    3    3    0    0 -0.37708528112E+02  0.11800406029E+02  0.82907021191E+02  0.91858121941E+02  0.17770000000E+01 0.  1.
         15    1    3    3    0    0  0.64555131847E+01 -0.56531962525E+01  0.40497910162E+03  0.40507389790E+03  0.17770000000E+01 0. -1.
</event>
<event>
 7    1  0.7330915E-004  0.5212304E+03  0.7546771E-02  0.9353519E-01
        -11   -1    0    0    0    0  0.00000000000E+00  0.00000000000E+00  0.50000000000E+03  0.50000000000E+03  0.00000000000E+00 0. -1.
         11   -1    0    0    0    0 -0.00000000000E+00 -0.00000000000E+00 -0.50000000000E+03  0.50000000000E+03  0.00000000000E+00 0.  1.
         23    2    1    2    0    0 -0.42100210991E+02  0.20598897851E+02 -0.14223097920E+03  0.18651251247E+03  0.11117789126E+03 0.  0.
        -11    1    1    2    0    0  0.39008432928E+02 -0.16136324665E+02  0.47690487194E+03  0.47876956430E+03  0.00000000000E+00 0. -1.
         11    1    1    2    0    0  0.30917780630E+01 -0.44625731865E+01 -0.33467389274E+03  0.33471792323E+03  0.00000000000E+00 0.  1.
        -15    1    3    3    0    0 -0.46655518260E+02  0.16239787335E+02 -0.56278055627E+01  0.49752366790E+02  0.17770000000E+01 0. -1.
         15    1    3    3    0    0  0.45553072688E+01  0.43591105165E+01 -0.13660317364E+03  0.13676014568E+03  0.17770000000E+01 0.  1.
</event>
<event>
 7    1  0.3915547E-004  0.5272307E+03  0.7546771E-02  0.9340859E-01
        -11   -1    0    0    0    0  0.00000000000E+00  0.00000000000E+00  0.50000000000E+03  0.50000000000E+03  0.00000000000E+00 0.  1.
         11   -1    0    0    0    0 -0.00000000000E+00 -0.00000000000E+00 -0.50000000000E+03  0.50000000000E+03  0.00000000000E+00 0.  1.
         23    2    1    2    0    0  0.31609481699E+02  0.41320117098E+00 -0.56787527123E+02  0.11186048232E+03  0.91041826651E+02 0.  0.
        -11    1    1    2    0    0 -0.25018420617E+02 -0.39713184937E+01  0.47209018277E+03  0.47276932367E+03  0.00000000000E+00 0.  1.
         11    1    1    2    0    0 -0.65910610819E+01  0.35581173228E+01 -0.41530265564E+03  0.41537019401E+03  0.00000000000E+00 0.  1.
        -15    1    3    3    0    0  0.16354584730E+02  0.17129295597E+01  0.24259268095E+02  0.29361137357E+02  0.17770000000E+01 0. -1.
         15    1    3    3    0    0  0.15254896969E+02 -0.12997283887E+01 -0.81046795218E+02  0.82499344964E+02  0.17770000000E+01 0.  1.
</event>
<event>
 7    1  0.3915547E-004  0.4592309E+03  0.7546771E-02  0.9495959E-01
        -11   -1    0    0    0    0  0.00000000000E+00  0.00000000000E+00  0.50000000000E+03  0.50000000000E+03  0.00000000000E+00 0. -1.
         11   -1    0    0    0    0 -0.00000000000E+00 -0.00000000000E+00 -0.50000000000E+03  0.50000000000E+03  0.00000000000E+00 0. -1.
         23    2    1    2    0    0  0.67093085055E+02 -0.14059192499E+02  0.43624059710E+03  0.45137637418E+03  0.93464590382E+02 0.  0.
        -11    1    1    2    0    0 -0.80781058966E+02  0.20262212361E+02  0.25142484141E+02  0.86995869133E+02  0.00000000000E+00 0. -1.
         11    1    1    2    0    0  0.13687973910E+02 -0.62030198620E+01 -0.46138308124E+03  0.46162775668E+03  0.00000000000E+00 0. -1.
        -15    1    3    3    0    0  0.31165504325E+02  0.18954025264E+02  0.49222731878E+02  0.61290935676E+02  0.17770000000E+01 0.  1.
         15    1    3    3    0    0  0.35927580731E+02 -0.33013217762E+02  0.38701786522E+03  0.39008543851E+03  0.17770000000E+01 0. -1.
</event>
<event>
 7    1  0.3915547E-004  0.5318409E+03  0.7546771E-02  0.9331253E-01
        -11   -1    0    0    0    0  0.00000000000E+00  0.00000000000E+00  0.50000000000E+03  0.50000000000E+03  0.00000000000E+00 0.  1.
         11   -1    0    0    0    0 -0.00000000000E+00 -0.00000000000E+00 -0.50000000000E+03  0.50000000000E+03  0.00000000000E+00 0.  1.
         23    2    1    2    0    0 -0.48160740806E+02 -0.94858644238E+02  0.22495187453E+03  0.26938348318E+03  0.10318185798E+03 0.  0.
        -11    1    1    2    0    0  0.47314785117E+02  0.86774343203E+02  0.24313664218E+03  0.26245742950E+03  0.00000000000E+00 0.  1.
         11    1    1    2    0    0  0.84595568854E+00  0.80843010350E+01 -0.46808851671E+03  0.46815908732E+03  0.00000000000E+00 0.  1.
        -15    1    3    3    0    0 -0.14648852099E+02 -0.55911256953E-01 -0.71747448063E+01  0.16408128654E+02  0.17770000000E+01 0.  1.
         15    1    3    3    0    0 -0.33511888706E+02 -0.94802732981E+02  0.23212661933E+03  0.25297535452E+03  0.17770000000E+01 0. -1.
</event>
<event>
 7    1  0.3915547E-004  0.3473502E+03  0.7546771E-02  0.9826188E-01
        -11   -1    0    0    0    0  0.00000000000E+00  0.00000000000E+00  0.50000000000E+03  0.50000000000E+03  0.00000000000E+00 0.  1.
         11   -1    0    0    0    0 -0.00000000000E+00 -0.00000000000E+00 -0.50000000000E+03  0.50000000000E+03  0.00000000000E+00 0.  1.
         23    2    1    2    0    0  0.14429756188E+03 -0.61582618320E+02  0.19095786692E+03  0.26264810263E+03  0.88909581237E+02 0.  0.
        -11    1    1    2    0    0 -0.95684633901E+02  0.26726799578E+03  0.16133601555E+03  0.32652264951E+03  0.00000000000E+00 0.  1.
         11    1    1    2    0    0 -0.48612927977E+02 -0.20568537746E+03 -0.35229388247E+03  0.41082924785E+03  0.00000000000E+00 0.  1.
        -15    1    3    3    0    0  0.90156115393E+02 -0.68428512403E+02  0.78858062489E+02  0.13795774063E+03  0.17770000000E+01 0.  1.
         15    1    3    3    0    0  0.54141446485E+02  0.68458940832E+01  0.11209980443E+03  0.12469036200E+03  0.17770000000E+01 0. -1.
</event>
<event>
 7    1  0.3915547E-004  0.4746735E+03  0.7546771E-02  0.9458334E-01
        -11   -1    0    0    0    0  0.00000000000E+00  0.00000000000E+00  0.50000000000E+03  0.50000000000E+03  0.00000000000E+00 0. -1.
         11   -1    0    0    0    0 -0.00000000000E+00 -0.00000000000E+00 -0.50000000000E+03  0.50000000000E+03  0.00000000000E+00 0. -1.
         23    2    1    2    0    0  0.42463624167E+02 -0.30081548128E+02  0.43720293836E+03  0.44958181400E+03  0.90935907412E+02 0.  0.
        -11    1    1    2    0    0  0.19263827535E+02  0.17443117974E+02  0.51491929074E+02  0.57678212314E+02  0.00000000000E+00 0. -1.
         11    1    1    2    0    0 -0.61727451702E+02  0.12638430154E+02 -0.48869486743E+03  0.49273997368E+03  0.00000000000E+00 0. -1.
        -15    1    3    3    0    0  0.17220881122E+02  0.57241664594E+00  0.37725741713E+03  0.37765487275E+03  0.17770000000E+01 0. -1.
         15    1    3    3    0    0  0.25242743044E+02 -0.30653964774E+02  0.59945521232E+02  0.71926941249E+02  0.17770000000E+01 0.  1.
</event>
<event>
 7    1  0.3915547E-004  0.5238666E+03  0.7546771E-02  0.9347935E-01
        -11   -1    0    0    0    0  0.00000000000E+00  0.00000000000E+00  0.50000000000E+03  0.50000000000E+03  0.00000000000E+00 0. -1.
         11   -1    0    0    0    0 -0.00000000000E+00 -0.00000000000E+00 -0.50000000000E+03  0.50000000000E+03  0.00000000000E+00 0. -1.
         23    2    1    2    0    0 -0.77222718390E+02 -0.24566828875E+02  0.39085636628E+03  0.40946917043E+03  0.91265684413E+02 0.  0.
        -11    1    1    2    0    0  0.64934713110E+02  0.40899211812E+02  0.84838144214E+02  0.11439743532E+03  0.00000000000E+00 0. -1.
         11    1    1    2    0    0  0.12288005280E+02 -0.16332382937E+02 -0.47569451050E+03  0.47613339425E+03  0.00000000000E+00 0. -1.
        -15    1    3    3    0    0  0.16294344865E+02 -0.14917385150E+02  0.35228575717E+02  0.41620239431E+02  0.17770000000E+01 0.  1.
         15    1    3    3    0    0 -0.93517063255E+02 -0.96494437252E+01  0.35562779057E+03  0.36784893100E+03  0.17770000000E+01 0. -1.
</event>
<event>
 7    1  0.3915547E-004  0.4856301E+03  0.7546771E-02  0.9432550E-01
        -11   -1    0    0    0    0  0.00000000000E+00  0.00000000000E+00  0.50000000000E+03  0.50000000000E+03  0.00000000000E+00 0.  1.
         11   -1    0    0    0    0 -0.00000000000E+00 -0.00000000000E+00 -0.50000000000E+03  0.50000000000E+03  0.00000000000E+00 0.  1.
         23    2    1    2    0    0 -0.94729615911E+01 -0.78024842900E+01  0.46125070703E+03  0.47013231449E+03  0.90119712797E+02 0.  0.
        -11    1    1    2    0    0  0.59016742687E+01  0.16412512414E+02  0.32044956094E+02  0.36483962696E+02  0.00000000000E+00 0.  1.
         11    1    1    2    0    0  0.35712873224E+01 -0.86100281237E+01 -0.49329566312E+03  0.49338372281E+03  0.00000000000E+00 0.  1.
        -15    1    3    3    0    0 -0.10033400877E+02 -0.42621480408E+02  0.13297351127E+03  0.14000847172E+03  0.17770000000E+01 0. -1.
         15    1    3    3    0    0  0.56043928544E+00  0.34818996118E+02  0.32827719576E+03  0.33012384277E+03  0.17770000000E+01 0.  1.
</event>
<event>
 7    1  0.3915547E-004  0.5039750E+03  0.7546771E-02  0.9390959E-01
        -11   -1    0    0    0    0  0.00000000000E+00  0.00000000000E+00  0.50000000000E+03  0.50000000000E+03  0.00000000000E+00 0.  1.
         11   -1    0    0    0    0 -0.00000000000E+00 -0.00000000000E+00 -0.50000000000E+03  0.50000000000E+03  0.00000000000E+00 0.  1.
         23    2    1    2    0    0  0.72106490929E+00 -0.12572885998E+02  0.49563572892E+03  0.50397495618E+03  0.90428885215E+02 0.  0.
        -11    1    1    2    0    0 -0.55387630133E+01  0.11585770912E+02 -0.43524841532E+03  0.43543781534E+03  0.00000000000E+00 0.  1.
         11    1    1    2    0    0  0.48176981040E+01  0.98711508587E+00 -0.60387313597E+02  0.60587228478E+02  0.00000000000E+00 0.  1.
        -15    1    3    3    0    0  0.13788052782E+02  0.23227573493E+02  0.51298325567E+02  0.58002642223E+02  0.17770000000E+01 0. -1.
         15    1    3    3    0    0 -0.13066987873E+02 -0.35800459490E+02  0.44433740335E+03  0.44597231396E+03  0.17770000000E+01 0.  1.
</event>
<event>
 7    1  0.3915547E-004  0.4968016E+03  0.7546771E-02  0.9406995E-01
        -11   -1    0    0    0    0  0.00000000000E+00  0.00000000000E+00  0.50000000000E+03  0.50000000000E+03  0.00000000000E+00 0. -1.
         11   -1    0    0    0    0 -0.00000000000E+00 -0.00000000000E+00 -0.50000000000E+03  0.50000000000E+03  0.00000000000E+00 0. -1.
         23    2    1    2    0    0 -0.54729859394E+01 -0.90380066249E+01  0.48231973945E+03  0.49078883107E+03  0.90164885113E+02 0.  0.
        -11    1    1    2    0    0 -0.61649261898E+01 -0.54163815950E+01  0.12003050491E+02  0.14540176258E+02  0.00000000000E+00 0. -1.
         11    1    1    2    0    0  0.11637912129E+02  0.14454388220E+02 -0.49432278994E+03  0.49467099267E+03  0.00000000000E+00 0. -1.
        -15    1    3    3    0    0 -0.74709049375E+01  0.31813183789E+02  0.80634849701E+02  0.87023156681E+02  0.17770000000E+01 0.  1.
         15    1    3    3    0    0  0.19979189982E+01 -0.40851190414E+02  0.40168488974E+03  0.40376567439E+03  0.17770000000E+01 0. -1.
</event>
<event>
 7    1  0.3915547E-004  0.5281635E+03  0.7546771E-02  0.9338907E-01
        -11   -1    0    0    0    0  0.00000000000E+00  0.00000000000E+00  0.50000000000E+03  0.50000000000E+03  0.00000000000E+00 0. -1.
         11   -1    0    0    0    0 -0.00000000000E+00 -0.00000000000E+00 -0.50000000000E+03  0.50000000000E+03  0.00000000000E+00 0. -1.
         23    2    1    2    0    0  0.46785911514E+02  0.29365453904E+02  0.97281910559E+02  0.14870429285E+03  0.97969103253E+02 0.  0.
        -11    1    1    2    0    0 -0.53311189344E+02 -0.29834368165E+02  0.37450920131E+03  0.37945923932E+03  0.00000000000E+00 0. -1.
         11    1    1    2    0    0  0.65252778301E+01  0.46891426057E+00 -0.47179111187E+03  0.47183646783E+03  0.00000000000E+00 0. -1.
        -15    1    3    3    0    0  0.39796033226E+02  0.47991951732E+02  0.10897348239E+03  0.12556006246E+03  0.17770000000E+01 0. -1.
         15    1    3    3    0    0  0.69898782876E+01 -0.18626497828E+02 -0.11691571830E+02  0.23144230397E+02  0.17770000000E+01 0.  1.
</event>
<event>
 7    1  0.3915547E-004  0.5109386E+03  0.7546771E-02  0.9375661E-01
        -11   -1    0    0    0    0  0.00000000000E+00  0.00000000000E+00  0.50000000000E+03  0.50000000000E+03  0.00000000000E+00 0.  1.
         11   -1    0    0    0    0 -0.00000000000E+00 -0.00000000000E+00 -0.50000000000E+03  0.50000000000E+03  0.00000000000E+00 0. -1.
         23    2    1    2    0    0 -0.57922852605E+02 -0.14622517566E+02  0.32678535632E+03  0.34475016246E+03  0.92169032408E+02 0.  0.
        -11    1    1    2    0    0  0.37106316195E+02  0.81154243861E+01  0.16178951987E+03  0.16618840981E+03  0.00000000000E+00 0.  1.
         11    1    1    2    0    0  0.20816536410E+02  0.65070931798E+01 -0.48857487619E+03  0.48906142773E+03  0.00000000000E+00 0. -1.
        -15    1    3    3    0    0 -0.27838703908E+02  0.23742737851E+02  0.25703000879E+03  0.25962722158E+03  0.17770000000E+01 0. -1.
         15    1    3    3    0    0 -0.30084148697E+02 -0.38365255417E+02  0.69755347528E+02  0.85122940878E+02  0.17770000000E+01 0.  1.
</event>
<event>
 7    1  0.3915547E-004  0.5018466E+03  0.7546771E-02  0.9395687E-01
        -11   -1    0    0    0    0  0.00000000000E+00  0.00000000000E+00  0.50000000000E+03  0.50000000000E+03  0.00000000000E+00 0.  1.
         11   -1    0    0    0    0 -0.00000000000E+00 -0.00000000000E+00 -0.50000000000E+03  0.50000000000E+03  0.00000000000E+00 0. -1.
         23    2    1    2    0    0  0.16459818252E+02 -0.78946655066E+01  0.49010291971E+03  0.49815341759E+03  0.87308099181E+02 0.  0.
        -11    1    1    2    0    0 -0.32164695629E+02 -0.19987789556E+02 -0.62709664561E+02  0.73256954657E+02  0.00000000000E+00 0.  1.
         11    1    1    2    0    0  0.15704877377E+02  0.27882455063E+02 -0.42739325515E+03  0.42858962776E+03  0.00000000000E+00 0. -1.
        -15    1    3    3    0    0  0.18168665969E+02 -0.34703992648E+02  0.10454996040E+03  0.11166162939E+03  0.17770000000E+01 0. -1.
         15    1    3    3    0    0 -0.17088477164E+01  0.26809327142E+02  0.38555295931E+03  0.38649178820E+03  0.17770000000E+01 0.  1.
</event>
<event>
 7    1  0.3915548E-004  0.5066124E+03  0.7546771E-02  0.9385134E-01
        -11   -1    0    0    0    0  0.00000000000E+00  0.00000000000E+00  0.50000000000E+03  0.50000000000E+03  0.00000000000E+00 0.  1.
         11   -1    0    0    0    0 -0.00000000000E+00 -0.00000000000E+00 -0.50000000000E+03  0.50000000000E+03  0.00000000000E+00 0.  1.
         23    2    1    2    0    0 -0.14473224387E+02  0.45287482767E+02 -0.20419737276E+03  0.22008523668E+03  0.66936642014E+02 0.  0.
        -11    1    1    2    0    0  0.17936983130E+02 -0.48325960457E+02  0.49068747671E+03  0.49338760992E+03  0.00000000000E+00 0.  1.
         11    1    1    2    0    0 -0.34637587426E+01  0.30384776903E+01 -0.28649010396E+03  0.28652715340E+03  0.00000000000E+00 0.  1.
        -15    1    3    3    0    0 -0.19364894033E+02  0.98798810456E+01 -0.16717916261E+03  0.16859608925E+03  0.17770000000E+01 0.  1.
         15    1    3    3    0    0  0.48916696453E+01  0.35407601721E+02 -0.37018210146E+02  0.51489147429E+02  0.17770000000E+01 0. -1.
</event>
<event>
 7    1  0.3915547E-004  0.4460503E+03  0.7546771E-02  0.9529341E-01
        -11   -1    0    0    0    0  0.00000000000E+00  0.00000000000E+00  0.50000000000E+03  0.50000000000E+03  0.00000000000E+00 0.  1.
         11   -1    0    0    0    0 -0.00000000000E+00 -0.00000000000E+00 -0.50000000000E+03  0.50000000000E+03  0.00000000000E+00 0. -1.
         23    2    1    2    0    0 -0.40719190101E+02 -0.35472074066E+02 -0.19522931457E+01  0.10626433115E+03  0.91498503511E+02 0.  0.
        -11    1    1    2    0    0  0.94351996039E+02  0.80743092662E+02  0.43636403861E+03  0.45369077615E+03  0.00000000000E+00 0.  1.
         11    1    1    2    0    0 -0.53632805939E+02 -0.45271018597E+02 -0.43441174546E+03  0.44004489270E+03  0.00000000000E+00 0. -1.
        -15    1    3    3    0    0  0.15385750108E+02  0.19725201659E+02  0.92817342283E+01  0.26741600666E+02  0.17770000000E+01 0.  1.
         15    1    3    3    0    0 -0.56104940209E+02 -0.55197275725E+02 -0.11234027374E+02  0.79522730482E+02  0.17770000000E+01 0. -1.
</event>
<event>
 7    1  0.3915547E-004  0.5081474E+03  0.7546771E-02  0.9381762E-01
        -11   -1    0    0    0    0  0.00000000000E+00  0.00000000000E+00  0.50000000000E+03  0.50000000000E+03  0.00000000000E+00 0. -1.
         11   -1    0    0    0    0 -0.00000000000E+00 -0.00000000000E+00 -0.50000000000E+03  0.50000000000E+03  0.00000000000E+00 0.  1.
         23    2    1    2    0    0  0.18667671259E+02  0.47400695712E+01  0.35618322991E+03  0.36828400073E+03  0.91627843546E+02 0.  0.
        -11    1    1    2    0    0 -0.28145012953E+02 -0.21598359588E+02  0.13528905014E+03  0.13986335467E+03  0.00000000000E+00 0. -1.
         11    1    1    2    0    0  0.94773416941E+01  0.16858290017E+02 -0.49147228005E+03  0.49185264461E+03  0.00000000000E+00 0.  1.
        -15    1    3    3    0    0 -0.27706650497E+01  0.42110090060E+02  0.25223760326E+03  0.25574968719E+03  0.17770000000E+01 0.  1.
         15    1    3    3    0    0  0.21438336309E+02 -0.37370020489E+02  0.10394562665E+03  0.11253431354E+03  0.17770000000E+01 0. -1.
</event>
<event>
 7    1  0.3915547E-004  0.5015536E+03  0.7546771E-02  0.9396340E-01
        -11   -1    0    0    0    0  0.00000000000E+00  0.00000000000E+00  0.50000000000E+03  0.50000000000E+03  0.00000000000E+00 0. -1.
         11   -1    0    0    0    0 -0.00000000000E+00 -0.00000000000E+00 -0.50000000000E+03  0.50000000000E+03  0.00000000000E+00 0. -1.
         23    2    1    2    0    0  0.81275204341E+01 -0.11437613052E+01  0.49430099217E+03  0.50261300627E+03  0.90658692019E+02 0.  0.
        -11    1    1    2    0    0  0.28879785044E+01  0.36492721247E+01 -0.21847119405E+01  0.51410673157E+01  0.00000000000E+00 0. -1.
         11    1    1    2    0    0 -0.11015498939E+02 -0.25055108194E+01 -0.49211628023E+03  0.49224592641E+03  0.00000000000E+00 0. -1.
        -15    1    3    3    0    0  0.48525644203E+02 -0.10118379218E+02  0.26622098396E+03  0.27080230754E+03  0.17770000000E+01 0.  1.
         15    1    3    3    0    0 -0.40398123769E+02  0.89746179128E+01  0.22808000821E+03  0.23181069873E+03  0.17770000000E+01 0. -1.
</event>
<event>
 7    1  0.3915547E-004  0.4859401E+03  0.7546771E-02  0.9431831E-01
        -11   -1    0    0    0    0  0.00000000000E+00  0.00000000000E+00  0.50000000000E+03  0.50000000000E+03  0.00000000000E+00 0. -1.
         11   -1    0    0    0    0 -0.00000000000E+00 -0.00000000000E+00 -0.50000000000E+03  0.50000000000E+03  0.00000000000E+00 0.  1.
         23    2    1    2    0    0  0.18098065924E+02 -0.41050034878E+01  0.46458499731E+03  0.47411147424E+03  0.92725828318E+02 0.  0.
        -11    1    1    2    0    0 -0.25737556001E+02 -0.68399657825E+01  0.24759151265E+02  0.36362377428E+02  0.00000000000E+00 0. -1.
         11    1    1    2    0    0  0.76394900771E+01  0.10944969270E+02 -0.48934414857E+03  0.48952614833E+03  0.00000000000E+00 0.  1.
        -15    1    3    3    0    0 -0.22875970268E+02  0.10371381531E+02  0.35951352860E+03  0.36039424322E+03  0.17770000000E+01 0.  1.
         15    1    3    3    0    0  0.40974036192E+02 -0.14476385019E+02  0.10507146870E+03  0.11371723101E+03  0.17770000000E+01 0. -1.
</event>
<event>
 7    1  0.3915547E-004  0.4758141E+03  0.7546771E-02  0.9455615E-01
        -11   -1    0    0    0    0  0.00000000000E+00  0.00000000000E+00  0.50000000000E+03  0.50000000000E+03  0.00000000000E+00 0.  1.
         11   -1    0    0    0    0 -0.00000000000E+00 -0.00000000000E+00 -0.50000000000E+03  0.50000000000E+03  0.00000000000E+00 0.  1.
         23    2    1    2    0    0  0.60330972681E+02 -0.13631710794E+02  0.46230678977E+03  0.47780161792E+03  0.10363960835E+03 0.  0.
        -11    1    1    2    0    0 -0.57807996387E+02 -0.45696273131E+01  0.15195162944E+01  0.58008231052E+02  0.00000000000E+00 0.  1.
         11    1    1    2    0    0 -0.25229762943E+01  0.18201338107E+02 -0.46382630606E+03  0.46419015103E+03  0.00000000000E+00 0.  1.
        -15    1    3    3    0    0  0.40306016964E+02  0.29995661858E+02  0.96082777854E+02  0.10844064120E+03  0.17770000000E+01 0.  1.
         15    1    3    3    0    0  0.20024955718E+02 -0.43627372652E+02  0.36622401191E+03  0.36936097672E+03  0.17770000000E+01 0. -1.
</event>
<event>
 7    1  0.3915547E-004  0.4642915E+03  0.7546771E-02  0.9483458E-01
        -11   -1    0    0    0    0  0.00000000000E+00  0.00000000000E+00  0.50000000000E+03  0.50000000000E+03  0.00000000000E+00 0.  1.
         11   -1    0    0    0    0 -0.00000000000E+00 -0.00000000000E+00 -0.50000000000E+03  0.50000000000E+03  0.00000000000E+00 0. -1.
         23    2    1    2    0    0 -0.34777161855E+02 -0.87439223925E+01  0.42145681214E+03  0.43122544307E+03  0.83926343215E+02 0.  0.
        -11    1    1    2    0    0  0.25000255044E+02  0.78076411136E+01  0.71280180521E+02  0.75939687563E+02  0.00000000000E+00 0.  1.
         11    1    1    2    0    0  0.97769068118E+01  0.93628127885E+00 -0.49273699266E+03  0.49283486937E+03  0.00000000000E+00 0. -1.
        -15    1    3    3    0    0 -0.48589683346E+02 -0.22723852003E+02  0.39269312114E+03  0.39634375976E+03  0.17770000000E+01 0.  1.
         15    1    3    3    0    0  0.13812521491E+02  0.13979929610E+02  0.28763690999E+02  0.34881683313E+02  0.17770000000E+01 0. -1.
</event>
<event>
 7    1  0.3915547E-004  0.5112988E+03  0.7546771E-02  0.9374877E-01
        -11   -1    0    0    0    0  0.00000000000E+00  0.00000000000E+00  0.50000000000E+03  0.50000000000E+03  0.00000000000E+00 0. -1.
         11   -1    0    0    0    0 -0.00000000000E+00 -0.00000000000E+00 -0.50000000000E+03  0.50000000000E+03  0.00000000000E+00 0.  1.
         23    2    1    2    0    0  0.28693726270E+02 -0.31680552502E+02 -0.21045470780E+03  0.23250365922E+03  0.89105444189E+02 0.  0.
        -11    1    1    2    0    0 -0.21293296788E+02  0.82741886926E+01  0.48816697801E+03  0.48870120228E+03  0.00000000000E+00 0. -1.
         11    1    1    2    0    0 -0.74004294823E+01  0.23406363809E+02 -0.27771227022E+03  0.27879513850E+03  0.00000000000E+00 0.  1.
        -15    1    3    3    0    0 -0.14047937199E+02  0.24071719572E+02 -0.72230491785E+02  0.77441551477E+02  0.17770000000E+01 0. -1.
         15    1    3    3    0    0  0.42741663470E+02 -0.55752272073E+02 -0.13822421601E+03  0.15506210775E+03  0.17770000000E+01 0.  1.
</event>
<event>
 7    1  0.3915547E-004  0.5279440E+03  0.7546771E-02  0.9339366E-01
        -11   -1    0    0    0    0  0.00000000000E+00  0.00000000000E+00  0.50000000000E+03  0.50000000000E+03  0.00000000000E+00 0.  1.
         11   -1    0    0    0    0 -0.00000000000E+00 -0.00000000000E+00 -0.50000000000E+03  0.50000000000E+03  0.00000000000E+00 0.  1.
         23    2    1    2    0    0  0.29321639467E+02 -0.31916193708E+02  0.68333857483E+02  0.12109536132E+03  0.90089780176E+02 0.  0.
        -11    1    1    2    0    0 -0.27597905727E+02  0.43465699225E+02  0.40357765804E+03  0.40684866656E+03  0.00000000000E+00 0.  1.
         11    1    1    2    0    0 -0.17237337399E+01 -0.11549505517E+02 -0.47191151552E+03  0.47205597213E+03  0.00000000000E+00 0.  1.
        -15    1    3    3    0    0  0.45177761141E+02 -0.37381098974E+02  0.80993428712E+02  0.10000734916E+03  0.17770000000E+01 0.  1.
         15    1    3    3    0    0 -0.15856121674E+02  0.54649052662E+01 -0.12659571229E+02  0.21088012159E+02  0.17770000000E+01 0. -1.
</event>
<event>
 7    1  0.3915547E-004  0.5134203E+03  0.7546771E-02  0.9370272E-01
        -11   -1    0    0    0    0  0.00000000000E+00  0.00000000000E+00  0.50000000000E+03  0.50000000000E+03  0.00000000000E+00 0.  1.
         11   -1    0    0    0    0 -0.00000000000E+00 -0.00000000000E+00 -0.50000000000E+03  0.50000000000E+03  0.00000000000E+00 0. -1.
         23    2    1    2    0    0 -0.30638240912E+02 -0.37746583074E+02  0.39427624028E+03  0.40529949752E+03  0.80314523631E+02 0.  0.
        -11    1    1    2    0    0  0.14953939436E+02  0.55235736261E+02  0.91736040116E+02  0.10812080244E+03  0.00000000000E+00 0.  1.
         11    1    1    2    0    0  0.15684301476E+02 -0.17489153187E+02 -0.48601228039E+03  0.48657970003E+03  0.00000000000E+00 0. -1.
        -15    1    3    3    0    0 -0.72975591347E+01  0.24136653935E+02  0.72185982913E+02  0.76484026376E+02  0.17770000000E+01 0. -1.
         15    1    3    3    0    0 -0.23340681777E+02 -0.61883237009E+02  0.32209025736E+03  0.32881547115E+03  0.17770000000E+01 0.  1.
</event>
<event>
 7    1  0.3915547E-004  0.5033545E+03  0.7546771E-02  0.9392335E-01
        -11   -1    0    0    0    0  0.00000000000E+00  0.00000000000E+00  0.50000000000E+03  0.50000000000E+03  0.00000000000E+00 0.  1.
         11   -1    0    0    0    0 -0.00000000000E+00 -0.00000000000E+00 -0.50000000000E+03  0.50000000000E+03  0.00000000000E+00 0. -1.
         23    2    1    2    0    0  0.13192669953E+02  0.17074856744E+02  0.49462796016E+03  0.50335454600E+03  0.90793076454E+02 0.  0.
        -11    1    1    2    0    0 -0.74452848258E+01  0.69694045725E+01 -0.37875641712E+02  0.39224598167E+02  0.00000000000E+00 0.  1.
         11    1    1    2    0    0 -0.57473851269E+01 -0.24044261317E+02 -0.45675231845E+03  0.45742085583E+03  0.00000000000E+00 0. -1.
        -15    1    3    3    0    0 -0.13394297020E+02  0.15900245901E+02  0.45563215238E+03  0.45610968092E+03  0.17770000000E+01 0.  1.
         15    1    3    3    0    0  0.26586966972E+02  0.11746108434E+01  0.38995807781E+02  0.47244865085E+02  0.17770000000E+01 0. -1.
</event>
<event>
 7    1  0.3915547E-004  0.5005332E+03  0.7546771E-02  0.9398617E-01
        -11   -1    0    0    0    0  0.00000000000E+00  0.00000000000E+00  0.50000000000E+03  0.50000000000E+03  0.00000000000E+00 0.  1.
         11   -1    0    0    0    0 -0.00000000000E+00 -0.00000000000E+00 -0.50000000000E+03  0.50000000000E+03  0.00000000000E+00 0. -1.
         23    2    1    2    0    0 -0.91526739207E+01  0.20128289175E+02  0.49159486737E+03  0.50053319237E+03  0.91537115855E+02 0.  0.
        -11    1    1    2    0    0  0.12433443210E+02 -0.38088357822E+02 -0.10413344069E+03  0.11157547661E+03  0.00000000000E+00 0.  1.
         11    1    1    2    0    0 -0.32807692891E+01  0.17960068647E+02 -0.38746142668E+03  0.38789133102E+03  0.00000000000E+00 0. -1.
        -15    1    3    3    0    0  0.10432489326E+02  0.15609651723E+02  0.47209838105E+03  0.47247490640E+03  0.17770000000E+01 0.  1.
         15    1    3    3    0    0 -0.19585163247E+02  0.45186374516E+01  0.19496486316E+02  0.28058285969E+02  0.17770000000E+01 0. -1.
</event>
<event>
 7    1  0.3915547E-004  0.5036459E+03  0.7546771E-02  0.9391688E-01
        -11   -1    0    0    0    0  0.00000000000E+00  0.00000000000E+00  0.50000000000E+03  0.50000000000E+03  0.00000000000E+00 0. -1.
         11   -1    0    0    0    0 -0.00000000000E+00 -0.00000000000E+00 -0.50000000000E+03  0.50000000000E+03  0.00000000000E+00 0.  1.
         23    2    1    2    0    0 -0.21134580039E+02  0.33422394624E+01  0.49086399754E+03  0.50364591831E+03  0.11069736179E+03 0.  0.
        -11    1    1    2    0    0  0.21934199572E+02 -0.94008771722E+01 -0.49543847331E+02  0.54991621278E+02  0.00000000000E+00 0. -1.
         11    1    1    2    0    0 -0.79961953323E+00  0.60586377098E+01 -0.44132015021E+03  0.44136246041E+03  0.00000000000E+00 0.  1.
        -15    1    3    3    0    0 -0.50092195392E+02 -0.80536808989E+01  0.44678274916E+03  0.44965772816E+03  0.17770000000E+01 0. -1.
         15    1    3    3    0    0  0.28957615353E+02  0.11395920361E+02  0.44081248376E+02  0.53988190146E+02  0.17770000000E+01 0.  1.
</event>
<event>
 7    1  0.3915547E-004  0.5283924E+03  0.7546771E-02  0.9338429E-01
        -11   -1    0    0    0    0  0.00000000000E+00  0.00000000000E+00  0.50000000000E+03  0.50000000000E+03  0.00000000000E+00 0. -1.
         11   -1    0    0    0    0 -0.00000000000E+00 -0.00000000000E+00 -0.50000000000E+03  0.50000000000E+03  0.00000000000E+00 0.  1.
         23    2    1    2    0    0 -0.24623959342E+02  0.64045493680E+02  0.78773035750E+02  0.13353012338E+03  0.83168131243E+02 0.  0.
        -11    1    1    2    0    0  0.31725075264E+02 -0.35930477127E+02  0.39194223976E+03  0.39486225306E+03  0.00000000000E+00 0. -1.
         11    1    1    2    0    0 -0.71011159212E+01 -0.28115016553E+02 -0.47071527551E+03  0.47160762356E+03  0.00000000000E+00 0.  1.
        -15    1    3    3    0    0  0.64388571134E+01  0.71194112655E+02  0.70795580872E+02  0.10062421457E+03  0.17770000000E+01 0. -1.
         15    1    3    3    0    0 -0.31062816456E+02 -0.71486189751E+01  0.79774548778E+01  0.32905908812E+02  0.17770000000E+01 0.  1.
</event>
<event>
 6    1  0.3915547E-004  0.4533180E+03  0.7546771E-02  0.9510785E-01
        -11   -1    0    0    0    0  0.00000000000E+00  0.00000000000E+00  0.50000000000E+03  0.50000000000E+03  0.00000000000E+00 0.  1.
         11   -1    0    0    0    0 -0.00000000000E+00 -0.00000000000E+00 -0.50000000000E+03  0.50000000000E+03  0.00000000000E+00 0. -1.
        -11    1    1    2    0    0  0.14533766186E+02 -0.62081315345E+02  0.44077831655E+03  0.44536596683E+03  0.00000000000E+00 0.  1.
         11    1    1    2    0    0 -0.35640041519E+01 -0.16044768676E+02 -0.46472034933E+03  0.46501090289E+03  0.00000000000E+00 0. -1.
        -15    1    1    2    0    0 -0.22297229261E+02  0.43730532666E+02  0.20425428093E+02  0.53196632992E+02  0.17770000000E+01 0.  1.
         15    1    1    2    0    0  0.11327467227E+02  0.34395551355E+02  0.35166046848E+01  0.36426497283E+02  0.17770000000E+01 0. -1.
</event>
<event>
 7    1  0.3915547E-004  0.4859769E+03  0.7546771E-02  0.9431746E-01
        -11   -1    0    0    0    0  0.00000000000E+00  0.00000000000E+00  0.50000000000E+03  0.50000000000E+03  0.00000000000E+00 0. -1.
         11   -1    0    0    0    0 -0.00000000000E+00 -0.00000000000E+00 -0.50000000000E+03  0.50000000000E+03  0.00000000000E+00 0. -1.
         23    2    1    2    0    0  0.27992721346E+02  0.32959474280E+02  0.47072753908E+03  0.48152413477E+03  0.91712359733E+02 0.  0.
        -11    1    1    2    0    0 -0.11494466099E+02 -0.32281969700E+02  0.11363355281E+02  0.36102273639E+02  0.00000000000E+00 0. -1.
         11    1    1    2    0    0 -0.16498255247E+02 -0.67750457992E+00 -0.48209089436E+03  0.48237359159E+03  0.00000000000E+00 0. -1.
        -15    1    3    3    0    0  0.54021759565E+02  0.47114862501E+02  0.33601333539E+03  0.34357863738E+03  0.17770000000E+01 0. -1.
         15    1    3    3    0    0 -0.26029038219E+02 -0.14155388221E+02  0.13471420368E+03  0.13794549739E+03  0.17770000000E+01 0.  1.
</event>
<event>
 7    1  0.3915547E-004  0.5316414E+03  0.7546771E-02  0.9331666E-01
        -11   -1    0    0    0    0  0.00000000000E+00  0.00000000000E+00  0.50000000000E+03  0.50000000000E+03  0.00000000000E+00 0.  1.
         11   -1    0    0    0    0 -0.00000000000E+00 -0.00000000000E+00 -0.50000000000E+03  0.50000000000E+03  0.00000000000E+00 0. -1.
         23    2    1    2    0    0  0.33055386942E+02  0.22271571080E+02  0.48334360331E+02  0.11123705891E+03  0.91917307417E+02 0.  0.
        -11    1    1    2    0    0 -0.18971148971E+02 -0.14065508392E+02  0.41974048686E+03  0.42040435218E+03  0.00000000000E+00 0.  1.
         11    1    1    2    0    0 -0.14084237972E+02 -0.82060626878E+01 -0.46807484720E+03  0.46835858891E+03  0.00000000000E+00 0. -1.
        -15    1    3    3    0    0  0.13810099116E+02  0.42033374348E+02  0.65230971766E+02  0.78840096418E+02  0.17770000000E+01 0. -1.
         15    1    3    3    0    0  0.19245287826E+02 -0.19761803268E+02 -0.16896611436E+02  0.32396962495E+02  0.17770000000E+01 0.  1.
</event>
<event>
 7    1  0.3915547E-004  0.4827972E+03  0.7546771E-02  0.9439147E-01
        -11   -1    0    0    0    0  0.00000000000E+00  0.00000000000E+00  0.50000000000E+03  0.50000000000E+03  0.00000000000E+00 0.  1.
         11   -1    0    0    0    0 -0.00000000000E+00 -0.00000000000E+00 -0.50000000000E+03  0.50000000000E+03  0.00000000000E+00 0. -1.
         23    2    1    2    0    0  0.24287861655E+02  0.53059051978E+01  0.45606189026E+03  0.46519425700E+03  0.88290408043E+02 0.  0.
        -11    1    1    2    0    0 -0.13981205024E+02  0.14074218500E+02  0.36612976109E+02  0.41642138993E+02  0.00000000000E+00 0.  1.
         11    1    1    2    0    0 -0.10306656630E+02 -0.19380123697E+02 -0.49267486637E+03  0.49316360400E+03  0.00000000000E+00 0. -1.
        -15    1    3    3    0    0  0.22490579506E+02 -0.31235499420E+02  0.98609702531E+02  0.10587026850E+03  0.17770000000E+01 0. -1.
         15    1    3    3    0    0  0.17972821483E+01  0.36541404618E+02  0.35745218772E+03  0.35932398850E+03  0.17770000000E+01 0.  1.
</event>
<event>
 7    1  0.3915547E-004  0.5131821E+03  0.7546771E-02  0.9370788E-01
        -11   -1    0    0    0    0  0.00000000000E+00  0.00000000000E+00  0.50000000000E+03  0.50000000000E+03  0.00000000000E+00 0.  1.
         11   -1    0    0    0    0 -0.00000000000E+00 -0.00000000000E+00 -0.50000000000E+03  0.50000000000E+03  0.00000000000E+00 0. -1.
         23    2    1    2    0    0  0.31227905273E+02 -0.38560220925E+02  0.29577131920E+03  0.31381328638E+03  0.92390652880E+02 0.  0.
        -11    1    1    2    0    0 -0.15951041790E+02  0.56702883017E+02  0.19046851060E+03  0.19936876939E+03  0.00000000000E+00 0.  1.
         11    1    1    2    0    0 -0.15276863483E+02 -0.18142662092E+02 -0.48623982980E+03  0.48681794424E+03  0.00000000000E+00 0. -1.
        -15    1    3    3    0    0  0.43268515097E+01 -0.23618819260E+02  0.27631720416E+03  0.27736424663E+03  0.17770000000E+01 0.  1.
         15    1    3    3    0    0  0.26901053763E+02 -0.14941401665E+02  0.19454115044E+02  0.36449039747E+02  0.17770000000E+01 0. -1.
</event>
<event>
 7    1  0.3915547E-004  0.5334903E+03  0.7546771E-02  0.9327841E-01
        -11   -1    0    0    0    0  0.00000000000E+00  0.00000000000E+00  0.50000000000E+03  0.50000000000E+03  0.00000000000E+00 0.  1.
         11   -1    0    0    0    0 -0.00000000000E+00 -0.00000000000E+00 -0.50000000000E+03  0.50000000000E+03  0.00000000000E+00 0. -1.
         23    2    1    2    0    0 -0.18527328904E+02 -0.83346201729E+00  0.30192781786E+02  0.98394742829E+02  0.91793054035E+02 0.  0.
        -11    1    1    2    0    0 -0.23452473736E+02  0.13935489016E+02  0.43423948488E+03  0.43509556032E+03  0.00000000000E+00 0.  1.
         11    1    1    2    0    0  0.41979802640E+02 -0.13102026999E+02 -0.46443226666E+03  0.46650969686E+03  0.00000000000E+00 0. -1.
        -15    1    3    3    0    0 -0.32475474397E+02  0.98621393600E+01  0.56956616618E+02  0.66325953711E+02  0.17770000000E+01 0. -1.
         15    1    3    3    0    0  0.13948145493E+02 -0.10695601377E+02 -0.26763834833E+02  0.32068789117E+02  0.17770000000E+01 0.  1.
</event>
<event>
 7    1  0.3915547E-004  0.5022889E+03  0.7546771E-02  0.9394703E-01
        -11   -1    0    0    0    0  0.00000000000E+00  0.00000000000E+00  0.50000000000E+03  0.50000000000E+03  0.00000000000E+00 0. -1.
         11   -1    0    0    0    0 -0.00000000000E+00 -0.00000000000E+00 -0.50000000000E+03  0.50000000000E+03  0.00000000000E+00 0.  1.
         23    2    1    2    0    0  0.28298092768E+02 -0.13166130157E+02  0.49304832099E+03  0.50228889106E+03  0.90682711723E+02 0.  0.
        -11    1    1    2    0    0  0.11956192964E+02  0.18025976702E+02 -0.87215903708E+02  0.89858223029E+02  0.00000000000E+00 0. -1.
         11    1    1    2    0    0 -0.40254285731E+02 -0.48598465447E+01 -0.40583241729E+03  0.40785288591E+03  0.00000000000E+00 0.  1.
        -15    1    3    3    0    0  0.34823363569E+02  0.87761606178E+00  0.48181432370E+03  0.48307518784E+03  0.17770000000E+01 0. -1.
         15    1    3    3    0    0 -0.65252708016E+01 -0.14043746219E+02  0.11233997296E+02  0.19213703213E+02  0.17770000000E+01 0.  1.
</event>
<event>
 7    1  0.3915547E-004  0.5079653E+03  0.7546771E-02  0.9382161E-01
        -11   -1    0    0    0    0  0.00000000000E+00  0.00000000000E+00  0.50000000000E+03  0.50000000000E+03  0.00000000000E+00 0. -1.
         11   -1    0    0    0    0 -0.00000000000E+00 -0.00000000000E+00 -0.50000000000E+03  0.50000000000E+03  0.00000000000E+00 0.  1.
         23    2    1    2    0    0 -0.29555409338E+02 -0.49870877222E+00 -0.20489071168E+03  0.22255746455E+03  0.81718115263E+02 0.  0.
        -11    1    1    2    0    0  0.53475520507E+02  0.16598369258E+02  0.48883838944E+03  0.49203466153E+03  0.00000000000E+00 0. -1.
         11    1    1    2    0    0 -0.23920111169E+02 -0.16099660485E+02 -0.28394767777E+03  0.28540787392E+03  0.00000000000E+00 0.  1.
        -15    1    3    3    0    0 -0.26740231720E+02 -0.15274522778E+02 -0.19379620828E+02  0.36429088253E+02  0.17770000000E+01 0. -1.
         15    1    3    3    0    0 -0.28151776182E+01  0.14775814005E+02 -0.18551109085E+03  0.18612837629E+03  0.17770000000E+01 0.  1.
</event>
<event>
 7    1  0.3915547E-004  0.5194017E+03  0.7546771E-02  0.9357414E-01
        -11   -1    0    0    0    0  0.00000000000E+00  0.00000000000E+00  0.50000000000E+03  0.50000000000E+03  0.00000000000E+00 0.  1.
         11   -1    0    0    0    0 -0.00000000000E+00 -0.00000000000E+00 -0.50000000000E+03  0.50000000000E+03  0.00000000000E+00 0.  1.
         23    2    1    2    0    0  0.51843496568E+02 -0.67428666147E+00  0.13271460538E+03  0.16817642738E+03  0.89341711681E+02 0.  0.
        -11    1    1    2    0    0 -0.44519016034E+02  0.35991506626E+02  0.34652830364E+03  0.35122527894E+03  0.00000000000E+00 0.  1.
         11    1    1    2    0    0 -0.73244805342E+01 -0.35317219964E+02 -0.47924290902E+03  0.48059829368E+03  0.00000000000E+00 0.  1.
        -15    1    3    3    0    0  0.44737036848E+02 -0.10923369519E+02  0.14404207627E+03  0.15123491638E+03  0.17770000000E+01 0.  1.
         15    1    3    3    0    0  0.71064597202E+01  0.10249082858E+02 -0.11327470889E+02  0.16941510999E+02  0.17770000000E+01 0. -1.
</event>
<event>
 7    1  0.3915547E-004  0.5096544E+03  0.7546771E-02  0.9378463E-01
        -11   -1    0    0    0    0  0.00000000000E+00  0.00000000000E+00  0.50000000000E+03  0.50000000000E+03  0.00000000000E+00 0.  1.
         11   -1    0    0    0    0 -0.00000000000E+00 -0.00000000000E+00 -0.50000000000E+03  0.50000000000E+03  0.00000000000E+00 0. -1.
         23    2    1    2    0    0 -0.52811778547E+02 -0.16149815100E+02 -0.25559355172E+03  0.27844229394E+03  0.95666853673E+02 0.  0.
        -11    1    1    2    0    0  0.56301895466E+02  0.17929948488E+02  0.48677245710E+03  0.49034560412E+03  0.00000000000E+00 0.  1.
         11    1    1    2    0    0 -0.34901169198E+01 -0.17801333877E+01 -0.23117890538E+03  0.23121210194E+03  0.00000000000E+00 0. -1.
        -15    1    3    3    0    0 -0.54031669753E+02 -0.38120619990E+02 -0.24533947120E+03  0.25410080059E+03  0.17770000000E+01 0. -1.
         15    1    3    3    0    0  0.12198912060E+01  0.21970804890E+02 -0.10254080526E+02  0.24341493350E+02  0.17770000000E+01 0.  1.
</event>
<event>
 7    1  0.3915547E-004  0.4491883E+03  0.7546771E-02  0.9521284E-01
        -11   -1    0    0    0    0  0.00000000000E+00  0.00000000000E+00  0.50000000000E+03  0.50000000000E+03  0.00000000000E+00 0.  1.
         11   -1    0    0    0    0 -0.00000000000E+00 -0.00000000000E+00 -0.50000000000E+03  0.50000000000E+03  0.00000000000E+00 0.  1.
         23    2    1    2    0    0  0.46971854409E+02 -0.42296990766E+02  0.44685421835E+03  0.46079944338E+03  0.93070102768E+02 0.  0.
        -11    1    1    2    0    0  0.12290338238E+02  0.10229641694E+03 -0.21094747667E+02  0.10516937630E+03  0.00000000000E+00 0.  1.
         11    1    1    2    0    0 -0.59262192647E+02 -0.59999426170E+02 -0.42575947068E+03  0.43403118032E+03  0.00000000000E+00 0.  1.
        -15    1    3    3    0    0  0.61191670641E+02 -0.20440805590E+02  0.41309294285E+03  0.41810427437E+03  0.17770000000E+01 0.  1.
         15    1    3    3    0    0 -0.14219816232E+02 -0.21856185176E+02  0.33761275500E+02  0.42695169007E+02  0.17770000000E+01 0. -1.
</event>
<event>
 7    1  0.3915547E-004  0.3968918E+03  0.7546771E-02  0.9665629E-01
        -11   -1    0    0    0    0  0.00000000000E+00  0.00000000000E+00  0.50000000000E+03  0.50000000000E+03  0.00000000000E+00 0. -1.
         11   -1    0    0    0    0 -0.00000000000E+00 -0.00000000000E+00 -0.50000000000E+03  0.50000000000E+03  0.00000000000E+00 0.  1.
         23    2    1    2    0    0 -0.12454600052E+03 -0.88955941384E+02 -0.47192048338E+02  0.19021954964E+03  0.10262320344E+03 0.  0.
        -11    1    1    2    0    0  0.89298186901E+02  0.56214936601E+02  0.42042261759E+03  0.43346218136E+03  0.00000000000E+00 0. -1.
         11    1    1    2    0    0  0.35247813623E+02  0.32741004783E+02 -0.37323056926E+03  0.37631826900E+03  0.00000000000E+00 0.  1.
        -15    1    3    3    0    0 -0.98574411299E+02 -0.67187711567E+02  0.14123090228E+02  0.12014042848E+03  0.17770000000E+01 0.  1.
         15    1    3    3    0    0 -0.25971589225E+02 -0.21768229817E+02 -0.61315138567E+02  0.70079121161E+02  0.17770000000E+01 0. -1.
</event>
<event>
 7    1  0.3915547E-004  0.5292857E+03  0.7546771E-02  0.9336564E-01
        -11   -1    0    0    0    0  0.00000000000E+00  0.00000000000E+00  0.50000000000E+03  0.50000000000E+03  0.00000000000E+00 0.  1.
         11   -1    0    0    0    0 -0.00000000000E+00 -0.00000000000E+00 -0.50000000000E+03  0.50000000000E+03  0.00000000000E+00 0.  1.
         23    2    1    2    0    0  0.77909124499E+02 -0.55612384870E+02  0.30312125348E+03  0.33616218689E+03  0.10936156798E+03 0.  0.
        -11    1    1    2    0    0 -0.85837466655E+02  0.43745522030E+02  0.16737665626E+03  0.19312350049E+03  0.00000000000E+00 0.  1.
         11    1    1    2    0    0  0.79283421560E+01  0.11866862840E+02 -0.47049790974E+03  0.47071431263E+03  0.00000000000E+00 0.  1.
        -15    1    3    3    0    0  0.67089119929E+02 -0.52041439866E+02  0.31087472064E+03  0.32226621160E+03  0.17770000000E+01 0.  1.
         15    1    3    3    0    0  0.10820004570E+02 -0.35709450044E+01 -0.77534671627E+01  0.13895975286E+02  0.17770000000E+01 0. -1.
</event>
<event>
 7    1  0.3915547E-004  0.4731121E+03  0.7546771E-02  0.9462069E-01
        -11   -1    0    0    0    0  0.00000000000E+00  0.00000000000E+00  0.50000000000E+03  0.50000000000E+03  0.00000000000E+00 0.  1.
         11   -1    0    0    0    0 -0.00000000000E+00 -0.00000000000E+00 -0.50000000000E+03  0.50000000000E+03  0.00000000000E+00 0. -1.
         23    2    1    2    0    0  0.36661673976E+02  0.12927682633E+01  0.48018757009E+03  0.48957664191E+03  0.88087662302E+02 0.  0.
        -11    1    1    2    0    0 -0.51664316256E+02 -0.59894987529E+01 -0.30162201217E+02  0.60123490016E+02  0.00000000000E+00 0.  1.
         11    1    1    2    0    0  0.15002642280E+02  0.46967304896E+01 -0.45002536887E+03  0.45029986807E+03  0.00000000000E+00 0. -1.
        -15    1    3    3    0    0 -0.18373027148E+02  0.15970583947E+01  0.25247647513E+02  0.31316451843E+02  0.17770000000E+01 0. -1.
         15    1    3    3    0    0  0.55034701123E+02 -0.30429013141E+00  0.45493992258E+03  0.45826019007E+03  0.17770000000E+01 0.  1.
</event>
<event>
 7    1  0.3915547E-004  0.5130459E+03  0.7546771E-02  0.9371083E-01
        -11   -1    0    0    0    0  0.00000000000E+00  0.00000000000E+00  0.50000000000E+03  0.50000000000E+03  0.00000000000E+00 0.  1.
         11   -1    0    0    0    0 -0.00000000000E+00 -0.00000000000E+00 -0.50000000000E+03  0.50000000000E+03  0.00000000000E+00 0. -1.
         23    2    1    2    0    0 -0.58724789807E+02  0.64671406301E+02  0.37631350673E+03  0.39596967093E+03  0.86885748097E+02 0.  0.
        -11    1    1    2    0    0 -0.68506055238E+02  0.53029873068E+02  0.78750231365E+02  0.11707624004E+03  0.00000000000E+00 0.  1.
         11    1    1    2    0    0  0.12723084504E+03 -0.11770127937E+03 -0.45506373809E+03  0.48695408903E+03  0.00000000000E+00 0. -1.
        -15    1    3    3    0    0 -0.10008728399E+02  0.71279717906E+02  0.18739544756E+03  0.20075154874E+03  0.17770000000E+01 0. -1.
         15    1    3    3    0    0 -0.48716061408E+02 -0.66083116046E+01  0.18891805917E+03  0.19521812219E+03  0.17770000000E+01 0.  1.
</event>
<event>
 7    1  0.3915547E-004  0.5243594E+03  0.7546771E-02  0.9346895E-01
        -11   -1    0    0    0    0  0.00000000000E+00  0.00000000000E+00  0.50000000000E+03  0.50000000000E+03  0.00000000000E+00 0.  1.
         11   -1    0    0    0    0 -0.00000000000E+00 -0.00000000000E+00 -0.50000000000E+03  0.50000000000E+03  0.00000000000E+00 0. -1.
         23    2    1    2    0    0 -0.43211550139E+02  0.49821426881E+02 -0.24415707792E+03  0.26848387365E+03  0.90119360128E+02 0.  0.
        -11    1    1    2    0    0  0.16794449855E+02  0.66119312877E+02  0.47072306323E+03  0.47564064096E+03  0.00000000000E+00 0.  1.
         11    1    1    2    0    0  0.26417100283E+02 -0.11594073976E+03 -0.22656598531E+03  0.25587548539E+03  0.00000000000E+00 0. -1.
        -15    1    3    3    0    0 -0.25383259475E+01  0.34262083601E+01 -0.17778843511E+03  0.17784843938E+03  0.17770000000E+01 0.  1.
         15    1    3    3    0    0 -0.40673224191E+02  0.46395218521E+02 -0.66368642811E+02  0.90635434270E+02  0.17770000000E+01 0. -1.
</event>
<event>
 7    1  0.3915547E-004  0.5298284E+03  0.7546771E-02  0.9335434E-01
        -11   -1    0    0    0    0  0.00000000000E+00  0.00000000000E+00  0.50000000000E+03  0.50000000000E+03  0.00000000000E+00 0. -1.
         11   -1    0    0    0    0 -0.00000000000E+00 -0.00000000000E+00 -0.50000000000E+03  0.50000000000E+03  0.00000000000E+00 0. -1.
         23    2    1    2    0    0 -0.92100085230E+02 -0.65345276532E+02  0.27313271160E+03  0.30941080542E+03  0.91548552698E+02 0.  0.
        -11    1    1    2    0    0  0.78163079729E+02  0.61146109744E+02  0.19681356849E+03  0.22041754583E+03  0.00000000000E+00 0. -1.
         11    1    1    2    0    0  0.13937005501E+02  0.41991667879E+01 -0.46994628008E+03  0.47017164875E+03  0.00000000000E+00 0. -1.
        -15    1    3    3    0    0 -0.10974674404E+03 -0.48138832717E+02  0.21311919009E+03  0.24450898134E+03  0.17770000000E+01 0.  1.
         15    1    3    3    0    0  0.17646658810E+02 -0.17206443815E+02  0.60013521510E+02  0.64901824080E+02  0.17770000000E+01 0. -1.
</event>
<event>
 7    1  0.3915547E-004  0.5033243E+03  0.7546771E-02  0.9392402E-01
        -11   -1    0    0    0    0  0.00000000000E+00  0.00000000000E+00  0.50000000000E+03  0.50000000000E+03  0.00000000000E+00 0. -1.
         11   -1    0    0    0    0 -0.00000000000E+00 -0.00000000000E+00 -0.50000000000E+03  0.50000000000E+03  0.00000000000E+00 0.  1.
         23    2    1    2    0    0  0.13058280666E+02  0.57416554648E+01  0.49483931512E+03  0.50332434095E+03  0.90917320140E+02 0.  0.
        -11    1    1    2    0    0  0.12349910550E+01 -0.61029073594E+01 -0.11116289029E+02  0.12741372098E+02  0.00000000000E+00 0. -1.
         11    1    1    2    0    0 -0.14293271721E+02  0.36125189456E+00 -0.48372302609E+03  0.48393428695E+03  0.00000000000E+00 0.  1.
        -15    1    3    3    0    0 -0.31825723504E+02  0.24872879615E+02  0.16446230160E+03  0.16935921349E+03  0.17770000000E+01 0.  1.
         15    1    3    3    0    0  0.44884004170E+02 -0.19131224150E+02  0.33037701352E+03  0.33396512746E+03  0.17770000000E+01 0. -1.
</event>
<event>
 7    1  0.3915547E-004  0.4900514E+03  0.7546771E-02  0.9422350E-01
        -11   -1    0    0    0    0  0.00000000000E+00  0.00000000000E+00  0.50000000000E+03  0.50000000000E+03  0.00000000000E+00 0.  1.
         11   -1    0    0    0    0 -0.00000000000E+00 -0.00000000000E+00 -0.50000000000E+03  0.50000000000E+03  0.00000000000E+00 0. -1.
         23    2    1    2    0    0 -0.28054071357E+01 -0.74860527544E+01  0.46624205495E+03  0.47601942896E+03  0.95650047852E+02 0.  0.
        -11    1    1    2    0    0  0.21653661683E+01  0.79774378715E+00  0.28800310195E+02  0.28892612777E+02  0.00000000000E+00 0.  1.
         11    1    1    2    0    0  0.64004096747E+00  0.66883089673E+01 -0.49504236514E+03  0.49508795826E+03  0.00000000000E+00 0. -1.
        -15    1    3    3    0    0  0.41910697309E+02 -0.19654846699E+02  0.29471161190E+03  0.29833020542E+03  0.17770000000E+01 0.  1.
         15    1    3    3    0    0 -0.44716104444E+02  0.12168793944E+02  0.17153044305E+03  0.17768922354E+03  0.17770000000E+01 0. -1.
</event>
<event>
 7    1  0.3915547E-004  0.3971780E+03  0.7546771E-02  0.9664776E-01
        -11   -1    0    0    0    0  0.00000000000E+00  0.00000000000E+00  0.50000000000E+03  0.50000000000E+03  0.00000000000E+00 0.  1.
         11   -1    0    0    0    0 -0.00000000000E+00 -0.00000000000E+00 -0.50000000000E+03  0.50000000000E+03  0.00000000000E+00 0. -1.
         23    2    1    2    0    0 -0.48168132509E+02  0.12040479923E+03 -0.74940363418E+02  0.19164674545E+03  0.11956141646E+03 0.  0.
        -11    1    1    2    0    0  0.39224435788E+02 -0.10643042027E+03  0.43416921638E+03  0.44874146139E+03  0.00000000000E+00 0.  1.
         11    1    1    2    0    0  0.89436967206E+01 -0.13974378965E+02 -0.35922885296E+03  0.35961179316E+03  0.00000000000E+00 0. -1.
        -15    1    3    3    0    0 -0.43683843765E+02  0.10548027228E+03  0.91616505061E+00  0.11418565205E+03  0.17770000000E+01 0.  1.
         15    1    3    3    0    0 -0.44842887442E+01  0.14924526947E+02 -0.75856528468E+02  0.77461093398E+02  0.17770000000E+01 0.  1.
</event>
<event>
 7    1  0.3915547E-004  0.5239265E+03  0.7546771E-02  0.9347808E-01
        -11   -1    0    0    0    0  0.00000000000E+00  0.00000000000E+00  0.50000000000E+03  0.50000000000E+03  0.00000000000E+00 0.  1.
         11   -1    0    0    0    0 -0.00000000000E+00 -0.00000000000E+00 -0.50000000000E+03  0.50000000000E+03  0.00000000000E+00 0.  1.
         23    2    1    2    0    0  0.35871587806E+02 -0.74033491493E+02  0.25844594435E+03  0.28590976562E+03  0.90456394222E+02 0.  0.
        -11    1    1    2    0    0 -0.30208684932E+02  0.92451454786E+02  0.21723746975E+03  0.23801671034E+03  0.00000000000E+00 0.  1.
         11    1    1    2    0    0 -0.56629028741E+01 -0.18417963293E+02 -0.47568341410E+03  0.47607352404E+03  0.00000000000E+00 0.  1.
        -15    1    3    3    0    0 -0.18351603075E+02  0.10315339015E+02  0.58996501640E+02  0.62665241476E+02  0.17770000000E+01 0. -1.
         15    1    3    3    0    0  0.54223190881E+02 -0.84348830508E+02  0.19944944270E+03  0.22324452415E+03  0.17770000000E+01 0.  1.
</event>
<event>
 7    1  0.3915547E-004  0.5189519E+03  0.7546771E-02  0.9358374E-01
        -11   -1    0    0    0    0  0.00000000000E+00  0.00000000000E+00  0.50000000000E+03  0.50000000000E+03  0.00000000000E+00 0. -1.
         11   -1    0    0    0    0 -0.00000000000E+00 -0.00000000000E+00 -0.50000000000E+03  0.50000000000E+03  0.00000000000E+00 0.  1.
         23    2    1    2    0    0  0.25309729490E+02 -0.67792018998E+02  0.37555915706E+03  0.39300977285E+03  0.90419361082E+02 0.  0.
        -11    1    1    2    0    0 -0.35192757513E+02  0.59428182825E+02  0.10531467632E+03  0.12594213014E+03  0.00000000000E+00 0. -1.
         11    1    1    2    0    0  0.98830280229E+01  0.83638361732E+01 -0.48087383339E+03  0.48104809701E+03  0.00000000000E+00 0.  1.
        -15    1    3    3    0    0 -0.25226275194E+02 -0.59389396128E+02  0.20969398471E+03  0.21940417107E+03  0.17770000000E+01 0.  1.
         15    1    3    3    0    0  0.50536004683E+02 -0.84026228698E+01  0.16586517236E+03  0.17360560178E+03  0.17770000000E+01 0. -1.
</event>
<event>
 7    1  0.3915547E-004  0.5351860E+03  0.7546771E-02  0.9324347E-01
        -11   -1    0    0    0    0  0.00000000000E+00  0.00000000000E+00  0.50000000000E+03  0.50000000000E+03  0.00000000000E+00 0. -1.
         11   -1    0    0    0    0 -0.00000000000E+00 -0.00000000000E+00 -0.50000000000E+03  0.50000000000E+03  0.00000000000E+00 0.  1.
         23    2    1    2    0    0 -0.63708341471E+02  0.49497723476E+02 -0.80296721167E+02  0.15296498964E+03  0.10218584650E+03 0.  0.
        -11    1    1    2    0    0  0.49369016427E+02 -0.25387593440E+02  0.46148695785E+03  0.46481398640E+03  0.00000000000E+00 0. -1.
         11    1    1    2    0    0  0.14339325044E+02 -0.24110130036E+02 -0.38119023668E+03  0.38222102396E+03  0.00000000000E+00 0.  1.
        -15    1    3    3    0    0 -0.34455185093E+02  0.31152732039E+02 -0.10203442079E+03  0.11212418673E+03  0.17770000000E+01 0. -1.
         15    1    3    3    0    0 -0.29253156378E+02  0.18344991437E+02  0.21737699627E+02  0.40840802918E+02  0.17770000000E+01 0.  1.
</event>
<event>
 7    1  0.3915547E-004  0.5324719E+03  0.7546771E-02  0.9329946E-01
        -11   -1    0    0    0    0  0.00000000000E+00  0.00000000000E+00  0.50000000000E+03  0.50000000000E+03  0.00000000000E+00 0.  1.
         11   -1    0    0    0    0 -0.00000000000E+00 -0.00000000000E+00 -0.50000000000E+03  0.50000000000E+03  0.00000000000E+00 0. -1.
         23    2    1    2    0    0  0.29839554781E+02 -0.44863878462E+02  0.62202329092E+02  0.12501229686E+03  0.94105143332E+02 0.  0.
        -11    1    1    2    0    0 -0.15491101374E+02  0.41054027464E+02  0.40509001338E+03  0.40745960086E+03  0.00000000000E+00 0.  1.
         11    1    1    2    0    0 -0.14348453407E+02  0.38098509986E+01 -0.46729234248E+03  0.46752810228E+03  0.00000000000E+00 0. -1.
        -15    1    3    3    0    0  0.27105833001E+02 -0.36605417949E+02  0.87248726931E+02  0.98438716398E+02  0.17770000000E+01 0.  1.
         15    1    3    3    0    0  0.27337217794E+01 -0.82584605133E+01 -0.25046397840E+02  0.26573580462E+02  0.17770000000E+01 0. -1.
</event>
<event>
 7    1  0.3915547E-004  0.4466363E+03  0.7546771E-02  0.9527831E-01
        -11   -1    0    0    0    0  0.00000000000E+00  0.00000000000E+00  0.50000000000E+03  0.50000000000E+03  0.00000000000E+00 0. -1.
         11   -1    0    0    0    0 -0.00000000000E+00 -0.00000000000E+00 -0.50000000000E+03  0.50000000000E+03  0.00000000000E+00 0. -1.
         23    2    1    2    0    0 -0.47467113983E+02 -0.11245524929E+02 -0.59092584810E+01  0.10537685402E+03  0.93218953467E+02 0.  0.
        -11    1    1    2    0    0  0.25278357896E+02  0.15872198597E+02  0.44948185813E+03  0.45047182249E+03  0.00000000000E+00 0. -1.
         11    1    1    2    0    0  0.22188756088E+02 -0.46266736671E+01 -0.44357259965E+03  0.44415132350E+03  0.00000000000E+00 0. -1.
        -15    1    3    3    0    0 -0.31609575387E+02  0.54901457051E+01 -0.47759950919E+02  0.57562814357E+02  0.17770000000E+01 0.  1.
         15    1    3    3    0    0 -0.15857538596E+02 -0.16735670635E+02  0.41850692438E+02  0.47814039658E+02  0.17770000000E+01 0. -1.
</event>
<event>
 7    1  0.3915547E-004  0.5146687E+03  0.7546771E-02  0.9367573E-01
        -11   -1    0    0    0    0  0.00000000000E+00  0.00000000000E+00  0.50000000000E+03  0.50000000000E+03  0.00000000000E+00 0.  1.
         11   -1    0    0    0    0 -0.00000000000E+00 -0.00000000000E+00 -0.50000000000E+03  0.50000000000E+03  0.00000000000E+00 0. -1.
         23    2    1    2    0    0 -0.35525960901E+02  0.19008549329E+02  0.38528150865E+03  0.39819216246E+03  0.92150629359E+02 0.  0.
        -11    1    1    2    0    0 -0.78573617261E+02  0.51691858424E+01  0.85826920035E+02  0.11647658140E+03  0.00000000000E+00 0.  1.
         11    1    1    2    0    0  0.11409957816E+03 -0.24177735171E+02 -0.47110842868E+03  0.48533125614E+03  0.00000000000E+00 0. -1.
        -15    1    3    3    0    0  0.15398642296E+02  0.19389822942E+01  0.27570971247E+03  0.27615191673E+03  0.17770000000E+01 0.  1.
         15    1    3    3    0    0 -0.50924603197E+02  0.17069567035E+02  0.10957179618E+03  0.12204024572E+03  0.17770000000E+01 0. -1.
</event>
<event>
 7    1  0.3915547E-004  0.4635813E+03  0.7546771E-02  0.9485202E-01
        -11   -1    0    0    0    0  0.00000000000E+00  0.00000000000E+00  0.50000000000E+03  0.50000000000E+03  0.00000000000E+00 0. -1.
         11   -1    0    0    0    0 -0.00000000000E+00 -0.00000000000E+00 -0.50000000000E+03  0.50000000000E+03  0.00000000000E+00 0. -1.
         23    2    1    2    0    0  0.45290814140E+02  0.20578654464E+02 -0.41491775484E+03  0.42736977555E+03  0.89517835703E+02 0.  0.
        -11    1    1    2    0    0 -0.70755859482E+02 -0.20087452940E+02  0.48889210094E+03  0.49439395605E+03  0.00000000000E+00 0. -1.
         11    1    1    2    0    0  0.25465045342E+02 -0.49120152309E+00 -0.73974346094E+02  0.78236268401E+02  0.00000000000E+00 0. -1.
        -15    1    3    3    0    0  0.21500594540E+02 -0.26247375948E+02 -0.28806872775E+03  0.29006542357E+03  0.17770000000E+01 0.  1.
         15    1    3    3    0    0  0.23790219600E+02  0.46826030411E+02 -0.12684902709E+03  0.13730435199E+03  0.17770000000E+01 0. -1.
</event>
<event>
 7    1  0.3915547E-004  0.5182098E+03  0.7546771E-02  0.9359961E-01
        -11   -1    0    0    0    0  0.00000000000E+00  0.00000000000E+00  0.50000000000E+03  0.50000000000E+03  0.00000000000E+00 0.  1.
         11   -1    0    0    0    0 -0.00000000000E+00 -0.00000000000E+00 -0.50000000000E+03  0.50000000000E+03  0.00000000000E+00 0.  1.
         23    2    1    2    0    0 -0.46650228573E+02  0.45179186221E+02  0.34863762962E+03  0.37278996984E+03  0.11492067755E+03 0.  0.
        -11    1    1    2    0    0  0.32600020760E+02 -0.49126042152E+02  0.13293151648E+03  0.14541979729E+03  0.00000000000E+00 0.  1.
         11    1    1    2    0    0  0.14050207814E+02  0.39468559308E+01 -0.48156914610E+03  0.48179023287E+03  0.00000000000E+00 0.  1.
        -15    1    3    3    0    0 -0.26062725811E+02  0.26073797160E+01  0.31158200079E+03  0.31268604870E+03  0.17770000000E+01 0.  1.
         15    1    3    3    0    0 -0.20587502763E+02  0.42571806505E+02  0.37055628835E+02  0.60103921140E+02  0.17770000000E+01 0. -1.
</event>
<event>
 7    1  0.3915547E-004  0.4549416E+03  0.7546771E-02  0.9506690E-01
        -11   -1    0    0    0    0  0.00000000000E+00  0.00000000000E+00  0.50000000000E+03  0.50000000000E+03  0.00000000000E+00 0.  1.
         11   -1    0    0    0    0 -0.00000000000E+00 -0.00000000000E+00 -0.50000000000E+03  0.50000000000E+03  0.00000000000E+00 0. -1.
         23    2    1    2    0    0  0.10791555408E+02 -0.59159913867E+02  0.42362048304E+03  0.43799819693E+03  0.93657641373E+02 0.  0.
        -11    1    1    2    0    0 -0.61499547607E+02 -0.68537596921E+02  0.22842280837E+02  0.94875530784E+02  0.00000000000E+00 0.  1.
         11    1    1    2    0    0  0.50707992199E+02  0.12769751079E+03 -0.44646276387E+03  0.46712627229E+03  0.00000000000E+00 0. -1.
        -15    1    3    3    0    0 -0.13871497630E+02 -0.62155706697E+02  0.14640922965E+03  0.15967019314E+03  0.17770000000E+01 0. -1.
         15    1    3    3    0    0  0.24663053038E+02  0.29957928305E+01  0.27721125339E+03  0.27832800379E+03  0.17770000000E+01 0.  1.
</event>
<event>
 7    1  0.3915547E-004  0.4670465E+03  0.7546771E-02  0.9476723E-01
        -11   -1    0    0    0    0  0.00000000000E+00  0.00000000000E+00  0.50000000000E+03  0.50000000000E+03  0.00000000000E+00 0.  1.
         11   -1    0    0    0    0 -0.00000000000E+00 -0.00000000000E+00 -0.50000000000E+03  0.50000000000E+03  0.00000000000E+00 0. -1.
         23    2    1    2    0    0 -0.76865190614E+02 -0.17039595839E+03 -0.38353447651E+03  0.43603285181E+03  0.89905022220E+02 0.  0.
        -11    1    1    2    0    0  0.83623046496E+02  0.16773465870E+03  0.45502257957E+03  0.49211104190E+03  0.00000000000E+00 0.  1.
         11    1    1    2    0    0 -0.67578558819E+01  0.26612996905E+01 -0.71488103058E+02  0.71856106289E+02  0.00000000000E+00 0. -1.
        -15    1    3    3    0    0 -0.80871344021E+02 -0.16693196549E+03 -0.30277716233E+03  0.35508255821E+03  0.17770000000E+01 0.  1.
         15    1    3    3    0    0  0.40061534073E+01 -0.34639929093E+01 -0.80757314180E+02  0.80950293604E+02  0.17770000000E+01 0. -1.
</event>
<event>
 7    1  0.3915547E-004  0.4943499E+03  0.7546771E-02  0.9412542E-01
        -11   -1    0    0    0    0  0.00000000000E+00  0.00000000000E+00  0.50000000000E+03  0.50000000000E+03  0.00000000000E+00 0.  1.
         11   -1    0    0    0    0 -0.00000000000E+00 -0.00000000000E+00 -0.50000000000E+03  0.50000000000E+03  0.00000000000E+00 0.  1.
         23    2    1    2    0    0  0.67827448002E+01 -0.10712772447E+02  0.47869979048E+03  0.48749294864E+03  0.91296858958E+02 0.  0.
        -11    1    1    2    0    0  0.17866408228E+01  0.13489670715E+02  0.14117271330E+02  0.19607668174E+02  0.00000000000E+00 0.  1.
         11    1    1    2    0    0 -0.85693856229E+01 -0.27768982680E+01 -0.49281706181E+03  0.49289938318E+03  0.00000000000E+00 0.  1.
        -15    1    3    3    0    0 -0.17728408918E+02 -0.45347262000E+02  0.21998678038E+03  0.22531758015E+03  0.17770000000E+01 0.  1.
         15    1    3    3    0    0  0.24511153718E+02  0.34634489553E+02  0.25871301010E+03  0.26217536849E+03  0.17770000000E+01 0. -1.
</event>
<event>
 7    1  0.3915547E-004  0.5223774E+03  0.7546771E-02  0.9351085E-01
        -11   -1    0    0    0    0  0.00000000000E+00  0.00000000000E+00  0.50000000000E+03  0.50000000000E+03  0.00000000000E+00 0. -1.
         11   -1    0    0    0    0 -0.00000000000E+00 -0.00000000000E+00 -0.50000000000E+03  0.50000000000E+03  0.00000000000E+00 0. -1.
         23    2    1    2    0    0 -0.12160906993E+03  0.21275642239E+02  0.31045221180E+03  0.35083070814E+03  0.10705228218E+03 0.  0.
        -11    1    1    2    0    0  0.49225832640E+02 -0.29985298078E+02  0.16157339327E+03  0.17154667619E+03  0.00000000000E+00 0. -1.
         11    1    1    2    0    0  0.72383237288E+02  0.87096558397E+01 -0.47202560508E+03  0.47762261566E+03  0.00000000000E+00 0. -1.
        -15    1    3    3    0    0 -0.13589232146E+03 -0.21307770926E+01  0.25695068690E+03  0.29068552849E+03  0.17770000000E+01 0.  1.
         15    1    3    3    0    0  0.14283251530E+02  0.23406419331E+02  0.53501524902E+02  0.60145179657E+02  0.17770000000E+01 0. -1.
</event>
<event>
 7    1  0.3915547E-004  0.4755264E+03  0.7546771E-02  0.9456300E-01
        -11   -1    0    0    0    0  0.00000000000E+00  0.00000000000E+00  0.50000000000E+03  0.50000000000E+03  0.00000000000E+00 0.  1.
         11   -1    0    0    0    0 -0.00000000000E+00 -0.00000000000E+00 -0.50000000000E+03  0.50000000000E+03  0.00000000000E+00 0. -1.
         23    2    1    2    0    0 -0.20463188800E+02 -0.13941467681E+02  0.44961282110E+03  0.45943555948E+03  0.91193408762E+02 0.  0.
        -11    1    1    2    0    0  0.21722287824E+02  0.38803730028E+02  0.34207111280E+02  0.56104489255E+02  0.00000000000E+00 0.  1.
         11    1    1    2    0    0 -0.12590990240E+01 -0.24862262346E+02 -0.48381993238E+03  0.48445995127E+03  0.00000000000E+00 0. -1.
        -15    1    3    3    0    0  0.10476332318E+02 -0.69437122513E+01  0.49269749263E+01  0.13616221561E+02  0.17770000000E+01 0. -1.
         15    1    3    3    0    0 -0.30939521118E+02 -0.69977554299E+01  0.44468584617E+03  0.44581933792E+03  0.17770000000E+01 0.  1.
</event>
<event>
 7    1  0.3915547E-004  0.5037475E+03  0.7546771E-02  0.9391463E-01
        -11   -1    0    0    0    0  0.00000000000E+00  0.00000000000E+00  0.50000000000E+03  0.50000000000E+03  0.00000000000E+00 0.  1.
         11   -1    0    0    0    0 -0.00000000000E+00 -0.00000000000E+00 -0.50000000000E+03  0.50000000000E+03  0.00000000000E+00 0.  1.
         23    2    1    2    0    0 -0.39440872387E+00 -0.91747157001E+01  0.49495832600E+03  0.50374745059E+03  0.93238503533E+02 0.  0.
        -11    1    1    2    0    0 -0.28770997213E+01 -0.30725584974E+00 -0.29158031878E+01  0.41077995562E+01  0.00000000000E+00 0.  1.
         11    1    1    2    0    0  0.32715084452E+01  0.94819715499E+01 -0.49204252281E+03  0.49214474985E+03  0.00000000000E+00 0.  1.
        -15    1    3    3    0    0  0.14334499660E+02 -0.49001024998E+02  0.28196258606E+03  0.28655302476E+03  0.17770000000E+01 0.  1.
         15    1    3    3    0    0 -0.14728908384E+02  0.39826309298E+02  0.21299573993E+03  0.21719442583E+03  0.17770000000E+01 0. -1.
</event>
<event>
 7    1  0.3915547E-004  0.5400004E+03  0.7546771E-02  0.9314501E-01
        -11   -1    0    0    0    0  0.00000000000E+00  0.00000000000E+00  0.50000000000E+03  0.50000000000E+03  0.00000000000E+00 0.  1.
         11   -1    0    0    0    0 -0.00000000000E+00 -0.00000000000E+00 -0.50000000000E+03  0.50000000000E+03  0.00000000000E+00 0. -1.
         23    2    1    2    0    0 -0.24312175599E+03 -0.60587618475E+02 -0.16010848044E+03  0.31099634154E+03  0.91131504928E+02 0.  0.
        -11    1    1    2    0    0  0.24315443185E+03  0.41258481068E+02  0.38829535154E+03  0.45999958697E+03  0.00000000000E+00 0.  1.
         11    1    1    2    0    0 -0.32675861905E-01  0.19329137407E+02 -0.22818687109E+03  0.22900407149E+03  0.00000000000E+00 0. -1.
        -15    1    3    3    0    0 -0.46745424853E+02 -0.14217859849E+01  0.58433227587E+01  0.47164164043E+02  0.17770000000E+01 0.  1.
         15    1    3    3    0    0 -0.19637633114E+03 -0.59165832490E+02 -0.16595180320E+03  0.26383217750E+03  0.17770000000E+01 0. -1.
</event>
<event>
 7    1  0.3915547E-004  0.5074716E+03  0.7546771E-02  0.9383245E-01
        -11   -1    0    0    0    0  0.00000000000E+00  0.00000000000E+00  0.50000000000E+03  0.50000000000E+03  0.00000000000E+00 0.  1.
         11   -1    0    0    0    0 -0.00000000000E+00 -0.00000000000E+00 -0.50000000000E+03  0.50000000000E+03  0.00000000000E+00 0. -1.
         23    2    1    2    0    0  0.11128463717E+02 -0.26153386714E+02  0.38684052859E+03  0.39834044798E+03  0.90673455859E+02 0.  0.
        -11    1    1    2    0    0 -0.16354783766E+02  0.21951481953E+02  0.10564217916E+03  0.10913118954E+03  0.00000000000E+00 0.  1.
         11    1    1    2    0    0  0.52263200494E+01  0.42019047609E+01 -0.49248270775E+03  0.49252836249E+03  0.00000000000E+00 0. -1.
        -15    1    3    3    0    0  0.39878404131E+02 -0.68431806057E+01  0.32438160629E+03  0.32690013837E+03  0.17770000000E+01 0.  1.
         15    1    3    3    0    0 -0.28749940414E+02 -0.19310206108E+02  0.62458922293E+02  0.71440309607E+02  0.17770000000E+01 0. -1.
</event>
<event>
 7    1  0.3915547E-004  0.5289488E+03  0.7546771E-02  0.9337267E-01
        -11   -1    0    0    0    0  0.00000000000E+00  0.00000000000E+00  0.50000000000E+03  0.50000000000E+03  0.00000000000E+00 0. -1.
         11   -1    0    0    0    0 -0.00000000000E+00 -0.00000000000E+00 -0.50000000000E+03  0.50000000000E+03  0.00000000000E+00 0.  1.
         23    2    1    2    0    0 -0.45589068808E+02 -0.88999047481E+02  0.13963235023E+03  0.19834936475E+03  0.99227433796E+02 0.  0.
        -11    1    1    2    0    0 -0.21785806093E+02  0.54708109611E+02  0.32531277607E+03  0.33059945687E+03  0.00000000000E+00 0. -1.
         11    1    1    2    0    0  0.67374874901E+02  0.34290937870E+02 -0.46494512630E+03  0.47105117839E+03  0.00000000000E+00 0.  1.
        -15    1    3    3    0    0  0.58837652897E+01 -0.33820166011E+02 -0.54530672649E+01  0.34803965213E+02  0.17770000000E+01 0. -1.
         15    1    3    3    0    0 -0.51472834098E+02 -0.55178881471E+02  0.14508541749E+03  0.16354539953E+03  0.17770000000E+01 0.  1.
</event>
<event>
 7    1  0.3915547E-004  0.4995141E+03  0.7546771E-02  0.9400898E-01
        -11   -1    0    0    0    0  0.00000000000E+00  0.00000000000E+00  0.50000000000E+03  0.50000000000E+03  0.00000000000E+00 0.  1.
         11   -1    0    0    0    0 -0.00000000000E+00 -0.00000000000E+00 -0.50000000000E+03  0.50000000000E+03  0.00000000000E+00 0. -1.
         23    2    1    2    0    0 -0.30841009195E+01  0.69664404147E+01  0.49002881453E+03  0.49821855167E+03  0.89640633596E+02 0.  0.
        -11    1    1    2    0    0  0.86392655614E+01  0.42515192875E+00  0.26262457396E+01  0.90396255613E+01  0.00000000000E+00 0.  1.
         11    1    1    2    0    0 -0.55551646419E+01 -0.73915923435E+01 -0.49265506027E+03  0.49274182276E+03  0.00000000000E+00 0. -1.
        -15    1    3    3    0    0 -0.26369520883E+02  0.36876227525E+01  0.43264747870E+02  0.50832532205E+02  0.17770000000E+01 0. -1.
         15    1    3    3    0    0  0.23285419963E+02  0.32788176622E+01  0.44676406666E+03  0.44738601947E+03  0.17770000000E+01 0.  1.
</event>
<event>
 7    1  0.3915547E-004  0.5041843E+03  0.7546771E-02  0.9390495E-01
        -11   -1    0    0    0    0  0.00000000000E+00  0.00000000000E+00  0.50000000000E+03  0.50000000000E+03  0.00000000000E+00 0. -1.
         11   -1    0    0    0    0 -0.00000000000E+00 -0.00000000000E+00 -0.50000000000E+03  0.50000000000E+03  0.00000000000E+00 0. -1.
         23    2    1    2    0    0  0.12478365813E+02  0.15843809892E+02  0.49071092853E+03  0.50418430032E+03  0.11400814613E+03 0.  0.
        -11    1    1    2    0    0 -0.10518585486E+02 -0.21834273936E+02 -0.55521527918E+02  0.60580658805E+02  0.00000000000E+00 0. -1.
         11    1    1    2    0    0 -0.19597803271E+01  0.59904640443E+01 -0.43518940061E+03  0.43523504087E+03  0.00000000000E+00 0. -1.
        -15    1    3    3    0    0  0.21240853305E+02  0.42650615382E+02  0.45994611280E+03  0.46241089223E+03  0.17770000000E+01 0. -1.
         15    1    3    3    0    0 -0.87624874918E+01 -0.26806805491E+02  0.30764815727E+02  0.41773408089E+02  0.17770000000E+01 0.  1.
</event>
<event>
 7    1  0.3915547E-004  0.5327326E+03  0.7546771E-02  0.9329407E-01
        -11   -1    0    0    0    0  0.00000000000E+00  0.00000000000E+00  0.50000000000E+03  0.50000000000E+03  0.00000000000E+00 0. -1.
         11   -1    0    0    0    0 -0.00000000000E+00 -0.00000000000E+00 -0.50000000000E+03  0.50000000000E+03  0.00000000000E+00 0. -1.
         23    2    1    2    0    0 -0.21751136552E+02 -0.21862736960E+02  0.42395311841E+02  0.10804262872E+03  0.94470926458E+02 0.  0.
        -11    1    1    2    0    0  0.23266280069E+01  0.15017112886E+02  0.42441799336E+03  0.42468995746E+03  0.00000000000E+00 0. -1.
         11    1    1    2    0    0  0.19424508546E+02  0.68456240740E+01 -0.46681330520E+03  0.46726741382E+03  0.00000000000E+00 0. -1.
        -15    1    3    3    0    0 -0.15627501425E+02 -0.27287738406E+02  0.71301745182E+02  0.77948290957E+02  0.17770000000E+01 0. -1.
         15    1    3    3    0    0 -0.61236351277E+01  0.54250014458E+01 -0.28906433341E+02  0.30094337763E+02  0.17770000000E+01 0.  1.
</event>
<event>
 7    1  0.3915547E-004  0.5014810E+03  0.7546771E-02  0.9396502E-01
        -11   -1    0    0    0    0  0.00000000000E+00  0.00000000000E+00  0.50000000000E+03  0.50000000000E+03  0.00000000000E+00 0. -1.
         11   -1    0    0    0    0 -0.00000000000E+00 -0.00000000000E+00 -0.50000000000E+03  0.50000000000E+03  0.00000000000E+00 0.  1.
         23    2    1    2    0    0  0.39302784183E+00 -0.35478359379E+01  0.49127022227E+03  0.49967950876E+03  0.91216438059E+02 0.  0.
        -11    1    1    2    0    0  0.12516443789E+01 -0.38060094501E+01  0.36039503591E+01  0.53889497842E+01  0.00000000000E+00 0. -1.
         11    1    1    2    0    0 -0.16446722207E+01  0.73538453880E+01 -0.49487417263E+03  0.49493154146E+03  0.00000000000E+00 0.  1.
        -15    1    3    3    0    0 -0.39384919423E+02 -0.24370503461E+02  0.25161555540E+03  0.25584885922E+03  0.17770000000E+01 0. -1.
         15    1    3    3    0    0  0.39777947265E+02  0.20822667523E+02  0.23965466688E+03  0.24383064954E+03  0.17770000000E+01 0.  1.
</event>
<event>
 7    1  0.3915547E-004  0.5224010E+03  0.7546771E-02  0.9351035E-01
        -11   -1    0    0    0    0  0.00000000000E+00  0.00000000000E+00  0.50000000000E+03  0.50000000000E+03  0.00000000000E+00 0. -1.
         11   -1    0    0    0    0 -0.00000000000E+00 -0.00000000000E+00 -0.50000000000E+03  0.50000000000E+03  0.00000000000E+00 0.  1.
         23    2    1    2    0    0  0.71525284284E+02 -0.51506736403E+01  0.39213731320E+03  0.40883646802E+03  0.90736924430E+02 0.  0.
        -11    1    1    2    0    0 -0.60923777847E+02 -0.49213221762E+02  0.82239061690E+02  0.11356456829E+03  0.00000000000E+00 0. -1.
         11    1    1    2    0    0 -0.10601506438E+02  0.54363895402E+02 -0.47437637489E+03  0.47759896368E+03  0.00000000000E+00 0.  1.
        -15    1    3    3    0    0 -0.20082607357E+02  0.89395430373E+01  0.97339122683E+02  0.99806257728E+02  0.17770000000E+01 0.  1.
         15    1    3    3    0    0  0.91607891641E+02 -0.14090216678E+02  0.29479819051E+03  0.30903021030E+03  0.17770000000E+01 0. -1.
</event>
<event>
 7    1  0.3915547E-004  0.5067025E+03  0.7546771E-02  0.9384936E-01
        -11   -1    0    0    0    0  0.00000000000E+00  0.00000000000E+00  0.50000000000E+03  0.50000000000E+03  0.00000000000E+00 0. -1.
         11   -1    0    0    0    0 -0.00000000000E+00 -0.00000000000E+00 -0.50000000000E+03  0.50000000000E+03  0.00000000000E+00 0. -1.
         23    2    1    2    0    0  0.41343456724E+02  0.26103584982E+02 -0.30859584362E+03  0.32552217045E+03  0.91337890237E+02 0.  0.
        -11    1    1    2    0    0 -0.68528216515E+02 -0.27920722657E+02  0.48771587552E+03  0.49329753542E+03  0.00000000000E+00 0. -1.
         11    1    1    2    0    0  0.27184759792E+02  0.18171376754E+01 -0.17912003190E+03  0.18118029413E+03  0.00000000000E+00 0. -1.
        -15    1    3    3    0    0 -0.13910996292E+02  0.40869828578E+02 -0.94471505577E+02  0.10388398241E+03  0.17770000000E+01 0.  1.
         15    1    3    3    0    0  0.55254453016E+02 -0.14766243597E+02 -0.21412433804E+03  0.22163818804E+03  0.17770000000E+01 0. -1.
</event>
<event>
 7    1  0.3915547E-004  0.4481981E+03  0.7546771E-02  0.9523818E-01
        -11   -1    0    0    0    0  0.00000000000E+00  0.00000000000E+00  0.50000000000E+03  0.50000000000E+03  0.00000000000E+00 0. -1.
         11   -1    0    0    0    0 -0.00000000000E+00 -0.00000000000E+00 -0.50000000000E+03  0.50000000000E+03  0.00000000000E+00 0. -1.
         23    2    1    2    0    0 -0.46408748905E+02 -0.11590108874E+01  0.23024464156E+02  0.10210719071E+03  0.87980890897E+02 0.  0.
        -11    1    1    2    0    0  0.38057207118E+02 -0.69478617763E+01  0.43650499779E+03  0.43821597060E+03  0.00000000000E+00 0. -1.
         11    1    1    2    0    0  0.83515417868E+01  0.81068726638E+01 -0.45952946194E+03  0.45967683869E+03  0.00000000000E+00 0. -1.
        -15    1    3    3    0    0 -0.52834808898E+02 -0.42797003293E+01  0.50758602336E+02  0.73412712157E+02  0.17770000000E+01 0. -1.
         15    1    3    3    0    0  0.64260599935E+01  0.31206894419E+01 -0.27734138179E+02  0.28694478549E+02  0.17770000000E+01 0.  1.
</event>
<event>
 7    1  0.3915547E-004  0.4492091E+03  0.7546771E-02  0.9521230E-01
        -11   -1    0    0    0    0  0.00000000000E+00  0.00000000000E+00  0.50000000000E+03  0.50000000000E+03  0.00000000000E+00 0. -1.
         11   -1    0    0    0    0 -0.00000000000E+00 -0.00000000000E+00 -0.50000000000E+03  0.50000000000E+03  0.00000000000E+00 0.  1.
         23    2    1    2    0    0  0.31020422978E+02 -0.53427396442E+02  0.46662010163E+03  0.47914502990E+03  0.89604057365E+02 0.  0.
        -11    1    1    2    0    0  0.64343206921E+02  0.54930837300E+02 -0.61328030741E+02  0.10449197346E+03  0.00000000000E+00 0. -1.
         11    1    1    2    0    0 -0.95363629899E+02 -0.15034408576E+01 -0.40529207089E+03  0.41636299664E+03  0.00000000000E+00 0.  1.
        -15    1    3    3    0    0  0.34624889360E+01 -0.53653772639E+02  0.12095104146E+03  0.13237457576E+03  0.17770000000E+01 0.  1.
         15    1    3    3    0    0  0.27557934042E+02  0.22637619650E+00  0.34566906017E+03  0.34677045414E+03  0.17770000000E+01 0. -1.
</event>
<event>
 6    1  0.3915547E-004  0.3707574E+03  0.7546771E-02  0.9746982E-01
        -11   -1    0    0    0    0  0.00000000000E+00  0.00000000000E+00  0.50000000000E+03  0.50000000000E+03  0.00000000000E+00 0.  1.
         11   -1    0    0    0    0 -0.00000000000E+00 -0.00000000000E+00 -0.50000000000E+03  0.50000000000E+03  0.00000000000E+00 0. -1.
        -11    1    1    2    0    0 -0.21953843161E+03 -0.67271208492E+02  0.35435321583E+03  0.42224251327E+03  0.00000000000E+00 0.  1.
         11    1    1    2    0    0 -0.35629715823E+01  0.31472194303E+01 -0.26318878135E+03  0.26323171235E+03  0.00000000000E+00 0. -1.
        -15    1    1    2    0    0  0.18602219410E+03 -0.10042200771E+02  0.64775170921E+01  0.18641410475E+03  0.17770000000E+01 0.  1.
         15    1    1    2    0    0  0.37079209097E+02  0.74166189832E+02 -0.97641951567E+02  0.12811166963E+03  0.17770000000E+01 0. -1.
</event>
<event>
 7    1  0.3915547E-004  0.5181617E+03  0.7546771E-02  0.9360064E-01
        -11   -1    0    0    0    0  0.00000000000E+00  0.00000000000E+00  0.50000000000E+03  0.50000000000E+03  0.00000000000E+00 0. -1.
         11   -1    0    0    0    0 -0.00000000000E+00 -0.00000000000E+00 -0.50000000000E+03  0.50000000000E+03  0.00000000000E+00 0.  1.
         23    2    1    2    0    0 -0.93847817587E+01 -0.91765749305E+01  0.24234437145E+03  0.25945358633E+03  0.91722873008E+02 0.  0.
        -11    1    1    2    0    0 -0.11106625037E+03  0.83441305960E+02  0.21824698933E+03  0.25870815964E+03  0.00000000000E+00 0. -1.
         11    1    1    2    0    0  0.12045103212E+03 -0.74264731030E+02 -0.46059136078E+03  0.48183825403E+03  0.00000000000E+00 0.  1.
        -15    1    3    3    0    0 -0.39490065489E+02 -0.33511190417E+02  0.11080346296E+03  0.12232346581E+03  0.17770000000E+01 0. -1.
         15    1    3    3    0    0  0.30105283730E+02  0.24334615486E+02  0.13154090849E+03  0.13713012052E+03  0.17770000000E+01 0.  1.
</event>
<event>
 7    1  0.3915547E-004  0.4889746E+03  0.7546771E-02  0.9424824E-01
        -11   -1    0    0    0    0  0.00000000000E+00  0.00000000000E+00  0.50000000000E+03  0.50000000000E+03  0.00000000000E+00 0.  1.
         11   -1    0    0    0    0 -0.00000000000E+00 -0.00000000000E+00 -0.50000000000E+03  0.50000000000E+03  0.00000000000E+00 0. -1.
         23    2    1    2    0    0 -0.14627330916E+02  0.20031313913E+02  0.46740065145E+03  0.47625592535E+03  0.87983663896E+02 0.  0.
        -11    1    1    2    0    0 -0.14522925101E+02 -0.29121087928E+01  0.25605089630E+02  0.29580675213E+02  0.00000000000E+00 0.  1.
         11    1    1    2    0    0  0.29150256017E+02 -0.17119205120E+02 -0.49300574108E+03  0.49416339944E+03  0.00000000000E+00 0. -1.
        -15    1    3    3    0    0 -0.47881924864E+02  0.15001045651E+02  0.36553010161E+03  0.36896222436E+03  0.17770000000E+01 0.  1.
         15    1    3    3    0    0  0.33254593949E+02  0.50302682618E+01  0.10187054984E+03  0.10729370099E+03  0.17770000000E+01 0. -1.
</event>
<event>
 7    1  0.3915547E-004  0.4846244E+03  0.7546771E-02  0.9434887E-01
        -11   -1    0    0    0    0  0.00000000000E+00  0.00000000000E+00  0.50000000000E+03  0.50000000000E+03  0.00000000000E+00 0.  1.
         11   -1    0    0    0    0 -0.00000000000E+00 -0.00000000000E+00 -0.50000000000E+03  0.50000000000E+03  0.00000000000E+00 0.  1.
         23    2    1    2    0    0  0.26849598234E+02 -0.12574685334E+02  0.45671623962E+03  0.46677566399E+03  0.91710268385E+02 0.  0.
        -11    1    1    2    0    0  0.88791281275E+01  0.95027976738E+01  0.36478522372E+02  0.38727569952E+02  0.00000000000E+00 0.  1.
         11    1    1    2    0    0 -0.35728726362E+02  0.30718876600E+01 -0.49319476199E+03  0.49449676605E+03  0.00000000000E+00 0.  1.
        -15    1    3    3    0    0 -0.32221563378E+02  0.89478303446E+01  0.15943448817E+03  0.16291349411E+03  0.17770000000E+01 0.  1.
         15    1    3    3    0    0  0.59071161612E+02 -0.21522515678E+02  0.29728175145E+03  0.30386216989E+03  0.17770000000E+01 0. -1.
</event>
<event>
 7    1  0.3915547E-004  0.5152638E+03  0.7546771E-02  0.9366289E-01
        -11   -1    0    0    0    0  0.00000000000E+00  0.00000000000E+00  0.50000000000E+03  0.50000000000E+03  0.00000000000E+00 0. -1.
         11   -1    0    0    0    0 -0.00000000000E+00 -0.00000000000E+00 -0.50000000000E+03  0.50000000000E+03  0.00000000000E+00 0.  1.
         23    2    1    2    0    0 -0.27715954041E+02  0.42909345382E+02  0.19053840661E+03  0.21763124713E+03  0.91918927901E+02 0.  0.
        -11    1    1    2    0    0  0.42549175948E+02 -0.23955319762E+02  0.29359985604E+03  0.29763260101E+03  0.00000000000E+00 0. -1.
         11    1    1    2    0    0 -0.14833221907E+02 -0.18954025620E+02 -0.48413826265E+03  0.48473615186E+03  0.00000000000E+00 0.  1.
        -15    1    3    3    0    0 -0.56902712377E+02  0.28141444287E+02  0.78883652900E+02  0.10127017323E+03  0.17770000000E+01 0.  1.
         15    1    3    3    0    0  0.29186758336E+02  0.14767901096E+02  0.11165475371E+03  0.11636107390E+03  0.17770000000E+01 0. -1.
</event>
<event>
 7    1  0.3915547E-004  0.5233760E+03  0.7546771E-02  0.9348971E-01
        -11   -1    0    0    0    0  0.00000000000E+00  0.00000000000E+00  0.50000000000E+03  0.50000000000E+03  0.00000000000E+00 0. -1.
         11   -1    0    0    0    0 -0.00000000000E+00 -0.00000000000E+00 -0.50000000000E+03  0.50000000000E+03  0.00000000000E+00 0. -1.
         23    2    1    2    0    0  0.38421870121E+02  0.64758905186E+01 -0.80582575648E+02  0.12850914626E+03  0.92211018396E+02 0.  0.
        -11    1    1    2    0    0 -0.32518941665E+02 -0.11576271631E+02  0.47537239413E+03  0.47662396575E+03  0.00000000000E+00 0. -1.
         11    1    1    2    0    0 -0.59029284561E+01  0.51003811127E+01 -0.39478981848E+03  0.39486688798E+03  0.00000000000E+00 0. -1.
        -15    1    3    3    0    0  0.26976807629E+02 -0.59054331107E+01  0.14971189288E+02  0.31462938956E+02  0.17770000000E+01 0.  1.
         15    1    3    3    0    0  0.11445062492E+02  0.12381323629E+02 -0.95553764935E+02  0.97046207306E+02  0.17770000000E+01 0. -1.
</event>
<event>
 7    1  0.3915547E-004  0.4158705E+03  0.7546771E-02  0.9610637E-01
        -11   -1    0    0    0    0  0.00000000000E+00  0.00000000000E+00  0.50000000000E+03  0.50000000000E+03  0.00000000000E+00 0.  1.
         11   -1    0    0    0    0 -0.00000000000E+00 -0.00000000000E+00 -0.50000000000E+03  0.50000000000E+03  0.00000000000E+00 0.  1.
         23    2    1    2    0    0 -0.84789818162E+02  0.80944096011E+02  0.54638215208E+01  0.16002127077E+03  0.10879197493E+03 0.  0.
        -11    1    1    2    0    0  0.89879457913E+02 -0.10031274540E+03  0.40613849546E+03  0.42788952001E+03  0.00000000000E+00 0.  1.
         11    1    1    2    0    0 -0.50896397510E+01  0.19368649386E+02 -0.41160231698E+03  0.41208920922E+03  0.00000000000E+00 0.  1.
        -15    1    3    3    0    0 -0.71851327487E+02  0.10129778410E+03 -0.18967043645E+02  0.12564537715E+03  0.17770000000E+01 0. -1.
         15    1    3    3    0    0 -0.12938490675E+02 -0.20353688093E+02  0.24430865166E+02  0.34375893613E+02  0.17770000000E+01 0.  1.
</event>
<event>
 7    1  0.3915547E-004  0.4695407E+03  0.7546771E-02  0.9470669E-01
        -11   -1    0    0    0    0  0.00000000000E+00  0.00000000000E+00  0.50000000000E+03  0.50000000000E+03  0.00000000000E+00 0. -1.
         11   -1    0    0    0    0 -0.00000000000E+00 -0.00000000000E+00 -0.50000000000E+03  0.50000000000E+03  0.00000000000E+00 0. -1.
         23    2    1    2    0    0 -0.18356892455E+02  0.53591274687E+01  0.47970441042E+03  0.48845464039E+03  0.90032875074E+02 0.  0.
        -11    1    1    2    0    0  0.19353320594E+02 -0.52069035434E+02 -0.37829074626E+02  0.67206951695E+02  0.00000000000E+00 0. -1.
         11    1    1    2    0    0 -0.99642813901E+00  0.46709907966E+02 -0.44187533579E+03  0.44433840792E+03  0.00000000000E+00 0. -1.
        -15    1    3    3    0    0 -0.18246812407E+02  0.27438264127E+02  0.45095884795E+03  0.45216462132E+03  0.17770000000E+01 0. -1.
         15    1    3    3    0    0 -0.11008004768E+00 -0.22079136658E+02  0.28745562465E+02  0.36290019064E+02  0.17770000000E+01 0.  1.
</event>
<event>
 7    1  0.3915547E-004  0.4921722E+03  0.7546771E-02  0.9417497E-01
        -11   -1    0    0    0    0  0.00000000000E+00  0.00000000000E+00  0.50000000000E+03  0.50000000000E+03  0.00000000000E+00 0.  1.
         11   -1    0    0    0    0 -0.00000000000E+00 -0.00000000000E+00 -0.50000000000E+03  0.50000000000E+03  0.00000000000E+00 0. -1.
         23    2    1    2    0    0  0.13934506753E-01 -0.26934132896E+02  0.47774436670E+03  0.48716924179E+03  0.91480831466E+02 0.  0.
        -11    1    1    2    0    0  0.10653647046E+02  0.18425424893E+02  0.10957286180E+02  0.23938642366E+02  0.00000000000E+00 0.  1.
         11    1    1    2    0    0 -0.10667581553E+02  0.85087080029E+01 -0.48870165288E+03  0.48889211584E+03  0.00000000000E+00 0. -1.
        -15    1    3    3    0    0 -0.31423359284E+02  0.95494132371E+01  0.33283887116E+03  0.33445999863E+03  0.17770000000E+01 0.  1.
         15    1    3    3    0    0  0.31437293791E+02 -0.36483546134E+02  0.14490549554E+03  0.15270924316E+03  0.17770000000E+01 0. -1.
</event>
<event>
 7    1  0.3915547E-004  0.5285966E+03  0.7546771E-02  0.9338002E-01
        -11   -1    0    0    0    0  0.00000000000E+00  0.00000000000E+00  0.50000000000E+03  0.50000000000E+03  0.00000000000E+00 0.  1.
         11   -1    0    0    0    0 -0.00000000000E+00 -0.00000000000E+00 -0.50000000000E+03  0.50000000000E+03  0.00000000000E+00 0. -1.
         23    2    1    2    0    0 -0.49233481480E+02  0.36332227849E+02  0.29201192557E+03  0.31191571941E+03  0.90975188172E+02 0.  0.
        -11    1    1    2    0    0  0.25587199953E+02 -0.13363683892E+03  0.16863305846E+03  0.21668091269E+03  0.00000000000E+00 0.  1.
         11    1    1    2    0    0  0.23646281527E+02  0.97304611067E+02 -0.46064498403E+03  0.47140336791E+03  0.00000000000E+00 0. -1.
        -15    1    3    3    0    0  0.53227800298E+01  0.40688076783E+02  0.54906068677E+02  0.68568839031E+02  0.17770000000E+01 0. -1.
         15    1    3    3    0    0 -0.54556261509E+02 -0.43558489338E+01  0.23710585689E+03  0.24334688038E+03  0.17770000000E+01 0.  1.
</event>
<event>
 7    1  0.3915547E-004  0.4865143E+03  0.7546771E-02  0.9430501E-01
        -11   -1    0    0    0    0  0.00000000000E+00  0.00000000000E+00  0.50000000000E+03  0.50000000000E+03  0.00000000000E+00 0. -1.
         11   -1    0    0    0    0 -0.00000000000E+00 -0.00000000000E+00 -0.50000000000E+03  0.50000000000E+03  0.00000000000E+00 0. -1.
         23    2    1    2    0    0  0.12076230544E+02  0.23655540213E+02  0.47941568366E+03  0.48828174260E+03  0.88736928546E+02 0.  0.
        -11    1    1    2    0    0 -0.69306726108E+01 -0.33730634030E+02 -0.23467134245E+01  0.34515169981E+02  0.00000000000E+00 0. -1.
         11    1    1    2    0    0 -0.51455579335E+01  0.10075093817E+02 -0.47706897024E+03  0.47720308742E+03  0.00000000000E+00 0. -1.
        -15    1    3    3    0    0 -0.31605414996E+02  0.31399973867E+02  0.17240087158E+03  0.17807324018E+03  0.17770000000E+01 0. -1.
         15    1    3    3    0    0  0.43681645540E+02 -0.77444336537E+01  0.30701481208E+03  0.31020850242E+03  0.17770000000E+01 0.  1.
</event>
<event>
 7    1  0.3915547E-004  0.4302552E+03  0.7546771E-02  0.9571002E-01
        -11   -1    0    0    0    0  0.00000000000E+00  0.00000000000E+00  0.50000000000E+03  0.50000000000E+03  0.00000000000E+00 0.  1.
         11   -1    0    0    0    0 -0.00000000000E+00 -0.00000000000E+00 -0.50000000000E+03  0.50000000000E+03  0.00000000000E+00 0. -1.
         23    2    1    2    0    0  0.11993147254E+02 -0.91903072504E+02  0.33711469152E+02  0.13385637020E+03  0.90504443946E+02 0.  0.
        -11    1    1    2    0    0 -0.96900227521E+01  0.10412230237E+03  0.40955920744E+03  0.42269858621E+03  0.00000000000E+00 0.  1.
         11    1    1    2    0    0 -0.23031245016E+01 -0.12219229861E+02 -0.44327067659E+03  0.44344504359E+03  0.00000000000E+00 0. -1.
        -15    1    3    3    0    0  0.75838132203E+01 -0.30273716689E+02  0.59238457800E+02  0.66980331118E+02  0.17770000000E+01 0. -1.
         15    1    3    3    0    0  0.44093340334E+01 -0.61629355815E+02 -0.25526988648E+02  0.66876039082E+02  0.17770000000E+01 0.  1.
</event>
<event>
 7    1  0.3915547E-004  0.5260538E+03  0.7546771E-02  0.9343328E-01
        -11   -1    0    0    0    0  0.00000000000E+00  0.00000000000E+00  0.50000000000E+03  0.50000000000E+03  0.00000000000E+00 0.  1.
         11   -1    0    0    0    0 -0.00000000000E+00 -0.00000000000E+00 -0.50000000000E+03  0.50000000000E+03  0.00000000000E+00 0.  1.
         23    2    1    2    0    0  0.22356289697E+02  0.43101548283E+02  0.86376815450E+02  0.13690341898E+03  0.94467162173E+02 0.  0.
        -11    1    1    2    0    0 -0.96551755465E+01 -0.36142548771E+02  0.38734805399E+03  0.38915038375E+03  0.00000000000E+00 0.  1.
         11    1    1    2    0    0 -0.12701114150E+02 -0.69589995117E+01 -0.47372486944E+03  0.47394619726E+03  0.00000000000E+00 0.  1.
        -15    1    3    3    0    0  0.81139300645E+01  0.36537076632E+02 -0.10369869512E+02  0.38877831120E+02  0.17770000000E+01 0.  1.
         15    1    3    3    0    0  0.14242359632E+02  0.65644716506E+01  0.96746684963E+02  0.98025587865E+02  0.17770000000E+01 0. -1.
</event>
<event>
 7    1  0.3915547E-004  0.5120322E+03  0.7546771E-02  0.9373282E-01
        -11   -1    0    0    0    0  0.00000000000E+00  0.00000000000E+00  0.50000000000E+03  0.50000000000E+03  0.00000000000E+00 0.  1.
         11   -1    0    0    0    0 -0.00000000000E+00 -0.00000000000E+00 -0.50000000000E+03  0.50000000000E+03  0.00000000000E+00 0.  1.
         23    2    1    2    0    0 -0.46438070018E-01  0.45763760824E+02 -0.26615416560E+03  0.29138414130E+03  0.10941825247E+03 0.  0.
        -11    1    1    2    0    0 -0.70273276299E+01 -0.36979218206E+02  0.48651381561E+03  0.48796776398E+03  0.00000000000E+00 0.  1.
         11    1    1    2    0    0  0.70737656999E+01 -0.87845426176E+01 -0.22035965001E+03  0.22064809472E+03  0.00000000000E+00 0.  1.
        -15    1    3    3    0    0 -0.23891049957E+02  0.54492099989E+02 -0.25781693179E+03  0.26459950732E+03  0.17770000000E+01 0. -1.
         15    1    3    3    0    0  0.23844611887E+02 -0.87283391654E+01 -0.83372338077E+01  0.26784633975E+02  0.17770000000E+01 0.  1.
</event>
<event>
 7    1  0.3915547E-004  0.4990967E+03  0.7546771E-02  0.9401833E-01
        -11   -1    0    0    0    0  0.00000000000E+00  0.00000000000E+00  0.50000000000E+03  0.50000000000E+03  0.00000000000E+00 0.  1.
         11   -1    0    0    0    0 -0.00000000000E+00 -0.00000000000E+00 -0.50000000000E+03  0.50000000000E+03  0.00000000000E+00 0. -1.
         23    2    1    2    0    0 -0.15290607091E+02  0.28074404937E+01  0.49214824540E+03  0.50054367585E+03  0.89957721146E+02 0.  0.
        -11    1    1    2    0    0  0.23586454753E+01 -0.92204465994E+01 -0.28355610767E+01  0.99307729100E+01  0.00000000000E+00 0.  1.
         11    1    1    2    0    0  0.12931961616E+02  0.64130061056E+01 -0.48931268432E+03  0.48952555124E+03  0.00000000000E+00 0. -1.
        -15    1    3    3    0    0 -0.41809680359E+02 -0.87468429104E+01  0.42826904986E+03  0.43039759924E+03  0.17770000000E+01 0.  1.
         15    1    3    3    0    0  0.26519073267E+02  0.11554283404E+02  0.63879195537E+02  0.70146076607E+02  0.17770000000E+01 0. -1.
</event>
<event>
 7    1  0.3915547E-004  0.5149270E+03  0.7546771E-02  0.9367015E-01
        -11   -1    0    0    0    0  0.00000000000E+00  0.00000000000E+00  0.50000000000E+03  0.50000000000E+03  0.00000000000E+00 0. -1.
         11   -1    0    0    0    0 -0.00000000000E+00 -0.00000000000E+00 -0.50000000000E+03  0.50000000000E+03  0.00000000000E+00 0.  1.
         23    2    1    2    0    0  0.36630807513E+02  0.27058900126E+02  0.18590469874E+03  0.21376022313E+03  0.95178126928E+02 0.  0.
        -11    1    1    2    0    0 -0.24294299771E+02 -0.26524525343E+02  0.29901112615E+03  0.30116675947E+03  0.00000000000E+00 0. -1.
         11    1    1    2    0    0 -0.12336507742E+02 -0.53437478226E+00 -0.48491582489E+03  0.48507301740E+03  0.00000000000E+00 0.  1.
        -15    1    3    3    0    0  0.31441367948E+02  0.25245781438E+02  0.19708503868E+03  0.20117549379E+03  0.17770000000E+01 0. -1.
         15    1    3    3    0    0  0.51894395655E+01  0.18131186875E+01 -0.11180339945E+02  0.12584729345E+02  0.17770000000E+01 0.  1.
</event>
