<event>
 7    1  0.1144116E-003  0.1855880E+03  0.7546771E-02  0.1066023E+00
        -11   -1    0    0    0    0  0.00000000000E+00  0.00000000000E+00  0.18250000000E+03  0.18250000000E+03  0.00000000000E+00 0. -1.
         11   -1    0    0    0    0 -0.00000000000E+00 -0.00000000000E+00 -0.18250000000E+03  0.18250000000E+03  0.00000000000E+00 0. -1.
         23    2    1    2    0    0  0.19484198378E+02 -0.93438206389E+01  0.16095388912E+03  0.18558802059E+03  0.89832165701E+02 0.  0.
        -11    1    1    2    0    0 -0.37913466551E+02  0.32158665945E+02 -0.94686153078E+02  0.10694427673E+03  0.00000000000E+00 0. -1.
         11    1    1    2    0    0  0.18429268173E+02 -0.22814845306E+02 -0.66267736037E+02  0.72467702677E+02  0.00000000000E+00 0. -1.
        -15    1    3    3    0    0 -0.13534708679E+02  0.19857391409E+02  0.65008140858E+01  0.24958418326E+02  0.17770000000E+01 0.  1.
         15    1    3    3    0    0  0.33018907057E+02 -0.29201212048E+02  0.15445307503E+03  0.16062960226E+03  0.17770000000E+01 0. -1.
</event>
<event>
 7    1  0.1144116E-003  0.1640974E+03  0.7546771E-02  0.1084127E+00
        -11   -1    0    0    0    0  0.00000000000E+00  0.00000000000E+00  0.18250000000E+03  0.18250000000E+03  0.00000000000E+00 0.  1.
         11   -1    0    0    0    0 -0.00000000000E+00 -0.00000000000E+00 -0.18250000000E+03  0.18250000000E+03  0.00000000000E+00 0. -1.
         23    2    1    2    0    0  0.45120541105E+02 -0.50004158340E+02 -0.58085113625E+02  0.14386656996E+03  0.11308152124E+03 0.  0.
        -11    1    1    2    0    0 -0.48457446334E+02  0.50550578931E+02  0.13078677462E+03  0.14835317843E+03  0.00000000000E+00 0.  1.
         11    1    1    2    0    0  0.33369052287E+01 -0.54642059139E+00 -0.72701660997E+02  0.72780251605E+02  0.00000000000E+00 0. -1.
        -15    1    3    3    0    0  0.70806881028E+02  0.25747011638E+01 -0.18681830276E+02  0.73296739344E+02  0.17770000000E+01 0.  1.
         15    1    3    3    0    0 -0.25686339923E+02 -0.52578859504E+02 -0.39403283350E+02  0.70569830616E+02  0.17770000000E+01 0. -1.
</event>
<event>
 7    1  0.1144116E-003  0.1406047E+03  0.7546771E-02  0.1107764E+00
        -11   -1    0    0    0    0  0.00000000000E+00  0.00000000000E+00  0.18250000000E+03  0.18250000000E+03  0.00000000000E+00 0.  1.
         11   -1    0    0    0    0 -0.00000000000E+00 -0.00000000000E+00 -0.18250000000E+03  0.18250000000E+03  0.00000000000E+00 0. -1.
         23    2    1    2    0    0  0.18154788663E+02  0.10305365961E+03  0.64855242650E+02  0.15059321069E+03  0.86732113406E+02 0.  0.
        -11    1    1    2    0    0 -0.77051764780E+02 -0.89365992254E+02  0.97218251981E+01  0.11839665921E+03  0.00000000000E+00 0.  1.
         11    1    1    2    0    0  0.58896976116E+02 -0.13687667354E+02 -0.74577067848E+02  0.96010130101E+02  0.00000000000E+00 0. -1.
        -15    1    3    3    0    0  0.30495586400E+02  0.91841866288E+02  0.81821540416E+02  0.12673922597E+03  0.17770000000E+01 0. -1.
         15    1    3    3    0    0 -0.12340797736E+02  0.11211793320E+02 -0.16966297767E+02  0.23853984722E+02  0.17770000000E+01 0.  1.
</event>
<event>
 7    1  0.1144116E-003  0.1771753E+03  0.7546771E-02  0.1072774E+00
        -11   -1    0    0    0    0  0.00000000000E+00  0.00000000000E+00  0.18250000000E+03  0.18250000000E+03  0.00000000000E+00 0.  1.
         11   -1    0    0    0    0 -0.00000000000E+00 -0.00000000000E+00 -0.18250000000E+03  0.18250000000E+03  0.00000000000E+00 0.  1.
         23    2    1    2    0    0  0.28671345142E+02 -0.31212579183E+02  0.14924233770E+03  0.18084546356E+03  0.92927580391E+02 0.  0.
        -11    1    1    2    0    0 -0.27533415233E+02  0.21768046701E+02 -0.49411149158E+00  0.35102435211E+02  0.00000000000E+00 0.  1.
         11    1    1    2    0    0 -0.11379299092E+01  0.94445324824E+01 -0.14874822621E+03  0.14905210122E+03  0.00000000000E+00 0.  1.
        -15    1    3    3    0    0 -0.85385292260E+01 -0.13938929610E+02 -0.80317108801E+01  0.18299353778E+02  0.17770000000E+01 0.  1.
         15    1    3    3    0    0  0.37209874368E+02 -0.17273649573E+02  0.15727404858E+03  0.16254610979E+03  0.17770000000E+01 0. -1.
</event>
<event>
 7    1  0.1144116E-003  0.1950359E+03  0.7546771E-02  0.1058892E+00
        -11   -1    0    0    0    0  0.00000000000E+00  0.00000000000E+00  0.18250000000E+03  0.18250000000E+03  0.00000000000E+00 0.  1.
         11   -1    0    0    0    0 -0.00000000000E+00 -0.00000000000E+00 -0.18250000000E+03  0.18250000000E+03  0.00000000000E+00 0. -1.
         23    2    1    2    0    0  0.49272578930E+01 -0.10106986672E+02  0.16919990807E+03  0.19503587594E+03  0.96353282061E+02 0.  0.
        -11    1    1    2    0    0 -0.16319108685E+01  0.80100973634E+01 -0.47267435666E+02  0.47969107426E+02  0.00000000000E+00 0.  1.
         11    1    1    2    0    0 -0.32953470245E+01  0.20968893091E+01 -0.12193247240E+03  0.12199501663E+03  0.00000000000E+00 0. -1.
        -15    1    3    3    0    0  0.96823284694E+01  0.88440979305E+01  0.17427035431E+03  0.17477207921E+03  0.17770000000E+01 0.  1.
         15    1    3    3    0    0 -0.47550705764E+01 -0.18951084603E+02 -0.50704462388E+01  0.20263796729E+02  0.17770000000E+01 0. -1.
</event>
<event>
 7    1  0.1144116E-003  0.1908122E+03  0.7546771E-02  0.1062024E+00
        -11   -1    0    0    0    0  0.00000000000E+00  0.00000000000E+00  0.18250000000E+03  0.18250000000E+03  0.00000000000E+00 0. -1.
         11   -1    0    0    0    0 -0.00000000000E+00 -0.00000000000E+00 -0.18250000000E+03  0.18250000000E+03  0.00000000000E+00 0.  1.
         23    2    1    2    0    0 -0.19118950461E+01 -0.58906971058E+02  0.15820530262E+03  0.19081220113E+03  0.88919580188E+02 0.  0.
        -11    1    1    2    0    0  0.90169467997E+00  0.64181209865E+02 -0.12465290670E+03  0.14020837315E+03  0.00000000000E+00 0. -1.
         11    1    1    2    0    0  0.10102003661E+01 -0.52742388076E+01 -0.33552395928E+02  0.33979425720E+02  0.00000000000E+00 0.  1.
        -15    1    3    3    0    0  0.28211791892E+02 -0.62965853079E+02  0.13791923531E+03  0.15422540988E+03  0.17770000000E+01 0. -1.
         15    1    3    3    0    0 -0.30123686938E+02  0.40588820214E+01  0.20286067316E+02  0.36586791252E+02  0.17770000000E+01 0.  1.
</event>
<event>
 7    1  0.1144116E-003  0.1810741E+03  0.7546771E-02  0.1069595E+00
        -11   -1    0    0    0    0  0.00000000000E+00  0.00000000000E+00  0.18250000000E+03  0.18250000000E+03  0.00000000000E+00 0.  1.
         11   -1    0    0    0    0 -0.00000000000E+00 -0.00000000000E+00 -0.18250000000E+03  0.18250000000E+03  0.00000000000E+00 0. -1.
         23    2    1    2    0    0 -0.57598554520E+01  0.28968995222E+02  0.14323317345E+03  0.17529185060E+03  0.96639082639E+02 0.  0.
        -11    1    1    2    0    0  0.68951866571E+01 -0.23193304136E+02  0.16869912181E+02  0.29496896324E+02  0.00000000000E+00 0.  1.
         11    1    1    2    0    0 -0.11353312051E+01 -0.57756910857E+01 -0.16010308563E+03  0.16021125307E+03  0.00000000000E+00 0. -1.
        -15    1    3    3    0    0 -0.37171850971E+02  0.32006245125E+02  0.29543087304E+02  0.57289597381E+02  0.17770000000E+01 0.  1.
         15    1    3    3    0    0  0.31411995519E+02 -0.30372499039E+01  0.11369008614E+03  0.11800225322E+03  0.17770000000E+01 0. -1.
</event>
<event>
 7    1  0.1144116E-003  0.1510573E+03  0.7546771E-02  0.1096664E+00
        -11   -1    0    0    0    0  0.00000000000E+00  0.00000000000E+00  0.18250000000E+03  0.18250000000E+03  0.00000000000E+00 0.  1.
         11   -1    0    0    0    0 -0.00000000000E+00 -0.00000000000E+00 -0.18250000000E+03  0.18250000000E+03  0.00000000000E+00 0. -1.
         23    2    1    2    0    0  0.48013930546E+02 -0.76326257222E+02  0.79245731834E+02  0.15123401784E+03  0.91982645489E+02 0.  0.
        -11    1    1    2    0    0 -0.49354643168E+02  0.43975316092E+02  0.48495626737E+02  0.81984968380E+02  0.00000000000E+00 0.  1.
         11    1    1    2    0    0  0.13407126224E+01  0.32350941130E+02 -0.12774135857E+03  0.13178101378E+03  0.00000000000E+00 0. -1.
        -15    1    3    3    0    0  0.42332467303E+02  0.89666213055E+01  0.26390363736E+02  0.50715353817E+02  0.17770000000E+01 0.  1.
         15    1    3    3    0    0  0.56814632430E+01 -0.85292878527E+02  0.52855368098E+02  0.10051866403E+03  0.17770000000E+01 0. -1.
</event>
<event>
 7    1  0.1144116E-003  0.1802700E+03  0.7546771E-02  0.1070244E+00
        -11   -1    0    0    0    0  0.00000000000E+00  0.00000000000E+00  0.18250000000E+03  0.18250000000E+03  0.00000000000E+00 0.  1.
         11   -1    0    0    0    0 -0.00000000000E+00 -0.00000000000E+00 -0.18250000000E+03  0.18250000000E+03  0.00000000000E+00 0. -1.
         23    2    1    2    0    0 -0.34553717960E+02 -0.21939533993E+02  0.15473246445E+03  0.18476959460E+03  0.92316655914E+02 0.  0.
        -11    1    1    2    0    0  0.26910082163E+02 -0.76321626652E+01 -0.62791803515E+01  0.28667586833E+02  0.00000000000E+00 0.  1.
         11    1    1    2    0    0  0.76436357977E+01  0.29571696658E+02 -0.14845328410E+03  0.15156281856E+03  0.00000000000E+00 0. -1.
        -15    1    3    3    0    0 -0.24907755591E+02 -0.49670873670E+02  0.14241198345E+03  0.15287878446E+03  0.17770000000E+01 0.  1.
         15    1    3    3    0    0 -0.96459623691E+01  0.27731339678E+02  0.12320480997E+02  0.31890810139E+02  0.17770000000E+01 0. -1.
</event>
<event>
 7    1  0.1144116E-003  0.1547737E+03  0.7546771E-02  0.1092954E+00
        -11   -1    0    0    0    0  0.00000000000E+00  0.00000000000E+00  0.18250000000E+03  0.18250000000E+03  0.00000000000E+00 0. -1.
         11   -1    0    0    0    0 -0.00000000000E+00 -0.00000000000E+00 -0.18250000000E+03  0.18250000000E+03  0.00000000000E+00 0.  1.
         23    2    1    2    0    0  0.43798964498E+02  0.20633479497E+02 -0.79568340482E+02  0.12996724945E+03  0.90643672447E+02 0.  0.
        -11    1    1    2    0    0 -0.35755950691E+02 -0.26097901747E+02  0.15386305085E+03  0.16010442500E+03  0.00000000000E+00 0. -1.
         11    1    1    2    0    0 -0.80430138064E+01  0.54644222504E+01 -0.74294710371E+02  0.74928325557E+02  0.00000000000E+00 0.  1.
        -15    1    3    3    0    0  0.26149738468E+02 -0.20681375913E+02  0.54147115571E+01  0.33823142401E+02  0.17770000000E+01 0. -1.
         15    1    3    3    0    0  0.17649226030E+02  0.41314855410E+02 -0.84983052039E+02  0.96144107047E+02  0.17770000000E+01 0.  1.
</event>
<event>
 7    1  0.1144116E-003  0.1780283E+03  0.7546771E-02  0.1072071E+00
        -11   -1    0    0    0    0  0.00000000000E+00  0.00000000000E+00  0.18250000000E+03  0.18250000000E+03  0.00000000000E+00 0.  1.
         11   -1    0    0    0    0 -0.00000000000E+00 -0.00000000000E+00 -0.18250000000E+03  0.18250000000E+03  0.00000000000E+00 0.  1.
         23    2    1    2    0    0 -0.11329062022E+02 -0.16804192686E+02  0.14402773674E+03  0.17129108104E+03  0.90476057353E+02 0.  0.
        -11    1    1    2    0    0  0.99243669459E+01  0.25103779452E+02  0.17364692209E+02  0.32097123509E+02  0.00000000000E+00 0.  1.
         11    1    1    2    0    0  0.14046950758E+01 -0.82995867664E+01 -0.16139242895E+03  0.16161179546E+03  0.00000000000E+00 0.  1.
        -15    1    3    3    0    0  0.16434254248E+02  0.84666108683E+01 -0.36313212687E+01  0.18923858894E+02  0.17770000000E+01 0. -1.
         15    1    3    3    0    0 -0.27763316269E+02 -0.25270803554E+02  0.14765905801E+03  0.15236722214E+03  0.17770000000E+01 0.  1.
</event>
<event>
 7    1  0.1144116E-003  0.1478911E+03  0.7546771E-02  0.1099920E+00
        -11   -1    0    0    0    0  0.00000000000E+00  0.00000000000E+00  0.18250000000E+03  0.18250000000E+03  0.00000000000E+00 0.  1.
         11   -1    0    0    0    0 -0.00000000000E+00 -0.00000000000E+00 -0.18250000000E+03  0.18250000000E+03  0.00000000000E+00 0. -1.
         23    2    1    2    0    0  0.91049743042E+01 -0.47984256967E+02  0.77311557464E+02  0.12949072109E+03  0.91680862000E+02 0.  0.
        -11    1    1    2    0    0 -0.34424647854E+01  0.50287330094E+02  0.70999467027E+02  0.87072328842E+02  0.00000000000E+00 0.  1.
         11    1    1    2    0    0 -0.56625095188E+01 -0.23030731271E+01 -0.14831102449E+03  0.14843695007E+03  0.00000000000E+00 0. -1.
        -15    1    3    3    0    0  0.21831822398E+02 -0.55979385249E+02  0.91014877927E+02  0.10907422141E+03  0.17770000000E+01 0.  1.
         15    1    3    3    0    0 -0.12726848094E+02  0.79951282819E+01 -0.13703320463E+02  0.20416499685E+02  0.17770000000E+01 0. -1.
</event>
<event>
 7    1  0.1144116E-003  0.1667073E+03  0.7546771E-02  0.1081770E+00
        -11   -1    0    0    0    0  0.00000000000E+00  0.00000000000E+00  0.18250000000E+03  0.18250000000E+03  0.00000000000E+00 0.  1.
         11   -1    0    0    0    0 -0.00000000000E+00 -0.00000000000E+00 -0.18250000000E+03  0.18250000000E+03  0.00000000000E+00 0.  1.
         23    2    1    2    0    0 -0.58306629189E+02  0.71790416642E+02 -0.38761972573E+02  0.15365988499E+03  0.11642741434E+03 0.  0.
        -11    1    1    2    0    0  0.56533769353E+02 -0.68937988234E+02  0.10911535581E+03  0.14090661508E+03  0.00000000000E+00 0.  1.
         11    1    1    2    0    0  0.17728598361E+01 -0.28524284077E+01 -0.70353383234E+02  0.70433499930E+02  0.00000000000E+00 0.  1.
        -15    1    3    3    0    0  0.24673096326E+02 -0.28427564950E+01 -0.33732589322E+02  0.41927178037E+02  0.17770000000E+01 0. -1.
         15    1    3    3    0    0 -0.82979725515E+02  0.74633173137E+02 -0.50293832514E+01  0.11173270696E+03  0.17770000000E+01 0.  1.
</event>
<event>
 7    1  0.1144116E-003  0.1888828E+03  0.7546771E-02  0.1063485E+00
        -11   -1    0    0    0    0  0.00000000000E+00  0.00000000000E+00  0.18250000000E+03  0.18250000000E+03  0.00000000000E+00 0.  1.
         11   -1    0    0    0    0 -0.00000000000E+00 -0.00000000000E+00 -0.18250000000E+03  0.18250000000E+03  0.00000000000E+00 0. -1.
         23    2    1    2    0    0 -0.35445527331E+01 -0.10745348256E+02  0.16663317144E+03  0.19112002336E+03  0.92909758060E+02 0.  0.
        -11    1    1    2    0    0  0.88314234049E+00  0.10624814148E+02 -0.42537787388E+01  0.11478730315E+02  0.00000000000E+00 0.  1.
         11    1    1    2    0    0  0.26614103926E+01  0.12053410708E+00 -0.16237939270E+03  0.16240124632E+03  0.00000000000E+00 0. -1.
        -15    1    3    3    0    0  0.28219165971E+02  0.22820746939E+02  0.12025335681E+03  0.12562298903E+03  0.17770000000E+01 0.  1.
         15    1    3    3    0    0 -0.31763718704E+02 -0.33566095194E+02  0.46379814625E+02  0.65497034331E+02  0.17770000000E+01 0. -1.
</event>
<event>
 7    1  0.1144116E-003  0.1910868E+03  0.7546771E-02  0.1061818E+00
        -11   -1    0    0    0    0  0.00000000000E+00  0.00000000000E+00  0.18250000000E+03  0.18250000000E+03  0.00000000000E+00 0.  1.
         11   -1    0    0    0    0 -0.00000000000E+00 -0.00000000000E+00 -0.18250000000E+03  0.18250000000E+03  0.00000000000E+00 0.  1.
         23    2    1    2    0    0 -0.10164788801E+03  0.12666136603E+03 -0.46110283332E+02  0.19115994157E+03  0.89669226884E+02 0.  0.
        -11    1    1    2    0    0  0.10041035139E+03 -0.12561734015E+03  0.50983678337E+02  0.16870474288E+03  0.00000000000E+00 0.  1.
         11    1    1    2    0    0  0.12375366242E+01 -0.10440258796E+01 -0.48733950048E+01  0.51353155508E+01  0.00000000000E+00 0.  1.
        -15    1    3    3    0    0  0.11918337986E+02  0.40025147247E+02 -0.18287558448E+02  0.45625121539E+02  0.17770000000E+01 0. -1.
         15    1    3    3    0    0 -0.11356622600E+03  0.86636218787E+02 -0.27822724885E+02  0.14553482003E+03  0.17770000000E+01 0.  1.
</event>
<event>
 7    1  0.1144116E-003  0.1882106E+03  0.7546771E-02  0.1063998E+00
        -11   -1    0    0    0    0  0.00000000000E+00  0.00000000000E+00  0.18250000000E+03  0.18250000000E+03  0.00000000000E+00 0.  1.
         11   -1    0    0    0    0 -0.00000000000E+00 -0.00000000000E+00 -0.18250000000E+03  0.18250000000E+03  0.00000000000E+00 0.  1.
         23    2    1    2    0    0  0.68867970797E+01 -0.15662667993E+02  0.16280894453E+03  0.18774584418E+03  0.91918455401E+02 0.  0.
        -11    1    1    2    0    0  0.77833617857E+01 -0.95569849779E+01 -0.49133921318E+00  0.12335238011E+02  0.00000000000E+00 0.  1.
         11    1    1    2    0    0 -0.14670158865E+02  0.25219652971E+02 -0.16231760532E+03  0.16491891781E+03  0.00000000000E+00 0.  1.
        -15    1    3    3    0    0  0.27445935627E+02  0.12867499910E+00  0.15914501220E+03  0.16150414415E+03  0.17770000000E+01 0.  1.
         15    1    3    3    0    0 -0.20559138547E+02 -0.15791342992E+02  0.36639323318E+01  0.26241700029E+02  0.17770000000E+01 0. -1.
</event>
<event>
 7    1  0.1144116E-003  0.1907600E+03  0.7546771E-02  0.1062064E+00
        -11   -1    0    0    0    0  0.00000000000E+00  0.00000000000E+00  0.18250000000E+03  0.18250000000E+03  0.00000000000E+00 0.  1.
         11   -1    0    0    0    0 -0.00000000000E+00 -0.00000000000E+00 -0.18250000000E+03  0.18250000000E+03  0.00000000000E+00 0. -1.
         23    2    1    2    0    0 -0.17750314501E+02 -0.10356264865E+02  0.16645752725E+03  0.19075999822E+03  0.90878724994E+02 0.  0.
        -11    1    1    2    0    0  0.19798350506E+02  0.10491795931E+02 -0.28435089458E+02  0.36202303478E+02  0.00000000000E+00 0.  1.
         11    1    1    2    0    0 -0.20480360046E+01 -0.13553106531E+00 -0.13802243779E+03  0.13803769830E+03  0.00000000000E+00 0. -1.
        -15    1    3    3    0    0 -0.48616834355E+02 -0.97289354951E+01  0.14464569279E+03  0.15291756910E+03  0.17770000000E+01 0.  1.
         15    1    3    3    0    0  0.30866519854E+02 -0.62732937022E+00  0.21811834455E+02  0.37842429115E+02  0.17770000000E+01 0. -1.
</event>
<event>
 7    1  0.1144116E-003  0.2147985E+03  0.7546771E-02  0.1045306E+00
        -11   -1    0    0    0    0  0.00000000000E+00  0.00000000000E+00  0.18250000000E+03  0.18250000000E+03  0.00000000000E+00 0.  1.
         11   -1    0    0    0    0 -0.00000000000E+00 -0.00000000000E+00 -0.18250000000E+03  0.18250000000E+03  0.00000000000E+00 0.  1.
         23    2    1    2    0    0 -0.20053063847E+02 -0.31558577018E+02  0.56650395848E+02  0.11695670593E+03  0.95244603831E+02 0.  0.
        -11    1    1    2    0    0  0.10543122854E+02  0.27837738699E+02  0.93203599883E+02  0.97841750631E+02  0.00000000000E+00 0.  1.
         11    1    1    2    0    0  0.95099409936E+01  0.37208383194E+01 -0.14985399573E+03  0.15020154344E+03  0.00000000000E+00 0.  1.
        -15    1    3    3    0    0  0.20496193749E+02 -0.10935958539E+02 -0.18052268628E+02  0.29474247725E+02  0.17770000000E+01 0. -1.
         15    1    3    3    0    0 -0.40549257596E+02 -0.20622618480E+02  0.74702664476E+02  0.87482458204E+02  0.17770000000E+01 0.  1.
</event>
<event>
 7    1  0.1144116E-003  0.1934913E+03  0.7546771E-02  0.1060027E+00
        -11   -1    0    0    0    0  0.00000000000E+00  0.00000000000E+00  0.18250000000E+03  0.18250000000E+03  0.00000000000E+00 0. -1.
         11   -1    0    0    0    0 -0.00000000000E+00 -0.00000000000E+00 -0.18250000000E+03  0.18250000000E+03  0.00000000000E+00 0. -1.
         23    2    1    2    0    0  0.77780681912E+00  0.96371586517E+01  0.17044399499E+03  0.19349132719E+03  0.91072819543E+02 0.  0.
        -11    1    1    2    0    0 -0.42010113492E+01 -0.82233881900E+01 -0.41648448986E+02  0.42659886459E+02  0.00000000000E+00 0. -1.
         11    1    1    2    0    0  0.34232045301E+01 -0.14137704618E+01 -0.12879554600E+03  0.12884878636E+03  0.00000000000E+00 0. -1.
        -15    1    3    3    0    0  0.42728475844E+02  0.18709083168E+02  0.68776909531E+02  0.83121437996E+02  0.17770000000E+01 0.  1.
         15    1    3    3    0    0 -0.41950669025E+02 -0.90719245158E+01  0.10166708545E+03  0.11036988919E+03  0.17770000000E+01 0. -1.
</event>
<event>
 7    1  0.1144116E-003  0.1778546E+03  0.7546771E-02  0.1072214E+00
        -11   -1    0    0    0    0  0.00000000000E+00  0.00000000000E+00  0.18250000000E+03  0.18250000000E+03  0.00000000000E+00 0. -1.
         11   -1    0    0    0    0 -0.00000000000E+00 -0.00000000000E+00 -0.18250000000E+03  0.18250000000E+03  0.00000000000E+00 0. -1.
         23    2    1    2    0    0 -0.94804707667E+01  0.22065829299E+02  0.13966035958E+03  0.16881148018E+03  0.91736141492E+02 0.  0.
        -11    1    1    2    0    0  0.11785715833E+02 -0.20276505553E+02  0.23383591324E+02  0.33118455857E+02  0.00000000000E+00 0. -1.
         11    1    1    2    0    0 -0.23052450666E+01 -0.17893237466E+01 -0.16304395090E+03  0.16307006396E+03  0.00000000000E+00 0. -1.
        -15    1    3    3    0    0  0.38836952305E+02  0.11058523066E+02  0.36977350026E+02  0.54782131582E+02  0.17770000000E+01 0.  1.
         15    1    3    3    0    0 -0.48317423072E+02  0.11007306233E+02  0.10268300955E+03  0.11402934860E+03  0.17770000000E+01 0. -1.
</event>
<event>
 7    1  0.1144116E-003  0.1880972E+03  0.7546771E-02  0.1064085E+00
        -11   -1    0    0    0    0  0.00000000000E+00  0.00000000000E+00  0.18250000000E+03  0.18250000000E+03  0.00000000000E+00 0. -1.
         11   -1    0    0    0    0 -0.00000000000E+00 -0.00000000000E+00 -0.18250000000E+03  0.18250000000E+03  0.00000000000E+00 0.  1.
         23    2    1    2    0    0 -0.17636696009E+01 -0.13544602309E+02  0.16149608935E+03  0.18730637030E+03  0.93894210137E+02 0.  0.
        -11    1    1    2    0    0  0.42410890954E+01  0.12727833041E+02  0.25253523794E+01  0.13651445904E+02  0.00000000000E+00 0. -1.
         11    1    1    2    0    0 -0.24774194944E+01  0.81676926776E+00 -0.16402144173E+03  0.16404218380E+03  0.00000000000E+00 0.  1.
        -15    1    3    3    0    0  0.15066641359E+02 -0.16299143657E+02 -0.25084458654E+01  0.22407940455E+02  0.17770000000E+01 0.  1.
         15    1    3    3    0    0 -0.16830310960E+02  0.27545413480E+01  0.16400453521E+03  0.16489842984E+03  0.17770000000E+01 0. -1.
</event>
<event>
 7    1  0.1144116E-003  0.1318843E+03  0.7546771E-02  0.1117871E+00
        -11   -1    0    0    0    0  0.00000000000E+00  0.00000000000E+00  0.18250000000E+03  0.18250000000E+03  0.00000000000E+00 0. -1.
         11   -1    0    0    0    0 -0.00000000000E+00 -0.00000000000E+00 -0.18250000000E+03  0.18250000000E+03  0.00000000000E+00 0. -1.
         23    2    1    2    0    0  0.30894040306E+02 -0.72895649887E+02  0.49168380596E+02  0.13035085492E+03  0.91135054885E+02 0.  0.
        -11    1    1    2    0    0 -0.34234912425E+02  0.76854261719E+02  0.73592737810E+02  0.11177878972E+03  0.00000000000E+00 0. -1.
         11    1    1    2    0    0  0.33408721191E+01 -0.39586118312E+01 -0.12276111841E+03  0.12287035536E+03  0.00000000000E+00 0. -1.
        -15    1    3    3    0    0  0.75201356552E+00 -0.85920523452E+02  0.45554394427E+02  0.97269021046E+02  0.17770000000E+01 0. -1.
         15    1    3    3    0    0  0.30142026740E+02  0.13024873565E+02  0.36139861690E+01  0.33081833873E+02  0.17770000000E+01 0.  1.
</event>
<event>
 7    1  0.1144116E-003  0.1399391E+03  0.7546771E-02  0.1108507E+00
        -11   -1    0    0    0    0  0.00000000000E+00  0.00000000000E+00  0.18250000000E+03  0.18250000000E+03  0.00000000000E+00 0.  1.
         11   -1    0    0    0    0 -0.00000000000E+00 -0.00000000000E+00 -0.18250000000E+03  0.18250000000E+03  0.00000000000E+00 0. -1.
         23    2    1    2    0    0  0.89841317271E+01  0.45932874036E+02  0.58315747374E+02  0.11876908692E+03  0.92275815232E+02 0.  0.
        -11    1    1    2    0    0 -0.14712876195E+02 -0.46268580620E+02  0.87625313319E+02  0.10017707229E+03  0.00000000000E+00 0.  1.
         11    1    1    2    0    0  0.57287444678E+01  0.33570658334E+00 -0.14594106069E+03  0.14605384079E+03  0.00000000000E+00 0. -1.
        -15    1    3    3    0    0  0.39025151280E+02  0.56797117911E+02  0.27103831953E+02  0.74071927685E+02  0.17770000000E+01 0.  1.
         15    1    3    3    0    0 -0.30041019552E+02 -0.10864243875E+02  0.31211915421E+02  0.44697159239E+02  0.17770000000E+01 0. -1.
</event>
<event>
 7    1  0.1144116E-003  0.1879186E+03  0.7546771E-02  0.1064222E+00
        -11   -1    0    0    0    0  0.00000000000E+00  0.00000000000E+00  0.18250000000E+03  0.18250000000E+03  0.00000000000E+00 0.  1.
         11   -1    0    0    0    0 -0.00000000000E+00 -0.00000000000E+00 -0.18250000000E+03  0.18250000000E+03  0.00000000000E+00 0.  1.
         23    2    1    2    0    0  0.10152202346E+03 -0.28947432066E+02  0.12543702413E+03  0.18791859374E+03  0.91838313238E+02 0.  0.
        -11    1    1    2    0    0 -0.87527766529E+02  0.22371817465E+02 -0.56776401360E+02  0.10670130216E+03  0.00000000000E+00 0.  1.
         11    1    1    2    0    0 -0.13994256928E+02  0.65756146005E+01 -0.68660622775E+02  0.70380104107E+02  0.00000000000E+00 0.  1.
        -15    1    3    3    0    0  0.28636648769E+02 -0.54996388398E+02  0.48169617017E+02  0.78537444077E+02  0.17770000000E+01 0.  1.
         15    1    3    3    0    0  0.72885374688E+02  0.26048956332E+02  0.77267407118E+02  0.10938114966E+03  0.17770000000E+01 0. -1.
</event>
<event>
 7    1  0.1144116E-003  0.1687821E+03  0.7546771E-02  0.1079931E+00
        -11   -1    0    0    0    0  0.00000000000E+00  0.00000000000E+00  0.18250000000E+03  0.18250000000E+03  0.00000000000E+00 0.  1.
         11   -1    0    0    0    0 -0.00000000000E+00 -0.00000000000E+00 -0.18250000000E+03  0.18250000000E+03  0.00000000000E+00 0. -1.
         23    2    1    2    0    0  0.25002026290E+02  0.23846458999E+02  0.12990058559E+03  0.15817893949E+03  0.83382611099E+02 0.  0.
        -11    1    1    2    0    0 -0.22897053929E+02 -0.25598178668E+02  0.30778962073E+02  0.46118177935E+02  0.00000000000E+00 0.  1.
         11    1    1    2    0    0 -0.21049723611E+01  0.17517196692E+01 -0.16067954767E+03  0.16070288258E+03  0.00000000000E+00 0. -1.
        -15    1    3    3    0    0  0.24154152414E+02  0.28994178796E+02  0.14089953745E+03  0.14587639584E+03  0.17770000000E+01 0.  1.
         15    1    3    3    0    0  0.84787387616E+00 -0.51477197969E+01 -0.10998951852E+02  0.12302543642E+02  0.17770000000E+01 0. -1.
</event>
<event>
 7    1  0.1144116E-003  0.1932582E+03  0.7546771E-02  0.1060200E+00
        -11   -1    0    0    0    0  0.00000000000E+00  0.00000000000E+00  0.18250000000E+03  0.18250000000E+03  0.00000000000E+00 0.  1.
         11   -1    0    0    0    0 -0.00000000000E+00 -0.00000000000E+00 -0.18250000000E+03  0.18250000000E+03  0.00000000000E+00 0.  1.
         23    2    1    2    0    0 -0.88168436452E+00 -0.60624890683E+01  0.16893411444E+03  0.19325821260E+03  0.93661467933E+02 0.  0.
        -11    1    1    2    0    0 -0.13649145914E+02  0.24226289173E+01 -0.50644870670E+02  0.52507820753E+02  0.00000000000E+00 0.  1.
         11    1    1    2    0    0  0.14530830279E+02  0.36398601510E+01 -0.11828924377E+03  0.11923396665E+03  0.00000000000E+00 0.  1.
        -15    1    3    3    0    0 -0.70525274927E+01 -0.44872145582E+02  0.13078803072E+03  0.13846268198E+03  0.17770000000E+01 0.  1.
         15    1    3    3    0    0  0.61708431282E+01  0.38809656513E+02  0.38146083717E+02  0.54795530616E+02  0.17770000000E+01 0. -1.
</event>
<event>
 7    1  0.1144116E-003  0.1588732E+03  0.7546771E-02  0.1088991E+00
        -11   -1    0    0    0    0  0.00000000000E+00  0.00000000000E+00  0.18250000000E+03  0.18250000000E+03  0.00000000000E+00 0.  1.
         11   -1    0    0    0    0 -0.00000000000E+00 -0.00000000000E+00 -0.18250000000E+03  0.18250000000E+03  0.00000000000E+00 0.  1.
         23    2    1    2    0    0 -0.59609323209E+02  0.36570955521E+02  0.10666580223E+03  0.15899879844E+03  0.94933230955E+02 0.  0.
        -11    1    1    2    0    0  0.59784007324E+02 -0.23458441717E+02  0.28456640720E+02  0.70243906643E+02  0.00000000000E+00 0.  1.
         11    1    1    2    0    0 -0.17468411449E+00 -0.13112513804E+02 -0.13512244295E+03  0.13575729491E+03  0.00000000000E+00 0.  1.
        -15    1    3    3    0    0 -0.20930942887E+02  0.99059256978E+01  0.10946611256E+03  0.11190272232E+03  0.17770000000E+01 0.  1.
         15    1    3    3    0    0 -0.38678380322E+02  0.26665029823E+02 -0.28003103259E+01  0.47096076128E+02  0.17770000000E+01 0. -1.
</event>
<event>
 7    1  0.1144116E-003  0.1761689E+03  0.7546771E-02  0.1073609E+00
        -11   -1    0    0    0    0  0.00000000000E+00  0.00000000000E+00  0.18250000000E+03  0.18250000000E+03  0.00000000000E+00 0. -1.
         11   -1    0    0    0    0 -0.00000000000E+00 -0.00000000000E+00 -0.18250000000E+03  0.18250000000E+03  0.00000000000E+00 0.  1.
         23    2    1    2    0    0 -0.25268777606E+02 -0.30795128793E+01  0.15910738509E+03  0.17998645281E+03  0.80199555378E+02 0.  0.
        -11    1    1    2    0    0  0.15029159409E+02 -0.25494595472E+02 -0.76814501629E+01  0.30575393823E+02  0.00000000000E+00 0. -1.
         11    1    1    2    0    0  0.10239618197E+02  0.28574108351E+02 -0.15142593492E+03  0.15443815337E+03  0.00000000000E+00 0.  1.
        -15    1    3    3    0    0 -0.39953068972E+02  0.18287531276E+02  0.44854270442E+02  0.62815163984E+02  0.17770000000E+01 0.  1.
         15    1    3    3    0    0  0.14684291366E+02 -0.21367044156E+02  0.11425311465E+03  0.11717128882E+03  0.17770000000E+01 0. -1.
</event>
<event>
 7    1  0.1144116E-003  0.1335749E+03  0.7546771E-02  0.1115845E+00
        -11   -1    0    0    0    0  0.00000000000E+00  0.00000000000E+00  0.18250000000E+03  0.18250000000E+03  0.00000000000E+00 0. -1.
         11   -1    0    0    0    0 -0.00000000000E+00 -0.00000000000E+00 -0.18250000000E+03  0.18250000000E+03  0.00000000000E+00 0.  1.
         23    2    1    2    0    0 -0.43119669366E+02 -0.89828292504E+02  0.57393767380E+02  0.14612457485E+03  0.90166062466E+02 0.  0.
        -11    1    1    2    0    0  0.47552670132E+02  0.85252362793E+02  0.51107610256E+02  0.11018715726E+03  0.00000000000E+00 0. -1.
         11    1    1    2    0    0 -0.44330007665E+01  0.45759297106E+01 -0.10850137764E+03  0.10868826789E+03  0.00000000000E+00 0.  1.
        -15    1    3    3    0    0 -0.73129037391E+01 -0.21609143982E+02 -0.24601114097E+02  0.33597711359E+02  0.17770000000E+01 0. -1.
         15    1    3    3    0    0 -0.35806765627E+02 -0.68219148522E+02  0.81994881477E+02  0.11252686349E+03  0.17770000000E+01 0.  1.
</event>
<event>
 7    1  0.1144116E-003  0.1435762E+03  0.7546771E-02  0.1104503E+00
        -11   -1    0    0    0    0  0.00000000000E+00  0.00000000000E+00  0.18250000000E+03  0.18250000000E+03  0.00000000000E+00 0.  1.
         11   -1    0    0    0    0 -0.00000000000E+00 -0.00000000000E+00 -0.18250000000E+03  0.18250000000E+03  0.00000000000E+00 0. -1.
         23    2    1    2    0    0  0.35377198736E+02  0.52633754981E+02  0.73370858399E+02  0.12980997648E+03  0.86287245746E+02 0.  0.
        -11    1    1    2    0    0 -0.25057616536E+02 -0.52122475631E+02  0.70365914668E+02  0.91082372385E+02  0.00000000000E+00 0.  1.
         11    1    1    2    0    0 -0.10319582200E+02 -0.51127935020E+00 -0.14373677307E+03  0.14410765113E+03  0.00000000000E+00 0. -1.
        -15    1    3    3    0    0  0.23467194416E+01 -0.22191685165E+02  0.29333643104E+02  0.36899841861E+02  0.17770000000E+01 0. -1.
         15    1    3    3    0    0  0.33030479294E+02  0.74825440146E+02  0.44037215295E+02  0.92910134622E+02  0.17770000000E+01 0.  1.
</event>
<event>
 7    1  0.1144116E-003  0.1926377E+03  0.7546771E-02  0.1060660E+00
        -11   -1    0    0    0    0  0.00000000000E+00  0.00000000000E+00  0.18250000000E+03  0.18250000000E+03  0.00000000000E+00 0. -1.
         11   -1    0    0    0    0 -0.00000000000E+00 -0.00000000000E+00 -0.18250000000E+03  0.18250000000E+03  0.00000000000E+00 0. -1.
         23    2    1    2    0    0  0.29314687283E+02 -0.48929767295E+02  0.16013106172E+03  0.19263766503E+03  0.90630238015E+02 0.  0.
        -11    1    1    2    0    0 -0.29753787679E+02  0.48282703233E+02 -0.12547067848E+03  0.13769313153E+03  0.00000000000E+00 0. -1.
         11    1    1    2    0    0  0.43910039589E+00  0.64706406227E+00 -0.34660383238E+02  0.34669203442E+02  0.00000000000E+00 0. -1.
        -15    1    3    3    0    0 -0.15456822668E+02  0.13177343272E+02  0.72356186816E+01  0.21634871143E+02  0.17770000000E+01 0.  1.
         15    1    3    3    0    0  0.44771509951E+02 -0.62107110567E+02  0.15289544304E+03  0.17100279388E+03  0.17770000000E+01 0. -1.
</event>
<event>
 7    1  0.1144116E-003  0.1892354E+03  0.7546771E-02  0.1063216E+00
        -11   -1    0    0    0    0  0.00000000000E+00  0.00000000000E+00  0.18250000000E+03  0.18250000000E+03  0.00000000000E+00 0.  1.
         11   -1    0    0    0    0 -0.00000000000E+00 -0.00000000000E+00 -0.18250000000E+03  0.18250000000E+03  0.00000000000E+00 0.  1.
         23    2    1    2    0    0  0.39681213484E+02  0.10384018406E+02  0.16072925523E+03  0.18923537681E+03  0.91069796359E+02 0.  0.
        -11    1    1    2    0    0 -0.43376964151E+02 -0.45802688783E+01 -0.56837363774E+02  0.71645138026E+02  0.00000000000E+00 0.  1.
         11    1    1    2    0    0  0.36957506672E+01 -0.58037495275E+01 -0.10389189145E+03  0.10411948517E+03  0.00000000000E+00 0.  1.
        -15    1    3    3    0    0  0.33767402663E+02  0.20201109883E+02  0.16992749048E+03  0.17443288701E+03  0.17770000000E+01 0.  1.
         15    1    3    3    0    0  0.59138108207E+01 -0.98170914775E+01 -0.91982352492E+01  0.14802489797E+02  0.17770000000E+01 0. -1.
</event>
<event>
 7    1  0.1144116E-003  0.1847108E+03  0.7546771E-02  0.1066709E+00
        -11   -1    0    0    0    0  0.00000000000E+00  0.00000000000E+00  0.18250000000E+03  0.18250000000E+03  0.00000000000E+00 0. -1.
         11   -1    0    0    0    0 -0.00000000000E+00 -0.00000000000E+00 -0.18250000000E+03  0.18250000000E+03  0.00000000000E+00 0. -1.
         23    2    1    2    0    0  0.18413276160E+01 -0.43063163087E+01  0.15767502935E+03  0.18007920629E+03  0.86862942674E+02 0.  0.
        -11    1    1    2    0    0 -0.11879077522E+02  0.64933499441E+01  0.10063092589E+02  0.16868370067E+02  0.00000000000E+00 0. -1.
         11    1    1    2    0    0  0.10037749906E+02 -0.21870336354E+01 -0.16773812194E+03  0.16805242364E+03  0.00000000000E+00 0. -1.
        -15    1    3    3    0    0  0.35676242699E+02 -0.28029400544E+02  0.88930876587E+02  0.99851390213E+02  0.17770000000E+01 0.  1.
         15    1    3    3    0    0 -0.33834915083E+02  0.23723084235E+02  0.68744152766E+02  0.80227816079E+02  0.17770000000E+01 0. -1.
</event>
<event>
 7    1  0.1144116E-003  0.1271076E+03  0.7546771E-02  0.1123780E+00
        -11   -1    0    0    0    0  0.00000000000E+00  0.00000000000E+00  0.18250000000E+03  0.18250000000E+03  0.00000000000E+00 0.  1.
         11   -1    0    0    0    0 -0.00000000000E+00 -0.00000000000E+00 -0.18250000000E+03  0.18250000000E+03  0.00000000000E+00 0. -1.
         23    2    1    2    0    0  0.26604403312E+02 -0.16657485110E+02  0.37319272039E+02  0.10614994158E+03  0.94285820492E+02 0.  0.
        -11    1    1    2    0    0 -0.36740089092E+02  0.25200962193E+02  0.10596702829E+03  0.11495187570E+03  0.00000000000E+00 0.  1.
         11    1    1    2    0    0  0.10135685779E+02 -0.85434770829E+01 -0.14328630033E+03  0.14389818272E+03  0.00000000000E+00 0. -1.
        -15    1    3    3    0    0  0.20556735172E+02 -0.29675397387E+02  0.65309373529E+02  0.74643690764E+02  0.17770000000E+01 0.  1.
         15    1    3    3    0    0  0.60476681402E+01  0.13017912277E+02 -0.27990101490E+02  0.31506250815E+02  0.17770000000E+01 0. -1.
</event>
<event>
 7    1  0.1144116E-003  0.1914578E+03  0.7546771E-02  0.1061540E+00
        -11   -1    0    0    0    0  0.00000000000E+00  0.00000000000E+00  0.18250000000E+03  0.18250000000E+03  0.00000000000E+00 0.  1.
         11   -1    0    0    0    0 -0.00000000000E+00 -0.00000000000E+00 -0.18250000000E+03  0.18250000000E+03  0.00000000000E+00 0.  1.
         23    2    1    2    0    0  0.25503788411E+02  0.15283632958E+01  0.16721420362E+03  0.19145780587E+03  0.89681226680E+02 0.  0.
        -11    1    1    2    0    0 -0.22468193672E+02  0.20878289983E+01 -0.37665626457E+02  0.43907609514E+02  0.00000000000E+00 0.  1.
         11    1    1    2    0    0 -0.30355947388E+01 -0.36161922941E+01 -0.12954857717E+03  0.12963458461E+03  0.00000000000E+00 0.  1.
        -15    1    3    3    0    0  0.22426622833E+02  0.44592544219E+02  0.93905657792E+02  0.10636201721E+03  0.17770000000E+01 0. -1.
         15    1    3    3    0    0  0.30771655780E+01 -0.43064180923E+02  0.73308545831E+02  0.85095788658E+02  0.17770000000E+01 0.  1.
</event>
<event>
 7    1  0.1144116E-003  0.2095558E+03  0.7546771E-02  0.1048751E+00
        -11   -1    0    0    0    0  0.00000000000E+00  0.00000000000E+00  0.18250000000E+03  0.18250000000E+03  0.00000000000E+00 0.  1.
         11   -1    0    0    0    0 -0.00000000000E+00 -0.00000000000E+00 -0.18250000000E+03  0.18250000000E+03  0.00000000000E+00 0.  1.
         23    2    1    2    0    0  0.28231366292E+02  0.19284268924E+02  0.36899939142E+02  0.86890659125E+02  0.70848345527E+02 0.  0.
        -11    1    1    2    0    0 -0.15108865886E+02 -0.31912104469E+02  0.11747374066E+03  0.12266515391E+03  0.00000000000E+00 0.  1.
         11    1    1    2    0    0 -0.13122500405E+02  0.12627835545E+02 -0.15437367980E+03  0.15544418697E+03  0.00000000000E+00 0.  1.
        -15    1    3    3    0    0 -0.72631155666E+01 -0.21795228714E+02  0.40047071398E+01  0.23387608914E+02  0.17770000000E+01 0. -1.
         15    1    3    3    0    0  0.35494481858E+02  0.41079497639E+02  0.32895232002E+02  0.63503050211E+02  0.17770000000E+01 0.  1.
</event>
<event>
 7    1  0.1144116E-003  0.2010394E+03  0.7546771E-02  0.1054586E+00
        -11   -1    0    0    0    0  0.00000000000E+00  0.00000000000E+00  0.18250000000E+03  0.18250000000E+03  0.00000000000E+00 0. -1.
         11   -1    0    0    0    0 -0.00000000000E+00 -0.00000000000E+00 -0.18250000000E+03  0.18250000000E+03  0.00000000000E+00 0.  1.
         23    2    1    2    0    0 -0.16080450923E+02 -0.43203182397E+02 -0.47871640690E+02  0.90037531181E+02  0.60745099948E+02 0.  0.
        -11    1    1    2    0    0  0.97078031785E+01  0.40234127184E+02  0.15865068607E+03  0.16396056423E+03  0.00000000000E+00 0. -1.
         11    1    1    2    0    0  0.63726477447E+01  0.29690552135E+01 -0.11077904538E+03  0.11100190459E+03  0.00000000000E+00 0.  1.
        -15    1    3    3    0    0 -0.39097007340E+01  0.40583091254E+01 -0.40165132237E+02  0.40597428606E+02  0.17770000000E+01 0.  1.
         15    1    3    3    0    0 -0.12170750189E+02 -0.47261491523E+02 -0.77065084527E+01  0.49440102575E+02  0.17770000000E+01 0. -1.
</event>
