<event>
 6    1  0.6394569E-004  0.4900682E+03  0.7546771E-02  0.9422311E-01
        -11   -1    0    0    0    0  0.00000000000E+00  0.00000000000E+00  0.50000000000E+03  0.50000000000E+03  0.00000000000E+00 0. -1.
         11   -1    0    0    0    0 -0.00000000000E+00 -0.00000000000E+00 -0.50000000000E+03  0.50000000000E+03  0.00000000000E+00 0. -1.
        -11    1    1    2    0    0  0.26899041417E+02  0.59692505537E+01  0.49080155473E+03  0.49157436519E+03  0.00000000000E+00 0. -1.
         11    1    1    2    0    0 -0.14947069286E+02 -0.14175389442E+02 -0.48823821366E+03  0.48867259983E+03  0.00000000000E+00 0. -1.
        -15    1    1    2    0    0 -0.46468252829E+01 -0.10390756640E+01  0.37042472419E+01  0.62890253676E+01  0.17770000000E+01 0.  1.
         15    1    1    2    0    0 -0.73051468483E+01  0.92452145520E+01 -0.62675883156E+01  0.13464009614E+02  0.17770000000E+01 0. -1.
</event>
<event>
 6    1  0.6394569E-004  0.5030375E+03  0.7546771E-02  0.9393039E-01
        -11   -1    0    0    0    0  0.00000000000E+00  0.00000000000E+00  0.50000000000E+03  0.50000000000E+03  0.00000000000E+00 0. -1.
         11   -1    0    0    0    0 -0.00000000000E+00 -0.00000000000E+00 -0.50000000000E+03  0.50000000000E+03  0.00000000000E+00 0.  1.
        -11    1    1    2    0    0  0.12742364903E+02 -0.66068853601E+01  0.49675513556E+03  0.49696245683E+03  0.00000000000E+00 0. -1.
         11    1    1    2    0    0  0.50065578225E+01  0.37565128957E+01 -0.45671686437E+03  0.45675975217E+03  0.00000000000E+00 0.  1.
        -15    1    1    2    0    0 -0.15659599453E+02  0.41770123506E+01 -0.19071668689E+02  0.25090969746E+02  0.17770000000E+01 0.  1.
         15    1    1    2    0    0 -0.20893232724E+01 -0.13266398863E+01 -0.20966602502E+02  0.21186821248E+02  0.17770000000E+01 0.  1.
</event>
<event>
 6    1  0.6394569E-004  0.5005230E+03  0.7546771E-02  0.9398640E-01
        -11   -1    0    0    0    0  0.00000000000E+00  0.00000000000E+00  0.50000000000E+03  0.50000000000E+03  0.00000000000E+00 0.  1.
         11   -1    0    0    0    0 -0.00000000000E+00 -0.00000000000E+00 -0.50000000000E+03  0.50000000000E+03  0.00000000000E+00 0. -1.
        -11    1    1    2    0    0  0.10653421105E+02  0.48251064846E+01  0.69730373813E+02  0.70704328481E+02  0.00000000000E+00 0.  1.
         11    1    1    2    0    0 -0.43015524372E+01 -0.62717007337E+01 -0.49941912771E+03  0.49947702921E+03  0.00000000000E+00 0. -1.
        -15    1    1    2    0    0 -0.75857899103E+01  0.32709272351E+00  0.36650981017E+03  0.36659275753E+03  0.17770000000E+01 0. -1.
         15    1    1    2    0    0  0.12339212421E+01  0.11195015256E+01  0.63178943733E+02  0.63225884774E+02  0.17770000000E+01 0. -1.
</event>
<event>
 6    1  0.6394569E-004  0.5049785E+03  0.7546771E-02  0.9388738E-01
        -11   -1    0    0    0    0  0.00000000000E+00  0.00000000000E+00  0.50000000000E+03  0.50000000000E+03  0.00000000000E+00 0.  1.
         11   -1    0    0    0    0 -0.00000000000E+00 -0.00000000000E+00 -0.50000000000E+03  0.50000000000E+03  0.00000000000E+00 0.  1.
        -11    1    1    2    0    0 -0.22155627350E+02  0.19342002268E+02  0.49414699772E+03  0.49502145431E+03  0.00000000000E+00 0.  1.
         11    1    1    2    0    0  0.30070724817E+02 -0.10748428682E+02 -0.46132749909E+03  0.46243144209E+03  0.00000000000E+00 0.  1.
        -15    1    1    2    0    0  0.66200951804E+01 -0.10219617762E+02 -0.16057013945E+02  0.20229969679E+02  0.17770000000E+01 0.  1.
         15    1    1    2    0    0 -0.14535192647E+02  0.16260441754E+01 -0.16762484678E+02  0.22317133923E+02  0.17770000000E+01 0. -1.
</event>
<event>
 6    1  0.6394569E-004  0.5032198E+03  0.7546771E-02  0.9392634E-01
        -11   -1    0    0    0    0  0.00000000000E+00  0.00000000000E+00  0.50000000000E+03  0.50000000000E+03  0.00000000000E+00 0.  1.
         11   -1    0    0    0    0 -0.00000000000E+00 -0.00000000000E+00 -0.50000000000E+03  0.50000000000E+03  0.00000000000E+00 0. -1.
        -11    1    1    2    0    0  0.41325132565E+01 -0.10068138170E+02  0.49666096083E+03  0.49678018789E+03  0.00000000000E+00 0.  1.
         11    1    1    2    0    0 -0.10312991592E+02  0.42208735102E+01 -0.48598381095E+03  0.48611154901E+03  0.00000000000E+00 0. -1.
        -15    1    1    2    0    0  0.45264242580E+01 -0.17633849052E+01 -0.56954372302E+01  0.76937492245E+01  0.17770000000E+01 0. -1.
         15    1    1    2    0    0  0.16540540775E+01  0.76106495648E+01 -0.49817126443E+01  0.94145138781E+01  0.17770000000E+01 0.  1.
</event>
<event>
 6    1  0.6394569E-004  0.5005406E+03  0.7546771E-02  0.9398601E-01
        -11   -1    0    0    0    0  0.00000000000E+00  0.00000000000E+00  0.50000000000E+03  0.50000000000E+03  0.00000000000E+00 0.  1.
         11   -1    0    0    0    0 -0.00000000000E+00 -0.00000000000E+00 -0.50000000000E+03  0.50000000000E+03  0.00000000000E+00 0. -1.
        -11    1    1    2    0    0  0.61291634573E+01 -0.58081745052E+01  0.49938803040E+03  0.49945941421E+03  0.00000000000E+00 0.  1.
         11    1    1    2    0    0 -0.59800249369E+01 -0.59607768145E+01 -0.42330597533E+03  0.42339017503E+03  0.00000000000E+00 0. -1.
        -15    1    1    2    0    0  0.16949866151E+01  0.58460601813E+01 -0.38201045276E+02  0.38723726428E+02  0.17770000000E+01 0.  1.
         15    1    1    2    0    0 -0.18441251355E+01  0.59228911384E+01 -0.37881009790E+02  0.38426684331E+02  0.17770000000E+01 0. -1.
</event>
<event>
 6    1  0.6394569E-004  0.5009663E+03  0.7546771E-02  0.9397650E-01
        -11   -1    0    0    0    0  0.00000000000E+00  0.00000000000E+00  0.50000000000E+03  0.50000000000E+03  0.00000000000E+00 0.  1.
         11   -1    0    0    0    0 -0.00000000000E+00 -0.00000000000E+00 -0.50000000000E+03  0.50000000000E+03  0.00000000000E+00 0.  1.
        -11    1    1    2    0    0  0.15274576162E+02 -0.13382139798E+02  0.21275190195E+03  0.21371889511E+03  0.00000000000E+00 0.  1.
         11    1    1    2    0    0 -0.49550789455E+01  0.59914652901E+01 -0.49897308803E+03  0.49903365922E+03  0.00000000000E+00 0.  1.
        -15    1    1    2    0    0 -0.11327063058E+02  0.13295272373E+02  0.23306998710E+03  0.23373027882E+03  0.17770000000E+01 0.  1.
         15    1    1    2    0    0  0.10075658419E+01 -0.59045978652E+01  0.53151198979E+02  0.53517166842E+02  0.17770000000E+01 0. -1.
</event>
<event>
 6    1  0.6394569E-004  0.4899435E+03  0.7546771E-02  0.9422597E-01
        -11   -1    0    0    0    0  0.00000000000E+00  0.00000000000E+00  0.50000000000E+03  0.50000000000E+03  0.00000000000E+00 0. -1.
         11   -1    0    0    0    0 -0.00000000000E+00 -0.00000000000E+00 -0.50000000000E+03  0.50000000000E+03  0.00000000000E+00 0.  1.
        -11    1    1    2    0    0  0.29677195299E+01  0.66093833174E+01  0.48901495959E+03  0.48906862710E+03  0.00000000000E+00 0. -1.
         11    1    1    2    0    0 -0.68885008769E+01 -0.29794033144E+01 -0.49077722129E+03  0.49083460476E+03  0.00000000000E+00 0.  1.
        -15    1    1    2    0    0  0.84104093573E+01 -0.42789499902E-01 -0.58476436771E+01  0.10396609162E+02  0.17770000000E+01 0. -1.
         15    1    1    2    0    0 -0.44896280103E+01 -0.35871905030E+01  0.76099053777E+01  0.97001589798E+01  0.17770000000E+01 0.  1.
</event>
<event>
 6    1  0.6394569E-004  0.5046422E+03  0.7546771E-02  0.9389482E-01
        -11   -1    0    0    0    0  0.00000000000E+00  0.00000000000E+00  0.50000000000E+03  0.50000000000E+03  0.00000000000E+00 0. -1.
         11   -1    0    0    0    0 -0.00000000000E+00 -0.00000000000E+00 -0.50000000000E+03  0.50000000000E+03  0.00000000000E+00 0.  1.
        -11    1    1    2    0    0  0.21475387845E+01  0.79088749163E+01  0.48701391893E+03  0.48708286714E+03  0.00000000000E+00 0. -1.
         11    1    1    2    0    0 -0.71592860482E+01  0.42624197185E+01 -0.49528776153E+03  0.49535784068E+03  0.00000000000E+00 0.  1.
        -15    1    1    2    0    0  0.33255153897E+01 -0.49707886579E+01 -0.10936652797E+00  0.62399905870E+01  0.17770000000E+01 0. -1.
         15    1    1    2    0    0  0.16862318740E+01 -0.72005059769E+01  0.83832091328E+01  0.11319301596E+02  0.17770000000E+01 0.  1.
</event>
<event>
 6    1  0.6394569E-004  0.4898369E+03  0.7546771E-02  0.9422842E-01
        -11   -1    0    0    0    0  0.00000000000E+00  0.00000000000E+00  0.50000000000E+03  0.50000000000E+03  0.00000000000E+00 0. -1.
         11   -1    0    0    0    0 -0.00000000000E+00 -0.00000000000E+00 -0.50000000000E+03  0.50000000000E+03  0.00000000000E+00 0. -1.
        -11    1    1    2    0    0 -0.93876402035E+01 -0.23355808722E+01  0.48766063000E+03  0.48775657123E+03  0.00000000000E+00 0. -1.
         11    1    1    2    0    0  0.64876327672E+01  0.10230965765E+02 -0.49181302854E+03  0.49196221103E+03  0.00000000000E+00 0. -1.
        -15    1    1    2    0    0  0.91770006493E+00  0.56019467101E+01  0.13699809197E+00  0.59498300673E+01  0.17770000000E+01 0. -1.
         15    1    1    2    0    0  0.19823073714E+01 -0.13497331603E+02  0.40154004519E+01  0.14331387675E+02  0.17770000000E+01 0.  1.
</event>
<event>
 6    1  0.6394569E-004  0.5002000E+03  0.7546771E-02  0.9399362E-01
        -11   -1    0    0    0    0  0.00000000000E+00  0.00000000000E+00  0.50000000000E+03  0.50000000000E+03  0.00000000000E+00 0. -1.
         11   -1    0    0    0    0 -0.00000000000E+00 -0.00000000000E+00 -0.50000000000E+03  0.50000000000E+03  0.00000000000E+00 0.  1.
        -11    1    1    2    0    0 -0.94227155658E+01 -0.17668768455E+01  0.49970807948E+03  0.49980003414E+03  0.00000000000E+00 0. -1.
         11    1    1    2    0    0  0.40647774507E+01 -0.14812174994E+01 -0.25562632953E+03  0.25566293586E+03  0.00000000000E+00 0.  1.
        -15    1    1    2    0    0  0.86839442402E+01  0.64117484133E+00 -0.20408671312E+03  0.20428011698E+03  0.17770000000E+01 0.  1.
         15    1    1    2    0    0 -0.33260061251E+01  0.26069195035E+01 -0.39995036831E+02  0.40256913024E+02  0.17770000000E+01 0. -1.
</event>
<event>
 6    1  0.6394569E-004  0.5023784E+03  0.7546771E-02  0.9394504E-01
        -11   -1    0    0    0    0  0.00000000000E+00  0.00000000000E+00  0.50000000000E+03  0.50000000000E+03  0.00000000000E+00 0. -1.
         11   -1    0    0    0    0 -0.00000000000E+00 -0.00000000000E+00 -0.50000000000E+03  0.50000000000E+03  0.00000000000E+00 0. -1.
        -11    1    1    2    0    0  0.12105471202E+00 -0.19613538745E+02  0.33205895535E+03  0.33263772394E+03  0.00000000000E+00 0. -1.
         11    1    1    2    0    0 -0.16867380993E+02 -0.50039508450E+01 -0.49731047463E+03  0.49762159946E+03  0.00000000000E+00 0. -1.
        -15    1    1    2    0    0  0.10886669775E+02  0.37695271113E+01  0.10584758785E+03  0.10648755089E+03  0.17770000000E+01 0. -1.
         15    1    1    2    0    0  0.58596565068E+01  0.20847962479E+02  0.59403931433E+02  0.63253125714E+02  0.17770000000E+01 0.  1.
</event>
<event>
 6    1  0.6394569E-004  0.5007565E+03  0.7546771E-02  0.9398119E-01
        -11   -1    0    0    0    0  0.00000000000E+00  0.00000000000E+00  0.50000000000E+03  0.50000000000E+03  0.00000000000E+00 0.  1.
         11   -1    0    0    0    0 -0.00000000000E+00 -0.00000000000E+00 -0.50000000000E+03  0.50000000000E+03  0.00000000000E+00 0. -1.
        -11    1    1    2    0    0  0.29395401672E+01 -0.71741311377E+01  0.47278921109E+03  0.47285277538E+03  0.00000000000E+00 0.  1.
         11    1    1    2    0    0 -0.81024329343E+01  0.11228258091E+01 -0.49917647994E+03  0.49924349598E+03  0.00000000000E+00 0. -1.
        -15    1    1    2    0    0  0.14214170856E+01  0.13213460588E+01  0.10318957608E+02  0.10649178234E+02  0.17770000000E+01 0.  1.
         15    1    1    2    0    0  0.37414756814E+01  0.47299592697E+01  0.16068311234E+02  0.17254550411E+02  0.17770000000E+01 0. -1.
</event>
<event>
 6    1  0.6394569E-004  0.5001973E+03  0.7546771E-02  0.9399368E-01
        -11   -1    0    0    0    0  0.00000000000E+00  0.00000000000E+00  0.50000000000E+03  0.50000000000E+03  0.00000000000E+00 0.  1.
         11   -1    0    0    0    0 -0.00000000000E+00 -0.00000000000E+00 -0.50000000000E+03  0.50000000000E+03  0.00000000000E+00 0. -1.
        -11    1    1    2    0    0  0.34823489766E+01  0.11460413459E+01  0.19001228157E+02  0.19351662374E+02  0.00000000000E+00 0.  1.
         11    1    1    2    0    0  0.12575744816E+01 -0.79719011380E+01 -0.49973756599E+03  0.49980272864E+03  0.00000000000E+00 0. -1.
        -15    1    1    2    0    0 -0.49580910870E+01  0.60319813763E+01  0.42367813115E+03  0.42375380118E+03  0.17770000000E+01 0.  1.
         15    1    1    2    0    0  0.21816762879E+00  0.79387841576E+00  0.57058206680E+02  0.57091807806E+02  0.17770000000E+01 0.  1.
</event>
<event>
 6    1  0.6394569E-004  0.4878305E+03  0.7546771E-02  0.9427459E-01
        -11   -1    0    0    0    0  0.00000000000E+00  0.00000000000E+00  0.50000000000E+03  0.50000000000E+03  0.00000000000E+00 0.  1.
         11   -1    0    0    0    0 -0.00000000000E+00 -0.00000000000E+00 -0.50000000000E+03  0.50000000000E+03  0.00000000000E+00 0. -1.
        -11    1    1    2    0    0  0.11154036890E+02 -0.83672037756E+01  0.48591708239E+03  0.48611709864E+03  0.00000000000E+00 0.  1.
         11    1    1    2    0    0  0.59639400094E+01 -0.66381166304E+01 -0.48973555355E+03  0.48981684902E+03  0.00000000000E+00 0. -1.
        -15    1    1    2    0    0 -0.85031869452E+01  0.11191592712E+02  0.25536705204E+01  0.14395655518E+02  0.17770000000E+01 0. -1.
         15    1    1    2    0    0 -0.86147899538E+01  0.38137276937E+01  0.12648006461E+01  0.96703968142E+01  0.17770000000E+01 0.  1.
</event>
<event>
 6    1  0.6394569E-004  0.5090522E+03  0.7546771E-02  0.9379779E-01
        -11   -1    0    0    0    0  0.00000000000E+00  0.00000000000E+00  0.50000000000E+03  0.50000000000E+03  0.00000000000E+00 0.  1.
         11   -1    0    0    0    0 -0.00000000000E+00 -0.00000000000E+00 -0.50000000000E+03  0.50000000000E+03  0.00000000000E+00 0. -1.
        -11    1    1    2    0    0 -0.16419424839E+02 -0.15160122794E+02  0.46800162038E+03  0.46853489040E+03  0.00000000000E+00 0.  1.
         11    1    1    2    0    0  0.18896518265E+02 -0.17388639596E+02 -0.49027568982E+03  0.49094775202E+03  0.00000000000E+00 0. -1.
        -15    1    1    2    0    0  0.25939583856E+01  0.97105414986E+01  0.48953089593E+01  0.11320115508E+02  0.17770000000E+01 0. -1.
         15    1    1    2    0    0 -0.50710518121E+01  0.22838220892E+02  0.17378760475E+02  0.29197242073E+02  0.17770000000E+01 0.  1.
</event>
<event>
 6    1  0.6394569E-004  0.5039075E+03  0.7546771E-02  0.9391108E-01
        -11   -1    0    0    0    0  0.00000000000E+00  0.00000000000E+00  0.50000000000E+03  0.50000000000E+03  0.00000000000E+00 0.  1.
         11   -1    0    0    0    0 -0.00000000000E+00 -0.00000000000E+00 -0.50000000000E+03  0.50000000000E+03  0.00000000000E+00 0.  1.
        -11    1    1    2    0    0 -0.15396207097E+02 -0.29859508379E+01  0.46482470746E+03  0.46508920409E+03  0.00000000000E+00 0.  1.
         11    1    1    2    0    0  0.51288600400E+01 -0.79197007169E+01 -0.49600271877E+03  0.49609245498E+03  0.00000000000E+00 0.  1.
        -15    1    1    2    0    0  0.78557870631E+01 -0.19938309563E+01  0.55843151757E+01  0.10001552742E+02  0.17770000000E+01 0. -1.
         15    1    1    2    0    0  0.24115599936E+01  0.12899482511E+02  0.25593696136E+02  0.28816788189E+02  0.17770000000E+01 0.  1.
</event>
<event>
 6    1  0.6394569E-004  0.5000364E+03  0.7546771E-02  0.9399728E-01
        -11   -1    0    0    0    0  0.00000000000E+00  0.00000000000E+00  0.50000000000E+03  0.50000000000E+03  0.00000000000E+00 0. -1.
         11   -1    0    0    0    0 -0.00000000000E+00 -0.00000000000E+00 -0.50000000000E+03  0.50000000000E+03  0.00000000000E+00 0.  1.
        -11    1    1    2    0    0 -0.76709614230E+00 -0.12395347526E+02  0.49980931536E+03  0.49996358347E+03  0.00000000000E+00 0. -1.
         11    1    1    2    0    0  0.19037378199E+01  0.22012882342E+01 -0.17859257908E+03  0.17861629039E+03  0.00000000000E+00 0.  1.
        -15    1    1    2    0    0 -0.18161131726E+00  0.85919648243E+01 -0.26311419191E+03  0.26326049942E+03  0.17770000000E+01 0.  1.
         15    1    1    2    0    0 -0.95503036036E+00  0.16020944677E+01 -0.58102544364E+02  0.58159626721E+02  0.17770000000E+01 0.  1.
</event>
<event>
 6    1  0.6394569E-004  0.5003086E+03  0.7546771E-02  0.9399119E-01
        -11   -1    0    0    0    0  0.00000000000E+00  0.00000000000E+00  0.50000000000E+03  0.50000000000E+03  0.00000000000E+00 0.  1.
         11   -1    0    0    0    0 -0.00000000000E+00 -0.00000000000E+00 -0.50000000000E+03  0.50000000000E+03  0.00000000000E+00 0.  1.
        -11    1    1    2    0    0 -0.64028950415E+01  0.18652907556E+01  0.38920433695E+03  0.38926147031E+03  0.00000000000E+00 0.  1.
         11    1    1    2    0    0  0.33241270946E+01  0.76657197480E+01 -0.49962152021E+03  0.49969138130E+03  0.00000000000E+00 0.  1.
        -15    1    1    2    0    0  0.43263385607E+00 -0.55058335800E+01  0.37150388008E+02  0.37600670654E+02  0.17770000000E+01 0. -1.
         15    1    1    2    0    0  0.26461340908E+01 -0.40251769236E+01  0.73266795261E+02  0.73446477735E+02  0.17770000000E+01 0.  1.
</event>
<event>
 6    1  0.6394569E-004  0.5002392E+03  0.7546771E-02  0.9399275E-01
        -11   -1    0    0    0    0  0.00000000000E+00  0.00000000000E+00  0.50000000000E+03  0.50000000000E+03  0.00000000000E+00 0. -1.
         11   -1    0    0    0    0 -0.00000000000E+00 -0.00000000000E+00 -0.50000000000E+03  0.50000000000E+03  0.00000000000E+00 0.  1.
        -11    1    1    2    0    0  0.71297475225E+02  0.15500521378E+02  0.44662660554E+03  0.45254714772E+03  0.00000000000E+00 0. -1.
         11    1    1    2    0    0 -0.79794879533E+02 -0.21833072045E+02 -0.49286606754E+03  0.49976080915E+03  0.00000000000E+00 0.  1.
        -15    1    1    2    0    0  0.57966500180E+01  0.57687157724E+01  0.34708842647E+02  0.35703511312E+02  0.17770000000E+01 0.  1.
         15    1    1    2    0    0  0.27007542904E+01  0.56383489484E+00  0.11530619347E+02  0.11988531814E+02  0.17770000000E+01 0.  1.
</event>
<event>
 6    1  0.6394569E-004  0.5001456E+03  0.7546771E-02  0.9399484E-01
        -11   -1    0    0    0    0  0.00000000000E+00  0.00000000000E+00  0.50000000000E+03  0.50000000000E+03  0.00000000000E+00 0.  1.
         11   -1    0    0    0    0 -0.00000000000E+00 -0.00000000000E+00 -0.50000000000E+03  0.50000000000E+03  0.00000000000E+00 0. -1.
        -11    1    1    2    0    0 -0.72130106400E+01  0.16909030364E+02  0.49951622809E+03  0.49985438376E+03  0.00000000000E+00 0.  1.
         11    1    1    2    0    0 -0.30985218483E+01 -0.23805800291E+01 -0.94061126450E+02  0.94142251450E+02  0.00000000000E+00 0. -1.
        -15    1    1    2    0    0  0.39581560570E+01 -0.13389040480E+02 -0.23940953330E+03  0.23982288416E+03  0.17770000000E+01 0.  1.
         15    1    1    2    0    0  0.63533764313E+01 -0.11394098551E+01 -0.16604556835E+03  0.16618048063E+03  0.17770000000E+01 0. -1.
</event>
<event>
 6    1  0.6394569E-004  0.5025496E+03  0.7546771E-02  0.9394123E-01
        -11   -1    0    0    0    0  0.00000000000E+00  0.00000000000E+00  0.50000000000E+03  0.50000000000E+03  0.00000000000E+00 0. -1.
         11   -1    0    0    0    0 -0.00000000000E+00 -0.00000000000E+00 -0.50000000000E+03  0.50000000000E+03  0.00000000000E+00 0.  1.
        -11    1    1    2    0    0 -0.75479494055E+01  0.21455915544E+02  0.49693019856E+03  0.49745044988E+03  0.00000000000E+00 0. -1.
         11    1    1    2    0    0 -0.17133396584E+02 -0.62107607275E+01 -0.41181207054E+03  0.41221512378E+03  0.00000000000E+00 0.  1.
        -15    1    1    2    0    0  0.11692363121E+02 -0.11173035897E+02 -0.40275087008E+02  0.43437178189E+02  0.17770000000E+01 0.  1.
         15    1    1    2    0    0  0.12988982868E+02 -0.40721189201E+01 -0.44843041004E+02  0.46897248149E+02  0.17770000000E+01 0. -1.
</event>
<event>
 6    1  0.6394569E-004  0.5087059E+03  0.7546771E-02  0.9380538E-01
        -11   -1    0    0    0    0  0.00000000000E+00  0.00000000000E+00  0.50000000000E+03  0.50000000000E+03  0.00000000000E+00 0.  1.
         11   -1    0    0    0    0 -0.00000000000E+00 -0.00000000000E+00 -0.50000000000E+03  0.50000000000E+03  0.00000000000E+00 0. -1.
        -11    1    1    2    0    0  0.13323924725E+02  0.17968214141E+02  0.49078461456E+03  0.49129412939E+03  0.00000000000E+00 0.  1.
         11    1    1    2    0    0 -0.28705494959E+02  0.18127556594E+02 -0.44787015959E+03  0.44915508858E+03  0.00000000000E+00 0. -1.
        -15    1    1    2    0    0  0.51454851245E+01 -0.16311442332E+02 -0.10395036016E+02  0.20093622643E+02  0.17770000000E+01 0. -1.
         15    1    1    2    0    0  0.10236085109E+02 -0.19784328403E+02 -0.32519418951E+02  0.39457159383E+02  0.17770000000E+01 0.  1.
</event>
<event>
 6    1  0.6394569E-004  0.5002370E+03  0.7546771E-02  0.9399279E-01
        -11   -1    0    0    0    0  0.00000000000E+00  0.00000000000E+00  0.50000000000E+03  0.50000000000E+03  0.00000000000E+00 0.  1.
         11   -1    0    0    0    0 -0.00000000000E+00 -0.00000000000E+00 -0.50000000000E+03  0.50000000000E+03  0.00000000000E+00 0. -1.
        -11    1    1    2    0    0 -0.40589870094E+01  0.36486770234E+02  0.49841273463E+03  0.49976295763E+03  0.00000000000E+00 0.  1.
         11    1    1    2    0    0 -0.18588198124E+01 -0.31485701330E+00 -0.49633623608E+02  0.49669416531E+02  0.00000000000E+00 0. -1.
        -15    1    1    2    0    0  0.38666514202E+01 -0.54047851796E+01 -0.37161620158E+02  0.37792941640E+02  0.17770000000E+01 0.  1.
         15    1    1    2    0    0  0.20511554016E+01 -0.30767128042E+02 -0.41161749086E+03  0.41277468420E+03  0.17770000000E+01 0. -1.
</event>
<event>
 6    1  0.6394569E-004  0.5054231E+03  0.7546771E-02  0.9387756E-01
        -11   -1    0    0    0    0  0.00000000000E+00  0.00000000000E+00  0.50000000000E+03  0.50000000000E+03  0.00000000000E+00 0.  1.
         11   -1    0    0    0    0 -0.00000000000E+00 -0.00000000000E+00 -0.50000000000E+03  0.50000000000E+03  0.00000000000E+00 0. -1.
        -11    1    1    2    0    0 -0.51480006729E+02 -0.43448178470E+01  0.49187117859E+03  0.49457691501E+03  0.00000000000E+00 0.  1.
         11    1    1    2    0    0  0.33184334105E+01 -0.97145017037E+01 -0.38956557944E+03  0.38970081374E+03  0.00000000000E+00 0. -1.
        -15    1    1    2    0    0  0.22963573592E+02  0.74051305781E+01 -0.70664913123E+02  0.74691695300E+02  0.17770000000E+01 0. -1.
         15    1    1    2    0    0  0.25197999726E+02  0.66541889726E+01 -0.31640686028E+02  0.41030575946E+02  0.17770000000E+01 0.  1.
</event>
<event>
 6    1  0.6394569E-004  0.5012077E+03  0.7546771E-02  0.9397112E-01
        -11   -1    0    0    0    0  0.00000000000E+00  0.00000000000E+00  0.50000000000E+03  0.50000000000E+03  0.00000000000E+00 0.  1.
         11   -1    0    0    0    0 -0.00000000000E+00 -0.00000000000E+00 -0.50000000000E+03  0.50000000000E+03  0.00000000000E+00 0. -1.
        -11    1    1    2    0    0 -0.70672427196E+01  0.17439193564E+02  0.26907507302E+03  0.26973221223E+03  0.00000000000E+00 0.  1.
         11    1    1    2    0    0  0.82389629393E+01 -0.14167670354E+01 -0.49872227220E+03  0.49879233407E+03  0.00000000000E+00 0. -1.
        -15    1    1    2    0    0  0.32860227629E+01 -0.55975849868E+00  0.15702517045E+03  0.15707059928E+03  0.17770000000E+01 0.  1.
         15    1    1    2    0    0 -0.44577429825E+01 -0.15462668030E+02  0.72622028731E+02  0.74404854419E+02  0.17770000000E+01 0. -1.
</event>
<event>
 6    1  0.6394569E-004  0.5025120E+03  0.7546771E-02  0.9394206E-01
        -11   -1    0    0    0    0  0.00000000000E+00  0.00000000000E+00  0.50000000000E+03  0.50000000000E+03  0.00000000000E+00 0.  1.
         11   -1    0    0    0    0 -0.00000000000E+00 -0.00000000000E+00 -0.50000000000E+03  0.50000000000E+03  0.00000000000E+00 0. -1.
        -11    1    1    2    0    0 -0.24642685437E+02  0.94569136711E+01  0.36149455127E+03  0.36245690193E+03  0.00000000000E+00 0.  1.
         11    1    1    2    0    0 -0.72234829218E+01 -0.68370558829E+01 -0.49738860895E+03  0.49748804243E+03  0.00000000000E+00 0. -1.
        -15    1    1    2    0    0  0.72236949051E+01 -0.47971281802E+01  0.28970742423E+02  0.30292835001E+02  0.17770000000E+01 0.  1.
         15    1    1    2    0    0  0.24642473453E+02  0.21772703920E+01  0.10692331526E+03  0.10976222064E+03  0.17770000000E+01 0. -1.
</event>
<event>
 6    1  0.6394569E-004  0.5161095E+03  0.7546771E-02  0.9364468E-01
        -11   -1    0    0    0    0  0.00000000000E+00  0.00000000000E+00  0.50000000000E+03  0.50000000000E+03  0.00000000000E+00 0. -1.
         11   -1    0    0    0    0 -0.00000000000E+00 -0.00000000000E+00 -0.50000000000E+03  0.50000000000E+03  0.00000000000E+00 0. -1.
        -11    1    1    2    0    0  0.49932910962E+02 -0.39582897408E+02 -0.53118538968E+02  0.82955895188E+02  0.00000000000E+00 0. -1.
         11    1    1    2    0    0 -0.38797639167E+02  0.33940783467E+02 -0.43007532099E+03  0.43315357013E+03  0.00000000000E+00 0. -1.
        -15    1    1    2    0    0 -0.77076279990E+01 -0.80608939905E+01  0.17125512066E+03  0.17162709467E+03  0.17770000000E+01 0.  1.
         15    1    1    2    0    0 -0.34276437967E+01  0.13703007931E+02  0.31193873930E+03  0.31226344002E+03  0.17770000000E+01 0. -1.
</event>
<event>
 6    1  0.6394569E-004  0.5028956E+03  0.7546771E-02  0.9393354E-01
        -11   -1    0    0    0    0  0.00000000000E+00  0.00000000000E+00  0.50000000000E+03  0.50000000000E+03  0.00000000000E+00 0. -1.
         11   -1    0    0    0    0 -0.00000000000E+00 -0.00000000000E+00 -0.50000000000E+03  0.50000000000E+03  0.00000000000E+00 0.  1.
        -11    1    1    2    0    0 -0.85433583275E+01 -0.13539237461E+02  0.47701260198E+03  0.47728117747E+03  0.00000000000E+00 0. -1.
         11    1    1    2    0    0  0.42263038913E+01  0.63756293053E+01 -0.49704557351E+03  0.49710442810E+03  0.00000000000E+00 0.  1.
        -15    1    1    2    0    0  0.60173388842E+01  0.76624484048E+01  0.20760404130E+02  0.23001599758E+02  0.17770000000E+01 0.  1.
         15    1    1    2    0    0 -0.17002844481E+01 -0.49884024920E+00 -0.72743260287E+00  0.26127946705E+01  0.17770000000E+01 0. -1.
</event>
<event>
 6    1  0.6394569E-004  0.4861139E+03  0.7546771E-02  0.9431428E-01
        -11   -1    0    0    0    0  0.00000000000E+00  0.00000000000E+00  0.50000000000E+03  0.50000000000E+03  0.00000000000E+00 0. -1.
         11   -1    0    0    0    0 -0.00000000000E+00 -0.00000000000E+00 -0.50000000000E+03  0.50000000000E+03  0.00000000000E+00 0. -1.
        -11    1    1    2    0    0  0.73448812657E+01 -0.11619943953E+02  0.48904448966E+03  0.48923765518E+03  0.00000000000E+00 0. -1.
         11    1    1    2    0    0 -0.41941465331E+01 -0.72876114888E+01 -0.48312392139E+03  0.48319708564E+03  0.00000000000E+00 0. -1.
        -15    1    1    2    0    0 -0.80208311273E+01  0.17626807490E+02  0.19258121036E+00  0.19448210477E+02  0.17770000000E+01 0.  1.
         15    1    1    2    0    0  0.48700963948E+01  0.12807479517E+01 -0.61131494770E+01  0.81170487086E+01  0.17770000000E+01 0. -1.
</event>
<event>
 6    1  0.6394569E-004  0.4878173E+03  0.7546771E-02  0.9427490E-01
        -11   -1    0    0    0    0  0.00000000000E+00  0.00000000000E+00  0.50000000000E+03  0.50000000000E+03  0.00000000000E+00 0.  1.
         11   -1    0    0    0    0 -0.00000000000E+00 -0.00000000000E+00 -0.50000000000E+03  0.50000000000E+03  0.00000000000E+00 0. -1.
        -11    1    1    2    0    0  0.14861747768E+02  0.68419389577E+01  0.48372857434E+03  0.48400518314E+03  0.00000000000E+00 0.  1.
         11    1    1    2    0    0 -0.66773075543E+00  0.66976261742E+01 -0.49181412600E+03  0.49186018195E+03  0.00000000000E+00 0. -1.
        -15    1    1    2    0    0 -0.67493906370E+01 -0.28439395408E-01  0.94489969756E+00  0.70431276581E+01  0.17770000000E+01 0. -1.
         15    1    1    2    0    0 -0.74446263753E+01 -0.13511125736E+02  0.71406519628E+01  0.17091507247E+02  0.17770000000E+01 0.  1.
</event>
<event>
 6    1  0.6394569E-004  0.5004144E+03  0.7546771E-02  0.9398883E-01
        -11   -1    0    0    0    0  0.00000000000E+00  0.00000000000E+00  0.50000000000E+03  0.50000000000E+03  0.00000000000E+00 0. -1.
         11   -1    0    0    0    0 -0.00000000000E+00 -0.00000000000E+00 -0.50000000000E+03  0.50000000000E+03  0.00000000000E+00 0. -1.
        -11    1    1    2    0    0 -0.11030520780E+02 -0.29335251753E+01  0.49945517281E+03  0.49958557586E+03  0.00000000000E+00 0. -1.
         11    1    1    2    0    0 -0.42024476795E+01  0.46714958571E+01 -0.25126707853E+03  0.25134563491E+03  0.00000000000E+00 0. -1.
        -15    1    1    2    0    0  0.11987036363E+02 -0.70591109855E+00 -0.87847301930E+02  0.88681979774E+02  0.17770000000E+01 0.  1.
         15    1    1    2    0    0  0.32459320962E+01 -0.10320595833E+01 -0.16034079236E+03  0.16038680945E+03  0.17770000000E+01 0. -1.
</event>
<event>
 6    1  0.6394569E-004  0.5049859E+03  0.7546771E-02  0.9388722E-01
        -11   -1    0    0    0    0  0.00000000000E+00  0.00000000000E+00  0.50000000000E+03  0.50000000000E+03  0.00000000000E+00 0. -1.
         11   -1    0    0    0    0 -0.00000000000E+00 -0.00000000000E+00 -0.50000000000E+03  0.50000000000E+03  0.00000000000E+00 0.  1.
        -11    1    1    2    0    0 -0.15689731845E+00 -0.97886057920E+01  0.48197037021E+03  0.48206978663E+03  0.00000000000E+00 0. -1.
         11    1    1    2    0    0  0.13275881757E+02  0.15212597674E+01 -0.49483368732E+03  0.49501408199E+03  0.00000000000E+00 0.  1.
        -15    1    1    2    0    0  0.83821672592E+00  0.25885077246E+01  0.38719518494E+00  0.32727096772E+01  0.17770000000E+01 0. -1.
         15    1    1    2    0    0 -0.13957201165E+02  0.56788383000E+01  0.12476121919E+02  0.19643421696E+02  0.17770000000E+01 0.  1.
</event>
<event>
 6    1  0.6394569E-004  0.5003312E+03  0.7546771E-02  0.9399069E-01
        -11   -1    0    0    0    0  0.00000000000E+00  0.00000000000E+00  0.50000000000E+03  0.50000000000E+03  0.00000000000E+00 0. -1.
         11   -1    0    0    0    0 -0.00000000000E+00 -0.00000000000E+00 -0.50000000000E+03  0.50000000000E+03  0.00000000000E+00 0.  1.
        -11    1    1    2    0    0 -0.12773725520E+02  0.79222505189E+01  0.16534949008E+03  0.16603127412E+03  0.00000000000E+00 0. -1.
         11    1    1    2    0    0  0.88787708074E+01 -0.10017699922E+02 -0.49948950658E+03  0.49966884440E+03  0.00000000000E+00 0.  1.
        -15    1    1    2    0    0  0.61614608884E+01  0.30962677140E+01  0.25934759041E+03  0.25944533307E+03  0.17770000000E+01 0. -1.
         15    1    1    2    0    0 -0.22665061758E+01 -0.10008183113E+01  0.74792426092E+02  0.74854548407E+02  0.17770000000E+01 0. -1.
</event>
<event>
 6    1  0.6394569E-004  0.5013074E+03  0.7546771E-02  0.9396889E-01
        -11   -1    0    0    0    0  0.00000000000E+00  0.00000000000E+00  0.50000000000E+03  0.50000000000E+03  0.00000000000E+00 0. -1.
         11   -1    0    0    0    0 -0.00000000000E+00 -0.00000000000E+00 -0.50000000000E+03  0.50000000000E+03  0.00000000000E+00 0.  1.
        -11    1    1    2    0    0  0.19103831791E+02  0.16551600412E+02  0.49805156115E+03  0.49869256003E+03  0.00000000000E+00 0. -1.
         11    1    1    2    0    0  0.42089505656E+01  0.88051576498E+01 -0.29223016098E+03  0.29239307970E+03  0.00000000000E+00 0.  1.
        -15    1    1    2    0    0 -0.95991458978E+01 -0.53421123379E+01 -0.51629532810E+02  0.52815226530E+02  0.17770000000E+01 0.  1.
         15    1    1    2    0    0 -0.13713636459E+02 -0.20014645724E+02 -0.15419186736E+03  0.15609913375E+03  0.17770000000E+01 0. -1.
</event>
<event>
 6    1  0.6394569E-004  0.5005455E+03  0.7546771E-02  0.9398590E-01
        -11   -1    0    0    0    0  0.00000000000E+00  0.00000000000E+00  0.50000000000E+03  0.50000000000E+03  0.00000000000E+00 0. -1.
         11   -1    0    0    0    0 -0.00000000000E+00 -0.00000000000E+00 -0.50000000000E+03  0.50000000000E+03  0.00000000000E+00 0.  1.
        -11    1    1    2    0    0  0.76001825838E+01  0.68847131213E+01  0.49934916399E+03  0.49945445201E+03  0.00000000000E+00 0. -1.
         11    1    1    2    0    0 -0.51232153411E+01 -0.54386914035E+01 -0.43559197455E+03  0.43565605125E+03  0.00000000000E+00 0.  1.
        -15    1    1    2    0    0  0.27981847719E+01 -0.36927259192E-01 -0.48074938526E+02  0.48189092593E+02  0.17770000000E+01 0. -1.
         15    1    1    2    0    0 -0.52751520146E+01 -0.14090944586E+01 -0.15682250915E+02  0.16700404149E+02  0.17770000000E+01 0. -1.
</event>
<event>
 6    1  0.6394569E-004  0.5037021E+03  0.7546771E-02  0.9391564E-01
        -11   -1    0    0    0    0  0.00000000000E+00  0.00000000000E+00  0.50000000000E+03  0.50000000000E+03  0.00000000000E+00 0. -1.
         11   -1    0    0    0    0 -0.00000000000E+00 -0.00000000000E+00 -0.50000000000E+03  0.50000000000E+03  0.00000000000E+00 0. -1.
        -11    1    1    2    0    0 -0.11198190121E+02 -0.10399191997E+02  0.41268595044E+03  0.41296880795E+03  0.00000000000E+00 0. -1.
         11    1    1    2    0    0 -0.77975364406E+01  0.17346759798E+02 -0.49593337064E+03  0.49629791432E+03  0.00000000000E+00 0. -1.
        -15    1    1    2    0    0  0.92201075401E+01 -0.14607805546E+02  0.21075321593E+02  0.27307970909E+02  0.17770000000E+01 0.  1.
         15    1    1    2    0    0  0.97756190218E+01  0.76602377447E+01  0.62172098611E+02  0.63425306812E+02  0.17770000000E+01 0. -1.
</event>
<event>
 6    1  0.6394569E-004  0.5101686E+03  0.7546771E-02  0.9377340E-01
        -11   -1    0    0    0    0  0.00000000000E+00  0.00000000000E+00  0.50000000000E+03  0.50000000000E+03  0.00000000000E+00 0.  1.
         11   -1    0    0    0    0 -0.00000000000E+00 -0.00000000000E+00 -0.50000000000E+03  0.50000000000E+03  0.00000000000E+00 0. -1.
        -11    1    1    2    0    0  0.27409637130E+02 -0.29155566904E+02 -0.30285697759E+02  0.50185244623E+02  0.00000000000E+00 0.  1.
         11    1    1    2    0    0 -0.21594340799E+02  0.15349574124E+02 -0.45921972406E+03  0.45998334747E+03  0.00000000000E+00 0. -1.
        -15    1    1    2    0    0 -0.19008122946E-01  0.10335806467E+02  0.24146722540E+03  0.24169486533E+03  0.17770000000E+01 0. -1.
         15    1    1    2    0    0 -0.57962882084E+01  0.34701863126E+01  0.24803819642E+03  0.24813654258E+03  0.17770000000E+01 0.  1.
</event>
<event>
 6    1  0.6394569E-004  0.5007369E+03  0.7546771E-02  0.9398162E-01
        -11   -1    0    0    0    0  0.00000000000E+00  0.00000000000E+00  0.50000000000E+03  0.50000000000E+03  0.00000000000E+00 0.  1.
         11   -1    0    0    0    0 -0.00000000000E+00 -0.00000000000E+00 -0.50000000000E+03  0.50000000000E+03  0.00000000000E+00 0. -1.
        -11    1    1    2    0    0  0.19895139326E+01  0.13932822311E+02  0.49906472875E+03  0.49926314222E+03  0.00000000000E+00 0.  1.
         11    1    1    2    0    0 -0.37866051432E+01  0.64997663445E+01 -0.31601088795E+03  0.31610040596E+03  0.00000000000E+00 0. -1.
        -15    1    1    2    0    0  0.45193120739E+00 -0.12647053842E+02 -0.15226731926E+03  0.15280263890E+03  0.17770000000E+01 0. -1.
         15    1    1    2    0    0  0.13451600032E+01 -0.77855348130E+01 -0.30786521534E+02  0.31833812918E+02  0.17770000000E+01 0.  1.
</event>
<event>
 6    1  0.6394569E-004  0.5036379E+03  0.7546771E-02  0.9391706E-01
        -11   -1    0    0    0    0  0.00000000000E+00  0.00000000000E+00  0.50000000000E+03  0.50000000000E+03  0.00000000000E+00 0.  1.
         11   -1    0    0    0    0 -0.00000000000E+00 -0.00000000000E+00 -0.50000000000E+03  0.50000000000E+03  0.00000000000E+00 0. -1.
        -11    1    1    2    0    0 -0.10205886020E+02 -0.37780559884E+02  0.17478259093E+03  0.17911025908E+03  0.00000000000E+00 0.  1.
         11    1    1    2    0    0  0.39550077264E+00  0.29337761961E+02 -0.49549416844E+03  0.49636209732E+03  0.00000000000E+00 0. -1.
        -15    1    1    2    0    0  0.35156109372E+01 -0.16205780673E+02  0.52007719985E+02  0.54616366727E+02  0.17770000000E+01 0.  1.
         15    1    1    2    0    0  0.62947743106E+01  0.24648578596E+02  0.26870385752E+03  0.26991127688E+03  0.17770000000E+01 0. -1.
</event>
<event>
 6    1  0.6394569E-004  0.5034082E+03  0.7546771E-02  0.9392216E-01
        -11   -1    0    0    0    0  0.00000000000E+00  0.00000000000E+00  0.50000000000E+03  0.50000000000E+03  0.00000000000E+00 0. -1.
         11   -1    0    0    0    0 -0.00000000000E+00 -0.00000000000E+00 -0.50000000000E+03  0.50000000000E+03  0.00000000000E+00 0. -1.
        -11    1    1    2    0    0  0.33982424510E+02  0.17682510484E+02  0.31681491382E+03  0.31912249368E+03  0.00000000000E+00 0. -1.
         11    1    1    2    0    0 -0.49159948592E+01 -0.11982343789E+02 -0.49642283532E+03  0.49659175889E+03  0.00000000000E+00 0. -1.
        -15    1    1    2    0    0 -0.14826037390E+02  0.46702491352E+01  0.14035546993E+03  0.14122477927E+03  0.17770000000E+01 0.  1.
         15    1    1    2    0    0 -0.14240392261E+02 -0.10370415830E+02  0.39252451565E+02  0.43060968163E+02  0.17770000000E+01 0. -1.
</event>
<event>
 6    1  0.6394569E-004  0.5007330E+03  0.7546771E-02  0.9398171E-01
        -11   -1    0    0    0    0  0.00000000000E+00  0.00000000000E+00  0.50000000000E+03  0.50000000000E+03  0.00000000000E+00 0. -1.
         11   -1    0    0    0    0 -0.00000000000E+00 -0.00000000000E+00 -0.50000000000E+03  0.50000000000E+03  0.00000000000E+00 0. -1.
        -11    1    1    2    0    0  0.53458944111E+01 -0.53452979627E+01  0.45563360210E+03  0.45569631352E+03  0.00000000000E+00 0. -1.
         11    1    1    2    0    0  0.42029973550E+01  0.59865740023E+01 -0.49921346341E+03  0.49926704908E+03  0.00000000000E+00 0. -1.
        -15    1    1    2    0    0 -0.72698103619E+00 -0.12437467953E+01  0.10727355460E+02  0.10968559235E+02  0.17770000000E+01 0. -1.
         15    1    1    2    0    0 -0.88219107299E+01  0.60247075562E+00  0.32852505850E+02  0.34068078160E+02  0.17770000000E+01 0.  1.
</event>
<event>
 6    1  0.6394569E-004  0.5001286E+03  0.7546771E-02  0.9399522E-01
        -11   -1    0    0    0    0  0.00000000000E+00  0.00000000000E+00  0.50000000000E+03  0.50000000000E+03  0.00000000000E+00 0.  1.
         11   -1    0    0    0    0 -0.00000000000E+00 -0.00000000000E+00 -0.50000000000E+03  0.50000000000E+03  0.00000000000E+00 0.  1.
        -11    1    1    2    0    0 -0.19734001913E+01 -0.95555815345E+01  0.49977619226E+03  0.49987142926E+03  0.00000000000E+00 0.  1.
         11    1    1    2    0    0  0.45795683162E+01  0.11795994955E+01 -0.23456490566E+03  0.23461257185E+03  0.00000000000E+00 0.  1.
        -15    1    1    2    0    0  0.77722717099E-01  0.15793903549E+01 -0.14648082098E+02  0.14839964719E+02  0.17770000000E+01 0. -1.
         15    1    1    2    0    0 -0.26838908420E+01  0.67965916842E+01 -0.25056320450E+03  0.25067603417E+03  0.17770000000E+01 0.  1.
</event>
<event>
 6    1  0.6394569E-004  0.5000878E+03  0.7546771E-02  0.9399613E-01
        -11   -1    0    0    0    0  0.00000000000E+00  0.00000000000E+00  0.50000000000E+03  0.50000000000E+03  0.00000000000E+00 0.  1.
         11   -1    0    0    0    0 -0.00000000000E+00 -0.00000000000E+00 -0.50000000000E+03  0.50000000000E+03  0.00000000000E+00 0. -1.
        -11    1    1    2    0    0  0.40020133379E+01 -0.92188135660E+01  0.16684511190E+03  0.16714752167E+03  0.00000000000E+00 0.  1.
         11    1    1    2    0    0 -0.11120445175E+02  0.11572833537E+02 -0.49965447952E+03  0.49991218597E+03  0.00000000000E+00 0. -1.
        -15    1    1    2    0    0  0.58587196685E+01 -0.83536554618E+00  0.17597683216E+03  0.17608527939E+03  0.17770000000E+01 0.  1.
         15    1    1    2    0    0  0.12597121683E+01 -0.15186544245E+01  0.15683253546E+03  0.15685501297E+03  0.17770000000E+01 0.  1.
</event>
<event>
 6    1  0.6394569E-004  0.4859451E+03  0.7546771E-02  0.9431820E-01
        -11   -1    0    0    0    0  0.00000000000E+00  0.00000000000E+00  0.50000000000E+03  0.50000000000E+03  0.00000000000E+00 0. -1.
         11   -1    0    0    0    0 -0.00000000000E+00 -0.00000000000E+00 -0.50000000000E+03  0.50000000000E+03  0.00000000000E+00 0. -1.
        -11    1    1    2    0    0 -0.26970474956E+02  0.10011065059E+02  0.48698133808E+03  0.48783035123E+03  0.00000000000E+00 0. -1.
         11    1    1    2    0    0  0.10241188796E+02  0.40637141673E+01 -0.48418432384E+03  0.48430966867E+03  0.00000000000E+00 0. -1.
        -15    1    1    2    0    0  0.88350988263E+01 -0.97965037597E+01 -0.96369799045E+01  0.16433489218E+02  0.17770000000E+01 0.  1.
         15    1    1    2    0    0  0.78941873341E+01 -0.42782754666E+01  0.68399656658E+01  0.11426490885E+02  0.17770000000E+01 0. -1.
</event>
<event>
 6    1  0.6394569E-004  0.5024909E+03  0.7546771E-02  0.9394253E-01
        -11   -1    0    0    0    0  0.00000000000E+00  0.00000000000E+00  0.50000000000E+03  0.50000000000E+03  0.00000000000E+00 0.  1.
         11   -1    0    0    0    0 -0.00000000000E+00 -0.00000000000E+00 -0.50000000000E+03  0.50000000000E+03  0.00000000000E+00 0.  1.
        -11    1    1    2    0    0 -0.11010368572E+02  0.18135959271E+02  0.43205092887E+03  0.43257155058E+03  0.00000000000E+00 0.  1.
         11    1    1    2    0    0 -0.66865749860E+01 -0.36651489865E+01 -0.49745069233E+03  0.49750913047E+03  0.00000000000E+00 0.  1.
        -15    1    1    2    0    0  0.47303343135E+01 -0.61642740380E+01  0.33735345189E+02  0.34664182973E+02  0.17770000000E+01 0.  1.
         15    1    1    2    0    0  0.12966609244E+02 -0.83065362467E+01  0.31664418264E+02  0.35255135976E+02  0.17770000000E+01 0. -1.
</event>
<event>
 6    1  0.6394569E-004  0.5034362E+03  0.7546771E-02  0.9392154E-01
        -11   -1    0    0    0    0  0.00000000000E+00  0.00000000000E+00  0.50000000000E+03  0.50000000000E+03  0.00000000000E+00 0. -1.
         11   -1    0    0    0    0 -0.00000000000E+00 -0.00000000000E+00 -0.50000000000E+03  0.50000000000E+03  0.00000000000E+00 0.  1.
        -11    1    1    2    0    0 -0.27590611372E+01 -0.17217340619E+02  0.20259183852E+02  0.26729829155E+02  0.00000000000E+00 0. -1.
         11    1    1    2    0    0  0.84638396356E+01  0.36263376214E+01 -0.49647837772E+03  0.49656375870E+03  0.00000000000E+00 0.  1.
        -15    1    1    2    0    0  0.24073352172E+01  0.71055863182E+01  0.85977609823E+02  0.86322602716E+02  0.17770000000E+01 0.  1.
         15    1    1    2    0    0 -0.81121137156E+01  0.64854166789E+01  0.39024158405E+03  0.39038380943E+03  0.17770000000E+01 0. -1.
</event>
<event>
 6    1  0.6394569E-004  0.5127727E+03  0.7546771E-02  0.9371675E-01
        -11   -1    0    0    0    0  0.00000000000E+00  0.00000000000E+00  0.50000000000E+03  0.50000000000E+03  0.00000000000E+00 0.  1.
         11   -1    0    0    0    0 -0.00000000000E+00 -0.00000000000E+00 -0.50000000000E+03  0.50000000000E+03  0.00000000000E+00 0.  1.
        -11    1    1    2    0    0  0.10433631127E+02 -0.25650309292E+02  0.48643972639E+03  0.48722726364E+03  0.00000000000E+00 0.  1.
         11    1    1    2    0    0  0.14212130758E+02 -0.73818670813E+01 -0.45377861786E+03  0.45406113096E+03  0.00000000000E+00 0.  1.
        -15    1    1    2    0    0 -0.11516597430E+02  0.76888052681E+01  0.16356395266E+01  0.14056414495E+02  0.17770000000E+01 0. -1.
         15    1    1    2    0    0 -0.13129164456E+02  0.25343371105E+02 -0.34296748053E+02  0.44655190900E+02  0.17770000000E+01 0.  1.
</event>
<event>
 6    1  0.6394569E-004  0.5071157E+03  0.7546771E-02  0.9384027E-01
        -11   -1    0    0    0    0  0.00000000000E+00  0.00000000000E+00  0.50000000000E+03  0.50000000000E+03  0.00000000000E+00 0. -1.
         11   -1    0    0    0    0 -0.00000000000E+00 -0.00000000000E+00 -0.50000000000E+03  0.50000000000E+03  0.00000000000E+00 0. -1.
        -11    1    1    2    0    0 -0.18043844166E+02  0.33916775180E+02  0.42903357244E+03  0.43075019934E+03  0.00000000000E+00 0. -1.
         11    1    1    2    0    0  0.50563738459E+02 -0.11573656984E+02 -0.49014719980E+03  0.49288428526E+03  0.00000000000E+00 0. -1.
        -15    1    1    2    0    0 -0.76169175594E+01 -0.14403807551E+02  0.38172169589E+02  0.41542259991E+02  0.17770000000E+01 0.  1.
         15    1    1    2    0    0 -0.24902976733E+02 -0.79393106451E+01  0.22941457776E+02  0.34823255414E+02  0.17770000000E+01 0. -1.
</event>
<event>
 6    1  0.6394569E-004  0.5050897E+03  0.7546771E-02  0.9388493E-01
        -11   -1    0    0    0    0  0.00000000000E+00  0.00000000000E+00  0.50000000000E+03  0.50000000000E+03  0.00000000000E+00 0.  1.
         11   -1    0    0    0    0 -0.00000000000E+00 -0.00000000000E+00 -0.50000000000E+03  0.50000000000E+03  0.00000000000E+00 0. -1.
        -11    1    1    2    0    0  0.77402743741E+01 -0.16420935068E+02  0.49457728890E+03  0.49491034911E+03  0.00000000000E+00 0.  1.
         11    1    1    2    0    0  0.14907098689E+02  0.21360375263E+01 -0.46217888115E+03  0.46242415857E+03  0.00000000000E+00 0. -1.
        -15    1    1    2    0    0 -0.14929752605E+02  0.60893369044E+01 -0.21129780736E+02  0.26638372693E+02  0.17770000000E+01 0. -1.
         15    1    1    2    0    0 -0.77176204581E+01  0.81955606377E+01 -0.11268627018E+02  0.16027119628E+02  0.17770000000E+01 0.  1.
</event>
<event>
 6    1  0.6394569E-004  0.5059953E+03  0.7546771E-02  0.9386494E-01
        -11   -1    0    0    0    0  0.00000000000E+00  0.00000000000E+00  0.50000000000E+03  0.50000000000E+03  0.00000000000E+00 0. -1.
         11   -1    0    0    0    0 -0.00000000000E+00 -0.00000000000E+00 -0.50000000000E+03  0.50000000000E+03  0.00000000000E+00 0.  1.
        -11    1    1    2    0    0 -0.11600433857E+02  0.19471811678E+00  0.48255324553E+03  0.48269270012E+03  0.00000000000E+00 0. -1.
         11    1    1    2    0    0  0.19325811268E+02  0.10772681141E+02 -0.49350897734E+03  0.49400470479E+03  0.00000000000E+00 0.  1.
        -15    1    1    2    0    0  0.24355083316E+01 -0.75005019529E+01  0.92551365233E+01  0.12288389294E+02  0.17770000000E+01 0.  1.
         15    1    1    2    0    0 -0.10160885743E+02 -0.34668973050E+01  0.17005952908E+01  0.11014205797E+02  0.17770000000E+01 0. -1.
</event>
<event>
 6    1  0.6394569E-004  0.4891068E+03  0.7546771E-02  0.9424520E-01
        -11   -1    0    0    0    0  0.00000000000E+00  0.00000000000E+00  0.50000000000E+03  0.50000000000E+03  0.00000000000E+00 0.  1.
         11   -1    0    0    0    0 -0.00000000000E+00 -0.00000000000E+00 -0.50000000000E+03  0.50000000000E+03  0.00000000000E+00 0. -1.
        -11    1    1    2    0    0 -0.63589252632E+01 -0.10247384107E+02  0.48602827504E+03  0.48617787789E+03  0.00000000000E+00 0.  1.
         11    1    1    2    0    0 -0.10103063663E+02  0.15373044438E+01 -0.49212580972E+03  0.49223190448E+03  0.00000000000E+00 0. -1.
        -15    1    1    2    0    0  0.12556920252E+02  0.48560523865E+01  0.76913796218E+01  0.15606810709E+02  0.17770000000E+01 0.  1.
         15    1    1    2    0    0  0.39050686732E+01  0.38540272767E+01 -0.15938449506E+01  0.59834069157E+01  0.17770000000E+01 0. -1.
</event>
<event>
 6    1  0.6394569E-004  0.5013679E+03  0.7546771E-02  0.9396754E-01
        -11   -1    0    0    0    0  0.00000000000E+00  0.00000000000E+00  0.50000000000E+03  0.50000000000E+03  0.00000000000E+00 0.  1.
         11   -1    0    0    0    0 -0.00000000000E+00 -0.00000000000E+00 -0.50000000000E+03  0.50000000000E+03  0.00000000000E+00 0. -1.
        -11    1    1    2    0    0  0.88221694380E+01 -0.32642590185E+01  0.49854332358E+03  0.49863206029E+03  0.00000000000E+00 0.  1.
         11    1    1    2    0    0 -0.51786815890E-01 -0.77754262966E+01 -0.44958150988E+03  0.44964874509E+03  0.00000000000E+00 0. -1.
        -15    1    1    2    0    0 -0.58818379194E+01  0.54857691171E+01 -0.14750910505E+02  0.16894874070E+02  0.17770000000E+01 0.  1.
         15    1    1    2    0    0 -0.28885447027E+01  0.55539161979E+01 -0.34210903193E+02  0.34824320552E+02  0.17770000000E+01 0. -1.
</event>
<event>
 6    1  0.6394569E-004  0.5006960E+03  0.7546771E-02  0.9398254E-01
        -11   -1    0    0    0    0  0.00000000000E+00  0.00000000000E+00  0.50000000000E+03  0.50000000000E+03  0.00000000000E+00 0.  1.
         11   -1    0    0    0    0 -0.00000000000E+00 -0.00000000000E+00 -0.50000000000E+03  0.50000000000E+03  0.00000000000E+00 0.  1.
        -11    1    1    2    0    0  0.10957654522E+02 -0.50279121340E+01  0.49915838335E+03  0.49930395728E+03  0.00000000000E+00 0.  1.
         11    1    1    2    0    0  0.40429014945E+00  0.76314723126E+01 -0.42869572173E+03  0.42876383319E+03  0.00000000000E+00 0.  1.
        -15    1    1    2    0    0 -0.10052964040E+02  0.44624407633E+00 -0.42181713388E+02  0.43401795967E+02  0.17770000000E+01 0.  1.
         15    1    1    2    0    0 -0.13089806316E+01 -0.30498042549E+01 -0.28280948231E+02  0.28530413564E+02  0.17770000000E+01 0. -1.
</event>
<event>
 6    1  0.6394569E-004  0.5070926E+03  0.7546771E-02  0.9384078E-01
        -11   -1    0    0    0    0  0.00000000000E+00  0.00000000000E+00  0.50000000000E+03  0.50000000000E+03  0.00000000000E+00 0.  1.
         11   -1    0    0    0    0 -0.00000000000E+00 -0.00000000000E+00 -0.50000000000E+03  0.50000000000E+03  0.00000000000E+00 0. -1.
        -11    1    1    2    0    0 -0.59766611324E+01 -0.97325259398E+01  0.49277506183E+03  0.49290739912E+03  0.00000000000E+00 0.  1.
         11    1    1    2    0    0 -0.15905814747E+02 -0.37049195395E+01 -0.46510721922E+03  0.46539386195E+03  0.00000000000E+00 0. -1.
        -15    1    1    2    0    0  0.18340811615E+02  0.15664820196E+02 -0.15541310106E+02  0.28748252317E+02  0.17770000000E+01 0.  1.
         15    1    1    2    0    0  0.35416642646E+01 -0.22273747166E+01 -0.12126532508E+02  0.12950486615E+02  0.17770000000E+01 0. -1.
</event>
<event>
 6    1  0.6394569E-004  0.5012090E+03  0.7546771E-02  0.9397109E-01
        -11   -1    0    0    0    0  0.00000000000E+00  0.00000000000E+00  0.50000000000E+03  0.50000000000E+03  0.00000000000E+00 0. -1.
         11   -1    0    0    0    0 -0.00000000000E+00 -0.00000000000E+00 -0.50000000000E+03  0.50000000000E+03  0.00000000000E+00 0. -1.
        -11    1    1    2    0    0  0.31183799697E+01 -0.80085481545E+01  0.14745761614E+02  0.17067472653E+02  0.00000000000E+00 0. -1.
         11    1    1    2    0    0 -0.61948817416E+01  0.27366378548E+01 -0.49874507031E+03  0.49879104935E+03  0.00000000000E+00 0. -1.
        -15    1    1    2    0    0 -0.25983935556E+01 -0.13948997173E+00  0.21183329488E+03  0.21185672907E+03  0.17770000000E+01 0. -1.
         15    1    1    2    0    0  0.56748953275E+01  0.54114002714E+01  0.27216601382E+03  0.27228474893E+03  0.17770000000E+01 0. -1.
</event>
<event>
 6    1  0.6394569E-004  0.5039161E+03  0.7546771E-02  0.9391090E-01
        -11   -1    0    0    0    0  0.00000000000E+00  0.00000000000E+00  0.50000000000E+03  0.50000000000E+03  0.00000000000E+00 0. -1.
         11   -1    0    0    0    0 -0.00000000000E+00 -0.00000000000E+00 -0.50000000000E+03  0.50000000000E+03  0.00000000000E+00 0.  1.
        -11    1    1    2    0    0  0.96919236160E+01 -0.31008842276E+02  0.40202571874E+03  0.40333628675E+03  0.00000000000E+00 0. -1.
         11    1    1    2    0    0 -0.13679151036E+02  0.31495690480E+02 -0.49489407052E+03  0.49608390291E+03  0.00000000000E+00 0.  1.
        -15    1    1    2    0    0 -0.34171414757E+01  0.15661819487E+02  0.68486610655E+02  0.70360095320E+02  0.17770000000E+01 0. -1.
         15    1    1    2    0    0  0.74043688957E+01 -0.16148667690E+02  0.24381741126E+02  0.30219715026E+02  0.17770000000E+01 0.  1.
</event>
<event>
 6    1  0.6394569E-004  0.5033411E+03  0.7546771E-02  0.9392365E-01
        -11   -1    0    0    0    0  0.00000000000E+00  0.00000000000E+00  0.50000000000E+03  0.50000000000E+03  0.00000000000E+00 0.  1.
         11   -1    0    0    0    0 -0.00000000000E+00 -0.00000000000E+00 -0.50000000000E+03  0.50000000000E+03  0.00000000000E+00 0. -1.
        -11    1    1    2    0    0  0.20101082274E+01  0.30378207232E+02  0.49572489302E+03  0.49665888251E+03  0.00000000000E+00 0.  1.
         11    1    1    2    0    0 -0.93125811367E+01  0.11386537329E+02 -0.26825299445E+03  0.26865600018E+03  0.00000000000E+00 0. -1.
        -15    1    1    2    0    0 -0.22328470284E+01  0.71034341022E+01 -0.38662485875E+02  0.39413067946E+02  0.17770000000E+01 0.  1.
         15    1    1    2    0    0  0.95353199377E+01 -0.48868178663E+02 -0.18880941270E+03  0.19527204937E+03  0.17770000000E+01 0. -1.
</event>
<event>
 6    1  0.6394569E-004  0.4670952E+03  0.7546771E-02  0.9476605E-01
        -11   -1    0    0    0    0  0.00000000000E+00  0.00000000000E+00  0.50000000000E+03  0.50000000000E+03  0.00000000000E+00 0.  1.
         11   -1    0    0    0    0 -0.00000000000E+00 -0.00000000000E+00 -0.50000000000E+03  0.50000000000E+03  0.00000000000E+00 0.  1.
        -11    1    1    2    0    0  0.16619224650E+02 -0.65806884460E+01  0.47708296359E+03  0.47741769786E+03  0.00000000000E+00 0.  1.
         11    1    1    2    0    0  0.13638616221E+02 -0.92446882372E+01 -0.45730886927E+03  0.45760559221E+03  0.00000000000E+00 0.  1.
        -15    1    1    2    0    0 -0.36209390421E+02  0.10485969753E+02  0.57464276367E+01  0.38174005238E+02  0.17770000000E+01 0. -1.
         15    1    1    2    0    0  0.59515495513E+01  0.53394069302E+01 -0.25520521958E+02  0.26802704685E+02  0.17770000000E+01 0.  1.
</event>
<event>
 6    1  0.6394569E-004  0.5005821E+03  0.7546771E-02  0.9398508E-01
        -11   -1    0    0    0    0  0.00000000000E+00  0.00000000000E+00  0.50000000000E+03  0.50000000000E+03  0.00000000000E+00 0.  1.
         11   -1    0    0    0    0 -0.00000000000E+00 -0.00000000000E+00 -0.50000000000E+03  0.50000000000E+03  0.00000000000E+00 0. -1.
        -11    1    1    2    0    0  0.40119723418E+01  0.61091649182E+01  0.49936436847E+03  0.49941785142E+03  0.00000000000E+00 0.  1.
         11    1    1    2    0    0 -0.77508138355E+01 -0.50321613464E+01 -0.44407836541E+03  0.44417450669E+03  0.00000000000E+00 0. -1.
        -15    1    1    2    0    0  0.11247098724E-01 -0.24468517104E+01 -0.44175876469E+01  0.53535053384E+01  0.17770000000E+01 0. -1.
         15    1    1    2    0    0  0.37275943950E+01  0.13698481386E+01 -0.50868415411E+02  0.51054136554E+02  0.17770000000E+01 0.  1.
</event>
<event>
 6    1  0.6394569E-004  0.5007213E+03  0.7546771E-02  0.9398197E-01
        -11   -1    0    0    0    0  0.00000000000E+00  0.00000000000E+00  0.50000000000E+03  0.50000000000E+03  0.00000000000E+00 0. -1.
         11   -1    0    0    0    0 -0.00000000000E+00 -0.00000000000E+00 -0.50000000000E+03  0.50000000000E+03  0.00000000000E+00 0. -1.
        -11    1    1    2    0    0  0.11527745780E+02  0.10344659718E+02  0.23646536693E+03  0.23697208837E+03  0.00000000000E+00 0. -1.
         11    1    1    2    0    0  0.77094024901E+01 -0.52304442978E+01 -0.49919180028E+03  0.49927872566E+03  0.00000000000E+00 0. -1.
        -15    1    1    2    0    0 -0.38563169951E+01  0.33902905739E+01  0.51733787797E+02  0.52018340802E+02  0.17770000000E+01 0. -1.
         15    1    1    2    0    0 -0.15380831275E+02 -0.85045059945E+01  0.21099264554E+03  0.21173084517E+03  0.17770000000E+01 0.  1.
</event>
<event>
 6    1  0.6394569E-004  0.5022957E+03  0.7546771E-02  0.9394687E-01
        -11   -1    0    0    0    0  0.00000000000E+00  0.00000000000E+00  0.50000000000E+03  0.50000000000E+03  0.00000000000E+00 0. -1.
         11   -1    0    0    0    0 -0.00000000000E+00 -0.00000000000E+00 -0.50000000000E+03  0.50000000000E+03  0.00000000000E+00 0. -1.
        -11    1    1    2    0    0 -0.78353488242E+01 -0.94778988700E-01  0.45903808079E+03  0.45910495672E+03  0.00000000000E+00 0. -1.
         11    1    1    2    0    0 -0.42477368033E+01 -0.66622256896E+01 -0.49764156737E+03  0.49770428780E+03  0.00000000000E+00 0. -1.
        -15    1    1    2    0    0  0.10424278882E+02 -0.11985334904E+00  0.14102936565E+02  0.17627549569E+02  0.17770000000E+01 0.  1.
         15    1    1    2    0    0  0.16588067456E+01  0.68768580273E+01  0.24500550016E+02  0.25563205907E+02  0.17770000000E+01 0. -1.
</event>
<event>
 6    1  0.6394569E-004  0.5003311E+03  0.7546771E-02  0.9399069E-01
        -11   -1    0    0    0    0  0.00000000000E+00  0.00000000000E+00  0.50000000000E+03  0.50000000000E+03  0.00000000000E+00 0.  1.
         11   -1    0    0    0    0 -0.00000000000E+00 -0.00000000000E+00 -0.50000000000E+03  0.50000000000E+03  0.00000000000E+00 0. -1.
        -11    1    1    2    0    0 -0.41260394067E+01 -0.29374180359E+01  0.28924404844E+03  0.28928838930E+03  0.00000000000E+00 0.  1.
         11    1    1    2    0    0 -0.90596204154E+01 -0.60138296194E+01 -0.49955057221E+03  0.49966890744E+03  0.00000000000E+00 0. -1.
        -15    1    1    2    0    0  0.41514434130E+00  0.26632965970E+01  0.33513800970E+02  0.33668948276E+02  0.17770000000E+01 0.  1.
         15    1    1    2    0    0  0.12770515481E+02  0.62879510584E+01  0.17679272279E+03  0.17737375498E+03  0.17770000000E+01 0. -1.
</event>
<event>
 6    1  0.6394569E-004  0.5003032E+03  0.7546771E-02  0.9399132E-01
        -11   -1    0    0    0    0  0.00000000000E+00  0.00000000000E+00  0.50000000000E+03  0.50000000000E+03  0.00000000000E+00 0.  1.
         11   -1    0    0    0    0 -0.00000000000E+00 -0.00000000000E+00 -0.50000000000E+03  0.50000000000E+03  0.00000000000E+00 0.  1.
        -11    1    1    2    0    0  0.17689230232E+02 -0.18332191476E+01  0.30172842954E+03  0.30225207155E+03  0.00000000000E+00 0.  1.
         11    1    1    2    0    0 -0.11977547620E+02 -0.38538261417E+01 -0.49953835074E+03  0.49969678555E+03  0.00000000000E+00 0.  1.
        -15    1    1    2    0    0 -0.15128075104E+00  0.16239812094E+01  0.33117658165E+02  0.33205379266E+02  0.17770000000E+01 0.  1.
         15    1    1    2    0    0 -0.55604018611E+01  0.40630640799E+01  0.16469226303E+03  0.16484576364E+03  0.17770000000E+01 0. -1.
</event>
<event>
 6    1  0.6394569E-004  0.5012248E+03  0.7546771E-02  0.9397073E-01
        -11   -1    0    0    0    0  0.00000000000E+00  0.00000000000E+00  0.50000000000E+03  0.50000000000E+03  0.00000000000E+00 0. -1.
         11   -1    0    0    0    0 -0.00000000000E+00 -0.00000000000E+00 -0.50000000000E+03  0.50000000000E+03  0.00000000000E+00 0.  1.
        -11    1    1    2    0    0  0.12393312461E+02 -0.27543041862E+01  0.46734596802E+03  0.46751837848E+03  0.00000000000E+00 0. -1.
         11    1    1    2    0    0 -0.83466834067E+01  0.51641440317E+01 -0.49867865124E+03  0.49877523266E+03  0.00000000000E+00 0.  1.
        -15    1    1    2    0    0 -0.60335770119E+01  0.24857881269E+01  0.19143493770E+02  0.20303060777E+02  0.17770000000E+01 0. -1.
         15    1    1    2    0    0  0.19869479574E+01 -0.48956279724E+01  0.12189189448E+02  0.13403328088E+02  0.17770000000E+01 0.  1.
</event>
<event>
 6    1  0.6394569E-004  0.5037918E+03  0.7546771E-02  0.9391365E-01
        -11   -1    0    0    0    0  0.00000000000E+00  0.00000000000E+00  0.50000000000E+03  0.50000000000E+03  0.00000000000E+00 0. -1.
         11   -1    0    0    0    0 -0.00000000000E+00 -0.00000000000E+00 -0.50000000000E+03  0.50000000000E+03  0.00000000000E+00 0.  1.
        -11    1    1    2    0    0 -0.57310332432E+01 -0.39068363702E+01  0.49266521799E+03  0.49271403991E+03  0.00000000000E+00 0. -1.
         11    1    1    2    0    0  0.56453945061E+01  0.39985135412E+01 -0.49616000057E+03  0.49620822721E+03  0.00000000000E+00 0.  1.
        -15    1    1    2    0    0 -0.37903464320E+01  0.16165722060E+01  0.45221787753E+01  0.63708603538E+01  0.17770000000E+01 0.  1.
         15    1    1    2    0    0  0.38759851690E+01 -0.17082493770E+01 -0.10273961969E+01  0.47068725190E+01  0.17770000000E+01 0. -1.
</event>
<event>
 6    1  0.6394569E-004  0.5015999E+03  0.7546771E-02  0.9396237E-01
        -11   -1    0    0    0    0  0.00000000000E+00  0.00000000000E+00  0.50000000000E+03  0.50000000000E+03  0.00000000000E+00 0. -1.
         11   -1    0    0    0    0 -0.00000000000E+00 -0.00000000000E+00 -0.50000000000E+03  0.50000000000E+03  0.00000000000E+00 0.  1.
        -11    1    1    2    0    0  0.34891733562E+02 -0.51068937960E+02  0.49454742207E+03  0.49840006237E+03  0.00000000000E+00 0. -1.
         11    1    1    2    0    0 -0.41253035570E+02  0.52584238755E+02 -0.32682519269E+03  0.33358900115E+03  0.00000000000E+00 0.  1.
        -15    1    1    2    0    0  0.58460266099E+00  0.69930853628E-01 -0.95664423550E+02  0.95682737799E+02  0.17770000000E+01 0. -1.
         15    1    1    2    0    0  0.57766993466E+01 -0.15852316485E+01 -0.72057805830E+02  0.72328198683E+02  0.17770000000E+01 0.  1.
</event>
<event>
 6    1  0.6394569E-004  0.5046944E+03  0.7546771E-02  0.9389366E-01
        -11   -1    0    0    0    0  0.00000000000E+00  0.00000000000E+00  0.50000000000E+03  0.50000000000E+03  0.00000000000E+00 0. -1.
         11   -1    0    0    0    0 -0.00000000000E+00 -0.00000000000E+00 -0.50000000000E+03  0.50000000000E+03  0.00000000000E+00 0.  1.
        -11    1    1    2    0    0 -0.62258006933E+01 -0.30680916129E+01  0.48442772088E+03  0.48447744069E+03  0.00000000000E+00 0. -1.
         11    1    1    2    0    0  0.43256663695E+01  0.77489560645E+01 -0.49522608963E+03  0.49530560017E+03  0.00000000000E+00 0.  1.
        -15    1    1    2    0    0 -0.23218110177E+01 -0.42233741784E+01 -0.28071970866E+01  0.58536980052E+01  0.17770000000E+01 0.  1.
         15    1    1    2    0    0  0.42219453415E+01 -0.45749027320E+00  0.13605565839E+02  0.14363261141E+02  0.17770000000E+01 0. -1.
</event>
<event>
 6    1  0.6394569E-004  0.5001259E+03  0.7546771E-02  0.9399528E-01
        -11   -1    0    0    0    0  0.00000000000E+00  0.00000000000E+00  0.50000000000E+03  0.50000000000E+03  0.00000000000E+00 0. -1.
         11   -1    0    0    0    0 -0.00000000000E+00 -0.00000000000E+00 -0.50000000000E+03  0.50000000000E+03  0.00000000000E+00 0.  1.
        -11    1    1    2    0    0 -0.32205374599E+01 -0.13851858813E+01  0.81915543683E+02  0.81990529321E+02  0.00000000000E+00 0. -1.
         11    1    1    2    0    0 -0.64715837631E+01 -0.41984667549E+01 -0.49981453923E+03  0.49987406629E+03  0.00000000000E+00 0.  1.
        -15    1    1    2    0    0  0.33587333678E+01 -0.13866110431E+01  0.81996022650E+02  0.82095732163E+02  0.17770000000E+01 0.  1.
         15    1    1    2    0    0  0.63333878552E+01  0.69702636793E+01  0.33590297290E+03  0.33603967223E+03  0.17770000000E+01 0. -1.
</event>
<event>
 6    1  0.6394569E-004  0.5008280E+03  0.7546771E-02  0.9397959E-01
        -11   -1    0    0    0    0  0.00000000000E+00  0.00000000000E+00  0.50000000000E+03  0.50000000000E+03  0.00000000000E+00 0. -1.
         11   -1    0    0    0    0 -0.00000000000E+00 -0.00000000000E+00 -0.50000000000E+03  0.50000000000E+03  0.00000000000E+00 0. -1.
        -11    1    1    2    0    0  0.12923232008E+02 -0.28552804969E+02  0.28572471395E+03  0.28743848865E+03  0.00000000000E+00 0. -1.
         11    1    1    2    0    0 -0.27105501978E+02  0.16446616292E+02 -0.49816410396E+03  0.49917198830E+03  0.00000000000E+00 0. -1.
        -15    1    1    2    0    0  0.22274666812E+01  0.66255905760E+00  0.17699241537E+02  0.17939383275E+02  0.17770000000E+01 0. -1.
         15    1    1    2    0    0  0.11954803289E+02  0.11443629619E+02  0.19474014847E+03  0.19545013977E+03  0.17770000000E+01 0. -1.
</event>
<event>
 6    1  0.6394569E-004  0.4862959E+03  0.7546771E-02  0.9431007E-01
        -11   -1    0    0    0    0  0.00000000000E+00  0.00000000000E+00  0.50000000000E+03  0.50000000000E+03  0.00000000000E+00 0.  1.
         11   -1    0    0    0    0 -0.00000000000E+00 -0.00000000000E+00 -0.50000000000E+03  0.50000000000E+03  0.00000000000E+00 0.  1.
        -11    1    1    2    0    0  0.35568398844E+01 -0.11353107519E+02  0.48399738323E+03  0.48414358524E+03  0.00000000000E+00 0.  1.
         11    1    1    2    0    0 -0.73858229421E+01 -0.74079535116E+01 -0.48853518541E+03  0.48864716876E+03  0.00000000000E+00 0.  1.
        -15    1    1    2    0    0  0.61170333952E+01  0.30909035116E+01  0.82248718516E+01  0.10852558595E+02  0.17770000000E+01 0.  1.
         15    1    1    2    0    0 -0.22880503375E+01  0.15670157519E+02 -0.36870696651E+01  0.16356687401E+02  0.17770000000E+01 0. -1.
</event>
<event>
 6    1  0.6394569E-004  0.5002394E+03  0.7546771E-02  0.9399274E-01
        -11   -1    0    0    0    0  0.00000000000E+00  0.00000000000E+00  0.50000000000E+03  0.50000000000E+03  0.00000000000E+00 0.  1.
         11   -1    0    0    0    0 -0.00000000000E+00 -0.00000000000E+00 -0.50000000000E+03  0.50000000000E+03  0.00000000000E+00 0. -1.
        -11    1    1    2    0    0  0.34171662516E+01 -0.85575239453E+01  0.32453029013E+03  0.32466108090E+03  0.00000000000E+00 0.  1.
         11    1    1    2    0    0  0.10713797140E+01  0.72022107545E+01 -0.49970752285E+03  0.49976057076E+03  0.00000000000E+00 0. -1.
        -15    1    1    2    0    0 -0.38047204399E+01 -0.30327425643E+01  0.13765908318E+03  0.13775650379E+03  0.17770000000E+01 0.  1.
         15    1    1    2    0    0 -0.68382552572E+00  0.43880557551E+01  0.37518149548E+02  0.37821844550E+02  0.17770000000E+01 0. -1.
</event>
<event>
 6    1  0.9689472E-004  0.5000989E+03  0.7546771E-02  0.9399589E-01
        -11   -1    0    0    0    0  0.00000000000E+00  0.00000000000E+00  0.50000000000E+03  0.50000000000E+03  0.00000000000E+00 0. -1.
         11   -1    0    0    0    0 -0.00000000000E+00 -0.00000000000E+00 -0.50000000000E+03  0.50000000000E+03  0.00000000000E+00 0. -1.
        -11    1    1    2    0    0  0.51280756334E+01  0.16548579377E+02  0.49960084315E+03  0.49990114534E+03  0.00000000000E+00 0. -1.
         11    1    1    2    0    0 -0.59185959144E+01 -0.10687421951E+02 -0.31385978990E+03  0.31409746653E+03  0.00000000000E+00 0. -1.
        -15    1    1    2    0    0 -0.28672394475E+01 -0.13184649805E+01 -0.83733674317E+02  0.83811964274E+02  0.17770000000E+01 0.  1.
         15    1    1    2    0    0  0.36577597284E+01 -0.45426924454E+01 -0.10200737893E+03  0.10218942385E+03  0.17770000000E+01 0. -1.
</event>
<event>
 6    1  0.6394569E-004  0.5012190E+03  0.7546771E-02  0.9397086E-01
        -11   -1    0    0    0    0  0.00000000000E+00  0.00000000000E+00  0.50000000000E+03  0.50000000000E+03  0.00000000000E+00 0. -1.
         11   -1    0    0    0    0 -0.00000000000E+00 -0.00000000000E+00 -0.50000000000E+03  0.50000000000E+03  0.00000000000E+00 0. -1.
        -11    1    1    2    0    0 -0.18407363578E+02  0.11263953893E+02  0.49831392541E+03  0.49878098997E+03  0.00000000000E+00 0. -1.
         11    1    1    2    0    0 -0.10820637824E+01 -0.63769007708E+01 -0.40717989314E+03  0.40723126244E+03  0.00000000000E+00 0. -1.
        -15    1    1    2    0    0  0.54096686856E+01  0.64166447096E+00 -0.45949451214E+02  0.46305356542E+02  0.17770000000E+01 0. -1.
         15    1    1    2    0    0  0.14079758675E+02 -0.55287175928E+01 -0.45184581056E+02  0.47682391055E+02  0.17770000000E+01 0.  1.
</event>
<event>
 6    1  0.6394569E-004  0.4873929E+03  0.7546771E-02  0.9428470E-01
        -11   -1    0    0    0    0  0.00000000000E+00  0.00000000000E+00  0.50000000000E+03  0.50000000000E+03  0.00000000000E+00 0.  1.
         11   -1    0    0    0    0 -0.00000000000E+00 -0.00000000000E+00 -0.50000000000E+03  0.50000000000E+03  0.00000000000E+00 0. -1.
        -11    1    1    2    0    0 -0.21021978812E+02  0.29430016808E+01  0.49047729541E+03  0.49093641357E+03  0.00000000000E+00 0.  1.
         11    1    1    2    0    0  0.10527201290E+01  0.81979500187E+01 -0.48406800434E+03  0.48413856222E+03  0.00000000000E+00 0. -1.
        -15    1    1    2    0    0  0.15878902863E+02 -0.80434382951E+01 -0.74822761162E+01  0.19390168659E+02  0.17770000000E+01 0. -1.
         15    1    1    2    0    0  0.40903558198E+01 -0.30975134044E+01  0.10729850439E+01  0.55348555471E+01  0.17770000000E+01 0.  1.
</event>
<event>
 6    1  0.6394569E-004  0.5013545E+03  0.7546771E-02  0.9396784E-01
        -11   -1    0    0    0    0  0.00000000000E+00  0.00000000000E+00  0.50000000000E+03  0.50000000000E+03  0.00000000000E+00 0.  1.
         11   -1    0    0    0    0 -0.00000000000E+00 -0.00000000000E+00 -0.50000000000E+03  0.50000000000E+03  0.00000000000E+00 0. -1.
        -11    1    1    2    0    0 -0.16421111139E+00 -0.13789669566E+02  0.20866991019E+03  0.20912511416E+03  0.00000000000E+00 0.  1.
         11    1    1    2    0    0 -0.13407237945E+02 -0.38767936732E+00 -0.49846505222E+03  0.49864547788E+03  0.00000000000E+00 0. -1.
        -15    1    1    2    0    0 -0.78694891476E+01 -0.57384013854E+00  0.13578908882E+03  0.13602974867E+03  0.17770000000E+01 0.  1.
         15    1    1    2    0    0  0.21440938204E+02  0.14751189072E+02  0.15400605321E+03  0.15619965930E+03  0.17770000000E+01 0. -1.
</event>
<event>
 6    1  0.6394569E-004  0.5003915E+03  0.7546771E-02  0.9398934E-01
        -11   -1    0    0    0    0  0.00000000000E+00  0.00000000000E+00  0.50000000000E+03  0.50000000000E+03  0.00000000000E+00 0.  1.
         11   -1    0    0    0    0 -0.00000000000E+00 -0.00000000000E+00 -0.50000000000E+03  0.50000000000E+03  0.00000000000E+00 0.  1.
        -11    1    1    2    0    0 -0.70436029878E+01  0.44161159138E+01  0.49953930435E+03  0.49960847772E+03  0.00000000000E+00 0.  1.
         11    1    1    2    0    0 -0.36306943335E+01  0.84627293099E+01 -0.25985651723E+03  0.26001963248E+03  0.00000000000E+00 0.  1.
        -15    1    1    2    0    0  0.13585406568E+01 -0.11269403906E+01 -0.61257989820E+02  0.61309172830E+02  0.17770000000E+01 0.  1.
         15    1    1    2    0    0  0.93157566645E+01 -0.11751904833E+02 -0.17842479730E+03  0.17906271697E+03  0.17770000000E+01 0.  1.
</event>
<event>
 6    1  0.6394569E-004  0.5002978E+03  0.7546771E-02  0.9399144E-01
        -11   -1    0    0    0    0  0.00000000000E+00  0.00000000000E+00  0.50000000000E+03  0.50000000000E+03  0.00000000000E+00 0. -1.
         11   -1    0    0    0    0 -0.00000000000E+00 -0.00000000000E+00 -0.50000000000E+03  0.50000000000E+03  0.00000000000E+00 0. -1.
        -11    1    1    2    0    0 -0.41379211034E-01 -0.11464419119E+02  0.26507125068E+03  0.26531905803E+03  0.00000000000E+00 0. -1.
         11    1    1    2    0    0  0.70104592642E+01  0.36871230969E+01 -0.49963937682E+03  0.49970215957E+03  0.00000000000E+00 0. -1.
        -15    1    1    2    0    0 -0.54693771556E+01  0.56611434125E+01  0.21566919335E+03  0.21582011333E+03  0.17770000000E+01 0.  1.
         15    1    1    2    0    0 -0.14997028976E+01  0.21161526096E+01  0.18898932797E+02  0.19158669069E+02  0.17770000000E+01 0. -1.
</event>
<event>
 6    1  0.6394569E-004  0.5005554E+03  0.7546771E-02  0.9398568E-01
        -11   -1    0    0    0    0  0.00000000000E+00  0.00000000000E+00  0.50000000000E+03  0.50000000000E+03  0.00000000000E+00 0.  1.
         11   -1    0    0    0    0 -0.00000000000E+00 -0.00000000000E+00 -0.50000000000E+03  0.50000000000E+03  0.00000000000E+00 0. -1.
        -11    1    1    2    0    0  0.18575240941E+02  0.28408965074E+01  0.49909098817E+03  0.49944461629E+03  0.00000000000E+00 0.  1.
         11    1    1    2    0    0  0.46262587612E+01 -0.11197105019E+01 -0.26199850491E+03  0.26204173827E+03  0.00000000000E+00 0. -1.
        -15    1    1    2    0    0 -0.23895131062E+00  0.63074863467E+00 -0.68069941754E+01  0.70673785998E+01  0.17770000000E+01 0. -1.
         15    1    1    2    0    0 -0.22962548392E+02 -0.23519346402E+01 -0.23028548908E+03  0.23144626684E+03  0.17770000000E+01 0. -1.
</event>
<event>
 6    1  0.6394569E-004  0.5013968E+03  0.7546771E-02  0.9396690E-01
        -11   -1    0    0    0    0  0.00000000000E+00  0.00000000000E+00  0.50000000000E+03  0.50000000000E+03  0.00000000000E+00 0. -1.
         11   -1    0    0    0    0 -0.00000000000E+00 -0.00000000000E+00 -0.50000000000E+03  0.50000000000E+03  0.00000000000E+00 0.  1.
        -11    1    1    2    0    0  0.12274170327E+02 -0.11797798376E+02  0.49831250515E+03  0.49860324517E+03  0.00000000000E+00 0. -1.
         11    1    1    2    0    0 -0.46906892823E+01  0.75600219372E+01 -0.43734636389E+03  0.43743685088E+03  0.00000000000E+00 0.  1.
        -15    1    1    2    0    0 -0.91692335377E+01  0.88262208570E+01 -0.31111423881E+02  0.33660888924E+02  0.17770000000E+01 0.  1.
         15    1    1    2    0    0  0.15857524929E+01 -0.45884444187E+01 -0.29854717376E+02  0.30299015029E+02  0.17770000000E+01 0. -1.
</event>
<event>
 6    1  0.6394569E-004  0.5027693E+03  0.7546771E-02  0.9393634E-01
        -11   -1    0    0    0    0  0.00000000000E+00  0.00000000000E+00  0.50000000000E+03  0.50000000000E+03  0.00000000000E+00 0. -1.
         11   -1    0    0    0    0 -0.00000000000E+00 -0.00000000000E+00 -0.50000000000E+03  0.50000000000E+03  0.00000000000E+00 0. -1.
        -11    1    1    2    0    0 -0.10111728883E+02 -0.47333031276E+01  0.49710536151E+03  0.49723072276E+03  0.00000000000E+00 0. -1.
         11    1    1    2    0    0  0.49972973364E+01 -0.68381275639E+01 -0.48144898551E+03  0.48152347671E+03  0.00000000000E+00 0. -1.
        -15    1    1    2    0    0  0.20077600082E+01  0.76987282241E+00 -0.46011632163E+01  0.53807282367E+01  0.17770000000E+01 0. -1.
         15    1    1    2    0    0  0.31066715379E+01  0.10801557869E+02 -0.11055212777E+02  0.15865072297E+02  0.17770000000E+01 0.  1.
</event>
<event>
 6    1  0.6394569E-004  0.5004561E+03  0.7546771E-02  0.9398790E-01
        -11   -1    0    0    0    0  0.00000000000E+00  0.00000000000E+00  0.50000000000E+03  0.50000000000E+03  0.00000000000E+00 0. -1.
         11   -1    0    0    0    0 -0.00000000000E+00 -0.00000000000E+00 -0.50000000000E+03  0.50000000000E+03  0.00000000000E+00 0.  1.
        -11    1    1    2    0    0 -0.71409027776E+01  0.20068361558E+01  0.49948887528E+03  0.49954394843E+03  0.00000000000E+00 0. -1.
         11    1    1    2    0    0  0.67720980826E+01  0.40036418375E+01 -0.46439309595E+03  0.46445972702E+03  0.00000000000E+00 0.  1.
        -15    1    1    2    0    0 -0.13264932080E+01 -0.42766595370E+01 -0.25105420237E+02  0.25563435906E+02  0.17770000000E+01 0. -1.
         15    1    1    2    0    0  0.16952979030E+01 -0.17338184563E+01 -0.99903590968E+01  0.10432888637E+02  0.17770000000E+01 0.  1.
</event>
<event>
 6    1  0.6394569E-004  0.5003093E+03  0.7546771E-02  0.9399118E-01
        -11   -1    0    0    0    0  0.00000000000E+00  0.00000000000E+00  0.50000000000E+03  0.50000000000E+03  0.00000000000E+00 0.  1.
         11   -1    0    0    0    0 -0.00000000000E+00 -0.00000000000E+00 -0.50000000000E+03  0.50000000000E+03  0.00000000000E+00 0. -1.
        -11    1    1    2    0    0 -0.53029713035E+01  0.50153348306E+01  0.49963739243E+03  0.49969070334E+03  0.00000000000E+00 0.  1.
         11    1    1    2    0    0 -0.55383674913E+01 -0.94464056624E+01 -0.27284902064E+03  0.27306866564E+03  0.00000000000E+00 0. -1.
        -15    1    1    2    0    0  0.10460934052E+02  0.36630892670E+01 -0.14703874020E+03  0.14746660033E+03  0.17770000000E+01 0.  1.
         15    1    1    2    0    0  0.38040474315E+00  0.76798156479E+00 -0.79749631595E+02  0.79774030687E+02  0.17770000000E+01 0. -1.
</event>
<event>
 6    1  0.6394569E-004  0.5003591E+03  0.7546771E-02  0.9399007E-01
        -11   -1    0    0    0    0  0.00000000000E+00  0.00000000000E+00  0.50000000000E+03  0.50000000000E+03  0.00000000000E+00 0. -1.
         11   -1    0    0    0    0 -0.00000000000E+00 -0.00000000000E+00 -0.50000000000E+03  0.50000000000E+03  0.00000000000E+00 0. -1.
        -11    1    1    2    0    0 -0.39672161490E+00  0.74672731790E+01  0.81137715486E+02  0.81481571113E+02  0.00000000000E+00 0. -1.
         11    1    1    2    0    0 -0.38528917359E+02 -0.23971866342E+02 -0.49757605811E+03  0.49964093252E+03  0.00000000000E+00 0. -1.
        -15    1    1    2    0    0  0.34512283173E+02  0.15543467931E+02  0.39838538943E+03  0.40018342460E+03  0.17770000000E+01 0. -1.
         15    1    1    2    0    0  0.44133558003E+01  0.96112523293E+00  0.18052953189E+02  0.18694071760E+02  0.17770000000E+01 0.  1.
</event>
<event>
 6    1  0.6394569E-004  0.5004534E+03  0.7546771E-02  0.9398796E-01
        -11   -1    0    0    0    0  0.00000000000E+00  0.00000000000E+00  0.50000000000E+03  0.50000000000E+03  0.00000000000E+00 0.  1.
         11   -1    0    0    0    0 -0.00000000000E+00 -0.00000000000E+00 -0.50000000000E+03  0.50000000000E+03  0.00000000000E+00 0.  1.
        -11    1    1    2    0    0 -0.21576675194E+01  0.44982869248E+01  0.57529390738E+02  0.57745310745E+02  0.00000000000E+00 0.  1.
         11    1    1    2    0    0 -0.68312298577E+01  0.12253437247E+01 -0.49949837259E+03  0.49954658580E+03  0.00000000000E+00 0.  1.
        -15    1    1    2    0    0  0.30597281466E+01  0.39016006460E+01  0.23514608706E+02  0.24097281496E+02  0.17770000000E+01 0. -1.
         15    1    1    2    0    0  0.59291692304E+01 -0.96252312955E+01  0.41845437314E+03  0.41861082196E+03  0.17770000000E+01 0.  1.
</event>
<event>
 6    1  0.6394569E-004  0.5219561E+03  0.7546771E-02  0.9351978E-01
        -11   -1    0    0    0    0  0.00000000000E+00  0.00000000000E+00  0.50000000000E+03  0.50000000000E+03  0.00000000000E+00 0.  1.
         11   -1    0    0    0    0 -0.00000000000E+00 -0.00000000000E+00 -0.50000000000E+03  0.50000000000E+03  0.00000000000E+00 0. -1.
        -11    1    1    2    0    0  0.11287268934E+03 -0.91750769590E+02  0.29026274134E+03  0.32467045867E+03  0.00000000000E+00 0.  1.
         11    1    1    2    0    0 -0.54621400492E+02  0.49662702788E+02 -0.47230927520E+03  0.47804386084E+03  0.00000000000E+00 0. -1.
        -15    1    1    2    0    0 -0.28624477443E+02  0.64454218706E+01  0.62904182099E+02  0.69433407136E+02  0.17770000000E+01 0. -1.
         15    1    1    2    0    0 -0.29626811404E+02  0.35642644932E+02  0.11914235176E+03  0.12785227336E+03  0.17770000000E+01 0.  1.
</event>
<event>
 6    1  0.6394569E-004  0.5033223E+03  0.7546771E-02  0.9392406E-01
        -11   -1    0    0    0    0  0.00000000000E+00  0.00000000000E+00  0.50000000000E+03  0.50000000000E+03  0.00000000000E+00 0. -1.
         11   -1    0    0    0    0 -0.00000000000E+00 -0.00000000000E+00 -0.50000000000E+03  0.50000000000E+03  0.00000000000E+00 0. -1.
        -11    1    1    2    0    0  0.17560930830E+01 -0.13330421428E+02  0.46921341351E+03  0.46940601980E+03  0.00000000000E+00 0. -1.
         11    1    1    2    0    0 -0.54814948486E+01 -0.51471826877E+01 -0.49662078033E+03  0.49667770207E+03  0.00000000000E+00 0. -1.
        -15    1    1    2    0    0 -0.21638999325E+00  0.10011520841E+02  0.17088621722E+02  0.19886077932E+02  0.17770000000E+01 0.  1.
         15    1    1    2    0    0  0.39417917589E+01  0.84660832752E+01  0.10318745098E+02  0.14030200201E+02  0.17770000000E+01 0. -1.
</event>
<event>
 6    1  0.6394569E-004  0.5055317E+03  0.7546771E-02  0.9387517E-01
        -11   -1    0    0    0    0  0.00000000000E+00  0.00000000000E+00  0.50000000000E+03  0.50000000000E+03  0.00000000000E+00 0. -1.
         11   -1    0    0    0    0 -0.00000000000E+00 -0.00000000000E+00 -0.50000000000E+03  0.50000000000E+03  0.00000000000E+00 0.  1.
        -11    1    1    2    0    0  0.66162907670E+02 -0.61158641088E+02  0.48619029617E+03  0.49446831428E+03  0.00000000000E+00 0. -1.
         11    1    1    2    0    0 -0.46592348731E+01  0.54590134951E+01 -0.21268219367E+03  0.21280325374E+03  0.00000000000E+00 0.  1.
        -15    1    1    2    0    0  0.95554180206E+01 -0.45976637857E+01 -0.21592858818E+02  0.24121646021E+02  0.17770000000E+01 0. -1.
         15    1    1    2    0    0 -0.71059090817E+02  0.60297291378E+02 -0.25191524369E+03  0.26860678596E+03  0.17770000000E+01 0.  1.
</event>
<event>
 6    1  0.6394569E-004  0.4905056E+03  0.7546771E-02  0.9421308E-01
        -11   -1    0    0    0    0  0.00000000000E+00  0.00000000000E+00  0.50000000000E+03  0.50000000000E+03  0.00000000000E+00 0.  1.
         11   -1    0    0    0    0 -0.00000000000E+00 -0.00000000000E+00 -0.50000000000E+03  0.50000000000E+03  0.00000000000E+00 0.  1.
        -11    1    1    2    0    0 -0.71356459896E+01 -0.48656226936E+01  0.48791564784E+03  0.48799208102E+03  0.00000000000E+00 0.  1.
         11    1    1    2    0    0 -0.58935782288E+01  0.92291821013E+01 -0.49300698860E+03  0.49312858655E+03  0.00000000000E+00 0.  1.
        -15    1    1    2    0    0  0.10277730750E+02 -0.17707890197E+01 -0.18867513599E+01  0.10746394875E+02  0.17770000000E+01 0. -1.
         15    1    1    2    0    0  0.27514934687E+01 -0.25927703881E+01  0.69780921178E+01  0.81329375504E+01  0.17770000000E+01 0.  1.
</event>
<event>
 6    1  0.6394569E-004  0.4922466E+03  0.7546771E-02  0.9417328E-01
        -11   -1    0    0    0    0  0.00000000000E+00  0.00000000000E+00  0.50000000000E+03  0.50000000000E+03  0.00000000000E+00 0. -1.
         11   -1    0    0    0    0 -0.00000000000E+00 -0.00000000000E+00 -0.50000000000E+03  0.50000000000E+03  0.00000000000E+00 0.  1.
        -11    1    1    2    0    0  0.13461960660E+02  0.13389402262E+02  0.49285016275E+03  0.49321575746E+03  0.00000000000E+00 0. -1.
         11    1    1    2    0    0 -0.29505531905E+01 -0.63148478561E+01 -0.49131079349E+03  0.49136023330E+03  0.00000000000E+00 0.  1.
        -15    1    1    2    0    0 -0.74082344171E+01 -0.51321336494E+01  0.26732223470E+01  0.95668479496E+01  0.17770000000E+01 0. -1.
         15    1    1    2    0    0 -0.31031730522E+01 -0.19424207570E+01 -0.42125916103E+01  0.58571612975E+01  0.17770000000E+01 0.  1.
</event>
<event>
 6    1  0.6394569E-004  0.5030417E+03  0.7546771E-02  0.9393029E-01
        -11   -1    0    0    0    0  0.00000000000E+00  0.00000000000E+00  0.50000000000E+03  0.50000000000E+03  0.00000000000E+00 0. -1.
         11   -1    0    0    0    0 -0.00000000000E+00 -0.00000000000E+00 -0.50000000000E+03  0.50000000000E+03  0.00000000000E+00 0.  1.
        -11    1    1    2    0    0  0.14691316636E+02  0.79244716855E+01  0.46223533164E+03  0.46253662975E+03  0.00000000000E+00 0. -1.
         11    1    1    2    0    0  0.52422192938E+01 -0.67411481776E+01 -0.49688493566E+03  0.49695831136E+03  0.00000000000E+00 0.  1.
        -15    1    1    2    0    0 -0.57038061775E+01  0.16105650806E+01  0.80018823379E+01  0.10115096378E+02  0.17770000000E+01 0. -1.
         15    1    1    2    0    0 -0.14229729752E+02 -0.27938885884E+01  0.26647721678E+02  0.30389962519E+02  0.17770000000E+01 0.  1.
</event>
<event>
 6    1  0.6394569E-004  0.5004040E+03  0.7546771E-02  0.9398906E-01
        -11   -1    0    0    0    0  0.00000000000E+00  0.00000000000E+00  0.50000000000E+03  0.50000000000E+03  0.00000000000E+00 0.  1.
         11   -1    0    0    0    0 -0.00000000000E+00 -0.00000000000E+00 -0.50000000000E+03  0.50000000000E+03  0.00000000000E+00 0. -1.
        -11    1    1    2    0    0  0.87184495277E+01 -0.16407312369E+01  0.49951721324E+03  0.49959598645E+03  0.00000000000E+00 0.  1.
         11    1    1    2    0    0  0.45992715340E+01 -0.48063945692E+01 -0.31843087341E+03  0.31850035458E+03  0.00000000000E+00 0. -1.
        -15    1    1    2    0    0 -0.82544061141E+01  0.54675756133E+01 -0.15041935326E+03  0.15075532882E+03  0.17770000000E+01 0. -1.
         15    1    1    2    0    0 -0.50633149476E+01  0.97955019279E+00 -0.30666986571E+02  0.31148330150E+02  0.17770000000E+01 0.  1.
</event>
<event>
 6    1  0.6394569E-004  0.5007609E+03  0.7546771E-02  0.9398109E-01
        -11   -1    0    0    0    0  0.00000000000E+00  0.00000000000E+00  0.50000000000E+03  0.50000000000E+03  0.00000000000E+00 0.  1.
         11   -1    0    0    0    0 -0.00000000000E+00 -0.00000000000E+00 -0.50000000000E+03  0.50000000000E+03  0.00000000000E+00 0. -1.
        -11    1    1    2    0    0 -0.12968279505E+02 -0.36277457334E+01  0.49905743622E+03  0.49923908247E+03  0.00000000000E+00 0.  1.
         11    1    1    2    0    0  0.47301903058E+01 -0.37717787945E+01 -0.43788797242E+03  0.43792976310E+03  0.00000000000E+00 0. -1.
        -15    1    1    2    0    0  0.18372183991E+01  0.54870057522E+00 -0.32712673159E+02  0.32816964485E+02  0.17770000000E+01 0.  1.
         15    1    1    2    0    0  0.64008708003E+01  0.68508239526E+01 -0.28456790643E+02  0.30014189953E+02  0.17770000000E+01 0.  1.
</event>
<event>
 6    1  0.6394569E-004  0.5024114E+03  0.7546771E-02  0.9394430E-01
        -11   -1    0    0    0    0  0.00000000000E+00  0.00000000000E+00  0.50000000000E+03  0.50000000000E+03  0.00000000000E+00 0. -1.
         11   -1    0    0    0    0 -0.00000000000E+00 -0.00000000000E+00 -0.50000000000E+03  0.50000000000E+03  0.00000000000E+00 0.  1.
        -11    1    1    2    0    0 -0.39759129871E+01 -0.81308082025E+01  0.49750624385E+03  0.49758856558E+03  0.00000000000E+00 0. -1.
         11    1    1    2    0    0  0.11211660864E+02  0.10004971213E+01 -0.48594005566E+03  0.48607040646E+03  0.00000000000E+00 0.  1.
        -15    1    1    2    0    0 -0.34141743369E+01  0.60763232398E+01 -0.69453605214E+01  0.99987025303E+01  0.17770000000E+01 0. -1.
         15    1    1    2    0    0 -0.38215735401E+01  0.10539878414E+01 -0.46208276597E+01  0.63423254373E+01  0.17770000000E+01 0.  1.
</event>
<event>
 6    1  0.6394569E-004  0.5006493E+03  0.7546771E-02  0.9398358E-01
        -11   -1    0    0    0    0  0.00000000000E+00  0.00000000000E+00  0.50000000000E+03  0.50000000000E+03  0.00000000000E+00 0.  1.
         11   -1    0    0    0    0 -0.00000000000E+00 -0.00000000000E+00 -0.50000000000E+03  0.50000000000E+03  0.00000000000E+00 0.  1.
        -11    1    1    2    0    0 -0.99692049085E+00  0.10584911685E+02  0.35462086699E+03  0.35478020450E+03  0.00000000000E+00 0.  1.
         11    1    1    2    0    0 -0.11441589284E+02 -0.64525036914E+01 -0.49917792652E+03  0.49935072554E+03  0.00000000000E+00 0.  1.
        -15    1    1    2    0    0  0.28891601081E+01 -0.81939822833E+01  0.74341399491E+02  0.74868484686E+02  0.17770000000E+01 0. -1.
         15    1    1    2    0    0  0.95493496671E+01  0.40615742895E+01  0.70215660042E+02  0.71000585272E+02  0.17770000000E+01 0.  1.
</event>
<event>
 6    1  0.6394569E-004  0.5012145E+03  0.7546771E-02  0.9397096E-01
        -11   -1    0    0    0    0  0.00000000000E+00  0.00000000000E+00  0.50000000000E+03  0.50000000000E+03  0.00000000000E+00 0. -1.
         11   -1    0    0    0    0 -0.00000000000E+00 -0.00000000000E+00 -0.50000000000E+03  0.50000000000E+03  0.00000000000E+00 0.  1.
        -11    1    1    2    0    0 -0.15165305166E+00  0.12110802166E+02  0.49863844733E+03  0.49878552072E+03  0.00000000000E+00 0. -1.
         11    1    1    2    0    0  0.12519269268E+01  0.58578410473E+01 -0.39071148658E+03  0.39075740220E+03  0.00000000000E+00 0.  1.
        -15    1    1    2    0    0 -0.15319490533E+01 -0.26697700802E+01 -0.60196947066E+02  0.60301780283E+02  0.17770000000E+01 0. -1.
         15    1    1    2    0    0  0.43167517811E+00 -0.15298873133E+02 -0.47730013676E+02  0.50155296800E+02  0.17770000000E+01 0. -1.
</event>
<event>
 6    1  0.6394569E-004  0.5001078E+03  0.7546771E-02  0.9399568E-01
        -11   -1    0    0    0    0  0.00000000000E+00  0.00000000000E+00  0.50000000000E+03  0.50000000000E+03  0.00000000000E+00 0.  1.
         11   -1    0    0    0    0 -0.00000000000E+00 -0.00000000000E+00 -0.50000000000E+03  0.50000000000E+03  0.00000000000E+00 0.  1.
        -11    1    1    2    0    0 -0.18873129450E+02 -0.12893157286E+02  0.45619221521E+03  0.45676445324E+03  0.00000000000E+00 0.  1.
         11    1    1    2    0    0  0.20891880653E+02  0.15380848877E+02 -0.49921852066E+03  0.49989216093E+03  0.00000000000E+00 0.  1.
        -15    1    1    2    0    0  0.72423743569E-01 -0.74431489083E+00  0.19135706926E+02  0.19232583249E+02  0.17770000000E+01 0. -1.
         15    1    1    2    0    0 -0.20911749470E+01 -0.17433766998E+01  0.23890598518E+02  0.24110802590E+02  0.17770000000E+01 0. -1.
</event>
<event>
 6    1  0.6394569E-004  0.5015534E+03  0.7546771E-02  0.9396340E-01
        -11   -1    0    0    0    0  0.00000000000E+00  0.00000000000E+00  0.50000000000E+03  0.50000000000E+03  0.00000000000E+00 0. -1.
         11   -1    0    0    0    0 -0.00000000000E+00 -0.00000000000E+00 -0.50000000000E+03  0.50000000000E+03  0.00000000000E+00 0.  1.
        -11    1    1    2    0    0  0.16433838599E+02  0.15173109424E+02  0.64818457828E+02  0.68569138655E+02  0.00000000000E+00 0. -1.
         11    1    1    2    0    0 -0.14315199313E+02 -0.25405072108E+02 -0.49759282697E+03  0.49844655087E+03  0.00000000000E+00 0.  1.
        -15    1    1    2    0    0 -0.17463222077E+01  0.23294183561E+01  0.46531324446E+02  0.46656164811E+02  0.17770000000E+01 0.  1.
         15    1    1    2    0    0 -0.37231707807E+00  0.79025443281E+01  0.38624304470E+03  0.38632814567E+03  0.17770000000E+01 0. -1.
</event>
<event>
 6    1  0.6394569E-004  0.5036145E+03  0.7546771E-02  0.9391758E-01
        -11   -1    0    0    0    0  0.00000000000E+00  0.00000000000E+00  0.50000000000E+03  0.50000000000E+03  0.00000000000E+00 0.  1.
         11   -1    0    0    0    0 -0.00000000000E+00 -0.00000000000E+00 -0.50000000000E+03  0.50000000000E+03  0.00000000000E+00 0.  1.
        -11    1    1    2    0    0 -0.14652525871E+02 -0.47576874854E+01  0.45968679319E+03  0.45994486620E+03  0.00000000000E+00 0.  1.
         11    1    1    2    0    0 -0.69286296309E+01  0.27432301784E+01 -0.49632952904E+03  0.49638546778E+03  0.00000000000E+00 0.  1.
        -15    1    1    2    0    0  0.18212380970E+02  0.21838101123E+01  0.34923267166E+02  0.39487367166E+02  0.17770000000E+01 0.  1.
         15    1    1    2    0    0  0.33687745323E+01 -0.16935280520E+00  0.17194686845E+01  0.41822988629E+01  0.17770000000E+01 0. -1.
</event>
<event>
 6    1  0.6394569E-004  0.5011826E+03  0.7546771E-02  0.9397167E-01
        -11   -1    0    0    0    0  0.00000000000E+00  0.00000000000E+00  0.50000000000E+03  0.50000000000E+03  0.00000000000E+00 0.  1.
         11   -1    0    0    0    0 -0.00000000000E+00 -0.00000000000E+00 -0.50000000000E+03  0.50000000000E+03  0.00000000000E+00 0.  1.
        -11    1    1    2    0    0 -0.65660508468E+01  0.36498266615E+01  0.49876079447E+03  0.49881736574E+03  0.00000000000E+00 0.  1.
         11    1    1    2    0    0  0.35456341380E+00  0.64258102685E+01 -0.46509496969E+03  0.46513949261E+03  0.00000000000E+00 0.  1.
        -15    1    1    2    0    0  0.20261233074E+01 -0.13722256350E+01 -0.90020337725E+01  0.94964477512E+01  0.17770000000E+01 0. -1.
         15    1    1    2    0    0  0.41853641256E+01 -0.87034112950E+01 -0.24663791011E+02  0.26546693901E+02  0.17770000000E+01 0.  1.
</event>
<event>
 6    1  0.6394569E-004  0.5018382E+03  0.7546771E-02  0.9395706E-01
        -11   -1    0    0    0    0  0.00000000000E+00  0.00000000000E+00  0.50000000000E+03  0.50000000000E+03  0.00000000000E+00 0. -1.
         11   -1    0    0    0    0 -0.00000000000E+00 -0.00000000000E+00 -0.50000000000E+03  0.50000000000E+03  0.00000000000E+00 0. -1.
        -11    1    1    2    0    0 -0.18893712277E+02 -0.15373519294E+02  0.56201165806E+02  0.61252661142E+02  0.00000000000E+00 0. -1.
         11    1    1    2    0    0  0.35732859044E+02  0.22763506243E+02 -0.49635684294E+03  0.49816175081E+03  0.00000000000E+00 0. -1.
        -15    1    1    2    0    0 -0.68529144745E+01 -0.54346636627E+00  0.13870288692E+03  0.13888450728E+03  0.17770000000E+01 0. -1.
         15    1    1    2    0    0 -0.99862322916E+01 -0.68465205833E+01  0.30145279021E+03  0.30170108077E+03  0.17770000000E+01 0. -1.
</event>
<event>
 6    1  0.6394569E-004  0.5014417E+03  0.7546771E-02  0.9396590E-01
        -11   -1    0    0    0    0  0.00000000000E+00  0.00000000000E+00  0.50000000000E+03  0.50000000000E+03  0.00000000000E+00 0.  1.
         11   -1    0    0    0    0 -0.00000000000E+00 -0.00000000000E+00 -0.50000000000E+03  0.50000000000E+03  0.00000000000E+00 0. -1.
        -11    1    1    2    0    0  0.54390975135E+01  0.91459895089E+01  0.47067198876E+03  0.47079226195E+03  0.00000000000E+00 0.  1.
         11    1    1    2    0    0  0.49439390442E+01 -0.58277453157E+01 -0.49849973078E+03  0.49855830826E+03  0.00000000000E+00 0. -1.
        -15    1    1    2    0    0 -0.64426710703E+01 -0.19033572931E+01  0.22955492134E+02  0.23984226642E+02  0.17770000000E+01 0.  1.
         15    1    1    2    0    0 -0.39403654874E+01 -0.14148869001E+01  0.48722498850E+01  0.66652031519E+01  0.17770000000E+01 0. -1.
</event>
<event>
 6    1  0.6394569E-004  0.5019347E+03  0.7546771E-02  0.9395491E-01
        -11   -1    0    0    0    0  0.00000000000E+00  0.00000000000E+00  0.50000000000E+03  0.50000000000E+03  0.00000000000E+00 0. -1.
         11   -1    0    0    0    0 -0.00000000000E+00 -0.00000000000E+00 -0.50000000000E+03  0.50000000000E+03  0.00000000000E+00 0.  1.
        -11    1    1    2    0    0 -0.76453722040E+01  0.30306470061E+02  0.49708364951E+03  0.49806534556E+03  0.00000000000E+00 0. -1.
         11    1    1    2    0    0 -0.50962301053E+01  0.43932281227E+01 -0.26842926259E+03  0.26851357699E+03  0.00000000000E+00 0.  1.
        -15    1    1    2    0    0 -0.85455264647E+00 -0.25084505445E+01 -0.10122235284E+03  0.10127262724E+03  0.17770000000E+01 0. -1.
         15    1    1    2    0    0  0.13596154956E+02 -0.32191247639E+02 -0.12743203408E+03  0.13214845021E+03  0.17770000000E+01 0.  1.
</event>
<event>
 6    1  0.6394569E-004  0.5198681E+03  0.7546771E-02  0.9356419E-01
        -11   -1    0    0    0    0  0.00000000000E+00  0.00000000000E+00  0.50000000000E+03  0.50000000000E+03  0.00000000000E+00 0.  1.
         11   -1    0    0    0    0 -0.00000000000E+00 -0.00000000000E+00 -0.50000000000E+03  0.50000000000E+03  0.00000000000E+00 0. -1.
        -11    1    1    2    0    0  0.11171751854E+02 -0.47861458978E+02  0.40418366904E+03  0.40716085963E+03  0.00000000000E+00 0.  1.
         11    1    1    2    0    0  0.10821074462E+01 -0.16947587760E+02 -0.47983151719E+03  0.48013193663E+03  0.00000000000E+00 0. -1.
        -15    1    1    2    0    0 -0.20821199020E+02  0.60366198710E+02  0.79656139407E+02  0.10210709353E+03  0.17770000000E+01 0.  1.
         15    1    1    2    0    0  0.85673397195E+01  0.44428480279E+01 -0.40082912644E+01  0.10600110204E+02  0.17770000000E+01 0. -1.
</event>
<event>
 6    1  0.6394569E-004  0.5015634E+03  0.7546771E-02  0.9396318E-01
        -11   -1    0    0    0    0  0.00000000000E+00  0.00000000000E+00  0.50000000000E+03  0.50000000000E+03  0.00000000000E+00 0.  1.
         11   -1    0    0    0    0 -0.00000000000E+00 -0.00000000000E+00 -0.50000000000E+03  0.50000000000E+03  0.00000000000E+00 0. -1.
        -11    1    1    2    0    0 -0.15049656816E+02 -0.12678213495E+02  0.37146934002E+03  0.37199018783E+03  0.00000000000E+00 0.  1.
         11    1    1    2    0    0 -0.64084494628E+01  0.51420245610E+01 -0.49836892489E+03  0.49843664987E+03  0.00000000000E+00 0. -1.
        -15    1    1    2    0    0  0.66093374983E+01 -0.23959329691E+01  0.54534679878E+02  0.55014660549E+02  0.17770000000E+01 0.  1.
         15    1    1    2    0    0  0.14848768781E+02  0.99321219032E+01  0.72364904993E+02  0.74558501751E+02  0.17770000000E+01 0. -1.
</event>
<event>
 6    1  0.6394569E-004  0.5005877E+03  0.7546771E-02  0.9398496E-01
        -11   -1    0    0    0    0  0.00000000000E+00  0.00000000000E+00  0.50000000000E+03  0.50000000000E+03  0.00000000000E+00 0.  1.
         11   -1    0    0    0    0 -0.00000000000E+00 -0.00000000000E+00 -0.50000000000E+03  0.50000000000E+03  0.00000000000E+00 0.  1.
        -11    1    1    2    0    0 -0.27151459672E+02 -0.97048391038E+00  0.49867277511E+03  0.49941233489E+03  0.00000000000E+00 0.  1.
         11    1    1    2    0    0  0.19879053453E+02 -0.13628680341E+02 -0.23022810619E+03  0.23148628161E+03  0.00000000000E+00 0.  1.
        -15    1    1    2    0    0 -0.16908561966E+01  0.34319858291E+01 -0.75635454948E+02  0.75753001891E+02  0.17770000000E+01 0.  1.
         15    1    1    2    0    0  0.89632624164E+01  0.11167178423E+02 -0.19280921397E+03  0.19334838160E+03  0.17770000000E+01 0. -1.
</event>
<event>
 6    1  0.6394569E-004  0.5029447E+03  0.7546771E-02  0.9393245E-01
        -11   -1    0    0    0    0  0.00000000000E+00  0.00000000000E+00  0.50000000000E+03  0.50000000000E+03  0.00000000000E+00 0. -1.
         11   -1    0    0    0    0 -0.00000000000E+00 -0.00000000000E+00 -0.50000000000E+03  0.50000000000E+03  0.00000000000E+00 0.  1.
        -11    1    1    2    0    0  0.50568536521E+01 -0.51067704250E+01  0.47639199123E+03  0.47644619862E+03  0.00000000000E+00 0. -1.
         11    1    1    2    0    0 -0.32509368854E+01  0.90653505815E+01 -0.49696203718E+03  0.49705534458E+03  0.00000000000E+00 0.  1.
        -15    1    1    2    0    0 -0.23983878185E+01  0.39603764197E+01  0.67686981791E+00  0.50052699491E+01  0.17770000000E+01 0. -1.
         15    1    1    2    0    0  0.59247105180E+00 -0.79189565761E+01  0.19893176137E+02  0.21493186852E+02  0.17770000000E+01 0.  1.
</event>
<event>
 6    1  0.6394569E-004  0.4816426E+03  0.7546771E-02  0.9441849E-01
        -11   -1    0    0    0    0  0.00000000000E+00  0.00000000000E+00  0.50000000000E+03  0.50000000000E+03  0.00000000000E+00 0. -1.
         11   -1    0    0    0    0 -0.00000000000E+00 -0.00000000000E+00 -0.50000000000E+03  0.50000000000E+03  0.00000000000E+00 0. -1.
        -11    1    1    2    0    0 -0.49544929375E+01 -0.26739642073E+02  0.47343624581E+03  0.47421665334E+03  0.00000000000E+00 0. -1.
         11    1    1    2    0    0  0.13583807043E+02 -0.21899334256E+01 -0.48948164921E+03  0.48967499480E+03  0.00000000000E+00 0. -1.
        -15    1    1    2    0    0 -0.56298905157E+01  0.42505362304E+01  0.22161956814E+01  0.76047339049E+01  0.17770000000E+01 0.  1.
         15    1    1    2    0    0 -0.29994235894E+01  0.24679039268E+02  0.13829207719E+02  0.28503617949E+02  0.17770000000E+01 0. -1.
</event>
<event>
 6    1  0.6394569E-004  0.4810510E+03  0.7546771E-02  0.9443237E-01
        -11   -1    0    0    0    0  0.00000000000E+00  0.00000000000E+00  0.50000000000E+03  0.50000000000E+03  0.00000000000E+00 0.  1.
         11   -1    0    0    0    0 -0.00000000000E+00 -0.00000000000E+00 -0.50000000000E+03  0.50000000000E+03  0.00000000000E+00 0.  1.
        -11    1    1    2    0    0 -0.14981683109E+02  0.12269069545E+01  0.47724696073E+03  0.47748363077E+03  0.00000000000E+00 0.  1.
         11    1    1    2    0    0 -0.32736268061E+01 -0.58047614465E+01 -0.48478625181E+03  0.48483205529E+03  0.00000000000E+00 0.  1.
        -15    1    1    2    0    0  0.98721117035E+01  0.91004445127E+01  0.18581424832E+02  0.22993559046E+02  0.17770000000E+01 0. -1.
         15    1    1    2    0    0  0.83831982117E+01 -0.45225900207E+01 -0.11042133750E+02  0.14690754899E+02  0.17770000000E+01 0.  1.
</event>
<event>
 6    1  0.6394569E-004  0.5077985E+03  0.7546771E-02  0.9382527E-01
        -11   -1    0    0    0    0  0.00000000000E+00  0.00000000000E+00  0.50000000000E+03  0.50000000000E+03  0.00000000000E+00 0. -1.
         11   -1    0    0    0    0 -0.00000000000E+00 -0.00000000000E+00 -0.50000000000E+03  0.50000000000E+03  0.00000000000E+00 0. -1.
        -11    1    1    2    0    0  0.23745549425E+02 -0.19890477918E+02  0.43426871555E+03  0.43537202429E+03  0.00000000000E+00 0. -1.
         11    1    1    2    0    0 -0.23643771573E+01  0.20341039149E+02 -0.49177528014E+03  0.49220145704E+03  0.00000000000E+00 0. -1.
        -15    1    1    2    0    0 -0.70594193782E+01 -0.12895850730E+02  0.49654326846E+02  0.51815521531E+02  0.17770000000E+01 0.  1.
         15    1    1    2    0    0 -0.14321752889E+02  0.12445289498E+02  0.78522377443E+01  0.20610997140E+02  0.17770000000E+01 0. -1.
</event>
<event>
 6    1  0.6394569E-004  0.5003794E+03  0.7546771E-02  0.9398961E-01
        -11   -1    0    0    0    0  0.00000000000E+00  0.00000000000E+00  0.50000000000E+03  0.50000000000E+03  0.00000000000E+00 0. -1.
         11   -1    0    0    0    0 -0.00000000000E+00 -0.00000000000E+00 -0.50000000000E+03  0.50000000000E+03  0.00000000000E+00 0. -1.
        -11    1    1    2    0    0  0.98992078149E+01 -0.21061355226E+01  0.36274523522E+03  0.36288639517E+03  0.00000000000E+00 0. -1.
         11    1    1    2    0    0 -0.22986171797E+01  0.76116893013E+01 -0.49955734569E+03  0.49962061916E+03  0.00000000000E+00 0. -1.
        -15    1    1    2    0    0 -0.35253857937E+01 -0.33378527548E+01  0.11545217801E+03  0.11556787072E+03  0.17770000000E+01 0. -1.
         15    1    1    2    0    0 -0.40752048415E+01 -0.21677010240E+01  0.21359932456E+02  0.21925114955E+02  0.17770000000E+01 0.  1.
</event>
<event>
 6    1  0.6394569E-004  0.5000939E+03  0.7546771E-02  0.9399600E-01
        -11   -1    0    0    0    0  0.00000000000E+00  0.00000000000E+00  0.50000000000E+03  0.50000000000E+03  0.00000000000E+00 0. -1.
         11   -1    0    0    0    0 -0.00000000000E+00 -0.00000000000E+00 -0.50000000000E+03  0.50000000000E+03  0.00000000000E+00 0. -1.
        -11    1    1    2    0    0  0.89580223508E+01  0.35431848465E+00  0.25173710425E+03  0.25189668788E+03  0.00000000000E+00 0. -1.
         11    1    1    2    0    0 -0.71220605436E+01 -0.83730261164E+00 -0.49985464714E+03  0.49990608426E+03  0.00000000000E+00 0. -1.
        -15    1    1    2    0    0 -0.73432942081E+00  0.26469403507E+01  0.13556599661E+03  0.13560546707E+03  0.17770000000E+01 0.  1.
         15    1    1    2    0    0 -0.11016323864E+01 -0.21639562238E+01  0.11255154627E+03  0.11259176079E+03  0.17770000000E+01 0. -1.
</event>
<event>
 6    1  0.6394569E-004  0.5117877E+03  0.7546771E-02  0.9373813E-01
        -11   -1    0    0    0    0  0.00000000000E+00  0.00000000000E+00  0.50000000000E+03  0.50000000000E+03  0.00000000000E+00 0.  1.
         11   -1    0    0    0    0 -0.00000000000E+00 -0.00000000000E+00 -0.50000000000E+03  0.50000000000E+03  0.00000000000E+00 0. -1.
        -11    1    1    2    0    0  0.45824194980E+02  0.22838908760E+02  0.39689666164E+03  0.40018549776E+03  0.00000000000E+00 0.  1.
         11    1    1    2    0    0 -0.95886535094E+01  0.24828920020E+00 -0.48811805418E+03  0.48821228860E+03  0.00000000000E+00 0. -1.
        -15    1    1    2    0    0 -0.40596091420E+02 -0.10927815811E+02  0.88903146608E+02  0.98358461776E+02  0.17770000000E+01 0.  1.
         15    1    1    2    0    0  0.43605499495E+01 -0.12159382149E+02  0.23182459328E+01  0.13243751860E+02  0.17770000000E+01 0. -1.
</event>
<event>
 6    1  0.6394569E-004  0.5023393E+03  0.7546771E-02  0.9394590E-01
        -11   -1    0    0    0    0  0.00000000000E+00  0.00000000000E+00  0.50000000000E+03  0.50000000000E+03  0.00000000000E+00 0.  1.
         11   -1    0    0    0    0 -0.00000000000E+00 -0.00000000000E+00 -0.50000000000E+03  0.50000000000E+03  0.00000000000E+00 0. -1.
        -11    1    1    2    0    0  0.82969094765E+01  0.23164217333E+02  0.40647099482E+03  0.40721504062E+03  0.00000000000E+00 0.  1.
         11    1    1    2    0    0 -0.75990540274E+01 -0.62004212836E+00 -0.49760225841E+03  0.49766066516E+03  0.00000000000E+00 0. -1.
        -15    1    1    2    0    0 -0.43251673768E+01 -0.12721582902E+02  0.71795868562E+02  0.73064014507E+02  0.17770000000E+01 0.  1.
         15    1    1    2    0    0  0.36273119277E+01 -0.98225923027E+01  0.19335395026E+02  0.22060279716E+02  0.17770000000E+01 0. -1.
</event>
<event>
 6    1  0.6394569E-004  0.5015936E+03  0.7546771E-02  0.9396251E-01
        -11   -1    0    0    0    0  0.00000000000E+00  0.00000000000E+00  0.50000000000E+03  0.50000000000E+03  0.00000000000E+00 0.  1.
         11   -1    0    0    0    0 -0.00000000000E+00 -0.00000000000E+00 -0.50000000000E+03  0.50000000000E+03  0.00000000000E+00 0. -1.
        -11    1    1    2    0    0  0.16074316206E+01 -0.10082857472E+02  0.49830176154E+03  0.49840635370E+03  0.00000000000E+00 0.  1.
         11    1    1    2    0    0  0.73262340128E+01  0.25548885100E+01 -0.46715063374E+03  0.46721506372E+03  0.00000000000E+00 0. -1.
        -15    1    1    2    0    0 -0.36385776681E+01  0.77892981287E+01 -0.21524164457E+02  0.23245640394E+02  0.17770000000E+01 0.  1.
         15    1    1    2    0    0 -0.52950879653E+01 -0.26132916688E+00 -0.96269633485E+01  0.11132942190E+02  0.17770000000E+01 0. -1.
</event>
<event>
 6    1  0.6394569E-004  0.5053112E+03  0.7546771E-02  0.9388003E-01
        -11   -1    0    0    0    0  0.00000000000E+00  0.00000000000E+00  0.50000000000E+03  0.50000000000E+03  0.00000000000E+00 0.  1.
         11   -1    0    0    0    0 -0.00000000000E+00 -0.00000000000E+00 -0.50000000000E+03  0.50000000000E+03  0.00000000000E+00 0. -1.
        -11    1    1    2    0    0  0.11221020947E+02  0.13374721940E+01  0.49455967759E+03  0.49468876563E+03  0.00000000000E+00 0.  1.
         11    1    1    2    0    0  0.76573617160E+01 -0.19925074268E+01 -0.47401647501E+03  0.47408250743E+03  0.00000000000E+00 0. -1.
        -15    1    1    2    0    0 -0.31960371643E+01  0.24525129878E+00 -0.13414043073E+02  0.13905721208E+02  0.17770000000E+01 0.  1.
         15    1    1    2    0    0 -0.15682345499E+02  0.40978393407E+00 -0.71291595121E+01  0.17323005731E+02  0.17770000000E+01 0. -1.
</event>
<event>
 6    1  0.6394569E-004  0.5035617E+03  0.7546771E-02  0.9391875E-01
        -11   -1    0    0    0    0  0.00000000000E+00  0.00000000000E+00  0.50000000000E+03  0.50000000000E+03  0.00000000000E+00 0.  1.
         11   -1    0    0    0    0 -0.00000000000E+00 -0.00000000000E+00 -0.50000000000E+03  0.50000000000E+03  0.00000000000E+00 0. -1.
        -11    1    1    2    0    0 -0.75653489996E+01 -0.16902550492E+02  0.45901416924E+03  0.45938756871E+03  0.00000000000E+00 0.  1.
         11    1    1    2    0    0 -0.76121395135E+01  0.32859073768E+01 -0.49636910963E+03  0.49643834949E+03  0.00000000000E+00 0. -1.
        -15    1    1    2    0    0  0.12038688407E+02  0.14176382893E+02  0.35413859366E+02  0.40039967716E+02  0.17770000000E+01 0. -1.
         15    1    1    2    0    0  0.31388001062E+01 -0.55973977818E+00  0.19410810152E+01  0.41341140808E+01  0.17770000000E+01 0.  1.
</event>
<event>
 6    1  0.6394569E-004  0.5006425E+03  0.7546771E-02  0.9398373E-01
        -11   -1    0    0    0    0  0.00000000000E+00  0.00000000000E+00  0.50000000000E+03  0.50000000000E+03  0.00000000000E+00 0. -1.
         11   -1    0    0    0    0 -0.00000000000E+00 -0.00000000000E+00 -0.50000000000E+03  0.50000000000E+03  0.00000000000E+00 0.  1.
        -11    1    1    2    0    0  0.81166458374E+01  0.35078995331E+02  0.49805771307E+03  0.49935748858E+03  0.00000000000E+00 0. -1.
         11    1    1    2    0    0  0.48883154410E+01  0.15052207865E+01 -0.12037041913E+03  0.12047904017E+03  0.00000000000E+00 0.  1.
        -15    1    1    2    0    0  0.34273057160E+01 -0.13876686553E+02 -0.16547679287E+03  0.16610248512E+03  0.17770000000E+01 0. -1.
         15    1    1    2    0    0 -0.16432266994E+02 -0.22707529565E+02 -0.21221050106E+03  0.21406098614E+03  0.17770000000E+01 0.  1.
</event>
<event>
 6    1  0.6394569E-004  0.5243639E+03  0.7546771E-02  0.9346885E-01
        -11   -1    0    0    0    0  0.00000000000E+00  0.00000000000E+00  0.50000000000E+03  0.50000000000E+03  0.00000000000E+00 0.  1.
         11   -1    0    0    0    0 -0.00000000000E+00 -0.00000000000E+00 -0.50000000000E+03  0.50000000000E+03  0.00000000000E+00 0. -1.
        -11    1    1    2    0    0  0.47118511445E+02  0.11475906699E+03  0.45917304348E+03  0.47563608088E+03  0.00000000000E+00 0.  1.
         11    1    1    2    0    0 -0.19238169243E+02  0.21934007026E+02 -0.32108223175E+03  0.32240503620E+03  0.00000000000E+00 0. -1.
        -15    1    1    2    0    0  0.93637861264E+01 -0.35371770881E+02 -0.19191854834E+02  0.41356108217E+02  0.17770000000E+01 0.  1.
         15    1    1    2    0    0 -0.37244128328E+02 -0.10132130313E+03 -0.11889895689E+03  0.16060277470E+03  0.17770000000E+01 0. -1.
</event>
<event>
 6    1  0.6394569E-004  0.5005923E+03  0.7546771E-02  0.9398485E-01
        -11   -1    0    0    0    0  0.00000000000E+00  0.00000000000E+00  0.50000000000E+03  0.50000000000E+03  0.00000000000E+00 0. -1.
         11   -1    0    0    0    0 -0.00000000000E+00 -0.00000000000E+00 -0.50000000000E+03  0.50000000000E+03  0.00000000000E+00 0. -1.
        -11    1    1    2    0    0 -0.43541325807E+01 -0.97397375774E+01  0.26008660278E+03  0.26030532439E+03  0.00000000000E+00 0. -1.
         11    1    1    2    0    0 -0.86644863858E+01 -0.31788095017E+01 -0.49932242443E+03  0.49940771089E+03  0.00000000000E+00 0. -1.
        -15    1    1    2    0    0 -0.37346665947E+00  0.54410894866E+01  0.34868079736E+02  0.35336746393E+02  0.17770000000E+01 0. -1.
         15    1    1    2    0    0  0.13392085626E+02  0.74774575924E+01  0.20436774191E+03  0.20495021833E+03  0.17770000000E+01 0.  1.
</event>
<event>
 6    1  0.6394569E-004  0.4880910E+03  0.7546771E-02  0.9426858E-01
        -11   -1    0    0    0    0  0.00000000000E+00  0.00000000000E+00  0.50000000000E+03  0.50000000000E+03  0.00000000000E+00 0. -1.
         11   -1    0    0    0    0 -0.00000000000E+00 -0.00000000000E+00 -0.50000000000E+03  0.50000000000E+03  0.00000000000E+00 0.  1.
        -11    1    1    2    0    0 -0.63736974210E+01 -0.65032490450E+01  0.49222274400E+03  0.49230696316E+03  0.00000000000E+00 0. -1.
         11    1    1    2    0    0 -0.10793354297E+02  0.70486812440E+01 -0.48389003922E+03  0.48406172175E+03  0.00000000000E+00 0.  1.
        -15    1    1    2    0    0 -0.20838415196E+01 -0.23998546253E+00 -0.64419539277E+00  0.28235979184E+01  0.17770000000E+01 0.  1.
         15    1    1    2    0    0  0.19250893237E+02 -0.30544673643E+00 -0.76885093880E+01  0.20807717168E+02  0.17770000000E+01 0.  1.
</event>
<event>
 6    1  0.6394569E-004  0.5015156E+03  0.7546771E-02  0.9396425E-01
        -11   -1    0    0    0    0  0.00000000000E+00  0.00000000000E+00  0.50000000000E+03  0.50000000000E+03  0.00000000000E+00 0. -1.
         11   -1    0    0    0    0 -0.00000000000E+00 -0.00000000000E+00 -0.50000000000E+03  0.50000000000E+03  0.00000000000E+00 0.  1.
        -11    1    1    2    0    0  0.86285409309E+01 -0.10665651546E+02  0.56280331089E+02  0.57928261746E+02  0.00000000000E+00 0. -1.
         11    1    1    2    0    0  0.11564543209E+02 -0.54922544236E+01 -0.49831992581E+03  0.49848435480E+03  0.00000000000E+00 0.  1.
        -15    1    1    2    0    0  0.57416621370E+01 -0.68211885825E+00  0.73671294696E+02  0.73919208339E+02  0.17770000000E+01 0.  1.
         15    1    1    2    0    0 -0.25934746277E+02  0.16840024828E+02  0.36836830003E+03  0.36966817512E+03  0.17770000000E+01 0. -1.
</event>
<event>
 6    1  0.6394569E-004  0.5023912E+03  0.7546771E-02  0.9394475E-01
        -11   -1    0    0    0    0  0.00000000000E+00  0.00000000000E+00  0.50000000000E+03  0.50000000000E+03  0.00000000000E+00 0. -1.
         11   -1    0    0    0    0 -0.00000000000E+00 -0.00000000000E+00 -0.50000000000E+03  0.50000000000E+03  0.00000000000E+00 0. -1.
        -11    1    1    2    0    0 -0.70656512033E+02  0.50238208355E+01  0.27304727604E+03  0.28208579621E+03  0.00000000000E+00 0. -1.
         11    1    1    2    0    0  0.65710987318E+02 -0.27521731739E+01 -0.49324339914E+03  0.49760884147E+03  0.00000000000E+00 0. -1.
        -15    1    1    2    0    0  0.43004870954E+01 -0.16531501255E+01  0.15156573462E+03  0.15164615634E+03  0.17770000000E+01 0. -1.
         15    1    1    2    0    0  0.64503761946E+00 -0.61849753615E+00  0.68630388484E+02  0.68659205976E+02  0.17770000000E+01 0. -1.
</event>
<event>
 6    1  0.6394569E-004  0.4603181E+03  0.7546771E-02  0.9493259E-01
        -11   -1    0    0    0    0  0.00000000000E+00  0.00000000000E+00  0.50000000000E+03  0.50000000000E+03  0.00000000000E+00 0. -1.
         11   -1    0    0    0    0 -0.00000000000E+00 -0.00000000000E+00 -0.50000000000E+03  0.50000000000E+03  0.00000000000E+00 0. -1.
        -11    1    1    2    0    0  0.13506713874E+02 -0.73013475646E+02  0.20732331171E+02  0.77092337501E+02  0.00000000000E+00 0. -1.
         11    1    1    2    0    0 -0.74753013927E+01  0.83438228101E+01 -0.46892846785E+03  0.46906226395E+03  0.00000000000E+00 0. -1.
        -15    1    1    2    0    0 -0.29049517036E+00  0.41512691307E+02  0.36245916235E+03  0.36483309887E+03  0.17770000000E+01 0. -1.
         15    1    1    2    0    0 -0.57409173108E+01  0.23156961530E+02  0.85736974322E+02  0.89012299676E+02  0.17770000000E+01 0.  1.
</event>
<event>
 6    1  0.6394569E-004  0.5003536E+03  0.7546771E-02  0.9399019E-01
        -11   -1    0    0    0    0  0.00000000000E+00  0.00000000000E+00  0.50000000000E+03  0.50000000000E+03  0.00000000000E+00 0.  1.
         11   -1    0    0    0    0 -0.00000000000E+00 -0.00000000000E+00 -0.50000000000E+03  0.50000000000E+03  0.00000000000E+00 0.  1.
        -11    1    1    2    0    0 -0.61798554023E+01  0.31533932709E+02  0.49861204066E+03  0.49964642160E+03  0.00000000000E+00 0.  1.
         11    1    1    2    0    0 -0.42928669105E+01 -0.24914961278E+02 -0.40851830266E+03  0.40929987492E+03  0.00000000000E+00 0.  1.
        -15    1    1    2    0    0  0.51681138489E+01 -0.25366373229E+01 -0.50587839837E+02  0.50945374648E+02  0.17770000000E+01 0.  1.
         15    1    1    2    0    0  0.53046084638E+01 -0.40823341087E+01 -0.39505898168E+02  0.40108328833E+02  0.17770000000E+01 0.  1.
</event>
<event>
 6    1  0.6394569E-004  0.5050493E+03  0.7546771E-02  0.9388582E-01
        -11   -1    0    0    0    0  0.00000000000E+00  0.00000000000E+00  0.50000000000E+03  0.50000000000E+03  0.00000000000E+00 0.  1.
         11   -1    0    0    0    0 -0.00000000000E+00 -0.00000000000E+00 -0.50000000000E+03  0.50000000000E+03  0.00000000000E+00 0.  1.
        -11    1    1    2    0    0 -0.53355439331E+01 -0.16998616173E+02  0.46316989642E+03  0.46351243126E+03  0.00000000000E+00 0.  1.
         11    1    1    2    0    0  0.14992411328E+01 -0.79010007556E+01 -0.49488534509E+03  0.49495068272E+03  0.00000000000E+00 0.  1.
        -15    1    1    2    0    0  0.58925247244E+01  0.10531601219E+02  0.14645763100E+02  0.19060235508E+02  0.17770000000E+01 0. -1.
         15    1    1    2    0    0 -0.20562219240E+01  0.14368015710E+02  0.17069685570E+02  0.22476650518E+02  0.17770000000E+01 0.  1.
</event>
<event>
 6    1  0.6394569E-004  0.5004162E+03  0.7546771E-02  0.9398879E-01
        -11   -1    0    0    0    0  0.00000000000E+00  0.00000000000E+00  0.50000000000E+03  0.50000000000E+03  0.00000000000E+00 0.  1.
         11   -1    0    0    0    0 -0.00000000000E+00 -0.00000000000E+00 -0.50000000000E+03  0.50000000000E+03  0.00000000000E+00 0. -1.
        -11    1    1    2    0    0  0.64252899747E+00  0.10045092922E+02  0.74499765585E+02  0.75176670633E+02  0.00000000000E+00 0.  1.
         11    1    1    2    0    0  0.18242885598E+01 -0.93963074508E+01 -0.49949208953E+03  0.49958379290E+03  0.00000000000E+00 0. -1.
        -15    1    1    2    0    0 -0.44602992949E+01 -0.54041860920E+01  0.13302260118E+03  0.13321887874E+03  0.17770000000E+01 0. -1.
         15    1    1    2    0    0  0.19934817376E+01  0.47554006205E+01  0.29196972276E+03  0.29202065773E+03  0.17770000000E+01 0.  1.
</event>
<event>
 6    1  0.6394569E-004  0.5004503E+03  0.7546771E-02  0.9398803E-01
        -11   -1    0    0    0    0  0.00000000000E+00  0.00000000000E+00  0.50000000000E+03  0.50000000000E+03  0.00000000000E+00 0. -1.
         11   -1    0    0    0    0 -0.00000000000E+00 -0.00000000000E+00 -0.50000000000E+03  0.50000000000E+03  0.00000000000E+00 0. -1.
        -11    1    1    2    0    0 -0.10771161617E+02 -0.32247810802E+01  0.47707271130E+03  0.47720518543E+03  0.00000000000E+00 0. -1.
         11    1    1    2    0    0  0.91273334642E+01  0.35208929109E+01 -0.49945391116E+03  0.49954971151E+03  0.00000000000E+00 0. -1.
        -15    1    1    2    0    0  0.22551897147E+01  0.11465432706E+01  0.66139181869E+01  0.73008276862E+01  0.17770000000E+01 0. -1.
         15    1    1    2    0    0 -0.61136156233E+00 -0.14426551014E+01  0.15767281669E+02  0.15944275366E+02  0.17770000000E+01 0.  1.
</event>
<event>
 6    1  0.6394569E-004  0.5012449E+03  0.7546771E-02  0.9397028E-01
        -11   -1    0    0    0    0  0.00000000000E+00  0.00000000000E+00  0.50000000000E+03  0.50000000000E+03  0.00000000000E+00 0. -1.
         11   -1    0    0    0    0 -0.00000000000E+00 -0.00000000000E+00 -0.50000000000E+03  0.50000000000E+03  0.00000000000E+00 0. -1.
        -11    1    1    2    0    0 -0.27864120383E+01 -0.10411284876E+02  0.43358288385E+03  0.43371681557E+03  0.00000000000E+00 0. -1.
         11    1    1    2    0    0  0.64012742903E+01  0.11203537818E+02 -0.49858812091E+03  0.49875506001E+03  0.00000000000E+00 0. -1.
        -15    1    1    2    0    0  0.28822413028E+01  0.70739602954E+01  0.24796051046E+02  0.26006731930E+02  0.17770000000E+01 0. -1.
         15    1    1    2    0    0 -0.64971035548E+01 -0.78662132378E+01  0.40209186016E+02  0.41521392491E+02  0.17770000000E+01 0.  1.
</event>
<event>
 6    1  0.6394569E-004  0.5004018E+03  0.7546771E-02  0.9398911E-01
        -11   -1    0    0    0    0  0.00000000000E+00  0.00000000000E+00  0.50000000000E+03  0.50000000000E+03  0.00000000000E+00 0. -1.
         11   -1    0    0    0    0 -0.00000000000E+00 -0.00000000000E+00 -0.50000000000E+03  0.50000000000E+03  0.00000000000E+00 0.  1.
        -11    1    1    2    0    0 -0.65927042808E+01  0.25457163301E+01  0.35706876047E+03  0.35713869033E+03  0.00000000000E+00 0. -1.
         11    1    1    2    0    0 -0.67970327563E+01 -0.27624336847E+01 -0.49954436835E+03  0.49959824524E+03  0.00000000000E+00 0.  1.
        -15    1    1    2    0    0  0.31416170342E+01  0.10914607227E+01  0.61817366843E+02  0.61932266360E+02  0.17770000000E+01 0.  1.
         15    1    1    2    0    0  0.10248120003E+02 -0.87474336807E+00  0.80658241034E+02  0.81330798074E+02  0.17770000000E+01 0. -1.
</event>
<event>
 6    1  0.6394569E-004  0.5008655E+03  0.7546771E-02  0.9397875E-01
        -11   -1    0    0    0    0  0.00000000000E+00  0.00000000000E+00  0.50000000000E+03  0.50000000000E+03  0.00000000000E+00 0. -1.
         11   -1    0    0    0    0 -0.00000000000E+00 -0.00000000000E+00 -0.50000000000E+03  0.50000000000E+03  0.00000000000E+00 0. -1.
        -11    1    1    2    0    0 -0.21015875566E+02 -0.16194917629E+02  0.16019996011E+03  0.16238217144E+03  0.00000000000E+00 0. -1.
         11    1    1    2    0    0  0.20632672236E+02  0.10231582969E+02 -0.49860292555E+03  0.49913452076E+03  0.00000000000E+00 0. -1.
        -15    1    1    2    0    0 -0.82975101387E+00  0.21545235896E+01  0.16141108127E+03  0.16143737282E+03  0.17770000000E+01 0.  1.
         15    1    1    2    0    0  0.12129543437E+01  0.38088110707E+01  0.17699188417E+03  0.17704593497E+03  0.17770000000E+01 0.  1.
</event>
<event>
 6    1  0.6394569E-004  0.5282680E+03  0.7546771E-02  0.9338689E-01
        -11   -1    0    0    0    0  0.00000000000E+00  0.00000000000E+00  0.50000000000E+03  0.50000000000E+03  0.00000000000E+00 0.  1.
         11   -1    0    0    0    0 -0.00000000000E+00 -0.00000000000E+00 -0.50000000000E+03  0.50000000000E+03  0.00000000000E+00 0. -1.
        -11    1    1    2    0    0 -0.55249576794E+02  0.18112315524E+03  0.43205662550E+03  0.47173195858E+03  0.00000000000E+00 0.  1.
         11    1    1    2    0    0  0.14818536942E+02 -0.21954950954E+01 -0.17463600420E+03  0.17527733224E+03  0.00000000000E+00 0. -1.
        -15    1    1    2    0    0  0.44912794398E+02 -0.12815853208E+03 -0.58917233078E+02  0.14804109743E+03  0.17770000000E+01 0. -1.
         15    1    1    2    0    0 -0.44817545459E+01 -0.50769128067E+02 -0.19850338823E+03  0.20494961175E+03  0.17770000000E+01 0.  1.
</event>
<event>
 6    1  0.6394569E-004  0.5015356E+03  0.7546771E-02  0.9396380E-01
        -11   -1    0    0    0    0  0.00000000000E+00  0.00000000000E+00  0.50000000000E+03  0.50000000000E+03  0.00000000000E+00 0.  1.
         11   -1    0    0    0    0 -0.00000000000E+00 -0.00000000000E+00 -0.50000000000E+03  0.50000000000E+03  0.00000000000E+00 0. -1.
        -11    1    1    2    0    0  0.14118842764E+00 -0.17024612618E+02  0.27271724431E+03  0.27324815226E+03  0.00000000000E+00 0.  1.
         11    1    1    2    0    0  0.96397970848E+01  0.51099009823E+01 -0.49834498754E+03  0.49846440534E+03  0.00000000000E+00 0. -1.
        -15    1    1    2    0    0 -0.26413532143E+00  0.20355894797E+02  0.16843624088E+03  0.16967132106E+03  0.17770000000E+01 0. -1.
         15    1    1    2    0    0 -0.95168501911E+01 -0.84411831617E+01  0.57191502354E+02  0.58616121342E+02  0.17770000000E+01 0.  1.
</event>
<event>
 6    1  0.6394569E-004  0.5000913E+03  0.7546771E-02  0.9399605E-01
        -11   -1    0    0    0    0  0.00000000000E+00  0.00000000000E+00  0.50000000000E+03  0.50000000000E+03  0.00000000000E+00 0. -1.
         11   -1    0    0    0    0 -0.00000000000E+00 -0.00000000000E+00 -0.50000000000E+03  0.50000000000E+03  0.00000000000E+00 0.  1.
        -11    1    1    2    0    0  0.21569434852E+01  0.49458559928E+00  0.15991402637E+03  0.15992933705E+03  0.00000000000E+00 0. -1.
         11    1    1    2    0    0  0.10953896837E+01  0.67418550875E+01 -0.49986205814E+03  0.49990872133E+03  0.00000000000E+00 0.  1.
        -15    1    1    2    0    0 -0.11674339926E+01 -0.86854165084E+01  0.24346037557E+03  0.24362452989E+03  0.17770000000E+01 0. -1.
         15    1    1    2    0    0 -0.20848991764E+01  0.14489758216E+01  0.96487656207E+02  0.96537411737E+02  0.17770000000E+01 0.  1.
</event>
<event>
 6    1  0.6394569E-004  0.4930459E+03  0.7546771E-02  0.9415506E-01
        -11   -1    0    0    0    0  0.00000000000E+00  0.00000000000E+00  0.50000000000E+03  0.50000000000E+03  0.00000000000E+00 0. -1.
         11   -1    0    0    0    0 -0.00000000000E+00 -0.00000000000E+00 -0.50000000000E+03  0.50000000000E+03  0.00000000000E+00 0.  1.
        -11    1    1    2    0    0 -0.16067365719E+02 -0.36872675036E+01  0.87147496344E+01  0.18646797150E+02  0.00000000000E+00 0. -1.
         11    1    1    2    0    0  0.85592814275E+01  0.11868178710E+02 -0.49238188049E+03  0.49259926025E+03  0.00000000000E+00 0.  1.
        -15    1    1    2    0    0 -0.51892825939E+01 -0.13557038656E+02  0.19480578744E+02  0.24359241124E+02  0.17770000000E+01 0.  1.
         15    1    1    2    0    0  0.12697366885E+02  0.53761274497E+01  0.46418655211E+03  0.46439470148E+03  0.17770000000E+01 0. -1.
</event>
<event>
 6    1  0.6394569E-004  0.5000382E+03  0.7546771E-02  0.9399724E-01
        -11   -1    0    0    0    0  0.00000000000E+00  0.00000000000E+00  0.50000000000E+03  0.50000000000E+03  0.00000000000E+00 0. -1.
         11   -1    0    0    0    0 -0.00000000000E+00 -0.00000000000E+00 -0.50000000000E+03  0.50000000000E+03  0.00000000000E+00 0.  1.
        -11    1    1    2    0    0  0.53157798015E+01 -0.45372167942E+01  0.21228524551E+03  0.21240025733E+03  0.00000000000E+00 0. -1.
         11    1    1    2    0    0 -0.84737626635E+01  0.12272997481E+02 -0.49973934944E+03  0.49996184704E+03  0.00000000000E+00 0.  1.
        -15    1    1    2    0    0  0.95979067027E+00 -0.13384800537E+01  0.33500781014E+02  0.33588283441E+02  0.17770000000E+01 0.  1.
         15    1    1    2    0    0  0.21981921917E+01 -0.63973006327E+01  0.25395332291E+03  0.25404961219E+03  0.17770000000E+01 0. -1.
</event>
<event>
 6    1  0.6394569E-004  0.5003430E+03  0.7546771E-02  0.9399043E-01
        -11   -1    0    0    0    0  0.00000000000E+00  0.00000000000E+00  0.50000000000E+03  0.50000000000E+03  0.00000000000E+00 0. -1.
         11   -1    0    0    0    0 -0.00000000000E+00 -0.00000000000E+00 -0.50000000000E+03  0.50000000000E+03  0.00000000000E+00 0. -1.
        -11    1    1    2    0    0  0.45038007882E+01  0.70122090491E+01  0.49958747849E+03  0.49965698630E+03  0.00000000000E+00 0. -1.
         11    1    1    2    0    0  0.35557318458E+01 -0.46718549147E+01 -0.43446957155E+03  0.43450923818E+03  0.00000000000E+00 0. -1.
        -15    1    1    2    0    0 -0.39606389231E+01 -0.14423866121E+01 -0.21669234728E+02  0.22146796665E+02  0.17770000000E+01 0. -1.
         15    1    1    2    0    0 -0.40988937110E+01 -0.89796752223E+00 -0.43448672211E+02  0.43686978852E+02  0.17770000000E+01 0.  1.
</event>
<event>
 6    1  0.6394569E-004  0.5001035E+03  0.7546771E-02  0.9399578E-01
        -11   -1    0    0    0    0  0.00000000000E+00  0.00000000000E+00  0.50000000000E+03  0.50000000000E+03  0.00000000000E+00 0. -1.
         11   -1    0    0    0    0 -0.00000000000E+00 -0.00000000000E+00 -0.50000000000E+03  0.50000000000E+03  0.00000000000E+00 0.  1.
        -11    1    1    2    0    0 -0.11670563781E+01 -0.53352308720E+01  0.94279456218E+02  0.94437506181E+02  0.00000000000E+00 0. -1.
         11    1    1    2    0    0 -0.59999393365E+01  0.36250035025E+01 -0.49984733267E+03  0.49989648519E+03  0.00000000000E+00 0.  1.
        -15    1    1    2    0    0  0.11601745768E+01 -0.93692907669E-01  0.14986101800E+03  0.14987607290E+03  0.17770000000E+01 0. -1.
         15    1    1    2    0    0  0.60068211378E+01  0.18039202772E+01  0.25570685846E+03  0.25578993573E+03  0.17770000000E+01 0.  1.
</event>
<event>
 6    1  0.6394569E-004  0.5008604E+03  0.7546771E-02  0.9397887E-01
        -11   -1    0    0    0    0  0.00000000000E+00  0.00000000000E+00  0.50000000000E+03  0.50000000000E+03  0.00000000000E+00 0. -1.
         11   -1    0    0    0    0 -0.00000000000E+00 -0.00000000000E+00 -0.50000000000E+03  0.50000000000E+03  0.00000000000E+00 0. -1.
        -11    1    1    2    0    0 -0.16709761475E+02 -0.96690649159E+01  0.99819055660E+02  0.10166882914E+03  0.00000000000E+00 0. -1.
         11    1    1    2    0    0  0.27042666670E+02  0.13423128055E+01 -0.49840468826E+03  0.49913960062E+03  0.00000000000E+00 0. -1.
        -15    1    1    2    0    0  0.93596783828E+00  0.99556253394E+01  0.15392628262E+03  0.15426097602E+03  0.17770000000E+01 0.  1.
         15    1    1    2    0    0 -0.11268873034E+02 -0.16288732291E+01  0.24465934998E+03  0.24493059423E+03  0.17770000000E+01 0. -1.
</event>
<event>
 6    1  0.6394569E-004  0.5034906E+03  0.7546771E-02  0.9392033E-01
        -11   -1    0    0    0    0  0.00000000000E+00  0.00000000000E+00  0.50000000000E+03  0.50000000000E+03  0.00000000000E+00 0. -1.
         11   -1    0    0    0    0 -0.00000000000E+00 -0.00000000000E+00 -0.50000000000E+03  0.50000000000E+03  0.00000000000E+00 0.  1.
        -11    1    1    2    0    0 -0.14849244753E+02  0.81751454805E+01  0.46002200894E+03  0.46033420662E+03  0.00000000000E+00 0. -1.
         11    1    1    2    0    0  0.26579629651E+01  0.66930904225E+01 -0.49645721233E+03  0.49650944191E+03  0.00000000000E+00 0.  1.
        -15    1    1    2    0    0  0.24975224313E+01 -0.15580427441E+01  0.18203589687E+02  0.18525483043E+02  0.17770000000E+01 0. -1.
         15    1    1    2    0    0  0.96937593571E+01 -0.13310193159E+02  0.18231613700E+02  0.24630868428E+02  0.17770000000E+01 0.  1.
</event>
<event>
 6    1  0.6394569E-004  0.5003780E+03  0.7546771E-02  0.9398964E-01
        -11   -1    0    0    0    0  0.00000000000E+00  0.00000000000E+00  0.50000000000E+03  0.50000000000E+03  0.00000000000E+00 0.  1.
         11   -1    0    0    0    0 -0.00000000000E+00 -0.00000000000E+00 -0.50000000000E+03  0.50000000000E+03  0.00000000000E+00 0.  1.
        -11    1    1    2    0    0 -0.37371157664E+01 -0.20356618981E+01  0.12628432809E+02  0.13326187333E+02  0.00000000000E+00 0.  1.
         11    1    1    2    0    0  0.80606337564E+01 -0.51054939774E+00 -0.49955671606E+03  0.49962200415E+03  0.00000000000E+00 0.  1.
        -15    1    1    2    0    0  0.60162986101E+00  0.48034623296E+01  0.26585893429E+03  0.26590894283E+03  0.17770000000E+01 0.  1.
         15    1    1    2    0    0 -0.49251478510E+01 -0.22572510338E+01  0.22106934896E+03  0.22114286568E+03  0.17770000000E+01 0. -1.
</event>
<event>
 6    1  0.6394569E-004  0.5033238E+03  0.7546771E-02  0.9392403E-01
        -11   -1    0    0    0    0  0.00000000000E+00  0.00000000000E+00  0.50000000000E+03  0.50000000000E+03  0.00000000000E+00 0. -1.
         11   -1    0    0    0    0 -0.00000000000E+00 -0.00000000000E+00 -0.50000000000E+03  0.50000000000E+03  0.00000000000E+00 0. -1.
        -11    1    1    2    0    0 -0.11133622046E+02 -0.51609024511E+01  0.49652456422E+03  0.49667618760E+03  0.00000000000E+00 0. -1.
         11    1    1    2    0    0  0.88766649651E-02 -0.85008957191E+01 -0.47356352828E+03  0.47363982162E+03  0.00000000000E+00 0. -1.
        -15    1    1    2    0    0  0.76739683996E+01  0.12352149558E+02 -0.16865226383E+02  0.22339628010E+02  0.17770000000E+01 0.  1.
         15    1    1    2    0    0  0.34507769812E+01  0.13096486120E+01 -0.60958095579E+01  0.73443627652E+01  0.17770000000E+01 0. -1.
</event>
<event>
 6    1  0.6394569E-004  0.4571344E+03  0.7546771E-02  0.9501189E-01
        -11   -1    0    0    0    0  0.00000000000E+00  0.00000000000E+00  0.50000000000E+03  0.50000000000E+03  0.00000000000E+00 0.  1.
         11   -1    0    0    0    0 -0.00000000000E+00 -0.00000000000E+00 -0.50000000000E+03  0.50000000000E+03  0.00000000000E+00 0. -1.
        -11    1    1    2    0    0  0.53356762774E+02  0.26748948837E+02  0.43874369861E+03  0.44278491784E+03  0.00000000000E+00 0.  1.
         11    1    1    2    0    0 -0.74660582033E+01  0.69255758851E+01 -0.47381581845E+03  0.47392524246E+03  0.00000000000E+00 0. -1.
        -15    1    1    2    0    0  0.93965572679E+01  0.16916822256E+01  0.65054417304E+01  0.11689122223E+02  0.17770000000E+01 0.  1.
         15    1    1    2    0    0 -0.55287261838E+02 -0.35366206948E+02  0.28566678116E+02  0.71600717476E+02  0.17770000000E+01 0. -1.
</event>
<event>
 6    1  0.6394569E-004  0.4769925E+03  0.7546771E-02  0.9452815E-01
        -11   -1    0    0    0    0  0.00000000000E+00  0.00000000000E+00  0.50000000000E+03  0.50000000000E+03  0.00000000000E+00 0. -1.
         11   -1    0    0    0    0 -0.00000000000E+00 -0.00000000000E+00 -0.50000000000E+03  0.50000000000E+03  0.00000000000E+00 0.  1.
        -11    1    1    2    0    0  0.11995579618E+02  0.32820591852E+02  0.46881981687E+03  0.47012030999E+03  0.00000000000E+00 0. -1.
         11    1    1    2    0    0 -0.10356234555E+02  0.71795648051E+01 -0.48467213722E+03  0.48483592930E+03  0.00000000000E+00 0.  1.
        -15    1    1    2    0    0 -0.43611792891E+01 -0.37316195198E+02  0.15882957383E+02  0.40828230099E+02  0.17770000000E+01 0. -1.
         15    1    1    2    0    0  0.27218342256E+01 -0.26839614595E+01 -0.30637032385E-01  0.42155306067E+01  0.17770000000E+01 0.  1.
</event>
<event>
 6    1  0.6394569E-004  0.5020720E+03  0.7546771E-02  0.9395185E-01
        -11   -1    0    0    0    0  0.00000000000E+00  0.00000000000E+00  0.50000000000E+03  0.50000000000E+03  0.00000000000E+00 0. -1.
         11   -1    0    0    0    0 -0.00000000000E+00 -0.00000000000E+00 -0.50000000000E+03  0.50000000000E+03  0.00000000000E+00 0. -1.
        -11    1    1    2    0    0 -0.22330668047E+02 -0.19951817650E+02  0.49702673134E+03  0.49792801230E+03  0.00000000000E+00 0. -1.
         11    1    1    2    0    0 -0.16295380245E+01  0.93392430317E+01 -0.38551589018E+03  0.38563243955E+03  0.00000000000E+00 0. -1.
        -15    1    1    2    0    0  0.19468487789E+02  0.16717366601E+02 -0.86865333636E+02  0.90593798240E+02  0.17770000000E+01 0.  1.
         15    1    1    2    0    0  0.44917182821E+01 -0.61047919819E+01 -0.24645507525E+02  0.25845749910E+02  0.17770000000E+01 0. -1.
</event>
<event>
 6    1  0.6394569E-004  0.5000887E+03  0.7546771E-02  0.9399611E-01
        -11   -1    0    0    0    0  0.00000000000E+00  0.00000000000E+00  0.50000000000E+03  0.50000000000E+03  0.00000000000E+00 0. -1.
         11   -1    0    0    0    0 -0.00000000000E+00 -0.00000000000E+00 -0.50000000000E+03  0.50000000000E+03  0.00000000000E+00 0. -1.
        -11    1    1    2    0    0  0.87515102248E+01 -0.37155746114E+01  0.49982087288E+03  0.49991129152E+03  0.00000000000E+00 0. -1.
         11    1    1    2    0    0  0.23707384715E+01 -0.85638903179E+00 -0.10126333589E+03  0.10129470370E+03  0.00000000000E+00 0. -1.
        -15    1    1    2    0    0 -0.18085380832E+01  0.26224147820E+01 -0.71199084756E+02  0.71292462914E+02  0.17770000000E+01 0.  1.
         15    1    1    2    0    0 -0.93137106131E+01  0.19495488612E+01 -0.32735845223E+03  0.32750154186E+03  0.17770000000E+01 0. -1.
</event>
<event>
 6    1  0.6394569E-004  0.4794196E+03  0.7546771E-02  0.9447075E-01
        -11   -1    0    0    0    0  0.00000000000E+00  0.00000000000E+00  0.50000000000E+03  0.50000000000E+03  0.00000000000E+00 0.  1.
         11   -1    0    0    0    0 -0.00000000000E+00 -0.00000000000E+00 -0.50000000000E+03  0.50000000000E+03  0.00000000000E+00 0. -1.
        -11    1    1    2    0    0 -0.13108837294E+02  0.10266867701E+02  0.47103778972E+03  0.47133199502E+03  0.00000000000E+00 0.  1.
         11    1    1    2    0    0 -0.53181127001E+01  0.10382093454E+02 -0.48791549982E+03  0.48805492022E+03  0.00000000000E+00 0. -1.
        -15    1    1    2    0    0  0.19309144926E+02 -0.23183832458E+02  0.19908625573E+02  0.36191770700E+02  0.17770000000E+01 0. -1.
         15    1    1    2    0    0 -0.88219493145E+00  0.25348713036E+01 -0.30309154662E+01  0.44213140565E+01  0.17770000000E+01 0.  1.
</event>
<event>
 6    1  0.6394569E-004  0.5033096E+03  0.7546771E-02  0.9392435E-01
        -11   -1    0    0    0    0  0.00000000000E+00  0.00000000000E+00  0.50000000000E+03  0.50000000000E+03  0.00000000000E+00 0. -1.
         11   -1    0    0    0    0 -0.00000000000E+00 -0.00000000000E+00 -0.50000000000E+03  0.50000000000E+03  0.00000000000E+00 0.  1.
        -11    1    1    2    0    0  0.30223524390E+02 -0.12404808486E+03  0.48000000676E+03  0.49669044210E+03  0.00000000000E+00 0. -1.
         11    1    1    2    0    0 -0.28114321305E+02  0.11387452886E+03 -0.29573478468E+03  0.31814601405E+03  0.00000000000E+00 0.  1.
        -15    1    1    2    0    0 -0.35325835694E+01 -0.28236021614E+01 -0.39358305529E+02  0.39657103008E+02  0.17770000000E+01 0. -1.
         15    1    1    2    0    0  0.14233804840E+01  0.12997158161E+02 -0.14490691656E+03  0.14550644084E+03  0.17770000000E+01 0.  1.
</event>
<event>
 6    1  0.6394569E-004  0.5011053E+03  0.7546771E-02  0.9397340E-01
        -11   -1    0    0    0    0  0.00000000000E+00  0.00000000000E+00  0.50000000000E+03  0.50000000000E+03  0.00000000000E+00 0.  1.
         11   -1    0    0    0    0 -0.00000000000E+00 -0.00000000000E+00 -0.50000000000E+03  0.50000000000E+03  0.00000000000E+00 0. -1.
        -11    1    1    2    0    0 -0.21661121003E+01 -0.27684890551E+02  0.14106142889E+03  0.14376881417E+03  0.00000000000E+00 0.  1.
         11    1    1    2    0    0  0.11865127906E+01  0.23660354326E+02 -0.49833193933E+03  0.49889472029E+03  0.00000000000E+00 0. -1.
        -15    1    1    2    0    0 -0.66633671897E+00 -0.28634164064E+00  0.96897587710E+02  0.96916594189E+02  0.17770000000E+01 0. -1.
         15    1    1    2    0    0  0.16459360287E+01  0.43108778660E+01  0.26037292273E+03  0.26041987135E+03  0.17770000000E+01 0.  1.
</event>
<event>
 6    1  0.6394569E-004  0.5013479E+03  0.7546771E-02  0.9396799E-01
        -11   -1    0    0    0    0  0.00000000000E+00  0.00000000000E+00  0.50000000000E+03  0.50000000000E+03  0.00000000000E+00 0.  1.
         11   -1    0    0    0    0 -0.00000000000E+00 -0.00000000000E+00 -0.50000000000E+03  0.50000000000E+03  0.00000000000E+00 0. -1.
        -11    1    1    2    0    0  0.22238881354E+01  0.16012132903E+02  0.49839001574E+03  0.49865212510E+03  0.00000000000E+00 0.  1.
         11    1    1    2    0    0 -0.12706075993E+02 -0.67211884852E+01 -0.40791262225E+03  0.40816580715E+03  0.00000000000E+00 0. -1.
        -15    1    1    2    0    0  0.14161958266E+02 -0.82342145731E+01 -0.53914665471E+02  0.56376522005E+02  0.17770000000E+01 0. -1.
         15    1    1    2    0    0 -0.36797704080E+01 -0.10567298445E+01 -0.36562728020E+02  0.36805545744E+02  0.17770000000E+01 0.  1.
</event>
<event>
 6    1  0.6394569E-004  0.5002445E+03  0.7546771E-02  0.9399263E-01
        -11   -1    0    0    0    0  0.00000000000E+00  0.00000000000E+00  0.50000000000E+03  0.50000000000E+03  0.00000000000E+00 0. -1.
         11   -1    0    0    0    0 -0.00000000000E+00 -0.00000000000E+00 -0.50000000000E+03  0.50000000000E+03  0.00000000000E+00 0. -1.
        -11    1    1    2    0    0 -0.34965403066E+01  0.13447672896E+02  0.49956232287E+03  0.49975552036E+03  0.00000000000E+00 0. -1.
         11    1    1    2    0    0 -0.28837445968E+01  0.20398973578E+01 -0.50264879924E+02  0.50388841204E+02  0.00000000000E+00 0. -1.
        -15    1    1    2    0    0  0.10076538929E+02 -0.14651323909E+02 -0.32852356538E+03  0.32900925316E+03  0.17770000000E+01 0. -1.
         15    1    1    2    0    0 -0.36962540259E+01 -0.83624634455E+00 -0.12077387757E+03  0.12084638527E+03  0.17770000000E+01 0.  1.
</event>
<event>
 6    1  0.6394569E-004  0.5038159E+03  0.7546771E-02  0.9391312E-01
        -11   -1    0    0    0    0  0.00000000000E+00  0.00000000000E+00  0.50000000000E+03  0.50000000000E+03  0.00000000000E+00 0.  1.
         11   -1    0    0    0    0 -0.00000000000E+00 -0.00000000000E+00 -0.50000000000E+03  0.50000000000E+03  0.00000000000E+00 0.  1.
        -11    1    1    2    0    0  0.15933099946E+02 -0.64369526936E+02  0.49173298012E+03  0.49618406203E+03  0.00000000000E+00 0.  1.
         11    1    1    2    0    0 -0.34278763158E+01  0.28225644540E+01 -0.65201908173E+02  0.65352934406E+02  0.00000000000E+00 0.  1.
        -15    1    1    2    0    0 -0.25166356763E+01 -0.18408294609E+02 -0.49219794791E+02  0.52639763428E+02  0.17770000000E+01 0. -1.
         15    1    1    2    0    0 -0.99885879544E+01  0.79955257091E+02 -0.37731127716E+03  0.38582324013E+03  0.17770000000E+01 0.  1.
</event>
<event>
 6    1  0.6394569E-004  0.5001645E+03  0.7546771E-02  0.9399442E-01
        -11   -1    0    0    0    0  0.00000000000E+00  0.00000000000E+00  0.50000000000E+03  0.50000000000E+03  0.00000000000E+00 0.  1.
         11   -1    0    0    0    0 -0.00000000000E+00 -0.00000000000E+00 -0.50000000000E+03  0.50000000000E+03  0.00000000000E+00 0.  1.
        -11    1    1    2    0    0  0.82799532271E+01 -0.82349312543E+01  0.49969907826E+03  0.49983551348E+03  0.00000000000E+00 0.  1.
         11    1    1    2    0    0 -0.67436523007E+01  0.54478073744E+00 -0.39960259822E+03  0.39965986806E+03  0.00000000000E+00 0.  1.
        -15    1    1    2    0    0 -0.21892206791E+01  0.48776979806E+01 -0.65974258488E+02  0.66214387687E+02  0.17770000000E+01 0. -1.
         15    1    1    2    0    0  0.65291975275E+00  0.28124525362E+01 -0.34122221554E+02  0.34290230770E+02  0.17770000000E+01 0.  1.
</event>
<event>
 6    1  0.6394569E-004  0.5028188E+03  0.7546771E-02  0.9393525E-01
        -11   -1    0    0    0    0  0.00000000000E+00  0.00000000000E+00  0.50000000000E+03  0.50000000000E+03  0.00000000000E+00 0. -1.
         11   -1    0    0    0    0 -0.00000000000E+00 -0.00000000000E+00 -0.50000000000E+03  0.50000000000E+03  0.00000000000E+00 0.  1.
        -11    1    1    2    0    0 -0.18862579950E+02  0.38275310647E+01  0.28521122335E+02  0.34407867351E+02  0.00000000000E+00 0. -1.
         11    1    1    2    0    0  0.17406521889E+02  0.10417033704E+01 -0.49687535802E+03  0.49718124819E+03  0.00000000000E+00 0.  1.
        -15    1    1    2    0    0 -0.12315156080E+01 -0.19566551380E+01  0.16927139435E+03  0.16929650854E+03  0.17770000000E+01 0.  1.
         15    1    1    2    0    0  0.26875736686E+01 -0.29125792971E+01  0.29908284134E+03  0.29911437592E+03  0.17770000000E+01 0. -1.
</event>
<event>
 6    1  0.6394569E-004  0.5025175E+03  0.7546771E-02  0.9394194E-01
        -11   -1    0    0    0    0  0.00000000000E+00  0.00000000000E+00  0.50000000000E+03  0.50000000000E+03  0.00000000000E+00 0. -1.
         11   -1    0    0    0    0 -0.00000000000E+00 -0.00000000000E+00 -0.50000000000E+03  0.50000000000E+03  0.00000000000E+00 0.  1.
        -11    1    1    2    0    0  0.12552943424E+02 -0.18636888627E+02  0.49697480912E+03  0.49748253326E+03  0.00000000000E+00 0. -1.
         11    1    1    2    0    0 -0.54364678254E+01 -0.55174556391E+01 -0.43524405283E+03  0.43531297135E+03  0.00000000000E+00 0.  1.
        -15    1    1    2    0    0 -0.67566917689E+01  0.20974194198E+02 -0.45770033507E+02  0.50829355712E+02  0.17770000000E+01 0. -1.
         15    1    1    2    0    0 -0.35978382978E+00  0.31801500683E+01 -0.15960722775E+02  0.16375139674E+02  0.17770000000E+01 0. -1.
</event>
<event>
 6    1  0.6394569E-004  0.5032167E+03  0.7546771E-02  0.9392641E-01
        -11   -1    0    0    0    0  0.00000000000E+00  0.00000000000E+00  0.50000000000E+03  0.50000000000E+03  0.00000000000E+00 0.  1.
         11   -1    0    0    0    0 -0.00000000000E+00 -0.00000000000E+00 -0.50000000000E+03  0.50000000000E+03  0.00000000000E+00 0.  1.
        -11    1    1    2    0    0 -0.15482000526E+02  0.11198305890E+02  0.49641574568E+03  0.49678334005E+03  0.00000000000E+00 0.  1.
         11    1    1    2    0    0  0.33999744536E+01  0.78779555487E+01 -0.45000545284E+03  0.45008724665E+03  0.00000000000E+00 0.  1.
        -15    1    1    2    0    0  0.14040237085E+02 -0.18039423415E+02 -0.42582104131E+02  0.48362613409E+02  0.17770000000E+01 0. -1.
         15    1    1    2    0    0 -0.19582110123E+01 -0.10368380239E+01 -0.38281887061E+01  0.47667998936E+01  0.17770000000E+01 0. -1.
</event>
<event>
 6    1  0.6394569E-004  0.5069971E+03  0.7546771E-02  0.9384288E-01
        -11   -1    0    0    0    0  0.00000000000E+00  0.00000000000E+00  0.50000000000E+03  0.50000000000E+03  0.00000000000E+00 0.  1.
         11   -1    0    0    0    0 -0.00000000000E+00 -0.00000000000E+00 -0.50000000000E+03  0.50000000000E+03  0.00000000000E+00 0.  1.
        -11    1    1    2    0    0  0.26117633287E+01  0.18126648084E+02  0.47841735650E+03  0.47876775547E+03  0.00000000000E+00 0.  1.
         11    1    1    2    0    0 -0.81413420454E+01  0.20081867653E+01 -0.49293157064E+03  0.49300288802E+03  0.00000000000E+00 0.  1.
        -15    1    1    2    0    0  0.66887637750E+01 -0.13321559561E+02  0.40238458424E+01  0.15541961727E+02  0.17770000000E+01 0.  1.
         15    1    1    2    0    0 -0.11591850583E+01 -0.68132752880E+01  0.10490368298E+02  0.12687394775E+02  0.17770000000E+01 0. -1.
</event>
<event>
 6    1  0.6394569E-004  0.5045656E+03  0.7546771E-02  0.9389651E-01
        -11   -1    0    0    0    0  0.00000000000E+00  0.00000000000E+00  0.50000000000E+03  0.50000000000E+03  0.00000000000E+00 0. -1.
         11   -1    0    0    0    0 -0.00000000000E+00 -0.00000000000E+00 -0.50000000000E+03  0.50000000000E+03  0.00000000000E+00 0. -1.
        -11    1    1    2    0    0 -0.27825322218E+02  0.67946206927E+01  0.33450630886E+03  0.33573037708E+03  0.00000000000E+00 0. -1.
         11    1    1    2    0    0  0.55413122731E+01  0.30516323171E+02 -0.49446266219E+03  0.49543443201E+03  0.00000000000E+00 0. -1.
        -15    1    1    2    0    0 -0.91034678033E+00 -0.14264859612E+02  0.95064139540E+02  0.96149172157E+02  0.17770000000E+01 0.  1.
         15    1    1    2    0    0  0.23194356725E+02 -0.23046084252E+02  0.64892213789E+02  0.72686018757E+02  0.17770000000E+01 0. -1.
</event>
<event>
 6    1  0.6394569E-004  0.5002358E+03  0.7546771E-02  0.9399282E-01
        -11   -1    0    0    0    0  0.00000000000E+00  0.00000000000E+00  0.50000000000E+03  0.50000000000E+03  0.00000000000E+00 0.  1.
         11   -1    0    0    0    0 -0.00000000000E+00 -0.00000000000E+00 -0.50000000000E+03  0.50000000000E+03  0.00000000000E+00 0. -1.
        -11    1    1    2    0    0 -0.18295961674E+00  0.26303992196E+02  0.29002165937E+03  0.29121211579E+03  0.00000000000E+00 0.  1.
         11    1    1    2    0    0  0.73592139037E+01 -0.29018820442E+02 -0.49886669229E+03  0.49976417103E+03  0.00000000000E+00 0. -1.
        -15    1    1    2    0    0 -0.47725501976E+01  0.98438772174E+00  0.12546967704E+03  0.12557684436E+03  0.17770000000E+01 0.  1.
         15    1    1    2    0    0 -0.24037040893E+01  0.17304405234E+01  0.83375355886E+02  0.83446868820E+02  0.17770000000E+01 0.  1.
</event>
<event>
 6    1  0.6394569E-004  0.5013190E+03  0.7546771E-02  0.9396863E-01
        -11   -1    0    0    0    0  0.00000000000E+00  0.00000000000E+00  0.50000000000E+03  0.50000000000E+03  0.00000000000E+00 0.  1.
         11   -1    0    0    0    0 -0.00000000000E+00 -0.00000000000E+00 -0.50000000000E+03  0.50000000000E+03  0.00000000000E+00 0.  1.
        -11    1    1    2    0    0  0.79428050628E+01 -0.71197695642E+01  0.42268058213E+03  0.42281515320E+03  0.00000000000E+00 0.  1.
         11    1    1    2    0    0  0.12604322650E+01 -0.66603358396E+01 -0.49863496080E+03  0.49868103322E+03  0.00000000000E+00 0.  1.
        -15    1    1    2    0    0  0.15696664882E+01  0.54795504088E+01  0.27824341252E+02  0.28457705823E+02  0.17770000000E+01 0.  1.
         15    1    1    2    0    0 -0.10772903816E+02  0.83005549950E+01  0.48130037421E+02  0.50046107750E+02  0.17770000000E+01 0. -1.
</event>
<event>
 6    1  0.6394569E-004  0.5064993E+03  0.7546771E-02  0.9385383E-01
        -11   -1    0    0    0    0  0.00000000000E+00  0.00000000000E+00  0.50000000000E+03  0.50000000000E+03  0.00000000000E+00 0. -1.
         11   -1    0    0    0    0 -0.00000000000E+00 -0.00000000000E+00 -0.50000000000E+03  0.50000000000E+03  0.00000000000E+00 0.  1.
        -11    1    1    2    0    0 -0.68888640097E+02  0.36628525818E+02  0.48729416011E+03  0.49350065057E+03  0.00000000000E+00 0. -1.
         11    1    1    2    0    0 -0.41938454349E+01 -0.87976449468E+01 -0.32272411902E+03  0.32287124972E+03  0.00000000000E+00 0.  1.
        -15    1    1    2    0    0  0.61253866104E+02 -0.22103433170E+02 -0.15193071237E+03  0.16530788536E+03  0.17770000000E+01 0.  1.
         15    1    1    2    0    0  0.11828619428E+02 -0.57274477011E+01 -0.12639328713E+02  0.18320214357E+02  0.17770000000E+01 0. -1.
</event>
<event>
 6    1  0.6394569E-004  0.5002726E+03  0.7546771E-02  0.9399200E-01
        -11   -1    0    0    0    0  0.00000000000E+00  0.00000000000E+00  0.50000000000E+03  0.50000000000E+03  0.00000000000E+00 0. -1.
         11   -1    0    0    0    0 -0.00000000000E+00 -0.00000000000E+00 -0.50000000000E+03  0.50000000000E+03  0.00000000000E+00 0. -1.
        -11    1    1    2    0    0 -0.45599843661E+01 -0.23115876003E+02  0.28486143313E+03  0.28583417092E+03  0.00000000000E+00 0. -1.
         11    1    1    2    0    0  0.16698315958E+01  0.22578911948E+02 -0.49921427471E+03  0.49972741337E+03  0.00000000000E+00 0. -1.
        -15    1    1    2    0    0  0.76201057231E+00  0.95433536278E+00  0.15899409875E+03  0.15900871857E+03  0.17770000000E+01 0. -1.
         15    1    1    2    0    0  0.21281421980E+01 -0.41737130862E+00  0.55358742829E+02  0.55429697136E+02  0.17770000000E+01 0. -1.
</event>
<event>
 6    1  0.6394569E-004  0.5003656E+03  0.7546771E-02  0.9398992E-01
        -11   -1    0    0    0    0  0.00000000000E+00  0.00000000000E+00  0.50000000000E+03  0.50000000000E+03  0.00000000000E+00 0.  1.
         11   -1    0    0    0    0 -0.00000000000E+00 -0.00000000000E+00 -0.50000000000E+03  0.50000000000E+03  0.00000000000E+00 0. -1.
        -11    1    1    2    0    0 -0.75979944848E+01  0.11439939955E+02  0.49944564545E+03  0.49963442086E+03  0.00000000000E+00 0.  1.
         11    1    1    2    0    0  0.24479159199E+01  0.38382003970E+01 -0.33439621338E+03  0.33442719925E+03  0.00000000000E+00 0. -1.
        -15    1    1    2    0    0  0.23589982222E+01 -0.49858802580E+01 -0.39282018062E+02  0.39707159891E+02  0.17770000000E+01 0. -1.
         15    1    1    2    0    0  0.27910803427E+01 -0.10292260094E+02 -0.12576741401E+03  0.12623122000E+03  0.17770000000E+01 0.  1.
</event>
<event>
 6    1  0.6394569E-004  0.5008614E+03  0.7546771E-02  0.9397884E-01
        -11   -1    0    0    0    0  0.00000000000E+00  0.00000000000E+00  0.50000000000E+03  0.50000000000E+03  0.00000000000E+00 0.  1.
         11   -1    0    0    0    0 -0.00000000000E+00 -0.00000000000E+00 -0.50000000000E+03  0.50000000000E+03  0.00000000000E+00 0. -1.
        -11    1    1    2    0    0  0.24843547779E+02 -0.64282468839E+01  0.49847848673E+03  0.49913858391E+03  0.00000000000E+00 0.  1.
         11    1    1    2    0    0 -0.97521239547E+01 -0.79105688631E+01 -0.34303620579E+03  0.34326596031E+03  0.00000000000E+00 0. -1.
        -15    1    1    2    0    0 -0.12987600922E+02  0.15606508313E+02 -0.14989082260E+03  0.15127014678E+03  0.17770000000E+01 0. -1.
         15    1    1    2    0    0 -0.21038229019E+01 -0.12676925664E+01 -0.55514583313E+01  0.63253089924E+01  0.17770000000E+01 0.  1.
</event>
<event>
 6    1  0.6394569E-004  0.5096224E+03  0.7546771E-02  0.9378533E-01
        -11   -1    0    0    0    0  0.00000000000E+00  0.00000000000E+00  0.50000000000E+03  0.50000000000E+03  0.00000000000E+00 0. -1.
         11   -1    0    0    0    0 -0.00000000000E+00 -0.00000000000E+00 -0.50000000000E+03  0.50000000000E+03  0.00000000000E+00 0.  1.
        -11    1    1    2    0    0  0.71536633514E+01  0.80098069217E+02  0.48373886038E+03  0.49037756946E+03  0.00000000000E+00 0. -1.
         11    1    1    2    0    0 -0.18161789314E+02 -0.56046683716E+01 -0.37521450058E+03  0.37569560065E+03  0.00000000000E+00 0.  1.
        -15    1    1    2    0    0 -0.57084617963E+01 -0.24017628686E+02 -0.41937604226E+02  0.48696544035E+02  0.17770000000E+01 0. -1.
         15    1    1    2    0    0  0.16716587759E+02 -0.50475772160E+02 -0.66586755565E+02  0.85230285856E+02  0.17770000000E+01 0.  1.
</event>
<event>
 6    1  0.6394569E-004  0.5004616E+03  0.7546771E-02  0.9398777E-01
        -11   -1    0    0    0    0  0.00000000000E+00  0.00000000000E+00  0.50000000000E+03  0.50000000000E+03  0.00000000000E+00 0. -1.
         11   -1    0    0    0    0 -0.00000000000E+00 -0.00000000000E+00 -0.50000000000E+03  0.50000000000E+03  0.00000000000E+00 0. -1.
        -11    1    1    2    0    0 -0.71849692253E+01  0.40001114468E+01  0.36603366765E+03  0.36612603093E+03  0.00000000000E+00 0. -1.
         11    1    1    2    0    0  0.46875438026E+00  0.77917696179E+01 -0.49947735914E+03  0.49953835058E+03  0.00000000000E+00 0. -1.
        -15    1    1    2    0    0 -0.21661628084E+00 -0.48627180211E+01  0.33751213796E+02  0.34146670568E+02  0.17770000000E+01 0.  1.
         15    1    1    2    0    0  0.69328311259E+01 -0.69291630436E+01  0.99692477697E+02  0.10018894792E+03  0.17770000000E+01 0. -1.
</event>
<event>
 6    1  0.6394569E-004  0.5009120E+03  0.7546771E-02  0.9397771E-01
        -11   -1    0    0    0    0  0.00000000000E+00  0.00000000000E+00  0.50000000000E+03  0.50000000000E+03  0.00000000000E+00 0.  1.
         11   -1    0    0    0    0 -0.00000000000E+00 -0.00000000000E+00 -0.50000000000E+03  0.50000000000E+03  0.00000000000E+00 0.  1.
        -11    1    1    2    0    0  0.38229522993E+01  0.14187648137E+02  0.32727009960E+03  0.32759979002E+03  0.00000000000E+00 0.  1.
         11    1    1    2    0    0 -0.53599212919E+01  0.52074772418E+01 -0.49903204692E+03  0.49908799868E+03  0.00000000000E+00 0.  1.
        -15    1    1    2    0    0  0.29076996784E+01 -0.16427531586E+02  0.16198037448E+03  0.16284691571E+03  0.17770000000E+01 0.  1.
         15    1    1    2    0    0 -0.13707306858E+01 -0.29675937923E+01  0.97815728373E+01  0.10465295586E+02  0.17770000000E+01 0. -1.
</event>
<event>
 6    1  0.6394569E-004  0.4930826E+03  0.7546771E-02  0.9415422E-01
        -11   -1    0    0    0    0  0.00000000000E+00  0.00000000000E+00  0.50000000000E+03  0.50000000000E+03  0.00000000000E+00 0.  1.
         11   -1    0    0    0    0 -0.00000000000E+00 -0.00000000000E+00 -0.50000000000E+03  0.50000000000E+03  0.00000000000E+00 0. -1.
        -11    1    1    2    0    0  0.25602783681E+01 -0.67183135943E+01  0.49094105091E+03  0.49099369266E+03  0.00000000000E+00 0.  1.
         11    1    1    2    0    0  0.77897261403E+01  0.82480881395E+00 -0.49519072213E+03  0.49525267432E+03  0.00000000000E+00 0. -1.
        -15    1    1    2    0    0 -0.91775684222E+01  0.46824265999E+01  0.42973213952E+01  0.11303874609E+02  0.17770000000E+01 0. -1.
         15    1    1    2    0    0 -0.11724360861E+01  0.12110781804E+01 -0.47650174134E-01  0.24497584114E+01  0.17770000000E+01 0.  1.
</event>
<event>
 6    1  0.6394569E-004  0.5023512E+03  0.7546771E-02  0.9394564E-01
        -11   -1    0    0    0    0  0.00000000000E+00  0.00000000000E+00  0.50000000000E+03  0.50000000000E+03  0.00000000000E+00 0.  1.
         11   -1    0    0    0    0 -0.00000000000E+00 -0.00000000000E+00 -0.50000000000E+03  0.50000000000E+03  0.00000000000E+00 0. -1.
        -11    1    1    2    0    0  0.12912880765E+01  0.10189457754E+02  0.44304524078E+03  0.44316427862E+03  0.00000000000E+00 0.  1.
         11    1    1    2    0    0 -0.10214811729E+02 -0.48241883390E+01 -0.49752057312E+03  0.49764880774E+03  0.00000000000E+00 0. -1.
        -15    1    1    2    0    0  0.22902844393E+01 -0.11160800170E+02  0.16287994222E+02  0.19956586583E+02  0.17770000000E+01 0.  1.
         15    1    1    2    0    0  0.66332392134E+01  0.57955307557E+01  0.38187338117E+02  0.39230327053E+02  0.17770000000E+01 0. -1.
</event>
<event>
 6    1  0.6394569E-004  0.5026261E+03  0.7546771E-02  0.9393953E-01
        -11   -1    0    0    0    0  0.00000000000E+00  0.00000000000E+00  0.50000000000E+03  0.50000000000E+03  0.00000000000E+00 0. -1.
         11   -1    0    0    0    0 -0.00000000000E+00 -0.00000000000E+00 -0.50000000000E+03  0.50000000000E+03  0.00000000000E+00 0.  1.
        -11    1    1    2    0    0 -0.94313830689E+01  0.88348763306E+01  0.43764768553E+03  0.43783844358E+03  0.00000000000E+00 0. -1.
         11    1    1    2    0    0 -0.68860959674E+01 -0.37819794724E+01 -0.49731187353E+03  0.49737392497E+03  0.00000000000E+00 0.  1.
        -15    1    1    2    0    0  0.68123154666E+01 -0.33309578868E+00  0.40228239638E+01  0.81153827060E+01  0.17770000000E+01 0.  1.
         15    1    1    2    0    0  0.95051635696E+01 -0.47198010696E+01  0.55641364041E+02  0.56672248746E+02  0.17770000000E+01 0. -1.
</event>
<event>
 6    1  0.6394569E-004  0.5016254E+03  0.7546771E-02  0.9396180E-01
        -11   -1    0    0    0    0  0.00000000000E+00  0.00000000000E+00  0.50000000000E+03  0.50000000000E+03  0.00000000000E+00 0. -1.
         11   -1    0    0    0    0 -0.00000000000E+00 -0.00000000000E+00 -0.50000000000E+03  0.50000000000E+03  0.00000000000E+00 0. -1.
        -11    1    1    2    0    0 -0.61895605662E+01  0.78390363717E+01  0.49827446029E+03  0.49837455686E+03  0.00000000000E+00 0. -1.
         11    1    1    2    0    0  0.59986180855E+01  0.18851342155E+01 -0.45048131865E+03  0.45052519974E+03  0.00000000000E+00 0. -1.
        -15    1    1    2    0    0  0.48102697576E+01 -0.56567282606E+01 -0.90927567792E+01  0.11873214586E+02  0.17770000000E+01 0. -1.
         15    1    1    2    0    0 -0.46193272769E+01 -0.40674423267E+01 -0.38700384865E+02  0.39227028810E+02  0.17770000000E+01 0.  1.
</event>
<event>
 6    1  0.8957411E-004  0.5001535E+03  0.7546771E-02  0.9399466E-01
        -11   -1    0    0    0    0  0.00000000000E+00  0.00000000000E+00  0.50000000000E+03  0.50000000000E+03  0.00000000000E+00 0.  1.
         11   -1    0    0    0    0 -0.00000000000E+00 -0.00000000000E+00 -0.50000000000E+03  0.50000000000E+03  0.00000000000E+00 0.  1.
        -11    1    1    2    0    0  0.40937164836E+01  0.68507654385E+01  0.49978280263E+03  0.49984651775E+03  0.00000000000E+00 0.  1.
         11    1    1    2    0    0  0.37170285157E+01 -0.14573264902E+01 -0.27463518415E+03  0.27466420311E+03  0.00000000000E+00 0.  1.
        -15    1    1    2    0    0 -0.79714592968E+01 -0.44057252926E+01 -0.13498260570E+03  0.13530120528E+03  0.17770000000E+01 0.  1.
         15    1    1    2    0    0  0.16071429758E+00 -0.98771365575E+00 -0.90165012780E+02  0.90188073857E+02  0.17770000000E+01 0. -1.
</event>
<event>
 6    1  0.6394569E-004  0.5003302E+03  0.7546771E-02  0.9399071E-01
        -11   -1    0    0    0    0  0.00000000000E+00  0.00000000000E+00  0.50000000000E+03  0.50000000000E+03  0.00000000000E+00 0.  1.
         11   -1    0    0    0    0 -0.00000000000E+00 -0.00000000000E+00 -0.50000000000E+03  0.50000000000E+03  0.00000000000E+00 0.  1.
        -11    1    1    2    0    0 -0.88122072464E+01 -0.27716839956E+01  0.63292489120E+02  0.63963086290E+02  0.00000000000E+00 0.  1.
         11    1    1    2    0    0  0.11773017060E+02 -0.35368682042E+01 -0.49951860413E+03  0.49966984023E+03  0.00000000000E+00 0.  1.
        -15    1    1    2    0    0 -0.37195832132E+01  0.65818684568E+00  0.98839316536E+02  0.98927431643E+02  0.17770000000E+01 0. -1.
         15    1    1    2    0    0  0.75877339904E+00  0.56503653541E+01  0.33738679848E+03  0.33743964183E+03  0.17770000000E+01 0.  1.
</event>
<event>
 6    1  0.6394569E-004  0.5067841E+03  0.7546771E-02  0.9384757E-01
        -11   -1    0    0    0    0  0.00000000000E+00  0.00000000000E+00  0.50000000000E+03  0.50000000000E+03  0.00000000000E+00 0. -1.
         11   -1    0    0    0    0 -0.00000000000E+00 -0.00000000000E+00 -0.50000000000E+03  0.50000000000E+03  0.00000000000E+00 0.  1.
        -11    1    1    2    0    0 -0.44416137133E+02 -0.26653127105E+02  0.49048831743E+03  0.49321594860E+03  0.00000000000E+00 0. -1.
         11    1    1    2    0    0  0.40236323615E+01 -0.60131481221E+01 -0.39507606965E+03  0.39514231408E+03  0.00000000000E+00 0.  1.
        -15    1    1    2    0    0  0.28165374180E+02  0.93030434153E+01 -0.36453432289E+02  0.47030260196E+02  0.17770000000E+01 0.  1.
         15    1    1    2    0    0  0.12227130591E+02  0.23363231812E+02 -0.58958815486E+02  0.64611477120E+02  0.17770000000E+01 0. -1.
</event>
<event>
 6    1  0.6394569E-004  0.5009084E+03  0.7546771E-02  0.9397779E-01
        -11   -1    0    0    0    0  0.00000000000E+00  0.00000000000E+00  0.50000000000E+03  0.50000000000E+03  0.00000000000E+00 0.  1.
         11   -1    0    0    0    0 -0.00000000000E+00 -0.00000000000E+00 -0.50000000000E+03  0.50000000000E+03  0.00000000000E+00 0. -1.
        -11    1    1    2    0    0 -0.34699623001E+01  0.55985085364E+01  0.46081762390E+03  0.46086469427E+03  0.00000000000E+00 0.  1.
         11    1    1    2    0    0  0.66398980873E+01  0.36272426170E+01 -0.49903423413E+03  0.49909158675E+03  0.00000000000E+00 0. -1.
        -15    1    1    2    0    0 -0.46975489519E+01 -0.66865966682E+01  0.24074075849E+02  0.25485219209E+02  0.17770000000E+01 0.  1.
         15    1    1    2    0    0  0.15276131647E+01 -0.25391544851E+01  0.14142534385E+02  0.14558499762E+02  0.17770000000E+01 0. -1.
</event>
<event>
 6    1  0.7568630E-004  0.5001520E+03  0.7546771E-02  0.9399470E-01
        -11   -1    0    0    0    0  0.00000000000E+00  0.00000000000E+00  0.50000000000E+03  0.50000000000E+03  0.00000000000E+00 0. -1.
         11   -1    0    0    0    0 -0.00000000000E+00 -0.00000000000E+00 -0.50000000000E+03  0.50000000000E+03  0.00000000000E+00 0. -1.
        -11    1    1    2    0    0 -0.51093160283E+01 -0.13411129459E+02  0.49964191280E+03  0.49984798142E+03  0.00000000000E+00 0. -1.
         11    1    1    2    0    0  0.47200471204E+01  0.14052721393E+02 -0.25676355380E+03  0.25719113589E+03  0.00000000000E+00 0. -1.
        -15    1    1    2    0    0  0.67781577335E+00 -0.25718920938E+01 -0.84484756097E+02  0.84545288484E+02  0.17770000000E+01 0. -1.
         15    1    1    2    0    0 -0.28854686540E+00  0.19303001598E+01 -0.15839360290E+03  0.15841559420E+03  0.17770000000E+01 0.  1.
</event>
<event>
 6    1  0.6394569E-004  0.5002148E+03  0.7546771E-02  0.9399329E-01
        -11   -1    0    0    0    0  0.00000000000E+00  0.00000000000E+00  0.50000000000E+03  0.50000000000E+03  0.00000000000E+00 0. -1.
         11   -1    0    0    0    0 -0.00000000000E+00 -0.00000000000E+00 -0.50000000000E+03  0.50000000000E+03  0.00000000000E+00 0.  1.
        -11    1    1    2    0    0  0.13311239609E+02 -0.50628851991E+01  0.14294197163E+03  0.14364967511E+03  0.00000000000E+00 0. -1.
         11    1    1    2    0    0 -0.20702921939E+02  0.73207493628E+00 -0.49935567855E+03  0.49978519446E+03  0.00000000000E+00 0.  1.
        -15    1    1    2    0    0  0.30249279682E+01  0.29830067291E+01  0.24538097315E+03  0.24542418021E+03  0.17770000000E+01 0. -1.
         15    1    1    2    0    0  0.43667543623E+01  0.13478035337E+01  0.11103273376E+03  0.11114095021E+03  0.17770000000E+01 0. -1.
</event>
<event>
 6    1  0.6394569E-004  0.5025541E+03  0.7546771E-02  0.9394113E-01
        -11   -1    0    0    0    0  0.00000000000E+00  0.00000000000E+00  0.50000000000E+03  0.50000000000E+03  0.00000000000E+00 0.  1.
         11   -1    0    0    0    0 -0.00000000000E+00 -0.00000000000E+00 -0.50000000000E+03  0.50000000000E+03  0.00000000000E+00 0.  1.
        -11    1    1    2    0    0 -0.11986559870E+02 -0.44362859992E+01  0.45999607800E+03  0.46017360858E+03  0.00000000000E+00 0.  1.
         11    1    1    2    0    0  0.39983406698E+01 -0.75447407993E+01 -0.49737263023E+03  0.49744591981E+03  0.00000000000E+00 0.  1.
        -15    1    1    2    0    0  0.73138582042E+00  0.11461268734E+02  0.16344895352E+02  0.20055147451E+02  0.17770000000E+01 0.  1.
         15    1    1    2    0    0  0.72568333797E+01  0.51975806428E+00  0.21031656870E+02  0.22325324160E+02  0.17770000000E+01 0. -1.
</event>
<event>
 6    1  0.7641671E-004  0.5000437E+03  0.7546771E-02  0.9399712E-01
        -11   -1    0    0    0    0  0.00000000000E+00  0.00000000000E+00  0.50000000000E+03  0.50000000000E+03  0.00000000000E+00 0.  1.
         11   -1    0    0    0    0 -0.00000000000E+00 -0.00000000000E+00 -0.50000000000E+03  0.50000000000E+03  0.00000000000E+00 0. -1.
        -11    1    1    2    0    0 -0.51737472029E+01  0.69550665487E+01  0.49988117395E+03  0.49995632678E+03  0.00000000000E+00 0.  1.
         11    1    1    2    0    0 -0.15048615476E+01 -0.36024881975E+01 -0.16180509951E+03  0.16185219417E+03  0.00000000000E+00 0. -1.
        -15    1    1    2    0    0  0.56631116560E+01 -0.19494501145E+01 -0.21666731503E+03  0.21675736278E+03  0.17770000000E+01 0. -1.
         15    1    1    2    0    0  0.10154970946E+01 -0.14031282367E+01 -0.12140875941E+03  0.12143411627E+03  0.17770000000E+01 0.  1.
</event>
<event>
 6    1  0.6394569E-004  0.5010007E+03  0.7546771E-02  0.9397573E-01
        -11   -1    0    0    0    0  0.00000000000E+00  0.00000000000E+00  0.50000000000E+03  0.50000000000E+03  0.00000000000E+00 0.  1.
         11   -1    0    0    0    0 -0.00000000000E+00 -0.00000000000E+00 -0.50000000000E+03  0.50000000000E+03  0.00000000000E+00 0.  1.
        -11    1    1    2    0    0 -0.61563434688E+01  0.17946465446E+02  0.49863842350E+03  0.49899925208E+03  0.00000000000E+00 0.  1.
         11    1    1    2    0    0 -0.50973904831E+01  0.53176240619E+01 -0.32108839896E+03  0.32117288251E+03  0.00000000000E+00 0.  1.
        -15    1    1    2    0    0  0.10881195159E+02 -0.14535438491E+02 -0.90368608462E+02  0.92191770265E+02  0.17770000000E+01 0. -1.
         15    1    1    2    0    0  0.37253879332E+00 -0.87286510174E+01 -0.87181416076E+02  0.87636095142E+02  0.17770000000E+01 0.  1.
</event>
<event>
 6    1  0.6394569E-004  0.5004308E+03  0.7546771E-02  0.9398846E-01
        -11   -1    0    0    0    0  0.00000000000E+00  0.00000000000E+00  0.50000000000E+03  0.50000000000E+03  0.00000000000E+00 0. -1.
         11   -1    0    0    0    0 -0.00000000000E+00 -0.00000000000E+00 -0.50000000000E+03  0.50000000000E+03  0.00000000000E+00 0.  1.
        -11    1    1    2    0    0  0.57841848165E+01  0.49665000684E+01  0.61453763664E+02  0.61924857572E+02  0.00000000000E+00 0. -1.
         11    1    1    2    0    0  0.11054418166E+01  0.13724905226E+02 -0.49937938795E+03  0.49956918253E+03  0.00000000000E+00 0.  1.
        -15    1    1    2    0    0 -0.67510177018E+01 -0.64540198342E+01  0.24499956927E+03  0.24518396621E+03  0.17770000000E+01 0. -1.
         15    1    1    2    0    0 -0.13860893123E+00 -0.12237385460E+02  0.19292605501E+03  0.19332199370E+03  0.17770000000E+01 0.  1.
</event>
<event>
 6    1  0.1074602E-003  0.5000761E+03  0.7546771E-02  0.9399640E-01
        -11   -1    0    0    0    0  0.00000000000E+00  0.00000000000E+00  0.50000000000E+03  0.50000000000E+03  0.00000000000E+00 0.  1.
         11   -1    0    0    0    0 -0.00000000000E+00 -0.00000000000E+00 -0.50000000000E+03  0.50000000000E+03  0.00000000000E+00 0. -1.
        -11    1    1    2    0    0  0.10624408242E+02 -0.19016390186E+01  0.49980739716E+03  0.49992392275E+03  0.00000000000E+00 0.  1.
         11    1    1    2    0    0 -0.18377426857E+01 -0.14702094306E+01 -0.12745236514E+03  0.12747409224E+03  0.00000000000E+00 0. -1.
        -15    1    1    2    0    0  0.15507728688E+00 -0.14240609387E+01 -0.14013808317E+03  0.14015666977E+03  0.17770000000E+01 0. -1.
         15    1    1    2    0    0 -0.89417428429E+01  0.47959093878E+01 -0.23221694885E+03  0.23244531524E+03  0.17770000000E+01 0. -1.
</event>
<event>
 6    1  0.6394569E-004  0.5023001E+03  0.7546771E-02  0.9394678E-01
        -11   -1    0    0    0    0  0.00000000000E+00  0.00000000000E+00  0.50000000000E+03  0.50000000000E+03  0.00000000000E+00 0. -1.
         11   -1    0    0    0    0 -0.00000000000E+00 -0.00000000000E+00 -0.50000000000E+03  0.50000000000E+03  0.00000000000E+00 0.  1.
        -11    1    1    2    0    0 -0.30289809660E+02 -0.10457706473E+02  0.96108721289E+02  0.10131003159E+03  0.00000000000E+00 0. -1.
         11    1    1    2    0    0  0.21569963006E+02  0.18861927249E+02 -0.49687439216E+03  0.49769990676E+03  0.00000000000E+00 0.  1.
        -15    1    1    2    0    0  0.25758065071E+01 -0.27719418136E+01  0.78043586485E+02  0.78155470448E+02  0.17770000000E+01 0. -1.
         15    1    1    2    0    0  0.61440401467E+01 -0.56322789622E+01  0.32272208439E+03  0.32283459120E+03  0.17770000000E+01 0. -1.
</event>
<event>
 6    1  0.6394569E-004  0.5011970E+03  0.7546771E-02  0.9397135E-01
        -11   -1    0    0    0    0  0.00000000000E+00  0.00000000000E+00  0.50000000000E+03  0.50000000000E+03  0.00000000000E+00 0. -1.
         11   -1    0    0    0    0 -0.00000000000E+00 -0.00000000000E+00 -0.50000000000E+03  0.50000000000E+03  0.00000000000E+00 0.  1.
        -11    1    1    2    0    0  0.16174082394E+02 -0.72235958592E+01  0.38427730984E+03  0.38468536772E+03  0.00000000000E+00 0. -1.
         11    1    1    2    0    0 -0.14777485802E+02  0.18822566629E+01 -0.49858046563E+03  0.49880296480E+03  0.00000000000E+00 0.  1.
        -15    1    1    2    0    0  0.72977151002E+01 -0.47743115511E+01  0.37758545246E+02  0.38793248956E+02  0.17770000000E+01 0.  1.
         15    1    1    2    0    0 -0.86943116920E+01  0.10115650747E+02  0.76544610545E+02  0.77718418527E+02  0.17770000000E+01 0. -1.
</event>
<event>
 6    1  0.6394569E-004  0.5006668E+03  0.7546771E-02  0.9398319E-01
        -11   -1    0    0    0    0  0.00000000000E+00  0.00000000000E+00  0.50000000000E+03  0.50000000000E+03  0.00000000000E+00 0. -1.
         11   -1    0    0    0    0 -0.00000000000E+00 -0.00000000000E+00 -0.50000000000E+03  0.50000000000E+03  0.00000000000E+00 0.  1.
        -11    1    1    2    0    0 -0.77576762739E+01 -0.45750999852E+02  0.29204734230E+03  0.29571098335E+03  0.00000000000E+00 0. -1.
         11    1    1    2    0    0  0.27603864503E+02  0.51948037297E+02 -0.49585588675E+03  0.49933318770E+03  0.00000000000E+00 0.  1.
        -15    1    1    2    0    0 -0.10148809975E+02 -0.51334328485E+01  0.12413593452E+03  0.12466851425E+03  0.17770000000E+01 0. -1.
         15    1    1    2    0    0 -0.96973782539E+01 -0.10636045965E+01  0.79672609925E+02  0.80287314696E+02  0.17770000000E+01 0.  1.
</event>
<event>
 6    1  0.1072767E-003  0.5000625E+03  0.7546771E-02  0.9399670E-01
        -11   -1    0    0    0    0  0.00000000000E+00  0.00000000000E+00  0.50000000000E+03  0.50000000000E+03  0.00000000000E+00 0. -1.
         11   -1    0    0    0    0 -0.00000000000E+00 -0.00000000000E+00 -0.50000000000E+03  0.50000000000E+03  0.00000000000E+00 0.  1.
        -11    1    1    2    0    0 -0.10724990565E+01 -0.81958451469E+01  0.49986916724E+03  0.49993750259E+03  0.00000000000E+00 0. -1.
         11    1    1    2    0    0 -0.24442932071E+01 -0.79154221488E+00 -0.14589799738E+03  0.14592061797E+03  0.00000000000E+00 0.  1.
        -15    1    1    2    0    0  0.10067309308E+01  0.20640433201E+01 -0.15379683909E+03  0.15382424784E+03  0.17770000000E+01 0.  1.
         15    1    1    2    0    0  0.25100613328E+01  0.69233440417E+01 -0.20017433077E+03  0.20031763160E+03  0.17770000000E+01 0. -1.
</event>
<event>
 6    1  0.6394569E-004  0.5012483E+03  0.7546771E-02  0.9397021E-01
        -11   -1    0    0    0    0  0.00000000000E+00  0.00000000000E+00  0.50000000000E+03  0.50000000000E+03  0.00000000000E+00 0. -1.
         11   -1    0    0    0    0 -0.00000000000E+00 -0.00000000000E+00 -0.50000000000E+03  0.50000000000E+03  0.00000000000E+00 0.  1.
        -11    1    1    2    0    0 -0.53908174063E+01 -0.11359356410E+01  0.47980725461E+01  0.73056664478E+01  0.00000000000E+00 0. -1.
         11    1    1    2    0    0  0.78915419806E+01 -0.83408204899E+01 -0.49861954932E+03  0.49875174254E+03  0.00000000000E+00 0.  1.
        -15    1    1    2    0    0 -0.20496281685E+01  0.31764723838E+01  0.14830718117E+03  0.14836599566E+03  0.17770000000E+01 0. -1.
         15    1    1    2    0    0 -0.45109640575E+00  0.63002837470E+01  0.34551429560E+03  0.34557659535E+03  0.17770000000E+01 0. -1.
</event>
<event>
 6    1  0.6394569E-004  0.5017355E+03  0.7546771E-02  0.9395935E-01
        -11   -1    0    0    0    0  0.00000000000E+00  0.00000000000E+00  0.50000000000E+03  0.50000000000E+03  0.00000000000E+00 0.  1.
         11   -1    0    0    0    0 -0.00000000000E+00 -0.00000000000E+00 -0.50000000000E+03  0.50000000000E+03  0.00000000000E+00 0. -1.
        -11    1    1    2    0    0 -0.88269047578E+01  0.14886403524E+02  0.49796380431E+03  0.49826445755E+03  0.00000000000E+00 0.  1.
         11    1    1    2    0    0 -0.85259009283E+01 -0.36110450867E+01 -0.41830679567E+03  0.41840925651E+03  0.00000000000E+00 0. -1.
        -15    1    1    2    0    0  0.16342673186E+02 -0.13161951075E+02 -0.75013051314E+02  0.77912999682E+02  0.17770000000E+01 0. -1.
         15    1    1    2    0    0  0.10101325001E+01  0.18865926382E+01 -0.46439573241E+01  0.54132862550E+01  0.17770000000E+01 0.  1.
</event>
<event>
 6    1  0.6394569E-004  0.5039800E+03  0.7546771E-02  0.9390948E-01
        -11   -1    0    0    0    0  0.00000000000E+00  0.00000000000E+00  0.50000000000E+03  0.50000000000E+03  0.00000000000E+00 0.  1.
         11   -1    0    0    0    0 -0.00000000000E+00 -0.00000000000E+00 -0.50000000000E+03  0.50000000000E+03  0.00000000000E+00 0. -1.
        -11    1    1    2    0    0  0.23079821650E+02 -0.13881584903E+02  0.49528827143E+03  0.49602000805E+03  0.00000000000E+00 0.  1.
         11    1    1    2    0    0  0.20759980341E+00  0.12119026435E+02 -0.45293664207E+03  0.45309879235E+03  0.00000000000E+00 0. -1.
        -15    1    1    2    0    0 -0.21988315003E+02  0.63591640912E+01 -0.36514414578E+02  0.43132182482E+02  0.17770000000E+01 0. -1.
         15    1    1    2    0    0 -0.12991064502E+01 -0.45966056235E+01 -0.58372147809E+01  0.77490171135E+01  0.17770000000E+01 0.  1.
</event>
<event>
 6    1  0.6394569E-004  0.5016109E+03  0.7546771E-02  0.9396212E-01
        -11   -1    0    0    0    0  0.00000000000E+00  0.00000000000E+00  0.50000000000E+03  0.50000000000E+03  0.00000000000E+00 0.  1.
         11   -1    0    0    0    0 -0.00000000000E+00 -0.00000000000E+00 -0.50000000000E+03  0.50000000000E+03  0.00000000000E+00 0.  1.
        -11    1    1    2    0    0  0.14764785255E+02 -0.15994987901E+02  0.32574191644E+03  0.32646842826E+03  0.00000000000E+00 0.  1.
         11    1    1    2    0    0  0.79359620356E+01 -0.27517548824E+00 -0.49832581233E+03  0.49838907537E+03  0.00000000000E+00 0.  1.
        -15    1    1    2    0    0 -0.87995739566E+01  0.25731461057E+01  0.37536227389E+02  0.38680481878E+02  0.17770000000E+01 0. -1.
         15    1    1    2    0    0 -0.13901173334E+02  0.13697017284E+02  0.13504766850E+03  0.13646201449E+03  0.17770000000E+01 0.  1.
</event>
<event>
 6    1  0.6394569E-004  0.5005212E+03  0.7546771E-02  0.9398644E-01
        -11   -1    0    0    0    0  0.00000000000E+00  0.00000000000E+00  0.50000000000E+03  0.50000000000E+03  0.00000000000E+00 0. -1.
         11   -1    0    0    0    0 -0.00000000000E+00 -0.00000000000E+00 -0.50000000000E+03  0.50000000000E+03  0.00000000000E+00 0. -1.
        -11    1    1    2    0    0  0.51269102008E+02  0.72339895322E+01  0.49678792057E+03  0.49947881782E+03  0.00000000000E+00 0. -1.
         11    1    1    2    0    0 -0.53989545953E+02 -0.10624493762E+02 -0.44745670745E+03  0.45082730173E+03  0.00000000000E+00 0. -1.
        -15    1    1    2    0    0  0.92231805797E+00  0.10247836912E+01 -0.27274285077E+02  0.27366863315E+02  0.17770000000E+01 0.  1.
         15    1    1    2    0    0  0.17981258866E+01  0.23657205385E+01 -0.22056928045E+02  0.22327017135E+02  0.17770000000E+01 0. -1.
</event>
<event>
 6    1  0.6394569E-004  0.5003191E+03  0.7546771E-02  0.9399096E-01
        -11   -1    0    0    0    0  0.00000000000E+00  0.00000000000E+00  0.50000000000E+03  0.50000000000E+03  0.00000000000E+00 0.  1.
         11   -1    0    0    0    0 -0.00000000000E+00 -0.00000000000E+00 -0.50000000000E+03  0.50000000000E+03  0.00000000000E+00 0. -1.
        -11    1    1    2    0    0 -0.20618114640E+02 -0.31756884137E+01  0.31201794889E+03  0.31271455368E+03  0.00000000000E+00 0.  1.
         11    1    1    2    0    0  0.16042126046E+02  0.61964686566E+00 -0.49942298298E+03  0.49968094791E+03  0.00000000000E+00 0. -1.
        -15    1    1    2    0    0  0.55797962283E+01  0.16504273375E+01  0.11078329037E+03  0.11095022843E+03  0.17770000000E+01 0.  1.
         15    1    1    2    0    0 -0.10038076339E+01  0.90561421052E+00  0.76621743722E+02  0.76654269984E+02  0.17770000000E+01 0. -1.
</event>
<event>
 6    1  0.6394569E-004  0.5000364E+03  0.7546771E-02  0.9399728E-01
        -11   -1    0    0    0    0  0.00000000000E+00  0.00000000000E+00  0.50000000000E+03  0.50000000000E+03  0.00000000000E+00 0. -1.
         11   -1    0    0    0    0 -0.00000000000E+00 -0.00000000000E+00 -0.50000000000E+03  0.50000000000E+03  0.00000000000E+00 0. -1.
        -11    1    1    2    0    0 -0.69072285565E+01  0.12073720657E+00  0.29529778611E+03  0.29537858227E+03  0.00000000000E+00 0. -1.
         11    1    1    2    0    0  0.77242748876E+01  0.12808510069E+01 -0.49990226340E+03  0.49996357663E+03  0.00000000000E+00 0. -1.
        -15    1    1    2    0    0 -0.11232486330E+01 -0.18582104474E+01  0.11732280485E+03  0.11735635007E+03  0.17770000000E+01 0. -1.
         15    1    1    2    0    0  0.30620230199E+00  0.45662223394E+00  0.87281672440E+02  0.87301491033E+02  0.17770000000E+01 0.  1.
</event>
<event>
 6    1  0.6394569E-004  0.5071842E+03  0.7546771E-02  0.9383877E-01
        -11   -1    0    0    0    0  0.00000000000E+00  0.00000000000E+00  0.50000000000E+03  0.50000000000E+03  0.00000000000E+00 0. -1.
         11   -1    0    0    0    0 -0.00000000000E+00 -0.00000000000E+00 -0.50000000000E+03  0.50000000000E+03  0.00000000000E+00 0.  1.
        -11    1    1    2    0    0 -0.22906038465E+02  0.17965748268E+02  0.49195528032E+03  0.49281584040E+03  0.00000000000E+00 0. -1.
         11    1    1    2    0    0  0.80055053276E+01 -0.26972320744E+01 -0.43902259972E+03  0.43910386726E+03  0.00000000000E+00 0.  1.
        -15    1    1    2    0    0  0.18064999333E+02 -0.29387789900E+01 -0.58830241228E+01  0.19306691189E+02  0.17770000000E+01 0. -1.
         15    1    1    2    0    0 -0.31644661956E+01 -0.12329737204E+02 -0.47049656479E+02  0.48773601155E+02  0.17770000000E+01 0.  1.
</event>
<event>
 6    1  0.6394569E-004  0.5218427E+03  0.7546771E-02  0.9352219E-01
        -11   -1    0    0    0    0  0.00000000000E+00  0.00000000000E+00  0.50000000000E+03  0.50000000000E+03  0.00000000000E+00 0.  1.
         11   -1    0    0    0    0 -0.00000000000E+00 -0.00000000000E+00 -0.50000000000E+03  0.50000000000E+03  0.00000000000E+00 0. -1.
        -11    1    1    2    0    0 -0.24630338501E+02  0.73544550460E+02  0.47182507708E+03  0.47815725221E+03  0.00000000000E+00 0.  1.
         11    1    1    2    0    0 -0.38926299489E+01  0.61352294669E+02 -0.80688418259E+02  0.10143903327E+03  0.00000000000E+00 0. -1.
        -15    1    1    2    0    0  0.25924144692E+02 -0.10970717603E+03 -0.21811922050E+03  0.24553386290E+03  0.17770000000E+01 0. -1.
         15    1    1    2    0    0  0.25988237582E+01 -0.25189669104E+02 -0.17301743833E+03  0.17486985163E+03  0.17770000000E+01 0.  1.
</event>
<event>
 6    1  0.6394569E-004  0.5014057E+03  0.7546771E-02  0.9396670E-01
        -11   -1    0    0    0    0  0.00000000000E+00  0.00000000000E+00  0.50000000000E+03  0.50000000000E+03  0.00000000000E+00 0. -1.
         11   -1    0    0    0    0 -0.00000000000E+00 -0.00000000000E+00 -0.50000000000E+03  0.50000000000E+03  0.00000000000E+00 0. -1.
        -11    1    1    2    0    0 -0.86309698917E+01 -0.89623651518E+01  0.26488759124E+02  0.29265542713E+02  0.00000000000E+00 0. -1.
         11    1    1    2    0    0  0.11730229266E+02  0.89885699877E+01 -0.49837521389E+03  0.49859427042E+03  0.00000000000E+00 0. -1.
        -15    1    1    2    0    0 -0.47321441066E+01 -0.64608475163E+01  0.30891125375E+03  0.30902015494E+03  0.17770000000E+01 0. -1.
         15    1    1    2    0    0  0.16328847325E+01  0.64346426804E+01  0.16297520102E+03  0.16312003193E+03  0.17770000000E+01 0.  1.
</event>
<event>
 6    1  0.6394569E-004  0.5013999E+03  0.7546771E-02  0.9396683E-01
        -11   -1    0    0    0    0  0.00000000000E+00  0.00000000000E+00  0.50000000000E+03  0.50000000000E+03  0.00000000000E+00 0.  1.
         11   -1    0    0    0    0 -0.00000000000E+00 -0.00000000000E+00 -0.50000000000E+03  0.50000000000E+03  0.00000000000E+00 0. -1.
        -11    1    1    2    0    0  0.61288947800E+01  0.17787398656E+02  0.27264178798E+03  0.27329013787E+03  0.00000000000E+00 0.  1.
         11    1    1    2    0    0 -0.15636901518E+02  0.21703964099E+00 -0.49835479744E+03  0.49860010422E+03  0.00000000000E+00 0. -1.
        -15    1    1    2    0    0  0.10032739705E+02 -0.22018450736E+02  0.21687320116E+03  0.21822605516E+03  0.17770000000E+01 0.  1.
         15    1    1    2    0    0 -0.52473296707E+00  0.40140124383E+01  0.88398082926E+01  0.98837027572E+01  0.17770000000E+01 0. -1.
</event>
<event>
 6    1  0.6394569E-004  0.5010760E+03  0.7546771E-02  0.9397405E-01
        -11   -1    0    0    0    0  0.00000000000E+00  0.00000000000E+00  0.50000000000E+03  0.50000000000E+03  0.00000000000E+00 0.  1.
         11   -1    0    0    0    0 -0.00000000000E+00 -0.00000000000E+00 -0.50000000000E+03  0.50000000000E+03  0.00000000000E+00 0.  1.
        -11    1    1    2    0    0 -0.45733832205E+01  0.88418501843E+01  0.49882469114E+03  0.49892400888E+03  0.00000000000E+00 0.  1.
         11    1    1    2    0    0  0.24041144169E+01  0.33841679435E+01 -0.24803039161E+03  0.24806512758E+03  0.00000000000E+00 0.  1.
        -15    1    1    2    0    0 -0.14094411865E+02 -0.87654307385E+01 -0.12675116521E+03  0.12784561327E+03  0.17770000000E+01 0. -1.
         15    1    1    2    0    0  0.16263680668E+02 -0.34605873893E+01 -0.12404313432E+03  0.12516525027E+03  0.17770000000E+01 0.  1.
</event>
<event>
 6    1  0.6394569E-004  0.5010764E+03  0.7546771E-02  0.9397405E-01
        -11   -1    0    0    0    0  0.00000000000E+00  0.00000000000E+00  0.50000000000E+03  0.50000000000E+03  0.00000000000E+00 0.  1.
         11   -1    0    0    0    0 -0.00000000000E+00 -0.00000000000E+00 -0.50000000000E+03  0.50000000000E+03  0.00000000000E+00 0.  1.
        -11    1    1    2    0    0  0.14841009038E+01 -0.18206853223E+02  0.45362176035E+03  0.45398942006E+03  0.00000000000E+00 0.  1.
         11    1    1    2    0    0 -0.36543535508E+01  0.10944675903E+02 -0.49879020237E+03  0.49892364768E+03  0.00000000000E+00 0.  1.
        -15    1    1    2    0    0 -0.30374012398E+01 -0.57921774489E+00  0.15725249992E+02  0.16124593508E+02  0.17770000000E+01 0. -1.
         15    1    1    2    0    0  0.52076538868E+01  0.78413950648E+01  0.29443192027E+02  0.30962338757E+02  0.17770000000E+01 0.  1.
</event>
<event>
 6    1  0.6394569E-004  0.5005724E+03  0.7546771E-02  0.9398530E-01
        -11   -1    0    0    0    0  0.00000000000E+00  0.00000000000E+00  0.50000000000E+03  0.50000000000E+03  0.00000000000E+00 0.  1.
         11   -1    0    0    0    0 -0.00000000000E+00 -0.00000000000E+00 -0.50000000000E+03  0.50000000000E+03  0.00000000000E+00 0. -1.
        -11    1    1    2    0    0  0.64680149298E+01 -0.68134419580E+01  0.49933925609E+03  0.49942762326E+03  0.00000000000E+00 0.  1.
         11    1    1    2    0    0 -0.39071208127E+01  0.61775522214E+01 -0.48426802338E+03  0.48432318364E+03  0.00000000000E+00 0. -1.
        -15    1    1    2    0    0 -0.72545584060E+00  0.73346904819E+00 -0.17929304145E+01  0.27270114581E+01  0.17770000000E+01 0. -1.
         15    1    1    2    0    0 -0.18354382766E+01 -0.97579311585E-01 -0.13278302294E+02  0.13522181636E+02  0.17770000000E+01 0. -1.
</event>
<event>
 6    1  0.6394569E-004  0.5036412E+03  0.7546771E-02  0.9391699E-01
        -11   -1    0    0    0    0  0.00000000000E+00  0.00000000000E+00  0.50000000000E+03  0.50000000000E+03  0.00000000000E+00 0.  1.
         11   -1    0    0    0    0 -0.00000000000E+00 -0.00000000000E+00 -0.50000000000E+03  0.50000000000E+03  0.00000000000E+00 0.  1.
        -11    1    1    2    0    0 -0.22376883216E+01 -0.10004787736E+02  0.47460369204E+03  0.47471440627E+03  0.00000000000E+00 0.  1.
         11    1    1    2    0    0  0.66734165632E+01 -0.41205330415E+01 -0.49629682436E+03  0.49635879276E+03  0.00000000000E+00 0.  1.
        -15    1    1    2    0    0 -0.55369700759E+01  0.57236990203E+01  0.37001909462E+01  0.89592360240E+01  0.17770000000E+01 0. -1.
         15    1    1    2    0    0  0.11012418342E+01  0.84016217569E+01  0.17992941371E+02  0.19967564947E+02  0.17770000000E+01 0.  1.
</event>
<event>
 6    1  0.6394569E-004  0.5002506E+03  0.7546771E-02  0.9399249E-01
        -11   -1    0    0    0    0  0.00000000000E+00  0.00000000000E+00  0.50000000000E+03  0.50000000000E+03  0.00000000000E+00 0. -1.
         11   -1    0    0    0    0 -0.00000000000E+00 -0.00000000000E+00 -0.50000000000E+03  0.50000000000E+03  0.00000000000E+00 0. -1.
        -11    1    1    2    0    0 -0.33308718157E+01  0.64960260250E+01  0.12399672650E+03  0.12421143766E+03  0.00000000000E+00 0. -1.
         11    1    1    2    0    0 -0.95161633654E+01 -0.47538584758E+01 -0.49963619039E+03  0.49974941649E+03  0.00000000000E+00 0. -1.
        -15    1    1    2    0    0  0.58296610926E+01 -0.93539463146E+00  0.29677540562E+03  0.29683944991E+03  0.17770000000E+01 0. -1.
         15    1    1    2    0    0  0.70173740885E+01 -0.80677291779E+00  0.78864058269E+02  0.79199695942E+02  0.17770000000E+01 0.  1.
</event>
<event>
 6    1  0.6394569E-004  0.5089087E+03  0.7546771E-02  0.9380094E-01
        -11   -1    0    0    0    0  0.00000000000E+00  0.00000000000E+00  0.50000000000E+03  0.50000000000E+03  0.00000000000E+00 0. -1.
         11   -1    0    0    0    0 -0.00000000000E+00 -0.00000000000E+00 -0.50000000000E+03  0.50000000000E+03  0.00000000000E+00 0. -1.
        -11    1    1    2    0    0 -0.50793921520E+02  0.54513757547E+02  0.48540590267E+03  0.49109129760E+03  0.00000000000E+00 0. -1.
         11    1    1    2    0    0  0.88581532836E+01 -0.62813681341E+01 -0.36177674941E+03  0.36193968956E+03  0.00000000000E+00 0. -1.
        -15    1    1    2    0    0 -0.63970168339E+01 -0.14905383848E+02 -0.51086420846E+02  0.53629025871E+02  0.17770000000E+01 0.  1.
         15    1    1    2    0    0  0.48332785070E+02 -0.33327005564E+02 -0.72542732415E+02  0.93339986971E+02  0.17770000000E+01 0. -1.
</event>
<event>
 6    1  0.6394569E-004  0.5000694E+03  0.7546771E-02  0.9399655E-01
        -11   -1    0    0    0    0  0.00000000000E+00  0.00000000000E+00  0.50000000000E+03  0.50000000000E+03  0.00000000000E+00 0. -1.
         11   -1    0    0    0    0 -0.00000000000E+00 -0.00000000000E+00 -0.50000000000E+03  0.50000000000E+03  0.00000000000E+00 0. -1.
        -11    1    1    2    0    0 -0.38258976597E+01 -0.59541254116E+01  0.49988053074E+03  0.49993062930E+03  0.00000000000E+00 0. -1.
         11    1    1    2    0    0  0.40476300477E+01 -0.49219865956E+00 -0.14365015990E+03  0.14370801651E+03  0.00000000000E+00 0. -1.
        -15    1    1    2    0    0 -0.22461702239E+01  0.29181432937E+00 -0.12659684715E+03  0.12662957740E+03  0.17770000000E+01 0.  1.
         15    1    1    2    0    0  0.20244378359E+01  0.61545097418E+01 -0.22963352369E+03  0.22973177679E+03  0.17770000000E+01 0. -1.
</event>
<event>
 6    1  0.6394569E-004  0.4894830E+03  0.7546771E-02  0.9423655E-01
        -11   -1    0    0    0    0  0.00000000000E+00  0.00000000000E+00  0.50000000000E+03  0.50000000000E+03  0.00000000000E+00 0. -1.
         11   -1    0    0    0    0 -0.00000000000E+00 -0.00000000000E+00 -0.50000000000E+03  0.50000000000E+03  0.00000000000E+00 0. -1.
        -11    1    1    2    0    0 -0.65874206181E+01 -0.98289168410E+01  0.48740513411E+03  0.48754873241E+03  0.00000000000E+00 0. -1.
         11    1    1    2    0    0  0.70560106482E+01 -0.85185475947E+01 -0.49147333354E+03  0.49159779345E+03  0.00000000000E+00 0. -1.
        -15    1    1    2    0    0 -0.16850875730E+01  0.15451011676E+02  0.60056372674E+01  0.16757048963E+02  0.17770000000E+01 0. -1.
         15    1    1    2    0    0  0.12164975429E+01  0.28964527596E+01 -0.19374378369E+01  0.40964251772E+01  0.17770000000E+01 0.  1.
</event>
<event>
 6    1  0.6394569E-004  0.5026146E+03  0.7546771E-02  0.9393978E-01
        -11   -1    0    0    0    0  0.00000000000E+00  0.00000000000E+00  0.50000000000E+03  0.50000000000E+03  0.00000000000E+00 0.  1.
         11   -1    0    0    0    0 -0.00000000000E+00 -0.00000000000E+00 -0.50000000000E+03  0.50000000000E+03  0.00000000000E+00 0. -1.
        -11    1    1    2    0    0  0.60049366695E+02 -0.59452580131E+01  0.30162128775E+03  0.30759823432E+03  0.00000000000E+00 0.  1.
         11    1    1    2    0    0 -0.44954766464E+02 -0.70863129371E+01 -0.49529894087E+03  0.49738535129E+03  0.00000000000E+00 0. -1.
        -15    1    1    2    0    0 -0.14551757249E+02  0.78980382392E+01  0.12200694120E+03  0.12313806916E+03  0.17770000000E+01 0.  1.
         15    1    1    2    0    0 -0.54284298202E+00  0.51335327110E+01  0.71670711916E+02  0.71878345224E+02  0.17770000000E+01 0. -1.
</event>
<event>
 6    1  0.6394569E-004  0.5028162E+03  0.7546771E-02  0.9393530E-01
        -11   -1    0    0    0    0  0.00000000000E+00  0.00000000000E+00  0.50000000000E+03  0.50000000000E+03  0.00000000000E+00 0. -1.
         11   -1    0    0    0    0 -0.00000000000E+00 -0.00000000000E+00 -0.50000000000E+03  0.50000000000E+03  0.00000000000E+00 0.  1.
        -11    1    1    2    0    0 -0.13233384806E+01 -0.31505999508E+02  0.49618274040E+03  0.49718375989E+03  0.00000000000E+00 0. -1.
         11    1    1    2    0    0  0.24282533733E+01 -0.45920198909E+01 -0.35674030550E+03  0.35677812241E+03  0.00000000000E+00 0.  1.
        -15    1    1    2    0    0 -0.80399510654E+00  0.34607432601E+01 -0.60034242881E+02  0.60165531655E+02  0.17770000000E+01 0.  1.
         15    1    1    2    0    0 -0.30091978619E+00  0.32637276139E+02 -0.79408192014E+02  0.85872586047E+02  0.17770000000E+01 0. -1.
</event>
<event>
 6    1  0.6394569E-004  0.5007259E+03  0.7546771E-02  0.9398187E-01
        -11   -1    0    0    0    0  0.00000000000E+00  0.00000000000E+00  0.50000000000E+03  0.50000000000E+03  0.00000000000E+00 0. -1.
         11   -1    0    0    0    0 -0.00000000000E+00 -0.00000000000E+00 -0.50000000000E+03  0.50000000000E+03  0.00000000000E+00 0.  1.
        -11    1    1    2    0    0 -0.12941064945E+01 -0.74209430860E+01  0.43221158484E+03  0.43227722492E+03  0.00000000000E+00 0. -1.
         11    1    1    2    0    0  0.72015341275E+01 -0.94517723671E+00 -0.49922126477E+03  0.49927409972E+03  0.00000000000E+00 0.  1.
        -15    1    1    2    0    0 -0.10741264311E+01  0.85842844957E+00  0.27681378162E+01  0.35652437452E+01  0.17770000000E+01 0.  1.
         15    1    1    2    0    0 -0.48333012019E+01  0.75076918731E+01  0.64241542106E+02  0.64883431621E+02  0.17770000000E+01 0. -1.
</event>
<event>
 6    1  0.6394569E-004  0.5040014E+03  0.7546771E-02  0.9390901E-01
        -11   -1    0    0    0    0  0.00000000000E+00  0.00000000000E+00  0.50000000000E+03  0.50000000000E+03  0.00000000000E+00 0. -1.
         11   -1    0    0    0    0 -0.00000000000E+00 -0.00000000000E+00 -0.50000000000E+03  0.50000000000E+03  0.00000000000E+00 0.  1.
        -11    1    1    2    0    0  0.87598352673E+01 -0.16167934950E+02  0.49565765410E+03  0.49599863599E+03  0.00000000000E+00 0. -1.
         11    1    1    2    0    0 -0.61305828699E+01 -0.47931162450E+01 -0.43423454304E+03  0.43430426706E+03  0.00000000000E+00 0.  1.
        -15    1    1    2    0    0  0.14291477218E+00  0.16433052071E+02 -0.13208830072E+02  0.21158840844E+02  0.17770000000E+01 0.  1.
         15    1    1    2    0    0 -0.27721671696E+01  0.45279991248E+01 -0.48214280982E+02  0.48538256113E+02  0.17770000000E+01 0. -1.
</event>
<event>
 6    1  0.6394569E-004  0.4723358E+03  0.7546771E-02  0.9463931E-01
        -11   -1    0    0    0    0  0.00000000000E+00  0.00000000000E+00  0.50000000000E+03  0.50000000000E+03  0.00000000000E+00 0.  1.
         11   -1    0    0    0    0 -0.00000000000E+00 -0.00000000000E+00 -0.50000000000E+03  0.50000000000E+03  0.00000000000E+00 0. -1.
        -11    1    1    2    0    0 -0.29585000399E+02  0.14082695286E+02  0.48305744423E+03  0.48416741834E+03  0.00000000000E+00 0.  1.
         11    1    1    2    0    0 -0.71066013392E+01  0.18925703883E+01 -0.46153774740E+03  0.46159633651E+03  0.00000000000E+00 0. -1.
        -15    1    1    2    0    0  0.13777669518E+02 -0.13925305732E+02  0.37423461567E+01  0.20022517345E+02  0.17770000000E+01 0. -1.
         15    1    1    2    0    0  0.22913932219E+02 -0.20499599422E+01 -0.25262042984E+02  0.34213727804E+02  0.17770000000E+01 0.  1.
</event>
<event>
 6    1  0.6394569E-004  0.5025455E+03  0.7546771E-02  0.9394132E-01
        -11   -1    0    0    0    0  0.00000000000E+00  0.00000000000E+00  0.50000000000E+03  0.50000000000E+03  0.00000000000E+00 0.  1.
         11   -1    0    0    0    0 -0.00000000000E+00 -0.00000000000E+00 -0.50000000000E+03  0.50000000000E+03  0.00000000000E+00 0.  1.
        -11    1    1    2    0    0 -0.11838958764E+02  0.17284363531E+02  0.38350260529E+02  0.43699572651E+02  0.00000000000E+00 0.  1.
         11    1    1    2    0    0  0.38373754762E+01 -0.18468008132E+02 -0.49709673487E+03  0.49745447690E+03  0.00000000000E+00 0.  1.
        -15    1    1    2    0    0  0.23302990484E+01  0.18631751401E+01  0.20161150140E+03  0.20164140681E+03  0.17770000000E+01 0.  1.
         15    1    1    2    0    0  0.56712842393E+01 -0.67953053880E+00  0.25713497294E+03  0.25720454363E+03  0.17770000000E+01 0.  1.
</event>
<event>
 6    1  0.6394569E-004  0.5060595E+03  0.7546771E-02  0.9386352E-01
        -11   -1    0    0    0    0  0.00000000000E+00  0.00000000000E+00  0.50000000000E+03  0.50000000000E+03  0.00000000000E+00 0. -1.
         11   -1    0    0    0    0 -0.00000000000E+00 -0.00000000000E+00 -0.50000000000E+03  0.50000000000E+03  0.00000000000E+00 0. -1.
        -11    1    1    2    0    0 -0.58855368976E+01 -0.84761180230E+01  0.49383266441E+03  0.49394046662E+03  0.00000000000E+00 0. -1.
         11    1    1    2    0    0 -0.87386468266E+01  0.81386934976E+01 -0.47720891471E+03  0.47735830417E+03  0.00000000000E+00 0. -1.
        -15    1    1    2    0    0  0.92455213852E+01  0.67415313782E+01 -0.19848422613E+01  0.11748414310E+02  0.17770000000E+01 0. -1.
         15    1    1    2    0    0  0.53786623390E+01 -0.64041068529E+01 -0.14638907438E+02  0.16952814903E+02  0.17770000000E+01 0.  1.
</event>
<event>
 6    1  0.6394569E-004  0.5002688E+03  0.7546771E-02  0.9399209E-01
        -11   -1    0    0    0    0  0.00000000000E+00  0.00000000000E+00  0.50000000000E+03  0.50000000000E+03  0.00000000000E+00 0. -1.
         11   -1    0    0    0    0 -0.00000000000E+00 -0.00000000000E+00 -0.50000000000E+03  0.50000000000E+03  0.00000000000E+00 0.  1.
        -11    1    1    2    0    0  0.19369348497E+02  0.46558239315E+02  0.49718051788E+03  0.49973123644E+03  0.00000000000E+00 0. -1.
         11    1    1    2    0    0 -0.14936966694E+02 -0.31150913589E+02 -0.35064340444E+03  0.35234115495E+03  0.00000000000E+00 0.  1.
        -15    1    1    2    0    0 -0.23674449076E+01 -0.14806969600E+02 -0.85245028512E+02  0.86572072629E+02  0.17770000000E+01 0.  1.
         15    1    1    2    0    0 -0.20649368948E+01 -0.60035612552E+00 -0.61292084927E+02  0.61355535981E+02  0.17770000000E+01 0. -1.
</event>
<event>
 6    1  0.6394569E-004  0.5016883E+03  0.7546771E-02  0.9396040E-01
        -11   -1    0    0    0    0  0.00000000000E+00  0.00000000000E+00  0.50000000000E+03  0.50000000000E+03  0.00000000000E+00 0.  1.
         11   -1    0    0    0    0 -0.00000000000E+00 -0.00000000000E+00 -0.50000000000E+03  0.50000000000E+03  0.00000000000E+00 0. -1.
        -11    1    1    2    0    0 -0.44211940507E+02  0.17451942234E+02  0.49603956780E+03  0.49831166833E+03  0.00000000000E+00 0.  1.
         11    1    1    2    0    0  0.76028146691E+01  0.28788235204E+01 -0.27794417080E+03  0.27806303692E+03  0.00000000000E+00 0. -1.
        -15    1    1    2    0    0  0.36854734288E+02 -0.15673838094E+02 -0.21195431635E+03  0.21571214752E+03  0.17770000000E+01 0. -1.
         15    1    1    2    0    0 -0.24560845021E+00 -0.46569276605E+01 -0.61410806485E+01  0.79131472422E+01  0.17770000000E+01 0. -1.
</event>
<event>
 6    1  0.6394569E-004  0.4690490E+03  0.7546771E-02  0.9471859E-01
        -11   -1    0    0    0    0  0.00000000000E+00  0.00000000000E+00  0.50000000000E+03  0.50000000000E+03  0.00000000000E+00 0.  1.
         11   -1    0    0    0    0 -0.00000000000E+00 -0.00000000000E+00 -0.50000000000E+03  0.50000000000E+03  0.00000000000E+00 0. -1.
        -11    1    1    2    0    0  0.16554963414E+02 -0.47281009940E+02  0.35453825201E+02  0.61372098188E+02  0.00000000000E+00 0.  1.
         11    1    1    2    0    0  0.96435113199E+01 -0.14213409269E+01 -0.48453179921E+03  0.48462984015E+03  0.00000000000E+00 0. -1.
        -15    1    1    2    0    0  0.49115865545E+01  0.20007951586E+01  0.12263081488E+03  0.12275830461E+03  0.17770000000E+01 0. -1.
         15    1    1    2    0    0 -0.31110061288E+02  0.46701555708E+02  0.32644715913E+03  0.33123975705E+03  0.17770000000E+01 0.  1.
</event>
<event>
 6    1  0.6394569E-004  0.5009134E+03  0.7546771E-02  0.9397768E-01
        -11   -1    0    0    0    0  0.00000000000E+00  0.00000000000E+00  0.50000000000E+03  0.50000000000E+03  0.00000000000E+00 0.  1.
         11   -1    0    0    0    0 -0.00000000000E+00 -0.00000000000E+00 -0.50000000000E+03  0.50000000000E+03  0.00000000000E+00 0. -1.
        -11    1    1    2    0    0 -0.16963058506E+02  0.16030120045E+02  0.13087576367E+03  0.13294049653E+03  0.00000000000E+00 0.  1.
         11    1    1    2    0    0  0.15844164037E+02 -0.14296045818E+02 -0.49863018300E+03  0.49908663964E+03  0.00000000000E+00 0. -1.
        -15    1    1    2    0    0  0.60676644197E+01  0.86764901108E+00  0.23851462215E+03  0.23859998339E+03  0.17770000000E+01 0.  1.
         15    1    1    2    0    0 -0.49487699511E+01 -0.26017232383E+01  0.12923979718E+03  0.12937288044E+03  0.17770000000E+01 0. -1.
</event>
<event>
 6    1  0.6394569E-004  0.5076317E+03  0.7546771E-02  0.9382893E-01
        -11   -1    0    0    0    0  0.00000000000E+00  0.00000000000E+00  0.50000000000E+03  0.50000000000E+03  0.00000000000E+00 0. -1.
         11   -1    0    0    0    0 -0.00000000000E+00 -0.00000000000E+00 -0.50000000000E+03  0.50000000000E+03  0.00000000000E+00 0. -1.
        -11    1    1    2    0    0 -0.41427256594E+02  0.19894396048E+02  0.49021885138E+03  0.49236828374E+03  0.00000000000E+00 0. -1.
         11    1    1    2    0    0  0.11767147057E+02  0.63663703592E+01 -0.44820784822E+03  0.44840748391E+03  0.00000000000E+00 0. -1.
        -15    1    1    2    0    0  0.25271243305E+02 -0.15942998938E+02 -0.26330263737E+02  0.39865467146E+02  0.17770000000E+01 0. -1.
         15    1    1    2    0    0  0.43888662320E+01 -0.10317767470E+02 -0.15680739426E+02  0.19358765206E+02  0.17770000000E+01 0.  1.
</event>
<event>
 6    1  0.6394569E-004  0.5058430E+03  0.7546771E-02  0.9386830E-01
        -11   -1    0    0    0    0  0.00000000000E+00  0.00000000000E+00  0.50000000000E+03  0.50000000000E+03  0.00000000000E+00 0. -1.
         11   -1    0    0    0    0 -0.00000000000E+00 -0.00000000000E+00 -0.50000000000E+03  0.50000000000E+03  0.00000000000E+00 0.  1.
        -11    1    1    2    0    0 -0.82450488870E+01 -0.13470708425E+02  0.49390454063E+03  0.49415699537E+03  0.00000000000E+00 0. -1.
         11    1    1    2    0    0 -0.52545247704E+00  0.81766928867E+01 -0.48526907373E+03  0.48533824115E+03  0.00000000000E+00 0.  1.
        -15    1    1    2    0    0  0.65280834090E+01  0.10356818881E+02 -0.78131809579E+01  0.14631578726E+02  0.17770000000E+01 0. -1.
         15    1    1    2    0    0  0.22424179551E+01 -0.50628033427E+01 -0.82228594897E+00  0.58731847540E+01  0.17770000000E+01 0.  1.
</event>
<event>
 6    1  0.6394569E-004  0.5015039E+03  0.7546771E-02  0.9396451E-01
        -11   -1    0    0    0    0  0.00000000000E+00  0.00000000000E+00  0.50000000000E+03  0.50000000000E+03  0.00000000000E+00 0.  1.
         11   -1    0    0    0    0 -0.00000000000E+00 -0.00000000000E+00 -0.50000000000E+03  0.50000000000E+03  0.00000000000E+00 0.  1.
        -11    1    1    2    0    0 -0.55660735408E+01  0.13718698197E+02  0.40769402285E+02  0.43374278294E+02  0.00000000000E+00 0.  1.
         11    1    1    2    0    0 -0.25020073419E+01 -0.18560413312E+02 -0.49814417772E+03  0.49849610909E+03  0.00000000000E+00 0.  1.
        -15    1    1    2    0    0 -0.69057173211E+01 -0.28853428524E+01  0.78452908751E+02  0.78829123777E+02  0.17770000000E+01 0. -1.
         15    1    1    2    0    0  0.14973798204E+02  0.77270579673E+01  0.37892186668E+03  0.37930048884E+03  0.17770000000E+01 0.  1.
</event>
<event>
 6    1  0.6394569E-004  0.4754433E+03  0.7546771E-02  0.9456498E-01
        -11   -1    0    0    0    0  0.00000000000E+00  0.00000000000E+00  0.50000000000E+03  0.50000000000E+03  0.00000000000E+00 0.  1.
         11   -1    0    0    0    0 -0.00000000000E+00 -0.00000000000E+00 -0.50000000000E+03  0.50000000000E+03  0.00000000000E+00 0.  1.
        -11    1    1    2    0    0  0.21615822615E+02 -0.71720617097E+00  0.47728853882E+03  0.47777830367E+03  0.00000000000E+00 0.  1.
         11    1    1    2    0    0  0.11054399530E+02  0.54927426875E+01 -0.47352793652E+03  0.47368879725E+03  0.00000000000E+00 0.  1.
        -15    1    1    2    0    0 -0.15071500677E+01  0.35330152867E+01 -0.14017861335E+02  0.14642809285E+02  0.17770000000E+01 0. -1.
         15    1    1    2    0    0 -0.31163072077E+02 -0.83085518033E+01  0.10257259038E+02  0.33890089795E+02  0.17770000000E+01 0.  1.
</event>
<event>
 6    1  0.6394569E-004  0.5062376E+03  0.7546771E-02  0.9385960E-01
        -11   -1    0    0    0    0  0.00000000000E+00  0.00000000000E+00  0.50000000000E+03  0.50000000000E+03  0.00000000000E+00 0. -1.
         11   -1    0    0    0    0 -0.00000000000E+00 -0.00000000000E+00 -0.50000000000E+03  0.50000000000E+03  0.00000000000E+00 0. -1.
        -11    1    1    2    0    0  0.80946374226E+01  0.52091232724E+01  0.49366855440E+03  0.49376239197E+03  0.00000000000E+00 0. -1.
         11    1    1    2    0    0 -0.24734994597E+01  0.73790362942E+01 -0.48445490931E+03  0.48451741716E+03  0.00000000000E+00 0. -1.
        -15    1    1    2    0    0 -0.71399954722E+01 -0.54248198562E+01  0.81330733191E+00  0.91775488902E+01  0.17770000000E+01 0. -1.
         15    1    1    2    0    0  0.15188575093E+01 -0.71633397104E+01 -0.10026952419E+02  0.12542641977E+02  0.17770000000E+01 0.  1.
</event>
<event>
 6    1  0.6394569E-004  0.5024520E+03  0.7546771E-02  0.9394340E-01
        -11   -1    0    0    0    0  0.00000000000E+00  0.00000000000E+00  0.50000000000E+03  0.50000000000E+03  0.00000000000E+00 0. -1.
         11   -1    0    0    0    0 -0.00000000000E+00 -0.00000000000E+00 -0.50000000000E+03  0.50000000000E+03  0.00000000000E+00 0. -1.
        -11    1    1    2    0    0  0.63878480694E+01  0.84250852764E+01  0.49743569319E+03  0.49754804343E+03  0.00000000000E+00 0. -1.
         11    1    1    2    0    0  0.61837050993E+01  0.92971533768E+01 -0.42440979149E+03  0.42455664685E+03  0.00000000000E+00 0. -1.
        -15    1    1    2    0    0 -0.13461771227E+02 -0.11896368016E+02 -0.35072015188E+02  0.39445491946E+02  0.17770000000E+01 0.  1.
         15    1    1    2    0    0  0.89021805862E+00 -0.58258706375E+01 -0.37953886508E+02  0.38449817776E+02  0.17770000000E+01 0. -1.
</event>
<event>
 6    1  0.6394569E-004  0.5103020E+03  0.7546771E-02  0.9377049E-01
        -11   -1    0    0    0    0  0.00000000000E+00  0.00000000000E+00  0.50000000000E+03  0.50000000000E+03  0.00000000000E+00 0.  1.
         11   -1    0    0    0    0 -0.00000000000E+00 -0.00000000000E+00 -0.50000000000E+03  0.50000000000E+03  0.00000000000E+00 0.  1.
        -11    1    1    2    0    0 -0.14434293499E+02  0.25863157578E+01  0.48947843017E+03  0.48969804110E+03  0.00000000000E+00 0.  1.
         11    1    1    2    0    0 -0.18134337553E+01 -0.20356933506E+02 -0.46757920418E+03  0.46802564617E+03  0.00000000000E+00 0.  1.
        -15    1    1    2    0    0  0.27504636101E+01  0.38315784405E+01 -0.22225128846E+02  0.22789473988E+02  0.17770000000E+01 0.  1.
         15    1    1    2    0    0  0.13497263644E+02  0.13939039308E+02  0.32590286580E+00  0.19486838748E+02  0.17770000000E+01 0. -1.
</event>
<event>
 6    1  0.6394569E-004  0.5002680E+03  0.7546771E-02  0.9399210E-01
        -11   -1    0    0    0    0  0.00000000000E+00  0.00000000000E+00  0.50000000000E+03  0.50000000000E+03  0.00000000000E+00 0. -1.
         11   -1    0    0    0    0 -0.00000000000E+00 -0.00000000000E+00 -0.50000000000E+03  0.50000000000E+03  0.00000000000E+00 0.  1.
        -11    1    1    2    0    0  0.20133207311E+02 -0.47487934926E+01  0.49930370037E+03  0.49973201046E+03  0.00000000000E+00 0. -1.
         11    1    1    2    0    0  0.20462203981E+01  0.75304412849E+00 -0.15328545620E+03  0.15330096273E+03  0.00000000000E+00 0.  1.
        -15    1    1    2    0    0 -0.62975377096E+01 -0.39357167627E+01 -0.86582516193E+02  0.86918575040E+02  0.17770000000E+01 0. -1.
         15    1    1    2    0    0 -0.15881890000E+02  0.79314661267E+01 -0.25943572798E+03  0.26004845177E+03  0.17770000000E+01 0.  1.
</event>
<event>
 6    1  0.6394569E-004  0.5032218E+03  0.7546771E-02  0.9392629E-01
        -11   -1    0    0    0    0  0.00000000000E+00  0.00000000000E+00  0.50000000000E+03  0.50000000000E+03  0.00000000000E+00 0.  1.
         11   -1    0    0    0    0 -0.00000000000E+00 -0.00000000000E+00 -0.50000000000E+03  0.50000000000E+03  0.00000000000E+00 0.  1.
        -11    1    1    2    0    0 -0.11814316957E+02  0.72481626038E+01  0.45675355457E+03  0.45696380990E+03  0.00000000000E+00 0.  1.
         11    1    1    2    0    0  0.53383032621E+01  0.81705358453E+01 -0.49668231765E+03  0.49677819981E+03  0.00000000000E+00 0.  1.
        -15    1    1    2    0    0  0.56435909872E+01 -0.92250187343E+01  0.37898137472E+02  0.39450952368E+02  0.17770000000E+01 0.  1.
         15    1    1    2    0    0  0.83242270806E+00 -0.61936797148E+01  0.20306256096E+01  0.68070379271E+01  0.17770000000E+01 0. -1.
</event>
<event>
 6    1  0.6394569E-004  0.5007480E+03  0.7546771E-02  0.9398138E-01
        -11   -1    0    0    0    0  0.00000000000E+00  0.00000000000E+00  0.50000000000E+03  0.50000000000E+03  0.00000000000E+00 0.  1.
         11   -1    0    0    0    0 -0.00000000000E+00 -0.00000000000E+00 -0.50000000000E+03  0.50000000000E+03  0.00000000000E+00 0. -1.
        -11    1    1    2    0    0  0.59334605792E+01  0.91703946194E+01  0.49913247724E+03  0.49925197238E+03  0.00000000000E+00 0.  1.
         11    1    1    2    0    0  0.16868852404E+01 -0.92915817872E+01 -0.36557652173E+03  0.36569847185E+03  0.00000000000E+00 0. -1.
        -15    1    1    2    0    0  0.93927887514E+00  0.79586341360E+01 -0.60990608505E+02  0.61540508261E+02  0.17770000000E+01 0. -1.
         15    1    1    2    0    0 -0.85596246947E+01 -0.78374469682E+01 -0.72565347005E+02  0.73509047504E+02  0.17770000000E+01 0. -1.
</event>
<event>
 6    1  0.6394569E-004  0.5001315E+03  0.7546771E-02  0.9399516E-01
        -11   -1    0    0    0    0  0.00000000000E+00  0.00000000000E+00  0.50000000000E+03  0.50000000000E+03  0.00000000000E+00 0. -1.
         11   -1    0    0    0    0 -0.00000000000E+00 -0.00000000000E+00 -0.50000000000E+03  0.50000000000E+03  0.00000000000E+00 0.  1.
        -11    1    1    2    0    0 -0.74174489568E+01 -0.88735004023E+01  0.20555528203E+03  0.20588038161E+03  0.00000000000E+00 0. -1.
         11    1    1    2    0    0  0.67403877232E+01  0.81593920743E+01 -0.49975647355E+03  0.49986852407E+03  0.00000000000E+00 0.  1.
        -15    1    1    2    0    0  0.11936295501E+01  0.20975036051E+01  0.19480536555E+03  0.19482841797E+03  0.17770000000E+01 0. -1.
         15    1    1    2    0    0 -0.51656831655E+00 -0.13833952771E+01  0.99395825959E+02  0.99422676349E+02  0.17770000000E+01 0.  1.
</event>
<event>
 6    1  0.6394569E-004  0.5017967E+03  0.7546771E-02  0.9395798E-01
        -11   -1    0    0    0    0  0.00000000000E+00  0.00000000000E+00  0.50000000000E+03  0.50000000000E+03  0.00000000000E+00 0. -1.
         11   -1    0    0    0    0 -0.00000000000E+00 -0.00000000000E+00 -0.50000000000E+03  0.50000000000E+03  0.00000000000E+00 0. -1.
        -11    1    1    2    0    0 -0.44683980366E+02  0.88154089720E+01  0.49611705539E+03  0.49820327396E+03  0.00000000000E+00 0. -1.
         11    1    1    2    0    0  0.66834790065E+01  0.25491787236E+01 -0.31583666444E+03  0.31591765669E+03  0.00000000000E+00 0. -1.
        -15    1    1    2    0    0  0.40382497149E+02 -0.97751446961E+01 -0.15977006311E+03  0.16509370165E+03  0.17770000000E+01 0. -1.
         15    1    1    2    0    0 -0.23819957893E+01 -0.15894429995E+01 -0.20510327846E+02  0.20785367698E+02  0.17770000000E+01 0.  1.
</event>
<event>
 6    1  0.6394569E-004  0.5032802E+03  0.7546771E-02  0.9392500E-01
        -11   -1    0    0    0    0  0.00000000000E+00  0.00000000000E+00  0.50000000000E+03  0.50000000000E+03  0.00000000000E+00 0.  1.
         11   -1    0    0    0    0 -0.00000000000E+00 -0.00000000000E+00 -0.50000000000E+03  0.50000000000E+03  0.00000000000E+00 0. -1.
        -11    1    1    2    0    0 -0.47231538333E+02  0.38058149255E+02  0.26705990841E+03  0.27386170893E+03  0.00000000000E+00 0.  1.
         11    1    1    2    0    0  0.55844399060E+02 -0.11499505769E+02 -0.49343666788E+03  0.49671982117E+03  0.00000000000E+00 0. -1.
        -15    1    1    2    0    0 -0.15945028904E+02 -0.23747130621E+02  0.15897522332E+03  0.16153776499E+03  0.17770000000E+01 0.  1.
         15    1    1    2    0    0  0.73321681771E+01 -0.28115128651E+01  0.67401536141E+02  0.67880704902E+02  0.17770000000E+01 0. -1.
</event>
<event>
 6    1  0.6394569E-004  0.5022701E+03  0.7546771E-02  0.9394744E-01
        -11   -1    0    0    0    0  0.00000000000E+00  0.00000000000E+00  0.50000000000E+03  0.50000000000E+03  0.00000000000E+00 0. -1.
         11   -1    0    0    0    0 -0.00000000000E+00 -0.00000000000E+00 -0.50000000000E+03  0.50000000000E+03  0.00000000000E+00 0.  1.
        -11    1    1    2    0    0  0.26815090418E+01  0.11844060979E+02  0.40720601779E+03  0.40738705575E+03  0.00000000000E+00 0. -1.
         11    1    1    2    0    0  0.19617914258E+01  0.68769946496E+01 -0.49767848198E+03  0.49772985957E+03  0.00000000000E+00 0.  1.
        -15    1    1    2    0    0  0.11447058386E+01 -0.21604738035E+02  0.64318372831E+02  0.67882883480E+02  0.17770000000E+01 0. -1.
         15    1    1    2    0    0 -0.57880063062E+01  0.28836824069E+01  0.26154091358E+02  0.27000201203E+02  0.17770000000E+01 0.  1.
</event>
<event>
 6    1  0.6394569E-004  0.5033036E+03  0.7546771E-02  0.9392448E-01
        -11   -1    0    0    0    0  0.00000000000E+00  0.00000000000E+00  0.50000000000E+03  0.50000000000E+03  0.00000000000E+00 0.  1.
         11   -1    0    0    0    0 -0.00000000000E+00 -0.00000000000E+00 -0.50000000000E+03  0.50000000000E+03  0.00000000000E+00 0. -1.
        -11    1    1    2    0    0 -0.60977448409E+01  0.33615567332E+01  0.63870634046E+02  0.64249050182E+02  0.00000000000E+00 0.  1.
         11    1    1    2    0    0 -0.16607817265E+01 -0.28030541788E+02 -0.49590205090E+03  0.49669639978E+03  0.00000000000E+00 0. -1.
        -15    1    1    2    0    0 -0.19327875811E+02  0.26921996833E+02  0.89732170686E+02  0.95673302869E+02  0.17770000000E+01 0.  1.
         15    1    1    2    0    0  0.27086402379E+02 -0.22530117777E+01  0.34229924616E+03  0.34338124717E+03  0.17770000000E+01 0. -1.
</event>
<event>
 6    1  0.6394569E-004  0.5014005E+03  0.7546771E-02  0.9396682E-01
        -11   -1    0    0    0    0  0.00000000000E+00  0.00000000000E+00  0.50000000000E+03  0.50000000000E+03  0.00000000000E+00 0.  1.
         11   -1    0    0    0    0 -0.00000000000E+00 -0.00000000000E+00 -0.50000000000E+03  0.50000000000E+03  0.00000000000E+00 0.  1.
        -11    1    1    2    0    0 -0.13706353696E+02 -0.18887909086E+01  0.31608177005E+02  0.34503746410E+02  0.00000000000E+00 0.  1.
         11    1    1    2    0    0  0.11625562216E+02  0.74833446441E+01 -0.49840781209E+03  0.49859954001E+03  0.00000000000E+00 0.  1.
        -15    1    1    2    0    0 -0.84915751109E+00 -0.56832438305E+01  0.26761499290E+03  0.26768257785E+03  0.17770000000E+01 0.  1.
         15    1    1    2    0    0  0.29299489918E+01  0.88690095010E-01  0.19918464218E+03  0.19921413573E+03  0.17770000000E+01 0. -1.
</event>
<event>
 6    1  0.6394569E-004  0.5006607E+03  0.7546771E-02  0.9398333E-01
        -11   -1    0    0    0    0  0.00000000000E+00  0.00000000000E+00  0.50000000000E+03  0.50000000000E+03  0.00000000000E+00 0.  1.
         11   -1    0    0    0    0 -0.00000000000E+00 -0.00000000000E+00 -0.50000000000E+03  0.50000000000E+03  0.00000000000E+00 0.  1.
        -11    1    1    2    0    0 -0.19993239939E+02  0.56910421122E+01  0.49890645740E+03  0.49933933436E+03  0.00000000000E+00 0.  1.
         11    1    1    2    0    0 -0.43925627690E+01 -0.20510501747E+00 -0.25491495905E+03  0.25495288393E+03  0.00000000000E+00 0.  1.
        -15    1    1    2    0    0  0.22431318503E+02 -0.38151200105E+01 -0.15598492738E+03  0.15764572461E+03  0.17770000000E+01 0.  1.
         15    1    1    2    0    0  0.19544842051E+01 -0.16708170843E+01 -0.88006570971E+02  0.88062057104E+02  0.17770000000E+01 0. -1.
</event>
<event>
 6    1  0.6394569E-004  0.4807728E+03  0.7546771E-02  0.9443891E-01
        -11   -1    0    0    0    0  0.00000000000E+00  0.00000000000E+00  0.50000000000E+03  0.50000000000E+03  0.00000000000E+00 0.  1.
         11   -1    0    0    0    0 -0.00000000000E+00 -0.00000000000E+00 -0.50000000000E+03  0.50000000000E+03  0.00000000000E+00 0.  1.
        -11    1    1    2    0    0 -0.77969475777E+01 -0.24119478689E+02  0.47596849071E+03  0.47664299616E+03  0.00000000000E+00 0.  1.
         11    1    1    2    0    0  0.27084205478E+01 -0.65930601942E+01 -0.48540026530E+03  0.48545259453E+03  0.00000000000E+00 0.  1.
        -15    1    1    2    0    0  0.42845919446E+01  0.25700416160E+02 -0.10356064448E+01  0.26136168974E+02  0.17770000000E+01 0. -1.
         15    1    1    2    0    0  0.80393508524E+00  0.50121227234E+01  0.10467381035E+02  0.11768240334E+02  0.17770000000E+01 0.  1.
</event>
<event>
 6    1  0.6394569E-004  0.5025247E+03  0.7546771E-02  0.9394178E-01
        -11   -1    0    0    0    0  0.00000000000E+00  0.00000000000E+00  0.50000000000E+03  0.50000000000E+03  0.00000000000E+00 0.  1.
         11   -1    0    0    0    0 -0.00000000000E+00 -0.00000000000E+00 -0.50000000000E+03  0.50000000000E+03  0.00000000000E+00 0. -1.
        -11    1    1    2    0    0  0.15966373682E+02 -0.59973146425E+01  0.32880231602E+02  0.37040552124E+02  0.00000000000E+00 0.  1.
         11    1    1    2    0    0  0.71274266475E+01 -0.34620075430E+01 -0.49741216182E+03  0.49747527017E+03  0.00000000000E+00 0. -1.
        -15    1    1    2    0    0 -0.88543629892E+01  0.80133481616E+01  0.32157267364E+03  0.32179924744E+03  0.17770000000E+01 0.  1.
         15    1    1    2    0    0 -0.14239437341E+02  0.14459740240E+01  0.14295925658E+03  0.14368493027E+03  0.17770000000E+01 0. -1.
</event>
<event>
 6    1  0.6394569E-004  0.5004894E+03  0.7546771E-02  0.9398715E-01
        -11   -1    0    0    0    0  0.00000000000E+00  0.00000000000E+00  0.50000000000E+03  0.50000000000E+03  0.00000000000E+00 0.  1.
         11   -1    0    0    0    0 -0.00000000000E+00 -0.00000000000E+00 -0.50000000000E+03  0.50000000000E+03  0.00000000000E+00 0. -1.
        -11    1    1    2    0    0 -0.46425597294E+01 -0.67462023160E+01  0.21919896334E+03  0.21935188656E+03  0.00000000000E+00 0.  1.
         11    1    1    2    0    0 -0.14131324111E+01 -0.78293581886E+01 -0.49944719034E+03  0.49951055217E+03  0.00000000000E+00 0. -1.
        -15    1    1    2    0    0 -0.33287597141E+01  0.58477882952E+00  0.10577036171E+03  0.10583926376E+03  0.17770000000E+01 0.  1.
         15    1    1    2    0    0  0.93844518546E+01  0.13990781675E+02  0.17447786528E+03  0.17529829751E+03  0.17770000000E+01 0.  1.
</event>
<event>
 6    1  0.6394569E-004  0.5040261E+03  0.7546771E-02  0.9390846E-01
        -11   -1    0    0    0    0  0.00000000000E+00  0.00000000000E+00  0.50000000000E+03  0.50000000000E+03  0.00000000000E+00 0.  1.
         11   -1    0    0    0    0 -0.00000000000E+00 -0.00000000000E+00 -0.50000000000E+03  0.50000000000E+03  0.00000000000E+00 0.  1.
        -11    1    1    2    0    0  0.26511447532E+02 -0.71257507852E+01  0.38625423722E+03  0.38722857454E+03  0.00000000000E+00 0.  1.
         11    1    1    2    0    0 -0.24500633418E+01  0.72299517381E+01 -0.49591512269E+03  0.49597387424E+03  0.00000000000E+00 0.  1.
        -15    1    1    2    0    0 -0.10306868704E+02 -0.65553658128E+01  0.97693940776E+01  0.15741764611E+02  0.17770000000E+01 0. -1.
         15    1    1    2    0    0 -0.13754515486E+02  0.64511648599E+01  0.99891491399E+02  0.10105578661E+03  0.17770000000E+01 0.  1.
</event>
<event>
 6    1  0.6394569E-004  0.5073781E+03  0.7546771E-02  0.9383450E-01
        -11   -1    0    0    0    0  0.00000000000E+00  0.00000000000E+00  0.50000000000E+03  0.50000000000E+03  0.00000000000E+00 0. -1.
         11   -1    0    0    0    0 -0.00000000000E+00 -0.00000000000E+00 -0.50000000000E+03  0.50000000000E+03  0.00000000000E+00 0. -1.
        -11    1    1    2    0    0 -0.40857889539E+02 -0.72746539691E+01  0.43394411149E+02  0.60044672094E+02  0.00000000000E+00 0. -1.
         11    1    1    2    0    0  0.39874410299E+02  0.28254288321E+02 -0.49019191001E+03  0.49262194637E+03  0.00000000000E+00 0. -1.
        -15    1    1    2    0    0  0.11772739294E+01 -0.16371676945E+02  0.30133785708E+03  0.30178979376E+03  0.17770000000E+01 0. -1.
         15    1    1    2    0    0 -0.19379468941E+00 -0.46079574071E+01  0.14545964178E+03  0.14554358778E+03  0.17770000000E+01 0.  1.
</event>
<event>
 6    1  0.6394569E-004  0.5063879E+03  0.7546771E-02  0.9385629E-01
        -11   -1    0    0    0    0  0.00000000000E+00  0.00000000000E+00  0.50000000000E+03  0.50000000000E+03  0.00000000000E+00 0.  1.
         11   -1    0    0    0    0 -0.00000000000E+00 -0.00000000000E+00 -0.50000000000E+03  0.50000000000E+03  0.00000000000E+00 0. -1.
        -11    1    1    2    0    0 -0.10311467684E+02  0.48336275192E+02  0.43627042024E+03  0.43906104523E+03  0.00000000000E+00 0.  1.
         11    1    1    2    0    0 -0.79914742129E+01 -0.19698165826E+02 -0.49315413248E+03  0.49361207418E+03  0.00000000000E+00 0. -1.
        -15    1    1    2    0    0  0.10750626485E+02 -0.18615497113E+02  0.25017378333E+02  0.33032403034E+02  0.17770000000E+01 0.  1.
         15    1    1    2    0    0  0.75523154122E+01 -0.10022612253E+02  0.31866333912E+02  0.34294477550E+02  0.17770000000E+01 0.  1.
</event>
<event>
 6    1  0.6394569E-004  0.5015160E+03  0.7546771E-02  0.9396424E-01
        -11   -1    0    0    0    0  0.00000000000E+00  0.00000000000E+00  0.50000000000E+03  0.50000000000E+03  0.00000000000E+00 0. -1.
         11   -1    0    0    0    0 -0.00000000000E+00 -0.00000000000E+00 -0.50000000000E+03  0.50000000000E+03  0.00000000000E+00 0. -1.
        -11    1    1    2    0    0  0.12324502009E+02 -0.69745724489E+01  0.47321284280E+03  0.47342468524E+03  0.00000000000E+00 0. -1.
         11    1    1    2    0    0 -0.77279423927E+01 -0.10754356893E+01 -0.49842294978E+03  0.49848401631E+03  0.00000000000E+00 0. -1.
        -15    1    1    2    0    0  0.41065771653E+00  0.19026359644E+01  0.14001609844E+02  0.14247507522E+02  0.17770000000E+01 0.  1.
         15    1    1    2    0    0 -0.50072173328E+01  0.61473721739E+01  0.11208497134E+02  0.13843790921E+02  0.17770000000E+01 0. -1.
</event>
<event>
 6    1  0.6394569E-004  0.4770395E+03  0.7546771E-02  0.9452704E-01
        -11   -1    0    0    0    0  0.00000000000E+00  0.00000000000E+00  0.50000000000E+03  0.50000000000E+03  0.00000000000E+00 0.  1.
         11   -1    0    0    0    0 -0.00000000000E+00 -0.00000000000E+00 -0.50000000000E+03  0.50000000000E+03  0.00000000000E+00 0. -1.
        -11    1    1    2    0    0  0.11656707913E+02  0.29919852791E+02  0.46884493737E+03  0.46994324309E+03  0.00000000000E+00 0.  1.
         11    1    1    2    0    0 -0.62970403079E+01 -0.38669900151E+01 -0.48457980859E+03  0.48463614931E+03  0.00000000000E+00 0. -1.
        -15    1    1    2    0    0 -0.92394090904E+01 -0.26202683460E+02  0.23582743657E+02  0.36486310148E+02  0.17770000000E+01 0. -1.
         15    1    1    2    0    0  0.38797414851E+01  0.14982068377E+00 -0.78478724309E+01  0.89342974497E+01  0.17770000000E+01 0.  1.
</event>
<event>
 6    1  0.6394569E-004  0.5122546E+03  0.7546771E-02  0.9372799E-01
        -11   -1    0    0    0    0  0.00000000000E+00  0.00000000000E+00  0.50000000000E+03  0.50000000000E+03  0.00000000000E+00 0.  1.
         11   -1    0    0    0    0 -0.00000000000E+00 -0.00000000000E+00 -0.50000000000E+03  0.50000000000E+03  0.00000000000E+00 0. -1.
        -11    1    1    2    0    0  0.27298225704E+02  0.34364360065E+02  0.42978070331E+03  0.43201568873E+03  0.00000000000E+00 0.  1.
         11    1    1    2    0    0 -0.12122940183E+02  0.12756598187E+02 -0.48742781777E+03  0.48774539876E+03  0.00000000000E+00 0. -1.
        -15    1    1    2    0    0  0.24079024241E+01  0.19302696407E+01  0.50509831589E+01  0.61801371216E+01  0.17770000000E+01 0. -1.
         15    1    1    2    0    0 -0.17583187946E+02 -0.49051227892E+02  0.52596131300E+02  0.74058775394E+02  0.17770000000E+01 0.  1.
</event>
<event>
 6    1  0.6394569E-004  0.5081924E+03  0.7546771E-02  0.9381663E-01
        -11   -1    0    0    0    0  0.00000000000E+00  0.00000000000E+00  0.50000000000E+03  0.50000000000E+03  0.00000000000E+00 0.  1.
         11   -1    0    0    0    0 -0.00000000000E+00 -0.00000000000E+00 -0.50000000000E+03  0.50000000000E+03  0.00000000000E+00 0.  1.
        -11    1    1    2    0    0  0.23555922551E+02 -0.44302355590E+01  0.49122321703E+03  0.49180764271E+03  0.00000000000E+00 0.  1.
         11    1    1    2    0    0  0.36385150755E+01  0.64434627883E+01 -0.47260150862E+03  0.47265943654E+03  0.00000000000E+00 0.  1.
        -15    1    1    2    0    0 -0.22291318360E+02 -0.29200143756E+01 -0.84812123753E+01  0.24093942196E+02  0.17770000000E+01 0.  1.
         15    1    1    2    0    0 -0.49031192663E+01  0.90678714627E+00 -0.10140496041E+02  0.11438978557E+02  0.17770000000E+01 0. -1.
</event>
<event>
 6    1  0.6394569E-004  0.5057046E+03  0.7546771E-02  0.9387135E-01
        -11   -1    0    0    0    0  0.00000000000E+00  0.00000000000E+00  0.50000000000E+03  0.50000000000E+03  0.00000000000E+00 0. -1.
         11   -1    0    0    0    0 -0.00000000000E+00 -0.00000000000E+00 -0.50000000000E+03  0.50000000000E+03  0.00000000000E+00 0.  1.
        -11    1    1    2    0    0  0.25165372251E+02  0.30562851151E+02  0.49270741084E+03  0.49429543446E+03  0.00000000000E+00 0. -1.
         11    1    1    2    0    0 -0.10120301943E+02 -0.12581345916E+02 -0.43299625271E+03  0.43329720243E+03  0.00000000000E+00 0.  1.
        -15    1    1    2    0    0  0.66860698158E+01  0.24598249320E+01 -0.27513169050E+02  0.28476068346E+02  0.17770000000E+01 0. -1.
         15    1    1    2    0    0 -0.21731140124E+02 -0.20441330166E+02 -0.32197989076E+02  0.43931294764E+02  0.17770000000E+01 0.  1.
</event>
<event>
 6    1  0.6394569E-004  0.5005862E+03  0.7546771E-02  0.9398499E-01
        -11   -1    0    0    0    0  0.00000000000E+00  0.00000000000E+00  0.50000000000E+03  0.50000000000E+03  0.00000000000E+00 0.  1.
         11   -1    0    0    0    0 -0.00000000000E+00 -0.00000000000E+00 -0.50000000000E+03  0.50000000000E+03  0.00000000000E+00 0. -1.
        -11    1    1    2    0    0  0.57030732993E+02 -0.15356460857E+02  0.49590909422E+03  0.49941381151E+03  0.00000000000E+00 0.  1.
         11    1    1    2    0    0 -0.68137931426E+01 -0.42668824142E+01 -0.14452689630E+03  0.14475032924E+03  0.00000000000E+00 0. -1.
        -15    1    1    2    0    0 -0.39850960595E+02  0.84691060814E+01 -0.25206893330E+03  0.25534629365E+03  0.17770000000E+01 0.  1.
         15    1    1    2    0    0 -0.10365979255E+02  0.11154237190E+02 -0.99313264627E+02  0.10048956559E+03  0.17770000000E+01 0. -1.
</event>
<event>
 6    1  0.6394569E-004  0.5074731E+03  0.7546771E-02  0.9383242E-01
        -11   -1    0    0    0    0  0.00000000000E+00  0.00000000000E+00  0.50000000000E+03  0.50000000000E+03  0.00000000000E+00 0. -1.
         11   -1    0    0    0    0 -0.00000000000E+00 -0.00000000000E+00 -0.50000000000E+03  0.50000000000E+03  0.00000000000E+00 0. -1.
        -11    1    1    2    0    0  0.74854929974E+01  0.16380845928E+02  0.46594359196E+03  0.46629153500E+03  0.00000000000E+00 0. -1.
         11    1    1    2    0    0  0.92169928014E+01  0.12873322174E+01 -0.49243892202E+03  0.49252685419E+03  0.00000000000E+00 0. -1.
        -15    1    1    2    0    0 -0.61543567561E+01  0.36752065259E+01  0.40964434594E+01  0.84452251660E+01  0.17770000000E+01 0. -1.
         15    1    1    2    0    0 -0.10548129043E+02 -0.21343384671E+02  0.22398886597E+02  0.32736385648E+02  0.17770000000E+01 0.  1.
</event>
<event>
 6    1  0.6394569E-004  0.5171961E+03  0.7546771E-02  0.9362133E-01
        -11   -1    0    0    0    0  0.00000000000E+00  0.00000000000E+00  0.50000000000E+03  0.50000000000E+03  0.00000000000E+00 0.  1.
         11   -1    0    0    0    0 -0.00000000000E+00 -0.00000000000E+00 -0.50000000000E+03  0.50000000000E+03  0.00000000000E+00 0. -1.
        -11    1    1    2    0    0 -0.33348390203E+02 -0.27219343050E+02  0.48088102816E+03  0.48280386391E+03  0.00000000000E+00 0.  1.
         11    1    1    2    0    0  0.31527237691E+02  0.11446553027E+02 -0.44089892827E+03  0.44217287936E+03  0.00000000000E+00 0. -1.
        -15    1    1    2    0    0 -0.25830379225E+02 -0.24657543341E+01 -0.31373139276E+02  0.40751932867E+02  0.17770000000E+01 0. -1.
         15    1    1    2    0    0  0.27651531737E+02  0.18238544356E+02 -0.86089606108E+01  0.34271323865E+02  0.17770000000E+01 0.  1.
</event>
<event>
 6    1  0.6394569E-004  0.4925297E+03  0.7546771E-02  0.9416682E-01
        -11   -1    0    0    0    0  0.00000000000E+00  0.00000000000E+00  0.50000000000E+03  0.50000000000E+03  0.00000000000E+00 0. -1.
         11   -1    0    0    0    0 -0.00000000000E+00 -0.00000000000E+00 -0.50000000000E+03  0.50000000000E+03  0.00000000000E+00 0.  1.
        -11    1    1    2    0    0 -0.72544297452E+01 -0.10162963054E+02  0.49470013476E+03  0.49485769258E+03  0.00000000000E+00 0. -1.
         11    1    1    2    0    0 -0.10666136642E+01  0.10725200257E+02 -0.49012911935E+03  0.49024761215E+03  0.00000000000E+00 0.  1.
        -15    1    1    2    0    0  0.71088941146E+01  0.43472269614E+01 -0.42597300061E+01  0.95256383782E+01  0.17770000000E+01 0.  1.
         15    1    1    2    0    0  0.12121492947E+01 -0.49094641648E+01 -0.31128540167E+00  0.53690568911E+01  0.17770000000E+01 0. -1.
</event>
<event>
 6    1  0.6394569E-004  0.5007171E+03  0.7546771E-02  0.9398207E-01
        -11   -1    0    0    0    0  0.00000000000E+00  0.00000000000E+00  0.50000000000E+03  0.50000000000E+03  0.00000000000E+00 0.  1.
         11   -1    0    0    0    0 -0.00000000000E+00 -0.00000000000E+00 -0.50000000000E+03  0.50000000000E+03  0.00000000000E+00 0.  1.
        -11    1    1    2    0    0 -0.63662059542E+01  0.16623623077E+02  0.49896548472E+03  0.49928291415E+03  0.00000000000E+00 0.  1.
         11    1    1    2    0    0 -0.72606056293E+01  0.28526759466E+01 -0.17780228950E+03  0.17797333594E+03  0.00000000000E+00 0.  1.
        -15    1    1    2    0    0  0.21151654607E+01 -0.18740906508E+02 -0.15152690686E+03  0.15270643972E+03  0.17770000000E+01 0.  1.
         15    1    1    2    0    0  0.11511646123E+02 -0.73539251578E+00 -0.16963628836E+03  0.17003731019E+03  0.17770000000E+01 0. -1.
</event>
<event>
 6    1  0.6394569E-004  0.4588352E+03  0.7546771E-02  0.9496944E-01
        -11   -1    0    0    0    0  0.00000000000E+00  0.00000000000E+00  0.50000000000E+03  0.50000000000E+03  0.00000000000E+00 0.  1.
         11   -1    0    0    0    0 -0.00000000000E+00 -0.00000000000E+00 -0.50000000000E+03  0.50000000000E+03  0.00000000000E+00 0.  1.
        -11    1    1    2    0    0 -0.31622858152E+02  0.70287275730E+02  0.45775586988E+03  0.46419903349E+03  0.00000000000E+00 0.  1.
         11    1    1    2    0    0 -0.68312821637E+01 -0.36613839181E+01 -0.45662496571E+03  0.45669073941E+03  0.00000000000E+00 0.  1.
        -15    1    1    2    0    0  0.33612997319E+02 -0.50880033683E+02 -0.72757286511E+01  0.61438630948E+02  0.17770000000E+01 0.  1.
         15    1    1    2    0    0  0.48411429969E+01 -0.15745858129E+02  0.61448244842E+01  0.17671596156E+02  0.17770000000E+01 0. -1.
</event>
<event>
 6    1  0.6394569E-004  0.5012998E+03  0.7546771E-02  0.9396906E-01
        -11   -1    0    0    0    0  0.00000000000E+00  0.00000000000E+00  0.50000000000E+03  0.50000000000E+03  0.00000000000E+00 0.  1.
         11   -1    0    0    0    0 -0.00000000000E+00 -0.00000000000E+00 -0.50000000000E+03  0.50000000000E+03  0.00000000000E+00 0.  1.
        -11    1    1    2    0    0  0.25529441023E+02 -0.60395186749E+01  0.37311592991E+03  0.37403706407E+03  0.00000000000E+00 0.  1.
         11    1    1    2    0    0 -0.68613757420E+01  0.12196434031E+02 -0.49850382127E+03  0.49870020182E+03  0.00000000000E+00 0.  1.
        -15    1    1    2    0    0 -0.15335297956E+02 -0.70892380025E+01  0.11323973125E+03  0.11450686932E+03  0.17770000000E+01 0.  1.
         15    1    1    2    0    0 -0.33327673245E+01  0.93232264654E+00  0.12148160106E+02  0.12755864789E+02  0.17770000000E+01 0.  1.
</event>
<event>
 6    1  0.6394569E-004  0.5000617E+03  0.7546771E-02  0.9399672E-01
        -11   -1    0    0    0    0  0.00000000000E+00  0.00000000000E+00  0.50000000000E+03  0.50000000000E+03  0.00000000000E+00 0.  1.
         11   -1    0    0    0    0 -0.00000000000E+00 -0.00000000000E+00 -0.50000000000E+03  0.50000000000E+03  0.00000000000E+00 0. -1.
        -11    1    1    2    0    0  0.60918374874E+01 -0.90370924143E+01  0.38605995884E+03  0.38621376379E+03  0.00000000000E+00 0.  1.
         11    1    1    2    0    0 -0.72565621004E+01  0.74317114661E+01 -0.49983041233E+03  0.49993832531E+03  0.00000000000E+00 0. -1.
        -15    1    1    2    0    0  0.49387355489E+00  0.64679684501E+00  0.41282323884E+02  0.41328564595E+02  0.17770000000E+01 0.  1.
         15    1    1    2    0    0  0.67085105810E+00  0.95858410316E+00  0.72488129611E+02  0.72519346302E+02  0.17770000000E+01 0. -1.
</event>
<event>
 6    1  0.6394569E-004  0.5072143E+03  0.7546771E-02  0.9383810E-01
        -11   -1    0    0    0    0  0.00000000000E+00  0.00000000000E+00  0.50000000000E+03  0.50000000000E+03  0.00000000000E+00 0.  1.
         11   -1    0    0    0    0 -0.00000000000E+00 -0.00000000000E+00 -0.50000000000E+03  0.50000000000E+03  0.00000000000E+00 0. -1.
        -11    1    1    2    0    0  0.27656533164E+02  0.65464871549E+01  0.49196542047E+03  0.49278566868E+03  0.00000000000E+00 0.  1.
         11    1    1    2    0    0  0.59729077991E+01  0.44360144490E+01 -0.45462532006E+03  0.45468619452E+03  0.00000000000E+00 0. -1.
        -15    1    1    2    0    0 -0.32905185474E+02 -0.11051750619E+02 -0.36590128254E+02  0.50466698301E+02  0.17770000000E+01 0.  1.
         15    1    1    2    0    0 -0.72425548915E+00  0.69249014591E-01 -0.74997215804E+00  0.20614384971E+01  0.17770000000E+01 0. -1.
</event>
<event>
 6    1  0.6394569E-004  0.5007041E+03  0.7546771E-02  0.9398236E-01
        -11   -1    0    0    0    0  0.00000000000E+00  0.00000000000E+00  0.50000000000E+03  0.50000000000E+03  0.00000000000E+00 0.  1.
         11   -1    0    0    0    0 -0.00000000000E+00 -0.00000000000E+00 -0.50000000000E+03  0.50000000000E+03  0.00000000000E+00 0. -1.
        -11    1    1    2    0    0 -0.94625239163E+00 -0.80430908026E+01  0.49923023620E+03  0.49929591971E+03  0.00000000000E+00 0.  1.
         11    1    1    2    0    0 -0.59250940437E+01  0.60120562152E+01 -0.43417609572E+03  0.43425814173E+03  0.00000000000E+00 0. -1.
        -15    1    1    2    0    0  0.23775932095E+01  0.35428327868E+01 -0.54950966368E+02  0.55145000204E+02  0.17770000000E+01 0.  1.
         15    1    1    2    0    0  0.44937532258E+01 -0.15117981994E+01 -0.10103174106E+02  0.11300938362E+02  0.17770000000E+01 0. -1.
</event>
<event>
 6    1  0.6394569E-004  0.5010767E+03  0.7546771E-02  0.9397404E-01
        -11   -1    0    0    0    0  0.00000000000E+00  0.00000000000E+00  0.50000000000E+03  0.50000000000E+03  0.00000000000E+00 0. -1.
         11   -1    0    0    0    0 -0.00000000000E+00 -0.00000000000E+00 -0.50000000000E+03  0.50000000000E+03  0.00000000000E+00 0. -1.
        -11    1    1    2    0    0 -0.10804077953E+02 -0.64002774712E+01  0.37890168977E+02  0.39916870584E+02  0.00000000000E+00 0. -1.
         11    1    1    2    0    0  0.11497571173E+02  0.30848428715E+01 -0.49878126048E+03  0.49892329691E+03  0.00000000000E+00 0. -1.
        -15    1    1    2    0    0 -0.54395997381E+01  0.25633406113E+01  0.83921430479E+02  0.84155357423E+02  0.17770000000E+01 0. -1.
         15    1    1    2    0    0  0.47461065188E+01  0.75209398844E+00  0.37696966102E+03  0.37700447508E+03  0.17770000000E+01 0.  1.
</event>
<event>
 6    1  0.6394569E-004  0.5007631E+03  0.7546771E-02  0.9398104E-01
        -11   -1    0    0    0    0  0.00000000000E+00  0.00000000000E+00  0.50000000000E+03  0.50000000000E+03  0.00000000000E+00 0. -1.
         11   -1    0    0    0    0 -0.00000000000E+00 -0.00000000000E+00 -0.50000000000E+03  0.50000000000E+03  0.00000000000E+00 0. -1.
        -11    1    1    2    0    0 -0.13974372770E+02 -0.27927678694E+02  0.49825919041E+03  0.49923687680E+03  0.00000000000E+00 0. -1.
         11    1    1    2    0    0 -0.68742184670E+01 -0.12519040457E+01 -0.16789831797E+03  0.16804364707E+03  0.00000000000E+00 0. -1.
        -15    1    1    2    0    0  0.15199815812E+02  0.29845697846E+02 -0.27441617453E+03  0.27645830546E+03  0.17770000000E+01 0. -1.
         15    1    1    2    0    0  0.56487754251E+01 -0.66611510631E+00 -0.55944697903E+02  0.56261170674E+02  0.17770000000E+01 0.  1.
</event>
<event>
 6    1  0.6394569E-004  0.5203025E+03  0.7546771E-02  0.9355493E-01
        -11   -1    0    0    0    0  0.00000000000E+00  0.00000000000E+00  0.50000000000E+03  0.50000000000E+03  0.00000000000E+00 0. -1.
         11   -1    0    0    0    0 -0.00000000000E+00 -0.00000000000E+00 -0.50000000000E+03  0.50000000000E+03  0.00000000000E+00 0.  1.
        -11    1    1    2    0    0 -0.36099518264E+02  0.59767125772E+01  0.42239950241E+03  0.42398140991E+03  0.00000000000E+00 0. -1.
         11    1    1    2    0    0 -0.22800793748E+02  0.32392198201E+02 -0.47805918417E+03  0.47969752372E+03  0.00000000000E+00 0.  1.
        -15    1    1    2    0    0 -0.19337879015E+01 -0.11826803236E+02  0.68771320691E+01  0.13930738851E+02  0.17770000000E+01 0. -1.
         15    1    1    2    0    0  0.60834099914E+02 -0.26542107542E+02  0.48782549686E+02  0.82390327514E+02  0.17770000000E+01 0.  1.
</event>
<event>
 6    1  0.6394569E-004  0.5152215E+03  0.7546771E-02  0.9366380E-01
        -11   -1    0    0    0    0  0.00000000000E+00  0.00000000000E+00  0.50000000000E+03  0.50000000000E+03  0.00000000000E+00 0.  1.
         11   -1    0    0    0    0 -0.00000000000E+00 -0.00000000000E+00 -0.50000000000E+03  0.50000000000E+03  0.00000000000E+00 0. -1.
        -11    1    1    2    0    0 -0.15457992744E+03  0.40938657786E+02 -0.10915989749E+03  0.19361511018E+03  0.00000000000E+00 0.  1.
         11    1    1    2    0    0  0.98870218844E+01  0.69646398861E+01 -0.32137889476E+03  0.32160636406E+03  0.00000000000E+00 0. -1.
        -15    1    1    2    0    0  0.14747984668E+03 -0.32771115562E+02  0.44094966988E+03  0.46611588719E+03  0.17770000000E+01 0.  1.
         15    1    1    2    0    0 -0.27869411259E+01 -0.15132182110E+02 -0.10410877633E+02  0.18662638568E+02  0.17770000000E+01 0. -1.
</event>
<event>
 6    1  0.6394569E-004  0.5003435E+03  0.7546771E-02  0.9399041E-01
        -11   -1    0    0    0    0  0.00000000000E+00  0.00000000000E+00  0.50000000000E+03  0.50000000000E+03  0.00000000000E+00 0. -1.
         11   -1    0    0    0    0 -0.00000000000E+00 -0.00000000000E+00 -0.50000000000E+03  0.50000000000E+03  0.00000000000E+00 0. -1.
        -11    1    1    2    0    0  0.25190145691E+01 -0.75036184163E+01  0.49959381380E+03  0.49965651052E+03  0.00000000000E+00 0. -1.
         11    1    1    2    0    0  0.40188810254E+01  0.74433159238E+01 -0.44467770933E+03  0.44475815848E+03  0.00000000000E+00 0. -1.
        -15    1    1    2    0    0 -0.60259241730E+01 -0.11529191630E+01 -0.41003244864E+02  0.41497768653E+02  0.17770000000E+01 0.  1.
         15    1    1    2    0    0 -0.51197142148E+00  0.12132216555E+01 -0.13912859602E+02  0.14087562345E+02  0.17770000000E+01 0. -1.
</event>
<event>
 6    1  0.6394569E-004  0.5012692E+03  0.7546771E-02  0.9396974E-01
        -11   -1    0    0    0    0  0.00000000000E+00  0.00000000000E+00  0.50000000000E+03  0.50000000000E+03  0.00000000000E+00 0.  1.
         11   -1    0    0    0    0 -0.00000000000E+00 -0.00000000000E+00 -0.50000000000E+03  0.50000000000E+03  0.00000000000E+00 0.  1.
        -11    1    1    2    0    0 -0.90590240600E+01 -0.36876004849E+01  0.49863488076E+03  0.49873079775E+03  0.00000000000E+00 0.  1.
         11    1    1    2    0    0 -0.70678711279E+01  0.56728054090E+00 -0.43038870455E+03  0.43044710896E+03  0.00000000000E+00 0.  1.
        -15    1    1    2    0    0  0.14881901278E+02  0.51207419141E+01 -0.54068075121E+02  0.56340105251E+02  0.17770000000E+01 0.  1.
         15    1    1    2    0    0  0.12449939096E+01 -0.20004219701E+01 -0.14178101093E+02  0.14481988037E+02  0.17770000000E+01 0.  1.
</event>
<event>
 6    1  0.6394569E-004  0.5053362E+03  0.7546771E-02  0.9387948E-01
        -11   -1    0    0    0    0  0.00000000000E+00  0.00000000000E+00  0.50000000000E+03  0.50000000000E+03  0.00000000000E+00 0. -1.
         11   -1    0    0    0    0 -0.00000000000E+00 -0.00000000000E+00 -0.50000000000E+03  0.50000000000E+03  0.00000000000E+00 0. -1.
        -11    1    1    2    0    0 -0.12403239737E+02 -0.10683057634E+01  0.49450707954E+03  0.49466375787E+03  0.00000000000E+00 0. -1.
         11    1    1    2    0    0 -0.38711606651E+01 -0.11198495443E+02 -0.47093036090E+03  0.47107939565E+03  0.00000000000E+00 0. -1.
        -15    1    1    2    0    0  0.15872705121E+02  0.11512279084E+02 -0.13222187175E+02  0.23716224410E+02  0.17770000000E+01 0.  1.
         15    1    1    2    0    0  0.40169528053E+00  0.75452212205E+00 -0.10354531466E+02  0.10540622069E+02  0.17770000000E+01 0. -1.
</event>
<event>
 6    1  0.6394569E-004  0.5017051E+03  0.7546771E-02  0.9396002E-01
        -11   -1    0    0    0    0  0.00000000000E+00  0.00000000000E+00  0.50000000000E+03  0.50000000000E+03  0.00000000000E+00 0. -1.
         11   -1    0    0    0    0 -0.00000000000E+00 -0.00000000000E+00 -0.50000000000E+03  0.50000000000E+03  0.00000000000E+00 0.  1.
        -11    1    1    2    0    0  0.11758944105E+02  0.26864840832E+02  0.25867847704E+03  0.26033545076E+03  0.00000000000E+00 0. -1.
         11    1    1    2    0    0 -0.60859979922E+01 -0.85971742969E+01 -0.49818355196E+03  0.49829489484E+03  0.00000000000E+00 0.  1.
        -15    1    1    2    0    0 -0.22257260694E+00  0.50314808648E+01  0.65614003528E+02  0.65830999736E+02  0.17770000000E+01 0.  1.
         15    1    1    2    0    0 -0.54503735053E+01 -0.23299147400E+02  0.17389107140E+03  0.17553865466E+03  0.17770000000E+01 0. -1.
</event>
<event>
 6    1  0.6394569E-004  0.5001981E+03  0.7546771E-02  0.9399366E-01
        -11   -1    0    0    0    0  0.00000000000E+00  0.00000000000E+00  0.50000000000E+03  0.50000000000E+03  0.00000000000E+00 0. -1.
         11   -1    0    0    0    0 -0.00000000000E+00 -0.00000000000E+00 -0.50000000000E+03  0.50000000000E+03  0.00000000000E+00 0.  1.
        -11    1    1    2    0    0 -0.76148991985E+01  0.14413693983E+02  0.14784132295E+03  0.14873734580E+03  0.00000000000E+00 0. -1.
         11    1    1    2    0    0  0.18378040421E+02 -0.21633614954E+02 -0.49899511425E+03  0.49980185045E+03  0.00000000000E+00 0.  1.
        -15    1    1    2    0    0 -0.36198399356E+01  0.59944496450E+01  0.17175983893E+03  0.17191171184E+03  0.17770000000E+01 0. -1.
         15    1    1    2    0    0 -0.71433012870E+01  0.12254713254E+01  0.17939395237E+03  0.17954909192E+03  0.17770000000E+01 0. -1.
</event>
<event>
 6    1  0.6394569E-004  0.5015356E+03  0.7546771E-02  0.9396380E-01
        -11   -1    0    0    0    0  0.00000000000E+00  0.00000000000E+00  0.50000000000E+03  0.50000000000E+03  0.00000000000E+00 0. -1.
         11   -1    0    0    0    0 -0.00000000000E+00 -0.00000000000E+00 -0.50000000000E+03  0.50000000000E+03  0.00000000000E+00 0. -1.
        -11    1    1    2    0    0  0.13231161637E+01  0.82358440117E+01  0.42465635708E+03  0.42473827396E+03  0.00000000000E+00 0. -1.
         11    1    1    2    0    0 -0.52032353872E+01  0.87483555382E+01 -0.49836041531E+03  0.49846435272E+03  0.00000000000E+00 0. -1.
        -15    1    1    2    0    0  0.15604560006E+01 -0.16368773412E+02  0.70514632202E+02  0.72428190986E+02  0.17770000000E+01 0. -1.
         15    1    1    2    0    0  0.23196632228E+01 -0.61542613761E+00  0.31894260331E+01  0.43691823284E+01  0.17770000000E+01 0.  1.
</event>
<event>
 6    1  0.6394569E-004  0.5007469E+03  0.7546771E-02  0.9398140E-01
        -11   -1    0    0    0    0  0.00000000000E+00  0.00000000000E+00  0.50000000000E+03  0.50000000000E+03  0.00000000000E+00 0.  1.
         11   -1    0    0    0    0 -0.00000000000E+00 -0.00000000000E+00 -0.50000000000E+03  0.50000000000E+03  0.00000000000E+00 0. -1.
        -11    1    1    2    0    0 -0.49984401801E+01 -0.14335360442E+02  0.49902220549E+03  0.49925309066E+03  0.00000000000E+00 0.  1.
         11    1    1    2    0    0 -0.19545085252E+01 -0.72872581561E+01 -0.24578453535E+03  0.24590030918E+03  0.00000000000E+00 0. -1.
        -15    1    1    2    0    0  0.52636535635E+01  0.75196882319E+01 -0.37991300613E+02  0.39124780015E+02  0.17770000000E+01 0.  1.
         15    1    1    2    0    0  0.16892951418E+01  0.14102930366E+02 -0.21524636952E+03  0.21572182014E+03  0.17770000000E+01 0. -1.
</event>
<event>
 6    1  0.6394569E-004  0.5017517E+03  0.7546771E-02  0.9395899E-01
        -11   -1    0    0    0    0  0.00000000000E+00  0.00000000000E+00  0.50000000000E+03  0.50000000000E+03  0.00000000000E+00 0. -1.
         11   -1    0    0    0    0 -0.00000000000E+00 -0.00000000000E+00 -0.50000000000E+03  0.50000000000E+03  0.00000000000E+00 0.  1.
        -11    1    1    2    0    0  0.17571108014E+02 -0.58068480163E+01  0.39499157025E+03  0.39542483975E+03  0.00000000000E+00 0. -1.
         11    1    1    2    0    0 -0.48099529257E+00 -0.88615346609E+01 -0.49816927636E+03  0.49824831767E+03  0.00000000000E+00 0.  1.
        -15    1    1    2    0    0 -0.65255826701E+01  0.27310151017E+01  0.56529856991E+02  0.56998457287E+02  0.17770000000E+01 0. -1.
         15    1    1    2    0    0 -0.10564530052E+02  0.11937367575E+02  0.46647849119E+02  0.49328385300E+02  0.17770000000E+01 0.  1.
</event>
<event>
 6    1  0.6394569E-004  0.5102517E+03  0.7546771E-02  0.9377159E-01
        -11   -1    0    0    0    0  0.00000000000E+00  0.00000000000E+00  0.50000000000E+03  0.50000000000E+03  0.00000000000E+00 0.  1.
         11   -1    0    0    0    0 -0.00000000000E+00 -0.00000000000E+00 -0.50000000000E+03  0.50000000000E+03  0.00000000000E+00 0.  1.
        -11    1    1    2    0    0 -0.17728709045E+02  0.29733714357E+01  0.44502967130E+03  0.44539258683E+03  0.00000000000E+00 0.  1.
         11    1    1    2    0    0 -0.26965973008E+02 -0.99685776534E+01 -0.48890377351E+03  0.48974833945E+03  0.00000000000E+00 0.  1.
        -15    1    1    2    0    0  0.43575193682E+02  0.40581066610E+01  0.42395269697E+02  0.60957217421E+02  0.17770000000E+01 0.  1.
         15    1    1    2    0    0  0.11194883714E+01  0.29370995566E+01  0.14788325092E+01  0.39018563031E+01  0.17770000000E+01 0. -1.
</event>
<event>
 6    1  0.6394569E-004  0.5053677E+03  0.7546771E-02  0.9387879E-01
        -11   -1    0    0    0    0  0.00000000000E+00  0.00000000000E+00  0.50000000000E+03  0.50000000000E+03  0.00000000000E+00 0. -1.
         11   -1    0    0    0    0 -0.00000000000E+00 -0.00000000000E+00 -0.50000000000E+03  0.50000000000E+03  0.00000000000E+00 0.  1.
        -11    1    1    2    0    0  0.73084565709E+02  0.88070131636E+01  0.35060377403E+03  0.35824841045E+03  0.00000000000E+00 0. -1.
         11    1    1    2    0    0 -0.39544698131E+02 -0.26824123745E+02 -0.49231884131E+03  0.49463234657E+03  0.00000000000E+00 0.  1.
        -15    1    1    2    0    0 -0.11787193314E+02  0.11789398585E+02  0.56706540262E+02  0.59133047298E+02  0.17770000000E+01 0.  1.
         15    1    1    2    0    0 -0.21752674264E+02  0.62277119960E+01  0.85008527024E+02  0.87986195679E+02  0.17770000000E+01 0. -1.
</event>
<event>
 6    1  0.6394569E-004  0.5008275E+03  0.7546771E-02  0.9397960E-01
        -11   -1    0    0    0    0  0.00000000000E+00  0.00000000000E+00  0.50000000000E+03  0.50000000000E+03  0.00000000000E+00 0.  1.
         11   -1    0    0    0    0 -0.00000000000E+00 -0.00000000000E+00 -0.50000000000E+03  0.50000000000E+03  0.00000000000E+00 0. -1.
        -11    1    1    2    0    0  0.59629359965E+01 -0.34455405123E+01 -0.82788408169E+01  0.10768823538E+02  0.00000000000E+00 0.  1.
         11    1    1    2    0    0 -0.71564309036E+01  0.27612208055E+01 -0.48999859846E+03  0.49005863459E+03  0.00000000000E+00 0. -1.
        -15    1    1    2    0    0  0.67436253008E+01 -0.12926341340E+01  0.47621814127E+03  0.47627095564E+03  0.17770000000E+01 0.  1.
         15    1    1    2    0    0 -0.55501303937E+01  0.19769538408E+01  0.22059298009E+02  0.22901586223E+02  0.17770000000E+01 0. -1.
</event>
<event>
 6    1  0.6394569E-004  0.5003340E+03  0.7546771E-02  0.9399063E-01
        -11   -1    0    0    0    0  0.00000000000E+00  0.00000000000E+00  0.50000000000E+03  0.50000000000E+03  0.00000000000E+00 0. -1.
         11   -1    0    0    0    0 -0.00000000000E+00 -0.00000000000E+00 -0.50000000000E+03  0.50000000000E+03  0.00000000000E+00 0. -1.
        -11    1    1    2    0    0  0.16112004084E+01 -0.60030078739E+01  0.33023491097E+03  0.33029339759E+03  0.00000000000E+00 0. -1.
         11    1    1    2    0    0 -0.85523106914E+01 -0.48959420180E+01 -0.49956877741E+03  0.49966596405E+03  0.00000000000E+00 0. -1.
        -15    1    1    2    0    0  0.49767134442E+01  0.62049137726E+01  0.13847237636E+03  0.13871202319E+03  0.17770000000E+01 0. -1.
         15    1    1    2    0    0  0.19643968389E+01  0.46940361193E+01  0.30861490072E+02  0.31328615171E+02  0.17770000000E+01 0.  1.
</event>
<event>
 6    1  0.6394569E-004  0.5017312E+03  0.7546771E-02  0.9395944E-01
        -11   -1    0    0    0    0  0.00000000000E+00  0.00000000000E+00  0.50000000000E+03  0.50000000000E+03  0.00000000000E+00 0. -1.
         11   -1    0    0    0    0 -0.00000000000E+00 -0.00000000000E+00 -0.50000000000E+03  0.50000000000E+03  0.00000000000E+00 0.  1.
        -11    1    1    2    0    0  0.23656401679E+02  0.25095711303E+02  0.49707381979E+03  0.49826880535E+03  0.00000000000E+00 0. -1.
         11    1    1    2    0    0 -0.61302576719E+01  0.49998914252E+01 -0.22724533507E+03  0.22738298372E+03  0.00000000000E+00 0.  1.
        -15    1    1    2    0    0 -0.13006326978E+02 -0.30802810311E+02 -0.12411803085E+03  0.12855512816E+03  0.17770000000E+01 0. -1.
         15    1    1    2    0    0 -0.45198170295E+01  0.70720758361E+00 -0.14571045387E+03  0.14579308277E+03  0.17770000000E+01 0.  1.
</event>
<event>
 6    1  0.6394569E-004  0.5023508E+03  0.7546771E-02  0.9394565E-01
        -11   -1    0    0    0    0  0.00000000000E+00  0.00000000000E+00  0.50000000000E+03  0.50000000000E+03  0.00000000000E+00 0. -1.
         11   -1    0    0    0    0 -0.00000000000E+00 -0.00000000000E+00 -0.50000000000E+03  0.50000000000E+03  0.00000000000E+00 0. -1.
        -11    1    1    2    0    0 -0.14280815447E+02  0.17596943946E+02  0.32540619539E+03  0.32619439929E+03  0.00000000000E+00 0. -1.
         11    1    1    2    0    0 -0.48495632656E+01  0.59092873745E+01 -0.49759050981E+03  0.49764922727E+03  0.00000000000E+00 0. -1.
        -15    1    1    2    0    0  0.14288770469E+00  0.36031994834E+01  0.16472529486E+02  0.16955984786E+02  0.17770000000E+01 0. -1.
         15    1    1    2    0    0  0.18987491008E+02 -0.27109430804E+02  0.15571178493E+03  0.15920038866E+03  0.17770000000E+01 0.  1.
</event>
<event>
 6    1  0.6394569E-004  0.5003843E+03  0.7546771E-02  0.9398950E-01
        -11   -1    0    0    0    0  0.00000000000E+00  0.00000000000E+00  0.50000000000E+03  0.50000000000E+03  0.00000000000E+00 0. -1.
         11   -1    0    0    0    0 -0.00000000000E+00 -0.00000000000E+00 -0.50000000000E+03  0.50000000000E+03  0.00000000000E+00 0. -1.
        -11    1    1    2    0    0  0.35209887248E+01  0.10629316766E+02  0.49949016256E+03  0.49961565451E+03  0.00000000000E+00 0. -1.
         11    1    1    2    0    0  0.50971206465E+01  0.51246772634E+01 -0.21988978433E+03  0.22000854576E+03  0.00000000000E+00 0. -1.
        -15    1    1    2    0    0  0.46946606394E+00 -0.50480307847E+01 -0.40207112847E+02  0.40564426110E+02  0.17770000000E+01 0.  1.
         15    1    1    2    0    0 -0.90875754353E+01 -0.10705963244E+02 -0.23939326538E+03  0.23981137362E+03  0.17770000000E+01 0. -1.
</event>
<event>
 6    1  0.6394569E-004  0.5077769E+03  0.7546771E-02  0.9382574E-01
        -11   -1    0    0    0    0  0.00000000000E+00  0.00000000000E+00  0.50000000000E+03  0.50000000000E+03  0.00000000000E+00 0.  1.
         11   -1    0    0    0    0 -0.00000000000E+00 -0.00000000000E+00 -0.50000000000E+03  0.50000000000E+03  0.00000000000E+00 0.  1.
        -11    1    1    2    0    0  0.84124136764E+02  0.62974777707E+02  0.36614811670E+03  0.38092930627E+03  0.00000000000E+00 0.  1.
         11    1    1    2    0    0 -0.72789212680E+02 -0.32727354972E+02 -0.48570999714E+03  0.49222306992E+03  0.00000000000E+00 0.  1.
        -15    1    1    2    0    0  0.56025470373E+01  0.10320607171E+00  0.76410260120E+01  0.96406531063E+01  0.17770000000E+01 0. -1.
         15    1    1    2    0    0 -0.16937471121E+02 -0.30350628807E+02  0.11192085442E+03  0.11720697070E+03  0.17770000000E+01 0.  1.
</event>
<event>
 6    1  0.6394569E-004  0.5010835E+03  0.7546771E-02  0.9397389E-01
        -11   -1    0    0    0    0  0.00000000000E+00  0.00000000000E+00  0.50000000000E+03  0.50000000000E+03  0.00000000000E+00 0.  1.
         11   -1    0    0    0    0 -0.00000000000E+00 -0.00000000000E+00 -0.50000000000E+03  0.50000000000E+03  0.00000000000E+00 0. -1.
        -11    1    1    2    0    0  0.12768423667E+02  0.11768598761E+02  0.44041466109E+03  0.44075685617E+03  0.00000000000E+00 0.  1.
         11    1    1    2    0    0 -0.12920401378E+02 -0.91683107054E+01 -0.49866488294E+03  0.49891648617E+03  0.00000000000E+00 0. -1.
        -15    1    1    2    0    0 -0.11914114672E+01 -0.74388319691E+01  0.16355211921E+02  0.18094373942E+02  0.17770000000E+01 0.  1.
         15    1    1    2    0    0  0.13433891783E+01  0.48385439135E+01  0.41895009933E+02  0.42232283717E+02  0.17770000000E+01 0. -1.
</event>
<event>
 6    1  0.6394569E-004  0.4849547E+03  0.7546771E-02  0.9434119E-01
        -11   -1    0    0    0    0  0.00000000000E+00  0.00000000000E+00  0.50000000000E+03  0.50000000000E+03  0.00000000000E+00 0. -1.
         11   -1    0    0    0    0 -0.00000000000E+00 -0.00000000000E+00 -0.50000000000E+03  0.50000000000E+03  0.00000000000E+00 0. -1.
        -11    1    1    2    0    0  0.11132928883E+02 -0.20630457698E+02  0.48174802354E+03  0.48231806526E+03  0.00000000000E+00 0. -1.
         11    1    1    2    0    0  0.13698826532E+02  0.21586448742E+02 -0.48725501736E+03  0.48792528584E+03  0.00000000000E+00 0. -1.
        -15    1    1    2    0    0 -0.11244093600E+02 -0.39526219249E+01  0.93045496770E+01  0.15224494562E+02  0.17770000000E+01 0.  1.
         15    1    1    2    0    0 -0.13587661814E+02  0.29966308807E+01 -0.37975558610E+01  0.14532154339E+02  0.17770000000E+01 0. -1.
</event>
<event>
 6    1  0.6394569E-004  0.5001629E+03  0.7546771E-02  0.9399445E-01
        -11   -1    0    0    0    0  0.00000000000E+00  0.00000000000E+00  0.50000000000E+03  0.50000000000E+03  0.00000000000E+00 0.  1.
         11   -1    0    0    0    0 -0.00000000000E+00 -0.00000000000E+00 -0.50000000000E+03  0.50000000000E+03  0.00000000000E+00 0. -1.
        -11    1    1    2    0    0 -0.41276953431E+01 -0.56013957107E+01  0.49978864006E+03  0.49983707169E+03  0.00000000000E+00 0.  1.
         11    1    1    2    0    0  0.28031081282E+01 -0.36384979679E+01 -0.30830030664E+03  0.30833451827E+03  0.00000000000E+00 0. -1.
        -15    1    1    2    0    0 -0.18103607641E+01  0.16980466242E+01 -0.54083078250E+02  0.54169159588E+02  0.17770000000E+01 0.  1.
         15    1    1    2    0    0  0.31349479790E+01  0.75418470545E+01 -0.13740525517E+03  0.13765925045E+03  0.17770000000E+01 0. -1.
</event>
<event>
 6    1  0.6394569E-004  0.5023230E+03  0.7546771E-02  0.9394627E-01
        -11   -1    0    0    0    0  0.00000000000E+00  0.00000000000E+00  0.50000000000E+03  0.50000000000E+03  0.00000000000E+00 0.  1.
         11   -1    0    0    0    0 -0.00000000000E+00 -0.00000000000E+00 -0.50000000000E+03  0.50000000000E+03  0.00000000000E+00 0. -1.
        -11    1    1    2    0    0 -0.46582631916E+00 -0.87378547290E+01  0.49760008687E+03  0.49767701731E+03  0.00000000000E+00 0.  1.
         11    1    1    2    0    0 -0.69603191336E+01 -0.25255248952E+01 -0.45906737219E+03  0.45912708102E+03  0.00000000000E+00 0. -1.
        -15    1    1    2    0    0 -0.24788496565E+00 -0.13832380914E+01 -0.16147769941E+02  0.16305919098E+02  0.17770000000E+01 0.  1.
         15    1    1    2    0    0  0.76740304184E+01  0.12646617716E+02 -0.22384944747E+02  0.26889982574E+02  0.17770000000E+01 0. -1.
</event>
<event>
 6    1  0.6394569E-004  0.4810967E+03  0.7546771E-02  0.9443130E-01
        -11   -1    0    0    0    0  0.00000000000E+00  0.00000000000E+00  0.50000000000E+03  0.50000000000E+03  0.00000000000E+00 0. -1.
         11   -1    0    0    0    0 -0.00000000000E+00 -0.00000000000E+00 -0.50000000000E+03  0.50000000000E+03  0.00000000000E+00 0.  1.
        -11    1    1    2    0    0 -0.12830975774E+01  0.18852092328E+02  0.48458433982E+03  0.48495260606E+03  0.00000000000E+00 0. -1.
         11    1    1    2    0    0  0.67684406431E+01  0.12310946693E+02 -0.47757978718E+03  0.47778637938E+03  0.00000000000E+00 0.  1.
        -15    1    1    2    0    0 -0.26371855165E+00 -0.40033473760E+01 -0.84370749258E+01  0.95099053618E+01  0.17770000000E+01 0. -1.
         15    1    1    2    0    0 -0.52216245140E+01 -0.27159691646E+02  0.14325222812E+01  0.27751109202E+02  0.17770000000E+01 0.  1.
</event>
<event>
 6    1  0.6394569E-004  0.4746959E+03  0.7546771E-02  0.9458281E-01
        -11   -1    0    0    0    0  0.00000000000E+00  0.00000000000E+00  0.50000000000E+03  0.50000000000E+03  0.00000000000E+00 0.  1.
         11   -1    0    0    0    0 -0.00000000000E+00 -0.00000000000E+00 -0.50000000000E+03  0.50000000000E+03  0.00000000000E+00 0. -1.
        -11    1    1    2    0    0  0.52493458207E+02 -0.17161328202E+02  0.46934843953E+03  0.47258653390E+03  0.00000000000E+00 0.  1.
         11    1    1    2    0    0 -0.11534642223E+02  0.49436587724E+01 -0.47763818493E+03  0.47780301740E+03  0.00000000000E+00 0. -1.
        -15    1    1    2    0    0 -0.40350079042E+00 -0.39023148040E+01 -0.19822570064E+01  0.47410911779E+01  0.17770000000E+01 0. -1.
         15    1    1    2    0    0 -0.40555315194E+02  0.16119984234E+02  0.10272002408E+02  0.44869357524E+02  0.17770000000E+01 0.  1.
</event>
<event>
 6    1  0.6394569E-004  0.5029360E+03  0.7546771E-02  0.9393264E-01
        -11   -1    0    0    0    0  0.00000000000E+00  0.00000000000E+00  0.50000000000E+03  0.50000000000E+03  0.00000000000E+00 0. -1.
         11   -1    0    0    0    0 -0.00000000000E+00 -0.00000000000E+00 -0.50000000000E+03  0.50000000000E+03  0.00000000000E+00 0.  1.
        -11    1    1    2    0    0  0.69858769913E+01 -0.58409979611E+01  0.49698063168E+03  0.49706404818E+03  0.00000000000E+00 0. -1.
         11    1    1    2    0    0 -0.38820039621E+01  0.63277703885E+01 -0.47119744712E+03  0.47125592283E+03  0.00000000000E+00 0.  1.
        -15    1    1    2    0    0 -0.88582033775E+01  0.26506931003E+01 -0.21945223896E+02  0.23879793169E+02  0.17770000000E+01 0.  1.
         15    1    1    2    0    0  0.57543303484E+01 -0.31374655276E+01 -0.38379606597E+01  0.78002358119E+01  0.17770000000E+01 0. -1.
</event>
<event>
 6    1  0.6394569E-004  0.5061608E+03  0.7546771E-02  0.9386129E-01
        -11   -1    0    0    0    0  0.00000000000E+00  0.00000000000E+00  0.50000000000E+03  0.50000000000E+03  0.00000000000E+00 0.  1.
         11   -1    0    0    0    0 -0.00000000000E+00 -0.00000000000E+00 -0.50000000000E+03  0.50000000000E+03  0.00000000000E+00 0. -1.
        -11    1    1    2    0    0  0.15595408004E+01  0.19626424439E+02  0.46433859023E+03  0.46475580155E+03  0.00000000000E+00 0.  1.
         11    1    1    2    0    0 -0.12560437376E+02  0.50569335928E+01 -0.49365349159E+03  0.49383915086E+03  0.00000000000E+00 0. -1.
        -15    1    1    2    0    0  0.80113126911E+01 -0.16578150838E+02  0.26157025738E+02  0.32036915280E+02  0.17770000000E+01 0.  1.
         15    1    1    2    0    0  0.29895838848E+01 -0.81052071942E+01  0.31578756257E+01  0.93681323076E+01  0.17770000000E+01 0. -1.
</event>
<event>
 6    1  0.6394569E-004  0.5079008E+03  0.7546771E-02  0.9382303E-01
        -11   -1    0    0    0    0  0.00000000000E+00  0.00000000000E+00  0.50000000000E+03  0.50000000000E+03  0.00000000000E+00 0.  1.
         11   -1    0    0    0    0 -0.00000000000E+00 -0.00000000000E+00 -0.50000000000E+03  0.50000000000E+03  0.00000000000E+00 0. -1.
        -11    1    1    2    0    0  0.28724590020E+02 -0.15083455798E+02  0.25017092741E+02  0.40969105920E+02  0.00000000000E+00 0.  1.
         11    1    1    2    0    0 -0.20634579605E+02  0.75991555347E+01 -0.49160766256E+03  0.49209920435E+03  0.00000000000E+00 0. -1.
        -15    1    1    2    0    0 -0.91920574015E+01  0.93860902077E+01  0.43826196921E+03  0.43846243168E+03  0.17770000000E+01 0.  1.
         15    1    1    2    0    0  0.11020469865E+01 -0.19017899441E+01  0.28328600604E+02  0.28469258047E+02  0.17770000000E+01 0. -1.
</event>
<event>
 6    1  0.6394569E-004  0.5032962E+03  0.7546771E-02  0.9392464E-01
        -11   -1    0    0    0    0  0.00000000000E+00  0.00000000000E+00  0.50000000000E+03  0.50000000000E+03  0.00000000000E+00 0. -1.
         11   -1    0    0    0    0 -0.00000000000E+00 -0.00000000000E+00 -0.50000000000E+03  0.50000000000E+03  0.00000000000E+00 0.  1.
        -11    1    1    2    0    0 -0.52540250093E+01 -0.26231075478E+02  0.31067681329E+03  0.31182648447E+03  0.00000000000E+00 0. -1.
         11    1    1    2    0    0  0.45280667596E+00  0.76838832475E+01 -0.49664417665E+03  0.49670382050E+03  0.00000000000E+00 0.  1.
        -15    1    1    2    0    0 -0.94320047761E+01  0.27167673277E+02  0.12058940370E+03  0.12398389895E+03  0.17770000000E+01 0. -1.
         15    1    1    2    0    0  0.14233223110E+02 -0.86204810470E+01  0.65377959668E+02  0.67485796083E+02  0.17770000000E+01 0.  1.
</event>
<event>
 6    1  0.6394569E-004  0.5009002E+03  0.7546771E-02  0.9397798E-01
        -11   -1    0    0    0    0  0.00000000000E+00  0.00000000000E+00  0.50000000000E+03  0.50000000000E+03  0.00000000000E+00 0.  1.
         11   -1    0    0    0    0 -0.00000000000E+00 -0.00000000000E+00 -0.50000000000E+03  0.50000000000E+03  0.00000000000E+00 0. -1.
        -11    1    1    2    0    0 -0.24758952926E+01 -0.77197668734E+01  0.34087977754E+03  0.34097616866E+03  0.00000000000E+00 0.  1.
         11    1    1    2    0    0 -0.10508430598E+02  0.16673518515E+02 -0.49871051929E+03  0.49909980503E+03  0.00000000000E+00 0. -1.
        -15    1    1    2    0    0  0.11084883507E+01 -0.10212094601E+02  0.11352481887E+03  0.11400244669E+03  0.17770000000E+01 0.  1.
         15    1    1    2    0    0  0.11875837540E+02  0.12583429602E+01  0.44305922875E+02  0.45921579623E+02  0.17770000000E+01 0. -1.
</event>
<event>
 6    1  0.6394569E-004  0.5005473E+03  0.7546771E-02  0.9398586E-01
        -11   -1    0    0    0    0  0.00000000000E+00  0.00000000000E+00  0.50000000000E+03  0.50000000000E+03  0.00000000000E+00 0. -1.
         11   -1    0    0    0    0 -0.00000000000E+00 -0.00000000000E+00 -0.50000000000E+03  0.50000000000E+03  0.00000000000E+00 0.  1.
        -11    1    1    2    0    0  0.40999008581E+01 -0.17551774332E+02  0.49912733518E+03  0.49945267113E+03  0.00000000000E+00 0. -1.
         11    1    1    2    0    0 -0.63360034047E+00 -0.46536310980E+01 -0.28655190278E+03  0.28659038839E+03  0.00000000000E+00 0.  1.
        -15    1    1    2    0    0  0.11043566590E+01  0.25434743334E+01 -0.15721965535E+02  0.16063212462E+02  0.17770000000E+01 0.  1.
         15    1    1    2    0    0 -0.45706571766E+01  0.19661931097E+02 -0.19685346687E+03  0.19789372802E+03  0.17770000000E+01 0. -1.
</event>
<event>
 6    1  0.6394569E-004  0.5043653E+03  0.7546771E-02  0.9390095E-01
        -11   -1    0    0    0    0  0.00000000000E+00  0.00000000000E+00  0.50000000000E+03  0.50000000000E+03  0.00000000000E+00 0.  1.
         11   -1    0    0    0    0 -0.00000000000E+00 -0.00000000000E+00 -0.50000000000E+03  0.50000000000E+03  0.00000000000E+00 0.  1.
        -11    1    1    2    0    0  0.43190774398E+02  0.16865053749E+02  0.11242257347E+03  0.12160883215E+03  0.00000000000E+00 0.  1.
         11    1    1    2    0    0 -0.29593563181E+02 -0.19363141304E+02 -0.49437139263E+03  0.49563472848E+03  0.00000000000E+00 0.  1.
        -15    1    1    2    0    0 -0.17766831282E+02 -0.17958621188E+01  0.23978574231E+03  0.24045632734E+03  0.17770000000E+01 0. -1.
         15    1    1    2    0    0  0.41696200643E+01  0.42939496741E+01  0.14216307685E+03  0.14230011203E+03  0.17770000000E+01 0.  1.
</event>
<event>
 6    1  0.6394569E-004  0.5037999E+03  0.7546771E-02  0.9391347E-01
        -11   -1    0    0    0    0  0.00000000000E+00  0.00000000000E+00  0.50000000000E+03  0.50000000000E+03  0.00000000000E+00 0.  1.
         11   -1    0    0    0    0 -0.00000000000E+00 -0.00000000000E+00 -0.50000000000E+03  0.50000000000E+03  0.00000000000E+00 0. -1.
        -11    1    1    2    0    0  0.38796391640E+02 -0.40208601683E+02  0.49304430663E+03  0.49620014103E+03  0.00000000000E+00 0.  1.
         11    1    1    2    0    0 -0.86612560456E+00  0.84922501192E+01 -0.34619464526E+03  0.34629987134E+03  0.00000000000E+00 0. -1.
        -15    1    1    2    0    0 -0.34018524618E+02  0.36810037876E+02 -0.12615447664E+03  0.13575842004E+03  0.17770000000E+01 0. -1.
         15    1    1    2    0    0 -0.39117414170E+01 -0.50936863127E+01 -0.20695184734E+02  0.21741567592E+02  0.17770000000E+01 0.  1.
</event>
<event>
 6    1  0.6394569E-004  0.5000220E+03  0.7546771E-02  0.9399760E-01
        -11   -1    0    0    0    0  0.00000000000E+00  0.00000000000E+00  0.50000000000E+03  0.50000000000E+03  0.00000000000E+00 0. -1.
         11   -1    0    0    0    0 -0.00000000000E+00 -0.00000000000E+00 -0.50000000000E+03  0.50000000000E+03  0.00000000000E+00 0.  1.
        -11    1    1    2    0    0 -0.24678203401E+01 -0.39044260057E+01  0.24195645301E+03  0.24200053684E+03  0.00000000000E+00 0. -1.
         11    1    1    2    0    0  0.48241878284E+01  0.65921632978E+01 -0.49991123667E+03  0.49997797347E+03  0.00000000000E+00 0.  1.
        -15    1    1    2    0    0 -0.17560026945E+01 -0.85676781733E+00  0.18640516631E+03  0.18642387549E+03  0.17770000000E+01 0. -1.
         15    1    1    2    0    0 -0.60036479380E+00 -0.18309694748E+01  0.71549617357E+02  0.71597614206E+02  0.17770000000E+01 0. -1.
</event>
<event>
 6    1  0.6394569E-004  0.5039685E+03  0.7546771E-02  0.9390973E-01
        -11   -1    0    0    0    0  0.00000000000E+00  0.00000000000E+00  0.50000000000E+03  0.50000000000E+03  0.00000000000E+00 0. -1.
         11   -1    0    0    0    0 -0.00000000000E+00 -0.00000000000E+00 -0.50000000000E+03  0.50000000000E+03  0.00000000000E+00 0. -1.
        -11    1    1    2    0    0  0.31235241625E+02  0.15312313637E+02  0.39188372168E+03  0.39342465427E+03  0.00000000000E+00 0. -1.
         11    1    1    2    0    0  0.19488196395E+00 -0.94616210669E+01 -0.49594124629E+03  0.49603153128E+03  0.00000000000E+00 0. -1.
        -15    1    1    2    0    0 -0.14022949917E+01  0.16946801413E+01  0.11290130395E+01  0.30447941586E+01  0.17770000000E+01 0. -1.
         15    1    1    2    0    0 -0.30027828597E+02 -0.75453727114E+01  0.10292851158E+03  0.10749902029E+03  0.17770000000E+01 0.  1.
</event>
<event>
 6    1  0.6394569E-004  0.5041727E+03  0.7546771E-02  0.9390521E-01
        -11   -1    0    0    0    0  0.00000000000E+00  0.00000000000E+00  0.50000000000E+03  0.50000000000E+03  0.00000000000E+00 0. -1.
         11   -1    0    0    0    0 -0.00000000000E+00 -0.00000000000E+00 -0.50000000000E+03  0.50000000000E+03  0.00000000000E+00 0. -1.
        -11    1    1    2    0    0 -0.71883047820E+01 -0.49483632547E+01  0.44246588543E+03  0.44255193796E+03  0.00000000000E+00 0. -1.
         11    1    1    2    0    0 -0.48796039914E+01 -0.63461715556E+01 -0.49576269624E+03  0.49582732419E+03  0.00000000000E+00 0. -1.
        -15    1    1    2    0    0 -0.10156058305E-01  0.45811228323E+01 -0.14546138055E+01  0.51244921576E+01  0.17770000000E+01 0.  1.
         15    1    1    2    0    0  0.12078064832E+02  0.67134119780E+01  0.54751424621E+02  0.56496245694E+02  0.17770000000E+01 0. -1.
</event>
<event>
 6    1  0.6394569E-004  0.5009876E+03  0.7546771E-02  0.9397603E-01
        -11   -1    0    0    0    0  0.00000000000E+00  0.00000000000E+00  0.50000000000E+03  0.50000000000E+03  0.00000000000E+00 0.  1.
         11   -1    0    0    0    0 -0.00000000000E+00 -0.00000000000E+00 -0.50000000000E+03  0.50000000000E+03  0.00000000000E+00 0. -1.
        -11    1    1    2    0    0 -0.80487158709E+01  0.24294514256E+02  0.49835570675E+03  0.49901244043E+03  0.00000000000E+00 0.  1.
         11    1    1    2    0    0  0.21193740346E+01  0.53522830870E+01 -0.30785982020E+03  0.30791363656E+03  0.00000000000E+00 0. -1.
        -15    1    1    2    0    0  0.32021936820E+01 -0.26203163507E+02 -0.15173122461E+03  0.15402071962E+03  0.17770000000E+01 0. -1.
         15    1    1    2    0    0  0.27271481543E+01 -0.34436338358E+01 -0.38764661938E+02  0.39053203393E+02  0.17770000000E+01 0.  1.
</event>
<event>
 6    1  0.6394569E-004  0.5018291E+03  0.7546771E-02  0.9395726E-01
        -11   -1    0    0    0    0  0.00000000000E+00  0.00000000000E+00  0.50000000000E+03  0.50000000000E+03  0.00000000000E+00 0. -1.
         11   -1    0    0    0    0 -0.00000000000E+00 -0.00000000000E+00 -0.50000000000E+03  0.50000000000E+03  0.00000000000E+00 0.  1.
        -11    1    1    2    0    0 -0.21776888805E+02 -0.11152930361E+02  0.49756972870E+03  0.49817091009E+03  0.00000000000E+00 0. -1.
         11    1    1    2    0    0  0.29397988462E+01 -0.78244746535E+01 -0.14912320646E+03  0.14935727476E+03  0.00000000000E+00 0.  1.
        -15    1    1    2    0    0 -0.14422354550E+02  0.12520674270E+02 -0.12888328665E+03  0.13030284303E+03  0.17770000000E+01 0. -1.
         15    1    1    2    0    0  0.33259444508E+02  0.64567307441E+01 -0.21956323559E+03  0.22216897212E+03  0.17770000000E+01 0.  1.
</event>
<event>
 6    1  0.6394569E-004  0.5013594E+03  0.7546771E-02  0.9396773E-01
        -11   -1    0    0    0    0  0.00000000000E+00  0.00000000000E+00  0.50000000000E+03  0.50000000000E+03  0.00000000000E+00 0.  1.
         11   -1    0    0    0    0 -0.00000000000E+00 -0.00000000000E+00 -0.50000000000E+03  0.50000000000E+03  0.00000000000E+00 0. -1.
        -11    1    1    2    0    0  0.12508730030E+02  0.11337465214E+02  0.49835471548E+03  0.49864058086E+03  0.00000000000E+00 0.  1.
         11    1    1    2    0    0 -0.91170672155E+01  0.18255993907E+02 -0.29514481509E+03  0.29584939430E+03  0.00000000000E+00 0. -1.
        -15    1    1    2    0    0 -0.39643915673E+01 -0.26504016134E+02 -0.17063906411E+03  0.17273976728E+03  0.17770000000E+01 0. -1.
         15    1    1    2    0    0  0.57272875263E+00 -0.30894429870E+01 -0.32570836270E+02  0.32770257560E+02  0.17770000000E+01 0.  1.
</event>
<event>
 6    1  0.6394569E-004  0.5030697E+03  0.7546771E-02  0.9392967E-01
        -11   -1    0    0    0    0  0.00000000000E+00  0.00000000000E+00  0.50000000000E+03  0.50000000000E+03  0.00000000000E+00 0.  1.
         11   -1    0    0    0    0 -0.00000000000E+00 -0.00000000000E+00 -0.50000000000E+03  0.50000000000E+03  0.00000000000E+00 0. -1.
        -11    1    1    2    0    0  0.73517770742E+01  0.42379561641E+01  0.49685783419E+03  0.49693029319E+03  0.00000000000E+00 0.  1.
         11    1    1    2    0    0  0.58826409807E+01  0.61341432933E+01 -0.46527975331E+03  0.46535737022E+03  0.00000000000E+00 0. -1.
        -15    1    1    2    0    0 -0.63212537004E+00 -0.93818825721E+00 -0.13549419456E+02  0.13712194437E+02  0.17770000000E+01 0. -1.
         15    1    1    2    0    0 -0.12602292685E+02 -0.94339112001E+01 -0.18028661422E+02  0.24000142147E+02  0.17770000000E+01 0.  1.
</event>
<event>
 6    1  0.6394569E-004  0.4689845E+03  0.7546771E-02  0.9472015E-01
        -11   -1    0    0    0    0  0.00000000000E+00  0.00000000000E+00  0.50000000000E+03  0.50000000000E+03  0.00000000000E+00 0. -1.
         11   -1    0    0    0    0 -0.00000000000E+00 -0.00000000000E+00 -0.50000000000E+03  0.50000000000E+03  0.00000000000E+00 0. -1.
        -11    1    1    2    0    0  0.49285248287E+00  0.54860543290E+02  0.45216946101E+03  0.45548561292E+03  0.00000000000E+00 0. -1.
         11    1    1    2    0    0  0.60254029693E+01 -0.53326355522E+01 -0.48429508837E+03  0.48436192573E+03  0.00000000000E+00 0. -1.
        -15    1    1    2    0    0  0.13536078770E+01 -0.42724683491E+01  0.21907600421E+01  0.52956018204E+01  0.17770000000E+01 0.  1.
         15    1    1    2    0    0 -0.78718633291E+01 -0.45255439389E+02  0.29934867318E+02  0.54856859525E+02  0.17770000000E+01 0.  1.
</event>
<event>
 6    1  0.6394569E-004  0.4904530E+03  0.7546771E-02  0.9421429E-01
        -11   -1    0    0    0    0  0.00000000000E+00  0.00000000000E+00  0.50000000000E+03  0.50000000000E+03  0.00000000000E+00 0. -1.
         11   -1    0    0    0    0 -0.00000000000E+00 -0.00000000000E+00 -0.50000000000E+03  0.50000000000E+03  0.00000000000E+00 0. -1.
        -11    1    1    2    0    0 -0.16304581236E+02  0.37185302112E+01  0.11399795005E+02  0.20239124546E+02  0.00000000000E+00 0. -1.
         11    1    1    2    0    0  0.29507566175E+02 -0.31705466026E+01 -0.49435950125E+03  0.49524949803E+03  0.00000000000E+00 0. -1.
        -15    1    1    2    0    0 -0.24173210217E+01 -0.16217415126E+02  0.13109570903E+03  0.13212906815E+03  0.17770000000E+01 0.  1.
         15    1    1    2    0    0 -0.10785663917E+02  0.15669431518E+02  0.35186399721E+03  0.35238230927E+03  0.17770000000E+01 0. -1.
</event>
<event>
 6    1  0.6394569E-004  0.5062619E+03  0.7546771E-02  0.9385906E-01
        -11   -1    0    0    0    0  0.00000000000E+00  0.00000000000E+00  0.50000000000E+03  0.50000000000E+03  0.00000000000E+00 0. -1.
         11   -1    0    0    0    0 -0.00000000000E+00 -0.00000000000E+00 -0.50000000000E+03  0.50000000000E+03  0.00000000000E+00 0.  1.
        -11    1    1    2    0    0  0.26904048244E+02  0.20045794227E+02  0.18399883140E+03  0.18703270205E+03  0.00000000000E+00 0. -1.
         11    1    1    2    0    0  0.28856203142E+02 -0.54666818810E+02 -0.48985324841E+03  0.49373813557E+03  0.00000000000E+00 0.  1.
        -15    1    1    2    0    0 -0.12405536765E+02  0.23051979389E+02  0.30483246901E+02  0.40220357617E+02  0.17770000000E+01 0.  1.
         15    1    1    2    0    0 -0.43354714622E+02  0.11569045193E+02  0.27537117010E+03  0.27900880477E+03  0.17770000000E+01 0. -1.
</event>
<event>
 6    1  0.6394569E-004  0.5018325E+03  0.7546771E-02  0.9395719E-01
        -11   -1    0    0    0    0  0.00000000000E+00  0.00000000000E+00  0.50000000000E+03  0.50000000000E+03  0.00000000000E+00 0.  1.
         11   -1    0    0    0    0 -0.00000000000E+00 -0.00000000000E+00 -0.50000000000E+03  0.50000000000E+03  0.00000000000E+00 0. -1.
        -11    1    1    2    0    0  0.17649655423E+02  0.44685088046E+01  0.40480494855E+02  0.44386353434E+02  0.00000000000E+00 0.  1.
         11    1    1    2    0    0 -0.16653498584E+02 -0.11509927329E+02 -0.49775597684E+03  0.49816747176E+03  0.00000000000E+00 0. -1.
        -15    1    1    2    0    0 -0.39714193522E+01  0.50305395357E+01  0.38660274889E+03  0.38665995614E+03  0.17770000000E+01 0.  1.
         15    1    1    2    0    0  0.29752625137E+01  0.20108789884E+01  0.70672733094E+02  0.70786218668E+02  0.17770000000E+01 0.  1.
</event>
<event>
 6    1  0.6394569E-004  0.5000739E+03  0.7546771E-02  0.9399644E-01
        -11   -1    0    0    0    0  0.00000000000E+00  0.00000000000E+00  0.50000000000E+03  0.50000000000E+03  0.00000000000E+00 0. -1.
         11   -1    0    0    0    0 -0.00000000000E+00 -0.00000000000E+00 -0.50000000000E+03  0.50000000000E+03  0.00000000000E+00 0.  1.
        -11    1    1    2    0    0 -0.69303405422E+01  0.33572140008E+01  0.17291512930E+03  0.17308651723E+03  0.00000000000E+00 0. -1.
         11    1    1    2    0    0  0.80524255020E+01 -0.11963095243E+01 -0.49985978642E+03  0.49992607333E+03  0.00000000000E+00 0.  1.
        -15    1    1    2    0    0 -0.19804687474E+01 -0.17838981769E+01  0.22657335374E+03  0.22659599931E+03  0.17770000000E+01 0. -1.
         15    1    1    2    0    0  0.85838378751E+00 -0.37700629964E+00  0.10037130338E+03  0.10039141013E+03  0.17770000000E+01 0. -1.
</event>
<event>
 6    1  0.6394569E-004  0.5001649E+03  0.7546771E-02  0.9399441E-01
        -11   -1    0    0    0    0  0.00000000000E+00  0.00000000000E+00  0.50000000000E+03  0.50000000000E+03  0.00000000000E+00 0.  1.
         11   -1    0    0    0    0 -0.00000000000E+00 -0.00000000000E+00 -0.50000000000E+03  0.50000000000E+03  0.00000000000E+00 0.  1.
        -11    1    1    2    0    0 -0.82127473862E+01 -0.31041750527E+01  0.66445484283E+02  0.67023037114E+02  0.00000000000E+00 0.  1.
         11    1    1    2    0    0  0.42150105360E+02  0.79305812758E+01 -0.49799154765E+03  0.49983507984E+03  0.00000000000E+00 0.  1.
        -15    1    1    2    0    0 -0.13217814582E+02 -0.87657956443E+01  0.19289944700E+03  0.19355852907E+03  0.17770000000E+01 0.  1.
         15    1    1    2    0    0 -0.20719543391E+02  0.39393894212E+01  0.23864661638E+03  0.23958335398E+03  0.17770000000E+01 0. -1.
</event>
<event>
 6    1  0.6394569E-004  0.5000854E+03  0.7546771E-02  0.9399619E-01
        -11   -1    0    0    0    0  0.00000000000E+00  0.00000000000E+00  0.50000000000E+03  0.50000000000E+03  0.00000000000E+00 0. -1.
         11   -1    0    0    0    0 -0.00000000000E+00 -0.00000000000E+00 -0.50000000000E+03  0.50000000000E+03  0.00000000000E+00 0. -1.
        -11    1    1    2    0    0  0.90918703742E+00 -0.26901486913E+01  0.31712981224E+02  0.31839860225E+02  0.00000000000E+00 0. -1.
         11    1    1    2    0    0  0.69967975758E+01  0.10528218614E+01 -0.49986451940E+03  0.49991459407E+03  0.00000000000E+00 0. -1.
        -15    1    1    2    0    0 -0.13753992755E+01 -0.25114996688E+00  0.14496385783E+03  0.14498149056E+03  0.17770000000E+01 0. -1.
         15    1    1    2    0    0 -0.65305853377E+01  0.18884767967E+01  0.32318768035E+03  0.32326405514E+03  0.17770000000E+01 0. -1.
</event>
<event>
 6    1  0.6394569E-004  0.5038515E+03  0.7546771E-02  0.9391233E-01
        -11   -1    0    0    0    0  0.00000000000E+00  0.00000000000E+00  0.50000000000E+03  0.50000000000E+03  0.00000000000E+00 0. -1.
         11   -1    0    0    0    0 -0.00000000000E+00 -0.00000000000E+00 -0.50000000000E+03  0.50000000000E+03  0.00000000000E+00 0.  1.
        -11    1    1    2    0    0  0.32568839132E+02  0.47964902096E+02  0.23014905324E+03  0.23733930948E+03  0.00000000000E+00 0. -1.
         11    1    1    2    0    0 -0.38837657452E+02 -0.16300278599E+02 -0.49435743619E+03  0.49614850341E+03  0.00000000000E+00 0.  1.
        -15    1    1    2    0    0  0.48368242606E+01 -0.31923836691E+02  0.25390365732E+03  0.25595458806E+03  0.17770000000E+01 0. -1.
         15    1    1    2    0    0  0.14319940596E+01  0.25921319396E+00  0.10304725626E+02  0.10557599049E+02  0.17770000000E+01 0.  1.
</event>
<event>
 6    1  0.6394569E-004  0.5011462E+03  0.7546771E-02  0.9397249E-01
        -11   -1    0    0    0    0  0.00000000000E+00  0.00000000000E+00  0.50000000000E+03  0.50000000000E+03  0.00000000000E+00 0. -1.
         11   -1    0    0    0    0 -0.00000000000E+00 -0.00000000000E+00 -0.50000000000E+03  0.50000000000E+03  0.00000000000E+00 0.  1.
        -11    1    1    2    0    0 -0.10482361661E+02 -0.53318762232E+01  0.31998237087E+02  0.34090995683E+02  0.00000000000E+00 0. -1.
         11    1    1    2    0    0  0.63419062308E+01 -0.29508394519E+01 -0.49880473568E+03  0.49885377774E+03  0.00000000000E+00 0.  1.
        -15    1    1    2    0    0  0.79358097515E+01  0.46432635232E+01  0.33705175338E+03  0.33718181914E+03  0.17770000000E+01 0. -1.
         15    1    1    2    0    0 -0.37953543218E+01  0.36394521519E+01  0.12975474521E+03  0.12987340744E+03  0.17770000000E+01 0.  1.
</event>
<event>
 6    1  0.6394569E-004  0.5063515E+03  0.7546771E-02  0.9385709E-01
        -11   -1    0    0    0    0  0.00000000000E+00  0.00000000000E+00  0.50000000000E+03  0.50000000000E+03  0.00000000000E+00 0.  1.
         11   -1    0    0    0    0 -0.00000000000E+00 -0.00000000000E+00 -0.50000000000E+03  0.50000000000E+03  0.00000000000E+00 0. -1.
        -11    1    1    2    0    0 -0.34526888052E+02  0.27604752300E+02  0.33457553402E+03  0.33748320893E+03  0.00000000000E+00 0.  1.
         11    1    1    2    0    0 -0.18852340802E+02 -0.27110472648E+02 -0.49254284545E+03  0.49364850155E+03  0.00000000000E+00 0. -1.
        -15    1    1    2    0    0  0.45862136818E+02 -0.39216209691E+01  0.15114222414E+03  0.15800583645E+03  0.17770000000E+01 0.  1.
         15    1    1    2    0    0  0.75170920366E+01  0.34273413164E+01  0.68250872829E+01  0.10862453066E+02  0.17770000000E+01 0. -1.
</event>
<event>
 6    1  0.6394569E-004  0.5009138E+03  0.7546771E-02  0.9397767E-01
        -11   -1    0    0    0    0  0.00000000000E+00  0.00000000000E+00  0.50000000000E+03  0.50000000000E+03  0.00000000000E+00 0. -1.
         11   -1    0    0    0    0 -0.00000000000E+00 -0.00000000000E+00 -0.50000000000E+03  0.50000000000E+03  0.00000000000E+00 0. -1.
        -11    1    1    2    0    0  0.20317721420E+02 -0.20518307897E+02  0.22565692827E+03  0.22749694512E+03  0.00000000000E+00 0. -1.
         11    1    1    2    0    0 -0.45289812566E+01  0.28024701659E+02 -0.49827816933E+03  0.49908619456E+03  0.00000000000E+00 0. -1.
        -15    1    1    2    0    0 -0.96257531286E+01 -0.95607856320E+00  0.19642861067E+03  0.19667467053E+03  0.17770000000E+01 0. -1.
         15    1    1    2    0    0 -0.61629870352E+01 -0.65503151985E+01  0.76192630394E+02  0.76742189790E+02  0.17770000000E+01 0. -1.
</event>
<event>
 6    1  0.6394569E-004  0.4899703E+03  0.7546771E-02  0.9422536E-01
        -11   -1    0    0    0    0  0.00000000000E+00  0.00000000000E+00  0.50000000000E+03  0.50000000000E+03  0.00000000000E+00 0. -1.
         11   -1    0    0    0    0 -0.00000000000E+00 -0.00000000000E+00 -0.50000000000E+03  0.50000000000E+03  0.00000000000E+00 0. -1.
        -11    1    1    2    0    0  0.14067879528E+02  0.57842496091E+01  0.48834073273E+03  0.48857756193E+03  0.00000000000E+00 0. -1.
         11    1    1    2    0    0 -0.35867578494E+01  0.95305734151E+01 -0.49143823057E+03  0.49154372250E+03  0.00000000000E+00 0. -1.
        -15    1    1    2    0    0 -0.95619456990E+01 -0.12937351706E+02  0.39426640773E+01  0.16658577483E+02  0.17770000000E+01 0. -1.
         15    1    1    2    0    0 -0.91917598006E+00 -0.23774713181E+01 -0.84516623192E+00  0.32201380887E+01  0.17770000000E+01 0.  1.
</event>
<event>
 6    1  0.6394569E-004  0.5034008E+03  0.7546771E-02  0.9392232E-01
        -11   -1    0    0    0    0  0.00000000000E+00  0.00000000000E+00  0.50000000000E+03  0.50000000000E+03  0.00000000000E+00 0.  1.
         11   -1    0    0    0    0 -0.00000000000E+00 -0.00000000000E+00 -0.50000000000E+03  0.50000000000E+03  0.00000000000E+00 0. -1.
        -11    1    1    2    0    0 -0.79643843733E+01 -0.21514493420E+01  0.49653063315E+03  0.49659916413E+03  0.00000000000E+00 0.  1.
         11    1    1    2    0    0  0.40339046231E+01  0.93523977780E+01 -0.48274466247E+03  0.48285209835E+03  0.00000000000E+00 0. -1.
        -15    1    1    2    0    0  0.75200545192E+01 -0.91444705313E+00 -0.68403543106E+01  0.10360290029E+02  0.17770000000E+01 0.  1.
         15    1    1    2    0    0 -0.35895747691E+01 -0.62865013829E+01 -0.69456163705E+01  0.10188447498E+02  0.17770000000E+01 0. -1.
</event>
<event>
 6    1  0.6394569E-004  0.4865610E+03  0.7546771E-02  0.9430393E-01
        -11   -1    0    0    0    0  0.00000000000E+00  0.00000000000E+00  0.50000000000E+03  0.50000000000E+03  0.00000000000E+00 0.  1.
         11   -1    0    0    0    0 -0.00000000000E+00 -0.00000000000E+00 -0.50000000000E+03  0.50000000000E+03  0.00000000000E+00 0. -1.
        -11    1    1    2    0    0  0.18895530309E+02  0.14388768808E+02  0.48804098114E+03  0.48861853936E+03  0.00000000000E+00 0.  1.
         11    1    1    2    0    0 -0.84817639372E+01  0.74648709226E+01 -0.48467859475E+03  0.48481027715E+03  0.00000000000E+00 0. -1.
        -15    1    1    2    0    0 -0.74603141170E+01 -0.98946246167E+01 -0.59475739080E+01  0.13859698677E+02  0.17770000000E+01 0. -1.
         15    1    1    2    0    0 -0.29534522553E+01 -0.11959015114E+02  0.25851875212E+01  0.12711484817E+02  0.17770000000E+01 0.  1.
</event>
<event>
 6    1  0.6394569E-004  0.5012934E+03  0.7546771E-02  0.9396920E-01
        -11   -1    0    0    0    0  0.00000000000E+00  0.00000000000E+00  0.50000000000E+03  0.50000000000E+03  0.00000000000E+00 0.  1.
         11   -1    0    0    0    0 -0.00000000000E+00 -0.00000000000E+00 -0.50000000000E+03  0.50000000000E+03  0.00000000000E+00 0. -1.
        -11    1    1    2    0    0  0.20959636667E+02 -0.88048379767E+01  0.49818817598E+03  0.49870661739E+03  0.00000000000E+00 0.  1.
         11    1    1    2    0    0 -0.54968707903E+00 -0.85999733993E+01 -0.35830259679E+03  0.35840621167E+03  0.00000000000E+00 0. -1.
        -15    1    1    2    0    0 -0.63147022278E+01  0.84670564499E+01 -0.33080736926E+02  0.34771531368E+02  0.17770000000E+01 0.  1.
         15    1    1    2    0    0 -0.14095247361E+02  0.89377549261E+01 -0.10680484226E+03  0.10811563957E+03  0.17770000000E+01 0. -1.
</event>
<event>
 6    1  0.6394569E-004  0.5020647E+03  0.7546771E-02  0.9395202E-01
        -11   -1    0    0    0    0  0.00000000000E+00  0.00000000000E+00  0.50000000000E+03  0.50000000000E+03  0.00000000000E+00 0.  1.
         11   -1    0    0    0    0 -0.00000000000E+00 -0.00000000000E+00 -0.50000000000E+03  0.50000000000E+03  0.00000000000E+00 0.  1.
        -11    1    1    2    0    0  0.15813563834E+02 -0.79882074970E+01  0.49761997679E+03  0.49793525840E+03  0.00000000000E+00 0.  1.
         11    1    1    2    0    0 -0.76298360694E+01  0.87502816537E+01 -0.46034223204E+03  0.46048860184E+03  0.00000000000E+00 0.  1.
        -15    1    1    2    0    0 -0.89166600420E+01  0.39006205874E+01 -0.10899143505E+02  0.14719739312E+02  0.17770000000E+01 0. -1.
         15    1    1    2    0    0  0.73293227729E+00 -0.46626947441E+01 -0.26378601245E+02  0.26856400440E+02  0.17770000000E+01 0.  1.
</event>
<event>
 6    1  0.6394569E-004  0.5001193E+03  0.7546771E-02  0.9399543E-01
        -11   -1    0    0    0    0  0.00000000000E+00  0.00000000000E+00  0.50000000000E+03  0.50000000000E+03  0.00000000000E+00 0. -1.
         11   -1    0    0    0    0 -0.00000000000E+00 -0.00000000000E+00 -0.50000000000E+03  0.50000000000E+03  0.00000000000E+00 0.  1.
        -11    1    1    2    0    0  0.86269163539E+01 -0.35574390707E+01  0.49979355039E+03  0.49988065783E+03  0.00000000000E+00 0. -1.
         11    1    1    2    0    0 -0.86811129417E+00  0.57194217908E+01 -0.29995647792E+03  0.30001225650E+03  0.00000000000E+00 0.  1.
        -15    1    1    2    0    0 -0.52842765020E+01  0.12363434815E+01 -0.95914065069E+02  0.96083909841E+02  0.17770000000E+01 0.  1.
         15    1    1    2    0    0 -0.24745285578E+01 -0.33983262015E+01 -0.10392300741E+03  0.10402317583E+03  0.17770000000E+01 0. -1.
</event>
<event>
 6    1  0.6394569E-004  0.4912747E+03  0.7546771E-02  0.9419548E-01
        -11   -1    0    0    0    0  0.00000000000E+00  0.00000000000E+00  0.50000000000E+03  0.50000000000E+03  0.00000000000E+00 0. -1.
         11   -1    0    0    0    0 -0.00000000000E+00 -0.00000000000E+00 -0.50000000000E+03  0.50000000000E+03  0.00000000000E+00 0. -1.
        -11    1    1    2    0    0 -0.71648864251E+01  0.24886072290E+01  0.48823200920E+03  0.48829092104E+03  0.00000000000E+00 0. -1.
         11    1    1    2    0    0 -0.39409506630E+01 -0.88288180887E+01 -0.49426561514E+03  0.49436016974E+03  0.00000000000E+00 0. -1.
        -15    1    1    2    0    0  0.15718591437E+00  0.31778467599E+01  0.43787280100E+01  0.56968768133E+01  0.17770000000E+01 0.  1.
         15    1    1    2    0    0  0.10948651174E+02  0.31623640998E+01  0.16548779314E+01  0.11652032406E+02  0.17770000000E+01 0.  1.
</event>
<event>
 6    1  0.6394569E-004  0.5012351E+03  0.7546771E-02  0.9397050E-01
        -11   -1    0    0    0    0  0.00000000000E+00  0.00000000000E+00  0.50000000000E+03  0.50000000000E+03  0.00000000000E+00 0. -1.
         11   -1    0    0    0    0 -0.00000000000E+00 -0.00000000000E+00 -0.50000000000E+03  0.50000000000E+03  0.00000000000E+00 0. -1.
        -11    1    1    2    0    0 -0.55405079054E+01  0.50701141294E+01  0.49870839493E+03  0.49876494109E+03  0.00000000000E+00 0. -1.
         11    1    1    2    0    0  0.37834306148E+01  0.53811182795E+01 -0.46697205825E+03  0.46701838718E+03  0.00000000000E+00 0. -1.
        -15    1    1    2    0    0  0.38454708208E+01 -0.54271108158E+01 -0.14426764918E+02  0.15985319911E+02  0.17770000000E+01 0.  1.
         15    1    1    2    0    0 -0.20883935302E+01 -0.50241215931E+01 -0.17309571765E+02  0.18231351815E+02  0.17770000000E+01 0. -1.
</event>
<event>
 6    1  0.6394569E-004  0.5002674E+03  0.7546771E-02  0.9399212E-01
        -11   -1    0    0    0    0  0.00000000000E+00  0.00000000000E+00  0.50000000000E+03  0.50000000000E+03  0.00000000000E+00 0.  1.
         11   -1    0    0    0    0 -0.00000000000E+00 -0.00000000000E+00 -0.50000000000E+03  0.50000000000E+03  0.00000000000E+00 0.  1.
        -11    1    1    2    0    0 -0.90017746953E+00 -0.10176282747E+02  0.49962814284E+03  0.49973257665E+03  0.00000000000E+00 0.  1.
         11    1    1    2    0    0  0.44078259472E+01 -0.25347347985E+01 -0.16661644148E+03  0.16669400824E+03  0.00000000000E+00 0.  1.
        -15    1    1    2    0    0 -0.24843629303E+01  0.11579665418E+01 -0.20476714807E+03  0.20479320204E+03  0.17770000000E+01 0.  1.
         15    1    1    2    0    0 -0.10232855474E+01  0.11553051004E+02 -0.12824455329E+03  0.12878021307E+03  0.17770000000E+01 0.  1.
</event>
<event>
 6    1  0.6394569E-004  0.5019938E+03  0.7546771E-02  0.9395360E-01
        -11   -1    0    0    0    0  0.00000000000E+00  0.00000000000E+00  0.50000000000E+03  0.50000000000E+03  0.00000000000E+00 0. -1.
         11   -1    0    0    0    0 -0.00000000000E+00 -0.00000000000E+00 -0.50000000000E+03  0.50000000000E+03  0.00000000000E+00 0. -1.
        -11    1    1    2    0    0  0.14192475870E+02 -0.30699356311E+02  0.49685644117E+03  0.49800622485E+03  0.00000000000E+00 0. -1.
         11    1    1    2    0    0 -0.22955000331E+01  0.11498493325E+02 -0.36372933237E+03  0.36391827640E+03  0.00000000000E+00 0. -1.
        -15    1    1    2    0    0 -0.18306095162E+02  0.22564623006E+02 -0.10927356695E+03  0.11308468285E+03  0.17770000000E+01 0. -1.
         15    1    1    2    0    0  0.64091193254E+01 -0.33637600196E+01 -0.23853541848E+02  0.24990815907E+02  0.17770000000E+01 0.  1.
</event>
<event>
 6    1  0.6394569E-004  0.4837504E+03  0.7546771E-02  0.9436922E-01
        -11   -1    0    0    0    0  0.00000000000E+00  0.00000000000E+00  0.50000000000E+03  0.50000000000E+03  0.00000000000E+00 0.  1.
         11   -1    0    0    0    0 -0.00000000000E+00 -0.00000000000E+00 -0.50000000000E+03  0.50000000000E+03  0.00000000000E+00 0. -1.
        -11    1    1    2    0    0 -0.15735259525E+02  0.30226030390E+01  0.47719483361E+03  0.47746376171E+03  0.00000000000E+00 0.  1.
         11    1    1    2    0    0  0.76041590118E+00  0.12423704033E+02 -0.49020571498E+03  0.49036371160E+03  0.00000000000E+00 0. -1.
        -15    1    1    2    0    0  0.11267828601E+02 -0.80023480343E+01  0.17648719100E+02  0.22486363652E+02  0.17770000000E+01 0.  1.
         15    1    1    2    0    0  0.37070150226E+01 -0.74439590382E+01 -0.46378377306E+01  0.96861630358E+01  0.17770000000E+01 0. -1.
</event>
<event>
 6    1  0.6394569E-004  0.4792896E+03  0.7546771E-02  0.9447382E-01
        -11   -1    0    0    0    0  0.00000000000E+00  0.00000000000E+00  0.50000000000E+03  0.50000000000E+03  0.00000000000E+00 0.  1.
         11   -1    0    0    0    0 -0.00000000000E+00 -0.00000000000E+00 -0.50000000000E+03  0.50000000000E+03  0.00000000000E+00 0. -1.
        -11    1    1    2    0    0  0.19131181784E+02  0.19604781309E+02  0.48286629291E+03  0.48364264328E+03  0.00000000000E+00 0.  1.
         11    1    1    2    0    0 -0.79412183902E+01  0.15203568771E+02 -0.47535356185E+03  0.47566292710E+03  0.00000000000E+00 0. -1.
        -15    1    1    2    0    0  0.11209344031E+01 -0.37285188669E+01  0.34196172663E+01  0.54781254207E+01  0.17770000000E+01 0.  1.
         15    1    1    2    0    0 -0.12310897797E+02 -0.31079831213E+02 -0.10932348331E+02  0.35216304205E+02  0.17770000000E+01 0. -1.
</event>
<event>
 6    1  0.6394569E-004  0.4650208E+03  0.7546771E-02  0.9481670E-01
        -11   -1    0    0    0    0  0.00000000000E+00  0.00000000000E+00  0.50000000000E+03  0.50000000000E+03  0.00000000000E+00 0. -1.
         11   -1    0    0    0    0 -0.00000000000E+00 -0.00000000000E+00 -0.50000000000E+03  0.50000000000E+03  0.00000000000E+00 0. -1.
        -11    1    1    2    0    0 -0.14603324325E+01 -0.47080146808E+02  0.47963833907E+03  0.48194564953E+03  0.00000000000E+00 0. -1.
         11    1    1    2    0    0  0.24804475134E+01 -0.96367338878E+01 -0.45017990268E+03  0.45028986668E+03  0.00000000000E+00 0. -1.
        -15    1    1    2    0    0 -0.76959059598E+01  0.67204591782E+01 -0.70637787876E+01  0.12547758360E+02  0.17770000000E+01 0.  1.
         15    1    1    2    0    0  0.66757908789E+01  0.49996421518E+02 -0.22394657610E+02  0.55216725428E+02  0.17770000000E+01 0. -1.
</event>
<event>
 6    1  0.6394569E-004  0.4693515E+03  0.7546771E-02  0.9471127E-01
        -11   -1    0    0    0    0  0.00000000000E+00  0.00000000000E+00  0.50000000000E+03  0.50000000000E+03  0.00000000000E+00 0.  1.
         11   -1    0    0    0    0 -0.00000000000E+00 -0.00000000000E+00 -0.50000000000E+03  0.50000000000E+03  0.00000000000E+00 0.  1.
        -11    1    1    2    0    0  0.20171488015E+02 -0.44684792605E+02  0.46260933600E+03  0.46519997568E+03  0.00000000000E+00 0.  1.
         11    1    1    2    0    0  0.10750315863E+02 -0.34315938885E+01 -0.47519409238E+03  0.47532806624E+03  0.00000000000E+00 0.  1.
        -15    1    1    2    0    0 -0.62552927469E+01  0.89523119886E+01 -0.12401718819E+01  0.11134106726E+02  0.17770000000E+01 0. -1.
         15    1    1    2    0    0 -0.24666511132E+02  0.39164074505E+02  0.13824928263E+02  0.48337851356E+02  0.17770000000E+01 0.  1.
</event>
<event>
 6    1  0.6394569E-004  0.5029066E+03  0.7546771E-02  0.9393329E-01
        -11   -1    0    0    0    0  0.00000000000E+00  0.00000000000E+00  0.50000000000E+03  0.50000000000E+03  0.00000000000E+00 0. -1.
         11   -1    0    0    0    0 -0.00000000000E+00 -0.00000000000E+00 -0.50000000000E+03  0.50000000000E+03  0.00000000000E+00 0.  1.
        -11    1    1    2    0    0  0.11626954892E+00 -0.25414505818E+02  0.20839949286E+03  0.20994346679E+03  0.00000000000E+00 0. -1.
         11    1    1    2    0    0  0.36516088503E+02  0.28230315472E+02 -0.49494593683E+03  0.49709340753E+03  0.00000000000E+00 0.  1.
        -15    1    1    2    0    0 -0.32425227423E+02 -0.90043991284E+01  0.28204560923E+03  0.28405168190E+03  0.17770000000E+01 0. -1.
         15    1    1    2    0    0 -0.42071306288E+01  0.61885894745E+01  0.45008347467E+01  0.89114437791E+01  0.17770000000E+01 0.  1.
</event>
<event>
 6    1  0.6394569E-004  0.5008272E+03  0.7546771E-02  0.9397961E-01
        -11   -1    0    0    0    0  0.00000000000E+00  0.00000000000E+00  0.50000000000E+03  0.50000000000E+03  0.00000000000E+00 0.  1.
         11   -1    0    0    0    0 -0.00000000000E+00 -0.00000000000E+00 -0.50000000000E+03  0.50000000000E+03  0.00000000000E+00 0.  1.
        -11    1    1    2    0    0 -0.28031186171E+02 -0.69124546991E+01  0.49833721887E+03  0.49917282893E+03  0.00000000000E+00 0.  1.
         11    1    1    2    0    0 -0.27434759300E+01  0.72240711686E+00 -0.11553268336E+03  0.11556751039E+03  0.00000000000E+00 0.  1.
        -15    1    1    2    0    0 -0.15263681075E+01 -0.48619356634E+01 -0.13504412823E+03  0.13515192384E+03  0.17770000000E+01 0. -1.
         15    1    1    2    0    0  0.32301030209E+02  0.11051983246E+02 -0.24776040728E+03  0.25010773685E+03  0.17770000000E+01 0.  1.
</event>
<event>
 6    1  0.6394569E-004  0.5050128E+03  0.7546771E-02  0.9388663E-01
        -11   -1    0    0    0    0  0.00000000000E+00  0.00000000000E+00  0.50000000000E+03  0.50000000000E+03  0.00000000000E+00 0.  1.
         11   -1    0    0    0    0 -0.00000000000E+00 -0.00000000000E+00 -0.50000000000E+03  0.50000000000E+03  0.00000000000E+00 0.  1.
        -11    1    1    2    0    0  0.40934383922E+01 -0.10364548232E+02  0.49486175567E+03  0.49498720925E+03  0.00000000000E+00 0.  1.
         11    1    1    2    0    0 -0.25188740029E+01  0.18117591725E+02 -0.48648042563E+03  0.48682419453E+03  0.00000000000E+00 0.  1.
        -15    1    1    2    0    0 -0.73962661200E+01 -0.26487946706E+01 -0.54310227531E+01  0.97146591742E+01  0.17770000000E+01 0. -1.
         15    1    1    2    0    0  0.58217017307E+01 -0.51042488224E+01 -0.29503072821E+01  0.84739370508E+01  0.17770000000E+01 0.  1.
</event>
<event>
 6    1  0.6394569E-004  0.4737267E+03  0.7546771E-02  0.9460597E-01
        -11   -1    0    0    0    0  0.00000000000E+00  0.00000000000E+00  0.50000000000E+03  0.50000000000E+03  0.00000000000E+00 0. -1.
         11   -1    0    0    0    0 -0.00000000000E+00 -0.00000000000E+00 -0.50000000000E+03  0.50000000000E+03  0.00000000000E+00 0. -1.
        -11    1    1    2    0    0  0.33814822202E+02  0.19152737531E+02  0.46935695582E+03  0.47096307873E+03  0.00000000000E+00 0. -1.
         11    1    1    2    0    0 -0.63403772061E+01  0.18089098328E+01 -0.47710636310E+03  0.47715191947E+03  0.00000000000E+00 0. -1.
        -15    1    1    2    0    0 -0.36585367186E+02 -0.18296952528E+02  0.28173260898E+01  0.41040987065E+02  0.17770000000E+01 0.  1.
         15    1    1    2    0    0  0.91109221900E+01 -0.26646948353E+01  0.49320811949E+01  0.10844014738E+02  0.17770000000E+01 0. -1.
</event>
<event>
 6    1  0.6394569E-004  0.4786294E+03  0.7546771E-02  0.9448940E-01
        -11   -1    0    0    0    0  0.00000000000E+00  0.00000000000E+00  0.50000000000E+03  0.50000000000E+03  0.00000000000E+00 0. -1.
         11   -1    0    0    0    0 -0.00000000000E+00 -0.00000000000E+00 -0.50000000000E+03  0.50000000000E+03  0.00000000000E+00 0.  1.
        -11    1    1    2    0    0 -0.41056638106E+02  0.12741783123E+02  0.47887485779E+03  0.48080050956E+03  0.00000000000E+00 0. -1.
         11    1    1    2    0    0  0.77622267409E+01 -0.92970849777E+00 -0.47704766027E+03  0.47711171301E+03  0.00000000000E+00 0.  1.
        -15    1    1    2    0    0  0.35540447123E+02 -0.82599965908E+01  0.13034723951E+01  0.36554174791E+02  0.17770000000E+01 0.  1.
         15    1    1    2    0    0 -0.22460357586E+01 -0.35520780342E+01 -0.31306699222E+01  0.55336026377E+01  0.17770000000E+01 0. -1.
</event>
<event>
 6    1  0.6394569E-004  0.5004325E+03  0.7546771E-02  0.9398842E-01
        -11   -1    0    0    0    0  0.00000000000E+00  0.00000000000E+00  0.50000000000E+03  0.50000000000E+03  0.00000000000E+00 0.  1.
         11   -1    0    0    0    0 -0.00000000000E+00 -0.00000000000E+00 -0.50000000000E+03  0.50000000000E+03  0.00000000000E+00 0.  1.
        -11    1    1    2    0    0  0.69413705894E+01  0.85829057484E+01  0.49944552260E+03  0.49956749188E+03  0.00000000000E+00 0.  1.
         11    1    1    2    0    0  0.54182071247E+01 -0.12964470681E+01 -0.36103363551E+03  0.36107661751E+03  0.00000000000E+00 0.  1.
        -15    1    1    2    0    0 -0.58027424706E+01 -0.30172804844E+01 -0.92519594200E+02  0.92767498843E+02  0.17770000000E+01 0. -1.
         15    1    1    2    0    0 -0.65568352435E+01 -0.42691781958E+01 -0.45892292892E+02  0.46588391760E+02  0.17770000000E+01 0.  1.
</event>
<event>
 6    1  0.6394569E-004  0.5016824E+03  0.7546771E-02  0.9396053E-01
        -11   -1    0    0    0    0  0.00000000000E+00  0.00000000000E+00  0.50000000000E+03  0.50000000000E+03  0.00000000000E+00 0. -1.
         11   -1    0    0    0    0 -0.00000000000E+00 -0.00000000000E+00 -0.50000000000E+03  0.50000000000E+03  0.00000000000E+00 0. -1.
        -11    1    1    2    0    0  0.11700980963E+02 -0.62790231341E+01  0.39387171425E+02  0.41565470764E+02  0.00000000000E+00 0. -1.
         11    1    1    2    0    0 -0.18634861862E+02  0.31679265432E+02 -0.49696033372E+03  0.49831757668E+03  0.00000000000E+00 0. -1.
        -15    1    1    2    0    0  0.16089107320E+02 -0.29030938424E+02  0.23730181032E+03  0.23961836672E+03  0.17770000000E+01 0. -1.
         15    1    1    2    0    0 -0.91552264199E+01  0.36306961258E+01  0.22027135198E+03  0.22049858584E+03  0.17770000000E+01 0.  1.
</event>
<event>
 6    1  0.6394569E-004  0.5018769E+03  0.7546771E-02  0.9395620E-01
        -11   -1    0    0    0    0  0.00000000000E+00  0.00000000000E+00  0.50000000000E+03  0.50000000000E+03  0.00000000000E+00 0.  1.
         11   -1    0    0    0    0 -0.00000000000E+00 -0.00000000000E+00 -0.50000000000E+03  0.50000000000E+03  0.00000000000E+00 0. -1.
        -11    1    1    2    0    0  0.10014508960E+00  0.15920105060E+02  0.36862767910E+02  0.40153747423E+02  0.00000000000E+00 0.  1.
         11    1    1    2    0    0 -0.79479835444E+01  0.12820216699E+01 -0.49805801607E+03  0.49812307856E+03  0.00000000000E+00 0. -1.
        -15    1    1    2    0    0  0.59791934406E+01 -0.13594666581E+02  0.42412277065E+03  0.42438643714E+03  0.17770000000E+01 0.  1.
         15    1    1    2    0    0  0.18686450142E+01 -0.36074601492E+01  0.37072477511E+02  0.37336736878E+02  0.17770000000E+01 0.  1.
</event>
<event>
 6    1  0.6394569E-004  0.5040622E+03  0.7546771E-02  0.9390766E-01
        -11   -1    0    0    0    0  0.00000000000E+00  0.00000000000E+00  0.50000000000E+03  0.50000000000E+03  0.00000000000E+00 0. -1.
         11   -1    0    0    0    0 -0.00000000000E+00 -0.00000000000E+00 -0.50000000000E+03  0.50000000000E+03  0.00000000000E+00 0.  1.
        -11    1    1    2    0    0 -0.88537141245E+01  0.69957455621E+00  0.46739151300E+03  0.46747588610E+03  0.00000000000E+00 0. -1.
         11    1    1    2    0    0  0.59718667973E+00  0.15845834887E+02 -0.49568423597E+03  0.49593780750E+03  0.00000000000E+00 0.  1.
        -15    1    1    2    0    0 -0.23652710287E+01 -0.28885828410E+01  0.10513527172E+01  0.42663203589E+01  0.17770000000E+01 0.  1.
         15    1    1    2    0    0  0.10621798473E+02 -0.13656826603E+02  0.27241370251E+02  0.32319986043E+02  0.17770000000E+01 0. -1.
</event>
<event>
 6    1  0.6394569E-004  0.5056422E+03  0.7546771E-02  0.9387273E-01
        -11   -1    0    0    0    0  0.00000000000E+00  0.00000000000E+00  0.50000000000E+03  0.50000000000E+03  0.00000000000E+00 0.  1.
         11   -1    0    0    0    0 -0.00000000000E+00 -0.00000000000E+00 -0.50000000000E+03  0.50000000000E+03  0.00000000000E+00 0. -1.
        -11    1    1    2    0    0  0.13886249287E+02 -0.21973278477E+02  0.42360673590E+03  0.42440348677E+03  0.00000000000E+00 0.  1.
         11    1    1    2    0    0 -0.48860621706E+01 -0.75539481782E+01 -0.49427592277E+03  0.49435778902E+03  0.00000000000E+00 0. -1.
        -15    1    1    2    0    0  0.61179821849E+01  0.21467548492E+02  0.45878685254E+02  0.51051903333E+02  0.17770000000E+01 0. -1.
         15    1    1    2    0    0 -0.15118169301E+02  0.80596781633E+01  0.24790501617E+02  0.30186820875E+02  0.17770000000E+01 0.  1.
</event>
<event>
 6    1  0.6394569E-004  0.5010784E+03  0.7546771E-02  0.9397400E-01
        -11   -1    0    0    0    0  0.00000000000E+00  0.00000000000E+00  0.50000000000E+03  0.50000000000E+03  0.00000000000E+00 0.  1.
         11   -1    0    0    0    0 -0.00000000000E+00 -0.00000000000E+00 -0.50000000000E+03  0.50000000000E+03  0.00000000000E+00 0.  1.
        -11    1    1    2    0    0 -0.63104789800E+01  0.10104874717E+02  0.91415070933E+02  0.92188100272E+02  0.00000000000E+00 0.  1.
         11    1    1    2    0    0 -0.70091699939E+01 -0.10149833290E+01 -0.49887128186E+03  0.49892155146E+03  0.00000000000E+00 0.  1.
        -15    1    1    2    0    0  0.10021089388E+02 -0.10199436898E+02  0.40155042008E+03  0.40180884552E+03  0.17770000000E+01 0.  1.
         15    1    1    2    0    0  0.32985595864E+01  0.11095455102E+01  0.59057908474E+01  0.70815027443E+01  0.17770000000E+01 0. -1.
</event>
<event>
 6    1  0.6394569E-004  0.5027112E+03  0.7546771E-02  0.9393764E-01
        -11   -1    0    0    0    0  0.00000000000E+00  0.00000000000E+00  0.50000000000E+03  0.50000000000E+03  0.00000000000E+00 0. -1.
         11   -1    0    0    0    0 -0.00000000000E+00 -0.00000000000E+00 -0.50000000000E+03  0.50000000000E+03  0.00000000000E+00 0. -1.
        -11    1    1    2    0    0 -0.89773779448E+01 -0.24867454071E+01  0.45853401779E+03  0.45862863265E+03  0.00000000000E+00 0. -1.
         11    1    1    2    0    0 -0.63652097469E+01  0.32277314879E+01 -0.49723762835E+03  0.49728884282E+03  0.00000000000E+00 0. -1.
        -15    1    1    2    0    0  0.15031963179E+02 -0.53936255921E+01  0.28292170893E+02  0.32536990901E+02  0.17770000000E+01 0. -1.
         15    1    1    2    0    0  0.31062451251E+00  0.46526395113E+01  0.10411439667E+02  0.11545533636E+02  0.17770000000E+01 0. -1.
</event>
<event>
 6    1  0.6394569E-004  0.5078455E+03  0.7546771E-02  0.9382424E-01
        -11   -1    0    0    0    0  0.00000000000E+00  0.00000000000E+00  0.50000000000E+03  0.50000000000E+03  0.00000000000E+00 0. -1.
         11   -1    0    0    0    0 -0.00000000000E+00 -0.00000000000E+00 -0.50000000000E+03  0.50000000000E+03  0.00000000000E+00 0.  1.
        -11    1    1    2    0    0  0.14130640333E+02 -0.13516066348E+02  0.47815620085E+03  0.47855586033E+03  0.00000000000E+00 0. -1.
         11    1    1    2    0    0 -0.48021629716E+01 -0.61342732369E+01 -0.49209279697E+03  0.49215445839E+03  0.00000000000E+00 0.  1.
        -15    1    1    2    0    0 -0.12534203419E+02  0.16246171174E+02  0.12469248528E+02  0.24076632260E+02  0.17770000000E+01 0.  1.
         15    1    1    2    0    0  0.32057260578E+01  0.34041684112E+01  0.14673475904E+01  0.52130490196E+01  0.17770000000E+01 0. -1.
</event>
<event>
 6    1  0.6394569E-004  0.5023197E+03  0.7546771E-02  0.9394634E-01
        -11   -1    0    0    0    0  0.00000000000E+00  0.00000000000E+00  0.50000000000E+03  0.50000000000E+03  0.00000000000E+00 0.  1.
         11   -1    0    0    0    0 -0.00000000000E+00 -0.00000000000E+00 -0.50000000000E+03  0.50000000000E+03  0.00000000000E+00 0. -1.
        -11    1    1    2    0    0 -0.21120418671E+02  0.18313135883E+02  0.26307284214E+03  0.26455389489E+03  0.00000000000E+00 0.  1.
         11    1    1    2    0    0  0.99977716351E+01 -0.87397702214E+01 -0.49750310092E+03  0.49768029341E+03  0.00000000000E+00 0. -1.
        -15    1    1    2    0    0 -0.10148375413E+02 -0.14456557286E+02  0.11015760384E+03  0.11157883753E+03  0.17770000000E+01 0. -1.
         15    1    1    2    0    0  0.21271022449E+02  0.48831916237E+01  0.12427265493E+03  0.12618697417E+03  0.17770000000E+01 0.  1.
</event>
<event>
 6    1  0.6394569E-004  0.5048555E+03  0.7546771E-02  0.9389010E-01
        -11   -1    0    0    0    0  0.00000000000E+00  0.00000000000E+00  0.50000000000E+03  0.50000000000E+03  0.00000000000E+00 0. -1.
         11   -1    0    0    0    0 -0.00000000000E+00 -0.00000000000E+00 -0.50000000000E+03  0.50000000000E+03  0.00000000000E+00 0. -1.
        -11    1    1    2    0    0  0.10080852594E+02  0.94320921301E+01  0.49495202435E+03  0.49514451866E+03  0.00000000000E+00 0. -1.
         11    1    1    2    0    0  0.35410960635E+01 -0.85380803102E+01 -0.48512728853E+03  0.48521533802E+03  0.00000000000E+00 0. -1.
        -15    1    1    2    0    0 -0.11630984237E+02 -0.25891617874E+01 -0.10954138602E+02  0.16282949198E+02  0.17770000000E+01 0.  1.
         15    1    1    2    0    0 -0.19909644197E+01  0.16951499676E+01  0.11294027779E+01  0.33571941213E+01  0.17770000000E+01 0. -1.
</event>
<event>
 6    1  0.6394569E-004  0.5004461E+03  0.7546771E-02  0.9398812E-01
        -11   -1    0    0    0    0  0.00000000000E+00  0.00000000000E+00  0.50000000000E+03  0.50000000000E+03  0.00000000000E+00 0.  1.
         11   -1    0    0    0    0 -0.00000000000E+00 -0.00000000000E+00 -0.50000000000E+03  0.50000000000E+03  0.00000000000E+00 0. -1.
        -11    1    1    2    0    0 -0.66625589720E+01 -0.13325138687E+02  0.11347720108E+03  0.11445096844E+03  0.00000000000E+00 0.  1.
         11    1    1    2    0    0  0.73163209082E+01  0.87196880975E+01 -0.49942421956E+03  0.49955391360E+03  0.00000000000E+00 0. -1.
        -15    1    1    2    0    0 -0.12050811855E+00  0.13857153931E+01  0.11055038872E+03  0.11057341862E+03  0.17770000000E+01 0.  1.
         15    1    1    2    0    0 -0.53325381756E+00  0.32197351960E+01  0.27539662976E+03  0.27542169934E+03  0.17770000000E+01 0.  1.
</event>
<event>
 6    1  0.6394569E-004  0.5057463E+03  0.7546771E-02  0.9387043E-01
        -11   -1    0    0    0    0  0.00000000000E+00  0.00000000000E+00  0.50000000000E+03  0.50000000000E+03  0.00000000000E+00 0. -1.
         11   -1    0    0    0    0 -0.00000000000E+00 -0.00000000000E+00 -0.50000000000E+03  0.50000000000E+03  0.00000000000E+00 0. -1.
        -11    1    1    2    0    0  0.17921110207E+02 -0.15486389426E+02  0.49368590514E+03  0.49425374797E+03  0.00000000000E+00 0. -1.
         11    1    1    2    0    0 -0.18713939086E+02 -0.80030872397E+01 -0.47191280675E+03  0.47235151963E+03  0.00000000000E+00 0. -1.
        -15    1    1    2    0    0 -0.34271312534E+01  0.15040792469E+02 -0.11465841018E+02  0.19302691677E+02  0.17770000000E+01 0.  1.
         15    1    1    2    0    0  0.42199601319E+01  0.84486841964E+01 -0.10307257375E+02  0.14092040724E+02  0.17770000000E+01 0. -1.
</event>
<event>
 6    1  0.6394569E-004  0.5047035E+03  0.7546771E-02  0.9389346E-01
        -11   -1    0    0    0    0  0.00000000000E+00  0.00000000000E+00  0.50000000000E+03  0.50000000000E+03  0.00000000000E+00 0.  1.
         11   -1    0    0    0    0 -0.00000000000E+00 -0.00000000000E+00 -0.50000000000E+03  0.50000000000E+03  0.00000000000E+00 0. -1.
        -11    1    1    2    0    0 -0.38597655120E+01 -0.68306904902E+01  0.48424708995E+03  0.48431064437E+03  0.00000000000E+00 0.  1.
         11    1    1    2    0    0 -0.81859637002E+01 -0.20702874332E+01 -0.49522451586E+03  0.49529649423E+03  0.00000000000E+00 0. -1.
        -15    1    1    2    0    0  0.80853013559E+01  0.71478355474E+01  0.33417059119E+01  0.11436274674E+02  0.17770000000E+01 0. -1.
         15    1    1    2    0    0  0.39604278563E+01  0.17531423760E+01  0.76357199925E+01  0.89565867270E+01  0.17770000000E+01 0.  1.
</event>
<event>
 6    1  0.6394569E-004  0.5000831E+03  0.7546771E-02  0.9399624E-01
        -11   -1    0    0    0    0  0.00000000000E+00  0.00000000000E+00  0.50000000000E+03  0.50000000000E+03  0.00000000000E+00 0.  1.
         11   -1    0    0    0    0 -0.00000000000E+00 -0.00000000000E+00 -0.50000000000E+03  0.50000000000E+03  0.00000000000E+00 0.  1.
        -11    1    1    2    0    0 -0.65588370752E+01 -0.21868842368E+01  0.36038493001E+03  0.36045124300E+03  0.00000000000E+00 0.  1.
         11    1    1    2    0    0  0.10194251471E+02 -0.21172791635E+01 -0.49980841486E+03  0.49991685029E+03  0.00000000000E+00 0.  1.
        -15    1    1    2    0    0 -0.20684269862E+01  0.25562053600E+01  0.10953615707E+03  0.10959990881E+03  0.17770000000E+01 0.  1.
         15    1    1    2    0    0 -0.15669874094E+01  0.17479580402E+01  0.29887327782E+02  0.30031997899E+02  0.17770000000E+01 0. -1.
</event>
<event>
 6    1  0.6394569E-004  0.5021731E+03  0.7546771E-02  0.9394960E-01
        -11   -1    0    0    0    0  0.00000000000E+00  0.00000000000E+00  0.50000000000E+03  0.50000000000E+03  0.00000000000E+00 0. -1.
         11   -1    0    0    0    0 -0.00000000000E+00 -0.00000000000E+00 -0.50000000000E+03  0.50000000000E+03  0.00000000000E+00 0.  1.
        -11    1    1    2    0    0 -0.71079956785E+01 -0.96517511342E+01  0.49768252995E+03  0.49782685797E+03  0.00000000000E+00 0. -1.
         11    1    1    2    0    0 -0.47109809063E+01  0.50019460704E+01 -0.46105965862E+03  0.46111085610E+03  0.00000000000E+00 0.  1.
        -15    1    1    2    0    0  0.95513896330E+01 -0.23555555664E+01 -0.27159137144E+02  0.28940527731E+02  0.17770000000E+01 0. -1.
         15    1    1    2    0    0  0.22675869517E+01  0.70053606302E+01 -0.94637341783E+01  0.12121758195E+02  0.17770000000E+01 0.  1.
</event>
<event>
 6    1  0.6394569E-004  0.5020715E+03  0.7546771E-02  0.9395187E-01
        -11   -1    0    0    0    0  0.00000000000E+00  0.00000000000E+00  0.50000000000E+03  0.50000000000E+03  0.00000000000E+00 0. -1.
         11   -1    0    0    0    0 -0.00000000000E+00 -0.00000000000E+00 -0.50000000000E+03  0.50000000000E+03  0.00000000000E+00 0.  1.
        -11    1    1    2    0    0  0.10833103882E-01 -0.19389979769E+02  0.51186369665E+02  0.54735873723E+02  0.00000000000E+00 0. -1.
         11    1    1    2    0    0  0.10685147557E+02  0.47444502868E+01 -0.49779127194E+03  0.49792854166E+03  0.00000000000E+00 0.  1.
        -15    1    1    2    0    0 -0.52415681279E+00  0.12462762845E+02  0.33388946977E+03  0.33412711795E+03  0.17770000000E+01 0. -1.
         15    1    1    2    0    0 -0.10171823848E+02  0.21827666378E+01  0.11271543250E+03  0.11320846666E+03  0.17770000000E+01 0.  1.
</event>
<event>
 6    1  0.6394569E-004  0.4908678E+03  0.7546771E-02  0.9420479E-01
        -11   -1    0    0    0    0  0.00000000000E+00  0.00000000000E+00  0.50000000000E+03  0.50000000000E+03  0.00000000000E+00 0. -1.
         11   -1    0    0    0    0 -0.00000000000E+00 -0.00000000000E+00 -0.50000000000E+03  0.50000000000E+03  0.00000000000E+00 0.  1.
        -11    1    1    2    0    0  0.12655408240E+02 -0.16383444526E+00  0.49092058502E+03  0.49108370671E+03  0.00000000000E+00 0. -1.
         11    1    1    2    0    0  0.75581658181E+00 -0.80370579534E+01 -0.49071134786E+03  0.49077774244E+03  0.00000000000E+00 0.  1.
        -15    1    1    2    0    0 -0.51086852954E+01 -0.10170693611E+01  0.81786362157E+00  0.55641464248E+01  0.17770000000E+01 0.  1.
         15    1    1    2    0    0 -0.83025395266E+01  0.92179617597E+01 -0.10271007823E+01  0.12574404424E+02  0.17770000000E+01 0. -1.
</event>
<event>
 6    1  0.6394569E-004  0.5001076E+03  0.7546771E-02  0.9399569E-01
        -11   -1    0    0    0    0  0.00000000000E+00  0.00000000000E+00  0.50000000000E+03  0.50000000000E+03  0.00000000000E+00 0.  1.
         11   -1    0    0    0    0 -0.00000000000E+00 -0.00000000000E+00 -0.50000000000E+03  0.50000000000E+03  0.00000000000E+00 0.  1.
        -11    1    1    2    0    0 -0.59755455579E+01 -0.30710226227E+01  0.31092787687E+03  0.31100045489E+03  0.00000000000E+00 0.  1.
         11    1    1    2    0    0  0.50446509621E+01  0.52150925664E+01 -0.49983971106E+03  0.49989237086E+03  0.00000000000E+00 0.  1.
        -15    1    1    2    0    0 -0.32498501707E+01 -0.42531455057E+00  0.78052517689E+02  0.78141510513E+02  0.17770000000E+01 0. -1.
         15    1    1    2    0    0  0.41807447666E+01 -0.17187553931E+01  0.11085931650E+03  0.11096566374E+03  0.17770000000E+01 0.  1.
</event>
<event>
 6    1  0.6394569E-004  0.5022931E+03  0.7546771E-02  0.9394693E-01
        -11   -1    0    0    0    0  0.00000000000E+00  0.00000000000E+00  0.50000000000E+03  0.50000000000E+03  0.00000000000E+00 0.  1.
         11   -1    0    0    0    0 -0.00000000000E+00 -0.00000000000E+00 -0.50000000000E+03  0.50000000000E+03  0.00000000000E+00 0. -1.
        -11    1    1    2    0    0  0.10424413093E+02  0.23605145885E+02  0.49703748279E+03  0.49770687217E+03  0.00000000000E+00 0.  1.
         11    1    1    2    0    0 -0.11978011380E+02  0.16036788005E+01 -0.32288544866E+03  0.32311152486E+03  0.00000000000E+00 0. -1.
        -15    1    1    2    0    0  0.16618311086E+01  0.46924763958E+01 -0.84351921628E+02  0.84517367616E+02  0.17770000000E+01 0. -1.
         15    1    1    2    0    0 -0.10823282187E+00 -0.29901301081E+02 -0.89800112502E+02  0.94664235354E+02  0.17770000000E+01 0.  1.
</event>
<event>
 6    1  0.6394569E-004  0.5001293E+03  0.7546771E-02  0.9399520E-01
        -11   -1    0    0    0    0  0.00000000000E+00  0.00000000000E+00  0.50000000000E+03  0.50000000000E+03  0.00000000000E+00 0. -1.
         11   -1    0    0    0    0 -0.00000000000E+00 -0.00000000000E+00 -0.50000000000E+03  0.50000000000E+03  0.00000000000E+00 0.  1.
        -11    1    1    2    0    0  0.10025077131E+02  0.59266316368E+01  0.49973503849E+03  0.49987071911E+03  0.00000000000E+00 0. -1.
         11    1    1    2    0    0 -0.17377927865E+01  0.39516165310E+01 -0.21900127351E+03  0.21904381524E+03  0.00000000000E+00 0.  1.
        -15    1    1    2    0    0 -0.56795763161E+01 -0.81459857260E+01 -0.23182697730E+03  0.23204637425E+03  0.17770000000E+01 0.  1.
         15    1    1    2    0    0 -0.26077080287E+01 -0.17322624417E+01 -0.48906787680E+02  0.49039091391E+02  0.17770000000E+01 0. -1.
</event>
<event>
 6    1  0.7848942E-004  0.5001458E+03  0.7546771E-02  0.9399483E-01
        -11   -1    0    0    0    0  0.00000000000E+00  0.00000000000E+00  0.50000000000E+03  0.50000000000E+03  0.00000000000E+00 0. -1.
         11   -1    0    0    0    0 -0.00000000000E+00 -0.00000000000E+00 -0.50000000000E+03  0.50000000000E+03  0.00000000000E+00 0.  1.
        -11    1    1    2    0    0 -0.67127684027E+01 -0.49150758619E+01  0.49978490862E+03  0.49985415284E+03  0.00000000000E+00 0. -1.
         11    1    1    2    0    0  0.11983810252E+00  0.45155115312E+01 -0.32935222115E+03  0.32938319597E+03  0.00000000000E+00 0.  1.
        -15    1    1    2    0    0  0.26309927441E+01  0.39026834336E+01 -0.81529077936E+02  0.81684155985E+02  0.17770000000E+01 0.  1.
         15    1    1    2    0    0  0.39619375561E+01 -0.35031191029E+01 -0.88903609527E+02  0.89078495208E+02  0.17770000000E+01 0. -1.
</event>
<event>
 6    1  0.6394569E-004  0.5000559E+03  0.7546771E-02  0.9399685E-01
        -11   -1    0    0    0    0  0.00000000000E+00  0.00000000000E+00  0.50000000000E+03  0.50000000000E+03  0.00000000000E+00 0. -1.
         11   -1    0    0    0    0 -0.00000000000E+00 -0.00000000000E+00 -0.50000000000E+03  0.50000000000E+03  0.00000000000E+00 0. -1.
        -11    1    1    2    0    0  0.25632383877E+01 -0.86498222665E+01  0.49986271214E+03  0.49994411749E+03  0.00000000000E+00 0. -1.
         11    1    1    2    0    0 -0.12677397760E+01  0.44361692056E+01 -0.15906402348E+03  0.15913092197E+03  0.00000000000E+00 0. -1.
        -15    1    1    2    0    0  0.22648427985E+01  0.52239218428E+00 -0.57594286127E+02  0.57668552349E+02  0.17770000000E+01 0. -1.
         15    1    1    2    0    0 -0.35603414102E+01  0.36912608766E+01 -0.28320440254E+03  0.28325640820E+03  0.17770000000E+01 0. -1.
</event>
<event>
 6    1  0.6394569E-004  0.5007653E+03  0.7546771E-02  0.9398099E-01
        -11   -1    0    0    0    0  0.00000000000E+00  0.00000000000E+00  0.50000000000E+03  0.50000000000E+03  0.00000000000E+00 0.  1.
         11   -1    0    0    0    0 -0.00000000000E+00 -0.00000000000E+00 -0.50000000000E+03  0.50000000000E+03  0.00000000000E+00 0. -1.
        -11    1    1    2    0    0 -0.27549368511E+01 -0.65324598580E+01  0.49918437424E+03  0.49923471654E+03  0.00000000000E+00 0.  1.
         11    1    1    2    0    0  0.38937013472E+01  0.55091847758E+01 -0.47147851382E+03  0.47152677657E+03  0.00000000000E+00 0. -1.
        -15    1    1    2    0    0 -0.23439640720E+01  0.35065784491E+01 -0.76412709013E+01  0.89071325340E+01  0.17770000000E+01 0.  1.
         15    1    1    2    0    0  0.12051995759E+01 -0.24833033669E+01 -0.20064589522E+02  0.20331374359E+02  0.17770000000E+01 0. -1.
</event>
<event>
 6    1  0.6394569E-004  0.5011824E+03  0.7546771E-02  0.9397168E-01
        -11   -1    0    0    0    0  0.00000000000E+00  0.00000000000E+00  0.50000000000E+03  0.50000000000E+03  0.00000000000E+00 0. -1.
         11   -1    0    0    0    0 -0.00000000000E+00 -0.00000000000E+00 -0.50000000000E+03  0.50000000000E+03  0.00000000000E+00 0.  1.
        -11    1    1    2    0    0 -0.53062858814E+00 -0.18227343839E+02  0.68016370408E+02  0.70418351824E+02  0.00000000000E+00 0. -1.
         11    1    1    2    0    0  0.22556459661E+02  0.14404630968E+02 -0.49809906099E+03  0.49881756367E+03  0.00000000000E+00 0.  1.
        -15    1    1    2    0    0 -0.16207196141E+02  0.12946063341E+01  0.36031224932E+03  0.36068327373E+03  0.17770000000E+01 0. -1.
         15    1    1    2    0    0 -0.58186349318E+01  0.25281065373E+01  0.69770441264E+02  0.70080810771E+02  0.17770000000E+01 0. -1.
</event>
<event>
 6    1  0.6394569E-004  0.5001577E+03  0.7546771E-02  0.9399457E-01
        -11   -1    0    0    0    0  0.00000000000E+00  0.00000000000E+00  0.50000000000E+03  0.50000000000E+03  0.00000000000E+00 0.  1.
         11   -1    0    0    0    0 -0.00000000000E+00 -0.00000000000E+00 -0.50000000000E+03  0.50000000000E+03  0.00000000000E+00 0. -1.
        -11    1    1    2    0    0  0.23890583253E+01  0.37104099202E+01  0.25817812116E+03  0.25821583411E+03  0.00000000000E+00 0.  1.
         11    1    1    2    0    0  0.25120177094E+01  0.64025328920E+01 -0.49979493924E+03  0.49984225907E+03  0.00000000000E+00 0. -1.
        -15    1    1    2    0    0 -0.19076288592E+01 -0.21101425995E+01  0.10015424703E+03  0.10021039206E+03  0.17770000000E+01 0.  1.
         15    1    1    2    0    0 -0.29934471755E+01 -0.80028002127E+01  0.14146257105E+03  0.14173151475E+03  0.17770000000E+01 0. -1.
</event>
<event>
 6    1  0.6394569E-004  0.5038354E+03  0.7546771E-02  0.9391268E-01
        -11   -1    0    0    0    0  0.00000000000E+00  0.00000000000E+00  0.50000000000E+03  0.50000000000E+03  0.00000000000E+00 0.  1.
         11   -1    0    0    0    0 -0.00000000000E+00 -0.00000000000E+00 -0.50000000000E+03  0.50000000000E+03  0.00000000000E+00 0. -1.
        -11    1    1    2    0    0  0.60092195048E+01  0.22963547753E+02  0.46163914440E+03  0.46224899663E+03  0.00000000000E+00 0.  1.
         11    1    1    2    0    0  0.45137507627E+01 -0.90093167801E+01 -0.49606223709E+03  0.49616457431E+03  0.00000000000E+00 0. -1.
        -15    1    1    2    0    0 -0.27082049038E+01 -0.81072234440E+01  0.40306765342E+01  0.96158997548E+01  0.17770000000E+01 0. -1.
         15    1    1    2    0    0 -0.78147653637E+01 -0.58470075291E+01  0.30392416161E+02  0.31970529301E+02  0.17770000000E+01 0.  1.
</event>
<event>
 6    1  0.6394569E-004  0.5031774E+03  0.7546771E-02  0.9392728E-01
        -11   -1    0    0    0    0  0.00000000000E+00  0.00000000000E+00  0.50000000000E+03  0.50000000000E+03  0.00000000000E+00 0.  1.
         11   -1    0    0    0    0 -0.00000000000E+00 -0.00000000000E+00 -0.50000000000E+03  0.50000000000E+03  0.00000000000E+00 0.  1.
        -11    1    1    2    0    0  0.55770410944E+00 -0.18900701231E+02  0.61443307202E+02  0.64287071335E+02  0.00000000000E+00 0.  1.
         11    1    1    2    0    0 -0.35648207162E+01  0.64311885120E+01 -0.49676821684E+03  0.49682263374E+03  0.00000000000E+00 0.  1.
        -15    1    1    2    0    0 -0.11411720476E+02  0.17369820437E+02  0.39790236217E+03  0.39844872390E+03  0.17770000000E+01 0.  1.
         15    1    1    2    0    0  0.14418837083E+02 -0.49003077178E+01  0.37422547471E+02  0.40441571022E+02  0.17770000000E+01 0. -1.
</event>
<event>
 6    1  0.6394569E-004  0.5019329E+03  0.7546771E-02  0.9395495E-01
        -11   -1    0    0    0    0  0.00000000000E+00  0.00000000000E+00  0.50000000000E+03  0.50000000000E+03  0.00000000000E+00 0. -1.
         11   -1    0    0    0    0 -0.00000000000E+00 -0.00000000000E+00 -0.50000000000E+03  0.50000000000E+03  0.00000000000E+00 0. -1.
        -11    1    1    2    0    0 -0.43380810800E+01 -0.17370019420E+02  0.43102468101E+03  0.43139635158E+03  0.00000000000E+00 0. -1.
         11    1    1    2    0    0  0.10948556457E+02 -0.22526179129E+01 -0.49794163365E+03  0.49806707952E+03  0.00000000000E+00 0. -1.
        -15    1    1    2    0    0 -0.54594278057E+01  0.55217219502E+01  0.21177492292E+02  0.22626061832E+02  0.17770000000E+01 0.  1.
         15    1    1    2    0    0 -0.11510475716E+01  0.14100915383E+02  0.45739460353E+02  0.47910507068E+02  0.17770000000E+01 0. -1.
</event>
<event>
 6    1  0.6394569E-004  0.5001115E+03  0.7546771E-02  0.9399560E-01
        -11   -1    0    0    0    0  0.00000000000E+00  0.00000000000E+00  0.50000000000E+03  0.50000000000E+03  0.00000000000E+00 0.  1.
         11   -1    0    0    0    0 -0.00000000000E+00 -0.00000000000E+00 -0.50000000000E+03  0.50000000000E+03  0.00000000000E+00 0.  1.
        -11    1    1    2    0    0 -0.10731540340E+02  0.16841199766E+01  0.23654437636E+03  0.23679367433E+03  0.00000000000E+00 0.  1.
         11    1    1    2    0    0  0.98848197436E+01 -0.58596382158E+01 -0.49975645447E+03  0.49988854638E+03  0.00000000000E+00 0.  1.
        -15    1    1    2    0    0  0.21156652821E+01  0.41080951236E+00  0.68260794436E+02  0.68317922905E+02  0.17770000000E+01 0. -1.
         15    1    1    2    0    0 -0.12689446862E+01  0.37647087268E+01  0.19495128367E+03  0.19499985638E+03  0.17770000000E+01 0.  1.
</event>
<event>
 6    1  0.6394569E-004  0.5024078E+03  0.7546771E-02  0.9394438E-01
        -11   -1    0    0    0    0  0.00000000000E+00  0.00000000000E+00  0.50000000000E+03  0.50000000000E+03  0.00000000000E+00 0. -1.
         11   -1    0    0    0    0 -0.00000000000E+00 -0.00000000000E+00 -0.50000000000E+03  0.50000000000E+03  0.00000000000E+00 0.  1.
        -11    1    1    2    0    0  0.19368484444E+02  0.51411763987E+01  0.36537562104E+03  0.36592473862E+03  0.00000000000E+00 0. -1.
         11    1    1    2    0    0  0.12537779927E+02 -0.15910261934E+01 -0.49743167467E+03  0.49759220076E+03  0.00000000000E+00 0.  1.
        -15    1    1    2    0    0 -0.16988990335E+01  0.24684768926E+01  0.10056913924E+02  0.10643255271E+02  0.17770000000E+01 0.  1.
         15    1    1    2    0    0 -0.30207365337E+02 -0.60186270979E+01  0.12199913970E+03  0.12583980535E+03  0.17770000000E+01 0. -1.
</event>
<event>
 6    1  0.6394569E-004  0.5021293E+03  0.7546771E-02  0.9395058E-01
        -11   -1    0    0    0    0  0.00000000000E+00  0.00000000000E+00  0.50000000000E+03  0.50000000000E+03  0.00000000000E+00 0.  1.
         11   -1    0    0    0    0 -0.00000000000E+00 -0.00000000000E+00 -0.50000000000E+03  0.50000000000E+03  0.00000000000E+00 0. -1.
        -11    1    1    2    0    0  0.65238885244E+02  0.11576950282E+02  0.15158226867E+03  0.16543071692E+03  0.00000000000E+00 0.  1.
         11    1    1    2    0    0 -0.10959665148E+03 -0.33321940135E+02 -0.48451361132E+03  0.49787068327E+03  0.00000000000E+00 0. -1.
        -15    1    1    2    0    0  0.52458777796E+01  0.55109555666E+01  0.56058799622E+02  0.56600676753E+02  0.17770000000E+01 0.  1.
         15    1    1    2    0    0  0.39111888461E+02  0.16234034286E+02  0.27687254303E+03  0.28009792305E+03  0.17770000000E+01 0. -1.
</event>
<event>
 6    1  0.6394569E-004  0.5030148E+03  0.7546771E-02  0.9393089E-01
        -11   -1    0    0    0    0  0.00000000000E+00  0.00000000000E+00  0.50000000000E+03  0.50000000000E+03  0.00000000000E+00 0.  1.
         11   -1    0    0    0    0 -0.00000000000E+00 -0.00000000000E+00 -0.50000000000E+03  0.50000000000E+03  0.00000000000E+00 0.  1.
        -11    1    1    2    0    0 -0.10899190670E+02 -0.34572277578E+01  0.47474227407E+03  0.47487995490E+03  0.00000000000E+00 0.  1.
         11    1    1    2    0    0 -0.22109210813E+01  0.91861154418E+01 -0.49689540882E+03  0.49698523136E+03  0.00000000000E+00 0.  1.
        -15    1    1    2    0    0  0.25799549429E+01  0.87370448326E-01  0.11657892448E+02  0.12071784724E+02  0.17770000000E+01 0.  1.
         15    1    1    2    0    0  0.10530156808E+02 -0.58162581324E+01  0.10495242300E+02  0.16063029011E+02  0.17770000000E+01 0. -1.
</event>
<event>
 6    1  0.6394569E-004  0.5010957E+03  0.7546771E-02  0.9397361E-01
        -11   -1    0    0    0    0  0.00000000000E+00  0.00000000000E+00  0.50000000000E+03  0.50000000000E+03  0.00000000000E+00 0. -1.
         11   -1    0    0    0    0 -0.00000000000E+00 -0.00000000000E+00 -0.50000000000E+03  0.50000000000E+03  0.00000000000E+00 0. -1.
        -11    1    1    2    0    0  0.18656392352E+02 -0.15064532725E+01  0.72493709991E+02  0.74871011516E+02  0.00000000000E+00 0. -1.
         11    1    1    2    0    0 -0.22204505634E+02 -0.27528573405E+02 -0.49764914157E+03  0.49890433004E+03  0.00000000000E+00 0. -1.
        -15    1    1    2    0    0  0.27843975113E+01  0.75330364764E+01  0.14885570606E+03  0.14908279064E+03  0.17770000000E+01 0.  1.
         15    1    1    2    0    0  0.76371577043E+00  0.21501990201E+02  0.27629972551E+03  0.27714186781E+03  0.17770000000E+01 0. -1.
</event>
<event>
 6    1  0.6394569E-004  0.5023539E+03  0.7546771E-02  0.9394558E-01
        -11   -1    0    0    0    0  0.00000000000E+00  0.00000000000E+00  0.50000000000E+03  0.50000000000E+03  0.00000000000E+00 0.  1.
         11   -1    0    0    0    0 -0.00000000000E+00 -0.00000000000E+00 -0.50000000000E+03  0.50000000000E+03  0.00000000000E+00 0.  1.
        -11    1    1    2    0    0  0.13874392716E+02  0.28111345180E+01  0.45560840142E+03  0.45582827544E+03  0.00000000000E+00 0.  1.
         11    1    1    2    0    0 -0.13088275145E+02  0.15844724942E+02 -0.49722156942E+03  0.49764610653E+03  0.00000000000E+00 0.  1.
        -15    1    1    2    0    0  0.89539751677E+00 -0.17770249556E+02  0.38626263526E+02  0.42564415525E+02  0.17770000000E+01 0.  1.
         15    1    1    2    0    0 -0.16815150873E+01 -0.88560990469E+00  0.29869044724E+01  0.39612024966E+01  0.17770000000E+01 0.  1.
</event>
<event>
 6    1  0.6394569E-004  0.5018471E+03  0.7546771E-02  0.9395686E-01
        -11   -1    0    0    0    0  0.00000000000E+00  0.00000000000E+00  0.50000000000E+03  0.50000000000E+03  0.00000000000E+00 0.  1.
         11   -1    0    0    0    0 -0.00000000000E+00 -0.00000000000E+00 -0.50000000000E+03  0.50000000000E+03  0.00000000000E+00 0.  1.
        -11    1    1    2    0    0 -0.20151229583E+02 -0.55012253381E+01  0.24160696393E+03  0.24250826904E+03  0.00000000000E+00 0.  1.
         11    1    1    2    0    0 -0.16379899928E+00 -0.93768772006E+01 -0.49806457831E+03  0.49815286492E+03  0.00000000000E+00 0.  1.
        -15    1    1    2    0    0  0.15974022008E+02  0.13758422094E+02  0.25162093104E+03  0.25250883989E+03  0.17770000000E+01 0. -1.
         15    1    1    2    0    0  0.43410065752E+01  0.11196804446E+01  0.48366833485E+01  0.68300261491E+01  0.17770000000E+01 0.  1.
</event>
<event>
 6    1  0.6394569E-004  0.4838315E+03  0.7546771E-02  0.9436733E-01
        -11   -1    0    0    0    0  0.00000000000E+00  0.00000000000E+00  0.50000000000E+03  0.50000000000E+03  0.00000000000E+00 0.  1.
         11   -1    0    0    0    0 -0.00000000000E+00 -0.00000000000E+00 -0.50000000000E+03  0.50000000000E+03  0.00000000000E+00 0. -1.
        -11    1    1    2    0    0 -0.15209580954E+01 -0.22386175417E+02  0.47775089680E+03  0.47827750684E+03  0.00000000000E+00 0.  1.
         11    1    1    2    0    0  0.12894656192E+02 -0.37871493646E+01 -0.48969560814E+03  0.48987998866E+03  0.00000000000E+00 0. -1.
        -15    1    1    2    0    0 -0.81914035475E+01  0.18108186575E+02  0.49425288238E+01  0.20557038534E+02  0.17770000000E+01 0. -1.
         15    1    1    2    0    0 -0.31822945489E+01  0.80651382073E+01  0.70021825222E+01  0.11285465962E+02  0.17770000000E+01 0.  1.
</event>
<event>
 6    1  0.6394569E-004  0.5018877E+03  0.7546771E-02  0.9395596E-01
        -11   -1    0    0    0    0  0.00000000000E+00  0.00000000000E+00  0.50000000000E+03  0.50000000000E+03  0.00000000000E+00 0.  1.
         11   -1    0    0    0    0 -0.00000000000E+00 -0.00000000000E+00 -0.50000000000E+03  0.50000000000E+03  0.00000000000E+00 0.  1.
        -11    1    1    2    0    0  0.17768774758E+02  0.15499119209E+01  0.49779284248E+03  0.49811228212E+03  0.00000000000E+00 0.  1.
         11    1    1    2    0    0 -0.60733461354E+01 -0.91539318219E+01 -0.46582849725E+03  0.46595801190E+03  0.00000000000E+00 0.  1.
        -15    1    1    2    0    0 -0.38391435689E+01  0.37167028773E+01 -0.21197537489E+02  0.21932766086E+02  0.17770000000E+01 0.  1.
         15    1    1    2    0    0 -0.78562850536E+01  0.38873170238E+01 -0.10766807734E+02  0.13996939889E+02  0.17770000000E+01 0. -1.
</event>
<event>
 6    1  0.6394569E-004  0.5006508E+03  0.7546771E-02  0.9398355E-01
        -11   -1    0    0    0    0  0.00000000000E+00  0.00000000000E+00  0.50000000000E+03  0.50000000000E+03  0.00000000000E+00 0. -1.
         11   -1    0    0    0    0 -0.00000000000E+00 -0.00000000000E+00 -0.50000000000E+03  0.50000000000E+03  0.00000000000E+00 0. -1.
        -11    1    1    2    0    0  0.10334007233E+02  0.46393208045E+01  0.30059870059E+03  0.30081205727E+03  0.00000000000E+00 0. -1.
         11    1    1    2    0    0  0.44312565983E+01 -0.88652435789E+01 -0.49925078466E+03  0.49934915095E+03  0.00000000000E+00 0. -1.
        -15    1    1    2    0    0 -0.25592956760E+01  0.81460094650E+01  0.71616572410E+02  0.72145676498E+02  0.17770000000E+01 0.  1.
         15    1    1    2    0    0 -0.12205968155E+02 -0.39200866906E+01  0.12703551166E+03  0.12769311528E+03  0.17770000000E+01 0. -1.
</event>
<event>
 6    1  0.6394569E-004  0.4785213E+03  0.7546771E-02  0.9449195E-01
        -11   -1    0    0    0    0  0.00000000000E+00  0.00000000000E+00  0.50000000000E+03  0.50000000000E+03  0.00000000000E+00 0.  1.
         11   -1    0    0    0    0 -0.00000000000E+00 -0.00000000000E+00 -0.50000000000E+03  0.50000000000E+03  0.00000000000E+00 0.  1.
        -11    1    1    2    0    0  0.13276900619E+02  0.14277010010E+02  0.47765279634E+03  0.47805052344E+03  0.00000000000E+00 0.  1.
         11    1    1    2    0    0 -0.50181800609E+01 -0.11298289256E+02 -0.47887365701E+03  0.47903320642E+03  0.00000000000E+00 0.  1.
        -15    1    1    2    0    0 -0.80226929121E+01  0.16709191235E+02  0.10168915071E+02  0.21216155071E+02  0.17770000000E+01 0.  1.
         15    1    1    2    0    0 -0.23602764596E+00 -0.19687911989E+02 -0.89480544044E+01  0.21700115073E+02  0.17770000000E+01 0. -1.
</event>
<event>
 6    1  0.6394569E-004  0.5004390E+03  0.7546771E-02  0.9398828E-01
        -11   -1    0    0    0    0  0.00000000000E+00  0.00000000000E+00  0.50000000000E+03  0.50000000000E+03  0.00000000000E+00 0.  1.
         11   -1    0    0    0    0 -0.00000000000E+00 -0.00000000000E+00 -0.50000000000E+03  0.50000000000E+03  0.00000000000E+00 0. -1.
        -11    1    1    2    0    0 -0.26059828933E+01  0.58566490885E+01  0.33074885810E+03  0.33081097113E+03  0.00000000000E+00 0.  1.
         11    1    1    2    0    0  0.87815706205E+01 -0.57298709587E+01 -0.49945090167E+03  0.49956095782E+03  0.00000000000E+00 0. -1.
        -15    1    1    2    0    0  0.17078789161E+01 -0.66690037565E+01  0.81128853303E+02  0.81439800029E+02  0.17770000000E+01 0. -1.
         15    1    1    2    0    0 -0.78834666433E+01  0.65422256267E+01  0.87573190264E+02  0.88188271014E+02  0.17770000000E+01 0. -1.
</event>
<event>
 6    1  0.6394569E-004  0.5033997E+03  0.7546771E-02  0.9392235E-01
        -11   -1    0    0    0    0  0.00000000000E+00  0.00000000000E+00  0.50000000000E+03  0.50000000000E+03  0.00000000000E+00 0.  1.
         11   -1    0    0    0    0 -0.00000000000E+00 -0.00000000000E+00 -0.50000000000E+03  0.50000000000E+03  0.00000000000E+00 0.  1.
        -11    1    1    2    0    0  0.13605316826E+02  0.17286581515E+02  0.44210289156E+03  0.44264985855E+03  0.00000000000E+00 0.  1.
         11    1    1    2    0    0 -0.72510213248E+01  0.10913621223E+00 -0.49654730571E+03  0.49660025778E+03  0.00000000000E+00 0.  1.
        -15    1    1    2    0    0  0.25330585513E+01  0.30618998297E+01  0.62727174024E+01  0.76352032587E+01  0.17770000000E+01 0.  1.
         15    1    1    2    0    0 -0.88873540529E+01 -0.20457617557E+02  0.48171696751E+02  0.53114680410E+02  0.17770000000E+01 0. -1.
</event>
<event>
 6    1  0.6394569E-004  0.5007268E+03  0.7546771E-02  0.9398185E-01
        -11   -1    0    0    0    0  0.00000000000E+00  0.00000000000E+00  0.50000000000E+03  0.50000000000E+03  0.00000000000E+00 0. -1.
         11   -1    0    0    0    0 -0.00000000000E+00 -0.00000000000E+00 -0.50000000000E+03  0.50000000000E+03  0.00000000000E+00 0. -1.
        -11    1    1    2    0    0 -0.43613040865E+01 -0.31915421048E+02  0.49823296246E+03  0.49927317167E+03  0.00000000000E+00 0. -1.
         11    1    1    2    0    0  0.10803702306E+02  0.20732161905E+02 -0.12219579624E+03  0.12441203776E+03  0.00000000000E+00 0. -1.
        -15    1    1    2    0    0 -0.34479635840E+01  0.16209711536E+01 -0.93643059148E+02  0.93737379183E+02  0.17770000000E+01 0.  1.
         15    1    1    2    0    0 -0.29944346357E+01  0.95622879897E+01 -0.28239410707E+03  0.28257741139E+03  0.17770000000E+01 0. -1.
</event>
<event>
 6    1  0.6394569E-004  0.5001338E+03  0.7546771E-02  0.9399510E-01
        -11   -1    0    0    0    0  0.00000000000E+00  0.00000000000E+00  0.50000000000E+03  0.50000000000E+03  0.00000000000E+00 0. -1.
         11   -1    0    0    0    0 -0.00000000000E+00 -0.00000000000E+00 -0.50000000000E+03  0.50000000000E+03  0.00000000000E+00 0. -1.
        -11    1    1    2    0    0  0.98004110829E+01 -0.28434903606E+01  0.49976203300E+03  0.49986620522E+03  0.00000000000E+00 0. -1.
         11    1    1    2    0    0 -0.16258795883E+01 -0.35394835936E+01 -0.28201297590E+03  0.28203987308E+03  0.00000000000E+00 0. -1.
        -15    1    1    2    0    0 -0.27231117818E+01  0.37353536854E+01 -0.55042560653E+02  0.55264902219E+02  0.17770000000E+01 0. -1.
         15    1    1    2    0    0 -0.54514197128E+01  0.26476202687E+01 -0.16270649644E+03  0.16282901948E+03  0.17770000000E+01 0.  1.
</event>
<event>
 6    1  0.6394569E-004  0.5000773E+03  0.7546771E-02  0.9399637E-01
        -11   -1    0    0    0    0  0.00000000000E+00  0.00000000000E+00  0.50000000000E+03  0.50000000000E+03  0.00000000000E+00 0. -1.
         11   -1    0    0    0    0 -0.00000000000E+00 -0.00000000000E+00 -0.50000000000E+03  0.50000000000E+03  0.00000000000E+00 0. -1.
        -11    1    1    2    0    0 -0.22046595229E+01  0.46997372041E+01  0.90643584344E+02  0.90792111089E+02  0.00000000000E+00 0. -1.
         11    1    1    2    0    0 -0.26958370392E+00 -0.89556648798E+01 -0.49984238931E+03  0.49992268478E+03  0.00000000000E+00 0. -1.
        -15    1    1    2    0    0  0.33774926648E+01  0.41323751291E+00  0.14439682001E+03  0.14444783688E+03  0.17770000000E+01 0. -1.
         15    1    1    2    0    0 -0.90324943803E+00  0.38426901628E+01  0.26480198495E+03  0.26483736725E+03  0.17770000000E+01 0.  1.
</event>
<event>
 6    1  0.6394569E-004  0.5001436E+03  0.7546771E-02  0.9399488E-01
        -11   -1    0    0    0    0  0.00000000000E+00  0.00000000000E+00  0.50000000000E+03  0.50000000000E+03  0.00000000000E+00 0. -1.
         11   -1    0    0    0    0 -0.00000000000E+00 -0.00000000000E+00 -0.50000000000E+03  0.50000000000E+03  0.00000000000E+00 0.  1.
        -11    1    1    2    0    0  0.58962216969E+01  0.65242854155E+00  0.41679621269E+03  0.41683842674E+03  0.00000000000E+00 0. -1.
         11    1    1    2    0    0 -0.47660463415E+01 -0.57093314173E+01 -0.49980107473E+03  0.49985640534E+03  0.00000000000E+00 0.  1.
        -15    1    1    2    0    0  0.82696328893E+00  0.29165486834E+01  0.50734775013E+02  0.50856319657E+02  0.17770000000E+01 0.  1.
         15    1    1    2    0    0 -0.19571386443E+01  0.21403541924E+01  0.32270087028E+02  0.32448848262E+02  0.17770000000E+01 0. -1.
</event>
<event>
 6    1  0.6394569E-004  0.5010788E+03  0.7546771E-02  0.9397399E-01
        -11   -1    0    0    0    0  0.00000000000E+00  0.00000000000E+00  0.50000000000E+03  0.50000000000E+03  0.00000000000E+00 0.  1.
         11   -1    0    0    0    0 -0.00000000000E+00 -0.00000000000E+00 -0.50000000000E+03  0.50000000000E+03  0.00000000000E+00 0. -1.
        -11    1    1    2    0    0 -0.13245868126E+02  0.72000322567E+00  0.49874481294E+03  0.49892119604E+03  0.00000000000E+00 0.  1.
         11    1    1    2    0    0 -0.20248614829E+01 -0.80044397941E+01 -0.39251898239E+03  0.39260581077E+03  0.00000000000E+00 0. -1.
        -15    1    1    2    0    0  0.65491512881E+01  0.94495509708E+01 -0.76136300918E+02  0.77019993785E+02  0.17770000000E+01 0.  1.
         15    1    1    2    0    0  0.87215783204E+01 -0.21651144024E+01 -0.30089529632E+02  0.31452999400E+02  0.17770000000E+01 0. -1.
</event>
<event>
 6    1  0.6394569E-004  0.5020526E+03  0.7546771E-02  0.9395229E-01
        -11   -1    0    0    0    0  0.00000000000E+00  0.00000000000E+00  0.50000000000E+03  0.50000000000E+03  0.00000000000E+00 0.  1.
         11   -1    0    0    0    0 -0.00000000000E+00 -0.00000000000E+00 -0.50000000000E+03  0.50000000000E+03  0.00000000000E+00 0.  1.
        -11    1    1    2    0    0 -0.49794672204E+00 -0.12355942602E+02  0.43419798211E+03  0.43437403805E+03  0.00000000000E+00 0.  1.
         11    1    1    2    0    0 -0.37085312946E+00 -0.79188739103E+01 -0.49788432661E+03  0.49794743576E+03  0.00000000000E+00 0.  1.
        -15    1    1    2    0    0  0.17321737667E-01  0.16636855544E+02  0.59439672820E+02  0.61749637217E+02  0.17770000000E+01 0.  1.
         15    1    1    2    0    0  0.85147811383E+00  0.36379609678E+01  0.42466716852E+01  0.59288889670E+01  0.17770000000E+01 0. -1.
</event>
<event>
 6    1  0.6394569E-004  0.5068640E+03  0.7546771E-02  0.9384581E-01
        -11   -1    0    0    0    0  0.00000000000E+00  0.00000000000E+00  0.50000000000E+03  0.50000000000E+03  0.00000000000E+00 0. -1.
         11   -1    0    0    0    0 -0.00000000000E+00 -0.00000000000E+00 -0.50000000000E+03  0.50000000000E+03  0.00000000000E+00 0. -1.
        -11    1    1    2    0    0 -0.14526731468E+01 -0.12032840588E+02  0.49298706913E+03  0.49313603584E+03  0.00000000000E+00 0. -1.
         11    1    1    2    0    0  0.27109069004E+01 -0.12565555189E+02 -0.47015730568E+03  0.47033300360E+03  0.00000000000E+00 0. -1.
        -15    1    1    2    0    0 -0.68938419226E+01  0.71213438930E+01 -0.80194120977E+01  0.12872734546E+02  0.17770000000E+01 0.  1.
         15    1    1    2    0    0  0.56356081690E+01  0.17477051884E+02 -0.14810351358E+02  0.23658226019E+02  0.17770000000E+01 0. -1.
</event>
<event>
 6    1  0.6394569E-004  0.5024253E+03  0.7546771E-02  0.9394399E-01
        -11   -1    0    0    0    0  0.00000000000E+00  0.00000000000E+00  0.50000000000E+03  0.50000000000E+03  0.00000000000E+00 0. -1.
         11   -1    0    0    0    0 -0.00000000000E+00 -0.00000000000E+00 -0.50000000000E+03  0.50000000000E+03  0.00000000000E+00 0. -1.
        -11    1    1    2    0    0  0.39700091150E+02  0.54751156704E+00  0.49598810394E+03  0.49757471425E+03  0.00000000000E+00 0. -1.
         11    1    1    2    0    0  0.17506144200E+01 -0.69284115706E+01 -0.31723586625E+03  0.31731634432E+03  0.00000000000E+00 0. -1.
        -15    1    1    2    0    0 -0.31944618895E+01  0.19927649810E+01 -0.62371286624E+02  0.62510085771E+02  0.17770000000E+01 0. -1.
         15    1    1    2    0    0 -0.38256243680E+02  0.43881350225E+01 -0.11638095107E+03  0.12259885567E+03  0.17770000000E+01 0. -1.
</event>
<event>
 6    1  0.6394569E-004  0.5024273E+03  0.7546771E-02  0.9394395E-01
        -11   -1    0    0    0    0  0.00000000000E+00  0.00000000000E+00  0.50000000000E+03  0.50000000000E+03  0.00000000000E+00 0. -1.
         11   -1    0    0    0    0 -0.00000000000E+00 -0.00000000000E+00 -0.50000000000E+03  0.50000000000E+03  0.00000000000E+00 0.  1.
        -11    1    1    2    0    0  0.54193098923E+01 -0.14829603247E+02  0.21905974763E+02  0.27002921740E+02  0.00000000000E+00 0. -1.
         11    1    1    2    0    0 -0.96087929439E+01  0.15780412243E+02 -0.49722958018E+03  0.49757271400E+03  0.00000000000E+00 0.  1.
        -15    1    1    2    0    0  0.51487083994E+01  0.22141936839E+01  0.32940778815E+03  0.32946025629E+03  0.17770000000E+01 0. -1.
         15    1    1    2    0    0 -0.95922534781E+00 -0.31650026803E+01  0.14591581727E+03  0.14596410796E+03  0.17770000000E+01 0. -1.
</event>
<event>
 6    1  0.6394569E-004  0.5008056E+03  0.7546771E-02  0.9398009E-01
        -11   -1    0    0    0    0  0.00000000000E+00  0.00000000000E+00  0.50000000000E+03  0.50000000000E+03  0.00000000000E+00 0.  1.
         11   -1    0    0    0    0 -0.00000000000E+00 -0.00000000000E+00 -0.50000000000E+03  0.50000000000E+03  0.00000000000E+00 0. -1.
        -11    1    1    2    0    0 -0.30048084951E+01  0.32514789071E+01  0.60628197933E+02  0.60789632124E+02  0.00000000000E+00 0.  1.
         11    1    1    2    0    0 -0.59603310997E+01  0.98886096848E+01 -0.49906088294E+03  0.49919442608E+03  0.00000000000E+00 0. -1.
        -15    1    1    2    0    0 -0.75581428380E+01 -0.68981684349E+01  0.32809288320E+03  0.32825722839E+03  0.17770000000E+01 0.  1.
         15    1    1    2    0    0  0.16523282433E+02 -0.62419201570E+01  0.11033980181E+03  0.11175871340E+03  0.17770000000E+01 0. -1.
</event>
<event>
 6    1  0.6394569E-004  0.5030541E+03  0.7546771E-02  0.9393002E-01
        -11   -1    0    0    0    0  0.00000000000E+00  0.00000000000E+00  0.50000000000E+03  0.50000000000E+03  0.00000000000E+00 0. -1.
         11   -1    0    0    0    0 -0.00000000000E+00 -0.00000000000E+00 -0.50000000000E+03  0.50000000000E+03  0.00000000000E+00 0. -1.
        -11    1    1    2    0    0 -0.12325503385E+01 -0.75467923000E+01  0.49688702109E+03  0.49694585719E+03  0.00000000000E+00 0. -1.
         11    1    1    2    0    0  0.16292212361E+02  0.56970933156E+01 -0.47505015110E+03  0.47536358623E+03  0.00000000000E+00 0. -1.
        -15    1    1    2    0    0 -0.11088516083E+02  0.22211892643E+00 -0.10245282082E+02  0.15202896424E+02  0.17770000000E+01 0. -1.
         15    1    1    2    0    0 -0.39711459398E+01  0.16275800579E+01 -0.11591587903E+02  0.12487660150E+02  0.17770000000E+01 0.  1.
</event>
<event>
 6    1  0.6394569E-004  0.5053120E+03  0.7546771E-02  0.9388002E-01
        -11   -1    0    0    0    0  0.00000000000E+00  0.00000000000E+00  0.50000000000E+03  0.50000000000E+03  0.00000000000E+00 0. -1.
         11   -1    0    0    0    0 -0.00000000000E+00 -0.00000000000E+00 -0.50000000000E+03  0.50000000000E+03  0.00000000000E+00 0. -1.
        -11    1    1    2    0    0 -0.15689923553E+01 -0.23638424956E+02  0.49412041074E+03  0.49468799984E+03  0.00000000000E+00 0. -1.
         11    1    1    2    0    0 -0.72068942668E+01  0.21757114902E+01 -0.45252681498E+03  0.45258942908E+03  0.00000000000E+00 0. -1.
        -15    1    1    2    0    0  0.15352893341E+02  0.92392413415E+01 -0.27427820790E+02  0.32810333689E+02  0.17770000000E+01 0. -1.
         15    1    1    2    0    0 -0.65770067185E+01  0.12223472124E+02 -0.14165774975E+02  0.19912237388E+02  0.17770000000E+01 0.  1.
</event>
<event>
 6    1  0.6394569E-004  0.5040931E+03  0.7546771E-02  0.9390697E-01
        -11   -1    0    0    0    0  0.00000000000E+00  0.00000000000E+00  0.50000000000E+03  0.50000000000E+03  0.00000000000E+00 0. -1.
         11   -1    0    0    0    0 -0.00000000000E+00 -0.00000000000E+00 -0.50000000000E+03  0.50000000000E+03  0.00000000000E+00 0.  1.
        -11    1    1    2    0    0 -0.27719275527E+02  0.72098821371E+01  0.44586025427E+03  0.44677925979E+03  0.00000000000E+00 0. -1.
         11    1    1    2    0    0  0.36915638938E+01 -0.60402297432E+01 -0.49585633977E+03  0.49590686798E+03  0.00000000000E+00 0.  1.
        -15    1    1    2    0    0 -0.53180227397E+00  0.16871736766E+01  0.17054464163E+01  0.30324322173E+01  0.17770000000E+01 0. -1.
         15    1    1    2    0    0  0.24559513907E+02 -0.28568260705E+01  0.48290639077E+02  0.54281440015E+02  0.17770000000E+01 0.  1.
</event>
<event>
 6    1  0.6394569E-004  0.5104774E+03  0.7546771E-02  0.9376666E-01
        -11   -1    0    0    0    0  0.00000000000E+00  0.00000000000E+00  0.50000000000E+03  0.50000000000E+03  0.00000000000E+00 0.  1.
         11   -1    0    0    0    0 -0.00000000000E+00 -0.00000000000E+00 -0.50000000000E+03  0.50000000000E+03  0.00000000000E+00 0.  1.
        -11    1    1    2    0    0  0.34187673298E+02 -0.62760451663E+02  0.13965256819E+03  0.15687737600E+03  0.00000000000E+00 0.  1.
         11    1    1    2    0    0 -0.35436042667E+02  0.77224882498E+01 -0.48817723187E+03  0.48952258341E+03  0.00000000000E+00 0.  1.
        -15    1    1    2    0    0  0.10898515618E+02  0.40510231382E+02  0.25782707465E+03  0.26122368698E+03  0.17770000000E+01 0.  1.
         15    1    1    2    0    0 -0.96501462487E+01  0.14527732032E+02  0.90697589030E+02  0.92376353606E+02  0.17770000000E+01 0. -1.
</event>
<event>
 6    1  0.6394569E-004  0.5020924E+03  0.7546771E-02  0.9395140E-01
        -11   -1    0    0    0    0  0.00000000000E+00  0.00000000000E+00  0.50000000000E+03  0.50000000000E+03  0.00000000000E+00 0. -1.
         11   -1    0    0    0    0 -0.00000000000E+00 -0.00000000000E+00 -0.50000000000E+03  0.50000000000E+03  0.00000000000E+00 0.  1.
        -11    1    1    2    0    0  0.21609317377E+01  0.69015721928E+01  0.48353752608E+03  0.48359160503E+03  0.00000000000E+00 0. -1.
         11    1    1    2    0    0 -0.88273189508E+01  0.13820081337E+01 -0.49782742546E+03  0.49790759890E+03  0.00000000000E+00 0.  1.
        -15    1    1    2    0    0  0.12868341883E+01 -0.36834480778E+01  0.38449421853E+01  0.57589097387E+01  0.17770000000E+01 0.  1.
         15    1    1    2    0    0  0.53795530249E+01 -0.46001322486E+01  0.10444957195E+02  0.12741886330E+02  0.17770000000E+01 0. -1.
</event>
<event>
 6    1  0.6394569E-004  0.5001178E+03  0.7546771E-02  0.9399546E-01
        -11   -1    0    0    0    0  0.00000000000E+00  0.00000000000E+00  0.50000000000E+03  0.50000000000E+03  0.00000000000E+00 0. -1.
         11   -1    0    0    0    0 -0.00000000000E+00 -0.00000000000E+00 -0.50000000000E+03  0.50000000000E+03  0.00000000000E+00 0. -1.
        -11    1    1    2    0    0  0.81036281355E+01 -0.11449739499E+02  0.26693575399E+03  0.26730406297E+03  0.00000000000E+00 0. -1.
         11    1    1    2    0    0 -0.10948583862E+02  0.20964601596E+02 -0.49932239515E+03  0.49988222644E+03  0.00000000000E+00 0. -1.
        -15    1    1    2    0    0  0.34690985517E+01 -0.19376113982E+01  0.34557842689E+02  0.34830894375E+02  0.17770000000E+01 0.  1.
         15    1    1    2    0    0 -0.62414282476E+00 -0.75772506985E+01  0.19782879848E+03  0.19798281622E+03  0.17770000000E+01 0. -1.
</event>
<event>
 6    1  0.6394569E-004  0.5042071E+03  0.7546771E-02  0.9390445E-01
        -11   -1    0    0    0    0  0.00000000000E+00  0.00000000000E+00  0.50000000000E+03  0.50000000000E+03  0.00000000000E+00 0.  1.
         11   -1    0    0    0    0 -0.00000000000E+00 -0.00000000000E+00 -0.50000000000E+03  0.50000000000E+03  0.00000000000E+00 0.  1.
        -11    1    1    2    0    0 -0.16237869133E+02 -0.67211251105E+01  0.49548129099E+03  0.49579285154E+03  0.00000000000E+00 0.  1.
         11    1    1    2    0    0  0.23121354489E+01  0.87799348535E+01 -0.45077235378E+03  0.45086378005E+03  0.00000000000E+00 0.  1.
        -15    1    1    2    0    0  0.29713787037E+01 -0.91054048945E+01 -0.36653352436E+02  0.37925762530E+02  0.17770000000E+01 0. -1.
         15    1    1    2    0    0  0.10954354980E+02  0.70465951515E+01 -0.80555847671E+01  0.15417605884E+02  0.17770000000E+01 0.  1.
</event>
<event>
 6    1  0.6394569E-004  0.5010290E+03  0.7546771E-02  0.9397510E-01
        -11   -1    0    0    0    0  0.00000000000E+00  0.00000000000E+00  0.50000000000E+03  0.50000000000E+03  0.00000000000E+00 0. -1.
         11   -1    0    0    0    0 -0.00000000000E+00 -0.00000000000E+00 -0.50000000000E+03  0.50000000000E+03  0.00000000000E+00 0. -1.
        -11    1    1    2    0    0  0.19945622752E+02  0.12937088581E+02  0.49840434076E+03  0.49897102423E+03  0.00000000000E+00 0. -1.
         11    1    1    2    0    0  0.72720902966E+00 -0.41992842608E+01 -0.28867278465E+03  0.28870424212E+03  0.00000000000E+00 0. -1.
        -15    1    1    2    0    0 -0.40399550719E+00  0.70102100560E+01 -0.39275485570E+02  0.39937798552E+02  0.17770000000E+01 0.  1.
         15    1    1    2    0    0 -0.20268836275E+02 -0.15748014376E+02 -0.17045607054E+03  0.17238693510E+03  0.17770000000E+01 0. -1.
</event>
<event>
 6    1  0.6394569E-004  0.4377233E+03  0.7546771E-02  0.9551071E-01
        -11   -1    0    0    0    0  0.00000000000E+00  0.00000000000E+00  0.50000000000E+03  0.50000000000E+03  0.00000000000E+00 0. -1.
         11   -1    0    0    0    0 -0.00000000000E+00 -0.00000000000E+00 -0.50000000000E+03  0.50000000000E+03  0.00000000000E+00 0.  1.
        -11    1    1    2    0    0 -0.48671645498E+02  0.29495676868E+03  0.30298629851E+03  0.42563966162E+03  0.00000000000E+00 0. -1.
         11    1    1    2    0    0 -0.10744279418E+02  0.27504274940E+02 -0.57855349439E+02  0.64955108644E+02  0.00000000000E+00 0.  1.
        -15    1    1    2    0    0 -0.99294119553E+01  0.52927401358E+02  0.32363238007E+01  0.53977166997E+02  0.17770000000E+01 0. -1.
         15    1    1    2    0    0  0.69345336872E+02 -0.37538844497E+03 -0.24836727287E+03  0.45542806274E+03  0.17770000000E+01 0.  1.
</event>
<event>
 6    1  0.6394569E-004  0.4932350E+03  0.7546771E-02  0.9415076E-01
        -11   -1    0    0    0    0  0.00000000000E+00  0.00000000000E+00  0.50000000000E+03  0.50000000000E+03  0.00000000000E+00 0.  1.
         11   -1    0    0    0    0 -0.00000000000E+00 -0.00000000000E+00 -0.50000000000E+03  0.50000000000E+03  0.00000000000E+00 0. -1.
        -11    1    1    2    0    0  0.96037039610E+01 -0.23984394820E+01  0.49248606598E+03  0.49258553453E+03  0.00000000000E+00 0.  1.
         11    1    1    2    0    0 -0.18352576166E+01 -0.67302793355E+01 -0.49390897980E+03  0.49395824232E+03  0.00000000000E+00 0. -1.
        -15    1    1    2    0    0 -0.59726283450E+01  0.64385102688E+01  0.29912739065E+01  0.94462771721E+01  0.17770000000E+01 0.  1.
         15    1    1    2    0    0 -0.17958179994E+01  0.26902085487E+01 -0.15683600885E+01  0.40099459709E+01  0.17770000000E+01 0. -1.
</event>
<event>
 6    1  0.6394569E-004  0.5000637E+03  0.7546771E-02  0.9399667E-01
        -11   -1    0    0    0    0  0.00000000000E+00  0.00000000000E+00  0.50000000000E+03  0.50000000000E+03  0.00000000000E+00 0. -1.
         11   -1    0    0    0    0 -0.00000000000E+00 -0.00000000000E+00 -0.50000000000E+03  0.50000000000E+03  0.00000000000E+00 0. -1.
        -11    1    1    2    0    0  0.13214359183E+02  0.58490816515E+01  0.39923036304E+03  0.39949181947E+03  0.00000000000E+00 0. -1.
         11    1    1    2    0    0 -0.15408756293E+02 -0.42961053093E+01 -0.49968034456E+03  0.49993632898E+03  0.00000000000E+00 0. -1.
        -15    1    1    2    0    0  0.15765179851E+01 -0.15452738489E+01  0.44429674798E+02  0.44519961949E+02  0.17770000000E+01 0.  1.
         15    1    1    2    0    0  0.61787912528E+00 -0.77024933700E-02  0.56020306722E+02  0.56051889604E+02  0.17770000000E+01 0. -1.
</event>
<event>
 6    1  0.6394569E-004  0.5027566E+03  0.7546771E-02  0.9393663E-01
        -11   -1    0    0    0    0  0.00000000000E+00  0.00000000000E+00  0.50000000000E+03  0.50000000000E+03  0.00000000000E+00 0. -1.
         11   -1    0    0    0    0 -0.00000000000E+00 -0.00000000000E+00 -0.50000000000E+03  0.50000000000E+03  0.00000000000E+00 0.  1.
        -11    1    1    2    0    0  0.12945833907E+02 -0.10693906583E+02  0.46748050898E+03  0.46778197970E+03  0.00000000000E+00 0. -1.
         11    1    1    2    0    0 -0.81101002601E+01 -0.50550585327E+01 -0.49715155131E+03  0.49724339343E+03  0.00000000000E+00 0.  1.
        -15    1    1    2    0    0 -0.21876045784E+01  0.22005232166E+01  0.22539227362E+01  0.42267970047E+01  0.17770000000E+01 0.  1.
         15    1    1    2    0    0 -0.26481290684E+01  0.13548441899E+02  0.27417119590E+02  0.30747829859E+02  0.17770000000E+01 0. -1.
</event>
<event>
 6    1  0.6394569E-004  0.4902609E+03  0.7546771E-02  0.9421869E-01
        -11   -1    0    0    0    0  0.00000000000E+00  0.00000000000E+00  0.50000000000E+03  0.50000000000E+03  0.00000000000E+00 0. -1.
         11   -1    0    0    0    0 -0.00000000000E+00 -0.00000000000E+00 -0.50000000000E+03  0.50000000000E+03  0.00000000000E+00 0.  1.
        -11    1    1    2    0    0  0.73870731876E+01  0.81234511189E+01  0.48858876819E+03  0.48871212764E+03  0.00000000000E+00 0. -1.
         11    1    1    2    0    0 -0.53560355527E+01  0.98764106332E+01 -0.49185408622E+03  0.49198239067E+03  0.00000000000E+00 0.  1.
        -15    1    1    2    0    0 -0.23807532748E+01 -0.10675061737E+02  0.38670963355E+01  0.11736144696E+02  0.17770000000E+01 0. -1.
         15    1    1    2    0    0  0.34971563987E+00 -0.73248000149E+01 -0.60177830214E+00  0.75693369863E+01  0.17770000000E+01 0.  1.
</event>
<event>
 6    1  0.6394569E-004  0.5004810E+03  0.7546771E-02  0.9398734E-01
        -11   -1    0    0    0    0  0.00000000000E+00  0.00000000000E+00  0.50000000000E+03  0.50000000000E+03  0.00000000000E+00 0.  1.
         11   -1    0    0    0    0 -0.00000000000E+00 -0.00000000000E+00 -0.50000000000E+03  0.50000000000E+03  0.00000000000E+00 0. -1.
        -11    1    1    2    0    0 -0.17763313458E+02 -0.16678318527E+02  0.49892440428E+03  0.49951903147E+03  0.00000000000E+00 0.  1.
         11    1    1    2    0    0  0.12568824339E+01 -0.43096895527E+01 -0.19219818713E+03  0.19225060809E+03  0.00000000000E+00 0. -1.
        -15    1    1    2    0    0  0.96640960400E+01  0.79756160606E+01 -0.20959765457E+03  0.20997937931E+03  0.17770000000E+01 0. -1.
         15    1    1    2    0    0  0.68423349843E+01  0.13012392019E+02 -0.97128562585E+02  0.98250981129E+02  0.17770000000E+01 0.  1.
</event>
<event>
 6    1  0.6394569E-004  0.5099484E+03  0.7546771E-02  0.9377821E-01
        -11   -1    0    0    0    0  0.00000000000E+00  0.00000000000E+00  0.50000000000E+03  0.50000000000E+03  0.00000000000E+00 0. -1.
         11   -1    0    0    0    0 -0.00000000000E+00 -0.00000000000E+00 -0.50000000000E+03  0.50000000000E+03  0.00000000000E+00 0. -1.
        -11    1    1    2    0    0 -0.45763193920E+02 -0.65994792653E+00  0.38356204612E+03  0.38628299040E+03  0.00000000000E+00 0. -1.
         11    1    1    2    0    0  0.16156621030E+01  0.33399224377E+02 -0.48890950096E+03  0.49005164900E+03  0.00000000000E+00 0. -1.
        -15    1    1    2    0    0  0.40782972431E+02 -0.11469989641E+02  0.78329904166E+02  0.89070439082E+02  0.17770000000E+01 0. -1.
         15    1    1    2    0    0  0.33645593866E+01 -0.21269286809E+02  0.27017550677E+02  0.34594921518E+02  0.17770000000E+01 0.  1.
</event>
<event>
 6    1  0.6394569E-004  0.5054653E+03  0.7546771E-02  0.9387663E-01
        -11   -1    0    0    0    0  0.00000000000E+00  0.00000000000E+00  0.50000000000E+03  0.50000000000E+03  0.00000000000E+00 0.  1.
         11   -1    0    0    0    0 -0.00000000000E+00 -0.00000000000E+00 -0.50000000000E+03  0.50000000000E+03  0.00000000000E+00 0. -1.
        -11    1    1    2    0    0 -0.18558865356E+02 -0.11540586227E+02  0.49405154282E+03  0.49453467378E+03  0.00000000000E+00 0.  1.
         11    1    1    2    0    0  0.81010324793E+01 -0.59892877704E+01 -0.46024618208E+03  0.46035643410E+03  0.00000000000E+00 0. -1.
        -15    1    1    2    0    0 -0.44378030612E+01  0.20139119675E+01 -0.16946688825E+02  0.17722808145E+02  0.17770000000E+01 0.  1.
         15    1    1    2    0    0  0.14895635937E+02  0.15515962030E+02 -0.16858671911E+02  0.27386083972E+02  0.17770000000E+01 0. -1.
</event>
<event>
 6    1  0.6394569E-004  0.5012156E+03  0.7546771E-02  0.9397094E-01
        -11   -1    0    0    0    0  0.00000000000E+00  0.00000000000E+00  0.50000000000E+03  0.50000000000E+03  0.00000000000E+00 0.  1.
         11   -1    0    0    0    0 -0.00000000000E+00 -0.00000000000E+00 -0.50000000000E+03  0.50000000000E+03  0.00000000000E+00 0.  1.
        -11    1    1    2    0    0  0.80157462494E+01  0.10929384633E+02  0.49860017509E+03  0.49878436046E+03  0.00000000000E+00 0.  1.
         11    1    1    2    0    0 -0.13618816483E+02  0.12268736903E+02 -0.25185932703E+03  0.25252547333E+03  0.00000000000E+00 0.  1.
        -15    1    1    2    0    0  0.36261324548E+01 -0.16143824367E+02 -0.76802298988E+02  0.78584494403E+02  0.17770000000E+01 0. -1.
         15    1    1    2    0    0  0.19769377783E+01 -0.70542971691E+01 -0.16993854908E+03  0.17010567181E+03  0.17770000000E+01 0.  1.
</event>
<event>
 6    1  0.6394569E-004  0.4839440E+03  0.7546771E-02  0.9436471E-01
        -11   -1    0    0    0    0  0.00000000000E+00  0.00000000000E+00  0.50000000000E+03  0.50000000000E+03  0.00000000000E+00 0.  1.
         11   -1    0    0    0    0 -0.00000000000E+00 -0.00000000000E+00 -0.50000000000E+03  0.50000000000E+03  0.00000000000E+00 0. -1.
        -11    1    1    2    0    0 -0.22595556619E+02  0.20874451736E+02  0.73592577564E+01  0.31630058314E+02  0.00000000000E+00 0.  1.
         11    1    1    2    0    0  0.18907687188E+02 -0.25422574093E+02 -0.48731476798E+03  0.48834361980E+03  0.00000000000E+00 0. -1.
        -15    1    1    2    0    0  0.21476619474E+01  0.51006383447E+01  0.32477582524E+03  0.32482783648E+03  0.17770000000E+01 0.  1.
         15    1    1    2    0    0  0.15402074839E+01 -0.55251598762E+00  0.15517968498E+03  0.15519848541E+03  0.17770000000E+01 0.  1.
</event>
<event>
 6    1  0.6394569E-004  0.5003033E+03  0.7546771E-02  0.9399131E-01
        -11   -1    0    0    0    0  0.00000000000E+00  0.00000000000E+00  0.50000000000E+03  0.50000000000E+03  0.00000000000E+00 0.  1.
         11   -1    0    0    0    0 -0.00000000000E+00 -0.00000000000E+00 -0.50000000000E+03  0.50000000000E+03  0.00000000000E+00 0.  1.
        -11    1    1    2    0    0  0.15672963758E+02  0.12483069101E+02  0.49929486903E+03  0.49969674308E+03  0.00000000000E+00 0.  1.
         11    1    1    2    0    0 -0.41896872041E+01 -0.10747382243E+02 -0.22063100633E+03  0.22093234408E+03  0.00000000000E+00 0.  1.
        -15    1    1    2    0    0 -0.25268862999E+01  0.14766334258E-01 -0.84470933263E+01  0.89942474438E+01  0.17770000000E+01 0. -1.
         15    1    1    2    0    0 -0.89563902536E+01 -0.17504531924E+01 -0.27021676937E+03  0.27037666540E+03  0.17770000000E+01 0.  1.
</event>
<event>
 6    1  0.6394569E-004  0.5001943E+03  0.7546771E-02  0.9399375E-01
        -11   -1    0    0    0    0  0.00000000000E+00  0.00000000000E+00  0.50000000000E+03  0.50000000000E+03  0.00000000000E+00 0. -1.
         11   -1    0    0    0    0 -0.00000000000E+00 -0.00000000000E+00 -0.50000000000E+03  0.50000000000E+03  0.00000000000E+00 0.  1.
        -11    1    1    2    0    0  0.53832175545E+01 -0.83704235258E+01  0.13413484151E+03  0.13450352683E+03  0.00000000000E+00 0. -1.
         11    1    1    2    0    0 -0.10606960554E+02  0.24056749006E+01 -0.49968729993E+03  0.49980565483E+03  0.00000000000E+00 0.  1.
        -15    1    1    2    0    0  0.59071033163E+01  0.44921429692E+01  0.26748204731E+03  0.26759087536E+03  0.17770000000E+01 0. -1.
         15    1    1    2    0    0 -0.68336031680E+00  0.14726056560E+01  0.98070411111E+02  0.98099942982E+02  0.17770000000E+01 0. -1.
</event>
<event>
 6    1  0.6394569E-004  0.5002790E+03  0.7546771E-02  0.9399186E-01
        -11   -1    0    0    0    0  0.00000000000E+00  0.00000000000E+00  0.50000000000E+03  0.50000000000E+03  0.00000000000E+00 0. -1.
         11   -1    0    0    0    0 -0.00000000000E+00 -0.00000000000E+00 -0.50000000000E+03  0.50000000000E+03  0.00000000000E+00 0. -1.
        -11    1    1    2    0    0  0.65602316423E+01 -0.16195068673E+02  0.49941538215E+03  0.49972096296E+03  0.00000000000E+00 0. -1.
         11    1    1    2    0    0  0.56293619575E+00 -0.46860594079E+01 -0.11341117522E+03  0.11350934197E+03  0.00000000000E+00 0. -1.
        -15    1    1    2    0    0 -0.14912798389E+01  0.73791701181E+01 -0.70827006970E+02  0.71248148836E+02  0.17770000000E+01 0.  1.
         15    1    1    2    0    0 -0.56318879991E+01  0.13501957963E+02 -0.31517719996E+03  0.31552154623E+03  0.17770000000E+01 0. -1.
</event>
<event>
 6    1  0.6394569E-004  0.5008669E+03  0.7546771E-02  0.9397872E-01
        -11   -1    0    0    0    0  0.00000000000E+00  0.00000000000E+00  0.50000000000E+03  0.50000000000E+03  0.00000000000E+00 0.  1.
         11   -1    0    0    0    0 -0.00000000000E+00 -0.00000000000E+00 -0.50000000000E+03  0.50000000000E+03  0.00000000000E+00 0. -1.
        -11    1    1    2    0    0  0.10905680612E+02  0.11797137315E+02  0.71456246398E+02  0.73240026405E+02  0.00000000000E+00 0.  1.
         11    1    1    2    0    0 -0.26151460142E+01 -0.15771607792E+02 -0.49887699441E+03  0.49913308662E+03  0.00000000000E+00 0. -1.
        -15    1    1    2    0    0 -0.12248893385E+01  0.31340833235E+01  0.53906813099E+02  0.54040957243E+02  0.17770000000E+01 0.  1.
         15    1    1    2    0    0 -0.70656452597E+01  0.84038715354E+00  0.37351393491E+03  0.37358592974E+03  0.17770000000E+01 0.  1.
</event>
<event>
 6    1  0.6394569E-004  0.5001026E+03  0.7546771E-02  0.9399580E-01
        -11   -1    0    0    0    0  0.00000000000E+00  0.00000000000E+00  0.50000000000E+03  0.50000000000E+03  0.00000000000E+00 0.  1.
         11   -1    0    0    0    0 -0.00000000000E+00 -0.00000000000E+00 -0.50000000000E+03  0.50000000000E+03  0.00000000000E+00 0.  1.
        -11    1    1    2    0    0 -0.10333543189E+02  0.26603396690E+02  0.49908209332E+03  0.49989744819E+03  0.00000000000E+00 0.  1.
         11    1    1    2    0    0  0.73246343470E+01 -0.16603536363E+02 -0.32754462231E+03  0.32804695898E+03  0.00000000000E+00 0.  1.
        -15    1    1    2    0    0  0.35721657102E+01 -0.85960380834E+01 -0.92607624383E+02  0.93091256633E+02  0.17770000000E+01 0.  1.
         15    1    1    2    0    0 -0.56325686799E+00 -0.14038222436E+01 -0.78929846625E+02  0.78964336205E+02  0.17770000000E+01 0. -1.
</event>
<event>
 6    1  0.6394569E-004  0.5016809E+03  0.7546771E-02  0.9396056E-01
        -11   -1    0    0    0    0  0.00000000000E+00  0.00000000000E+00  0.50000000000E+03  0.50000000000E+03  0.00000000000E+00 0.  1.
         11   -1    0    0    0    0 -0.00000000000E+00 -0.00000000000E+00 -0.50000000000E+03  0.50000000000E+03  0.00000000000E+00 0. -1.
        -11    1    1    2    0    0 -0.11780848337E+01  0.13974182023E+02  0.44121786613E+03  0.44144067670E+03  0.00000000000E+00 0.  1.
         11    1    1    2    0    0  0.10377184354E+02 -0.90442707040E+00 -0.49821020090E+03  0.49831908274E+03  0.00000000000E+00 0. -1.
        -15    1    1    2    0    0 -0.50846557400E+01  0.29739817635E+00  0.17023594957E+02  0.17857846564E+02  0.17770000000E+01 0.  1.
         15    1    1    2    0    0 -0.41144437807E+01 -0.13367153129E+02  0.39968739808E+02  0.42382394001E+02  0.17770000000E+01 0. -1.
</event>
<event>
 6    1  0.6394569E-004  0.5020681E+03  0.7546771E-02  0.9395194E-01
        -11   -1    0    0    0    0  0.00000000000E+00  0.00000000000E+00  0.50000000000E+03  0.50000000000E+03  0.00000000000E+00 0. -1.
         11   -1    0    0    0    0 -0.00000000000E+00 -0.00000000000E+00 -0.50000000000E+03  0.50000000000E+03  0.00000000000E+00 0.  1.
        -11    1    1    2    0    0  0.65528523163E+01  0.22322870864E+01  0.45145603953E+03  0.45150911243E+03  0.00000000000E+00 0. -1.
         11    1    1    2    0    0 -0.78721085225E+01 -0.42468222694E+01 -0.49785153371E+03  0.49793187808E+03  0.00000000000E+00 0.  1.
        -15    1    1    2    0    0  0.72438839785E+01 -0.47785907826E+01  0.33969757792E+02  0.35105711193E+02  0.17770000000E+01 0.  1.
         15    1    1    2    0    0 -0.59246277723E+01  0.67931259657E+01  0.12425736382E+02  0.15453298297E+02  0.17770000000E+01 0. -1.
</event>
<event>
 6    1  0.6394569E-004  0.5072115E+03  0.7546771E-02  0.9383816E-01
        -11   -1    0    0    0    0  0.00000000000E+00  0.00000000000E+00  0.50000000000E+03  0.50000000000E+03  0.00000000000E+00 0. -1.
         11   -1    0    0    0    0 -0.00000000000E+00 -0.00000000000E+00 -0.50000000000E+03  0.50000000000E+03  0.00000000000E+00 0.  1.
        -11    1    1    2    0    0  0.22709123364E+02 -0.49712204252E+02  0.87954791681E+02  0.10355217485E+03  0.00000000000E+00 0. -1.
         11    1    1    2    0    0 -0.13952531797E+02  0.37755924937E+02 -0.49114186561E+03  0.49278850957E+03  0.00000000000E+00 0.  1.
        -15    1    1    2    0    0  0.30187099471E+01  0.26373207734E+01  0.84468348593E+02  0.84582076787E+02  0.17770000000E+01 0.  1.
         15    1    1    2    0    0 -0.11775301514E+02  0.93189585418E+01  0.31871872533E+03  0.31907723880E+03  0.17770000000E+01 0. -1.
</event>
<event>
 6    1  0.6394569E-004  0.5063317E+03  0.7546771E-02  0.9385752E-01
        -11   -1    0    0    0    0  0.00000000000E+00  0.00000000000E+00  0.50000000000E+03  0.50000000000E+03  0.00000000000E+00 0. -1.
         11   -1    0    0    0    0 -0.00000000000E+00 -0.00000000000E+00 -0.50000000000E+03  0.50000000000E+03  0.00000000000E+00 0.  1.
        -11    1    1    2    0    0  0.39152936068E+02 -0.28843033603E+02  0.16832621995E+03  0.17521012903E+03  0.00000000000E+00 0. -1.
         11    1    1    2    0    0 -0.16269359180E+02 -0.32142526424E+02 -0.49235204356E+03  0.49366827815E+03  0.00000000000E+00 0.  1.
        -15    1    1    2    0    0 -0.55432111035E+01  0.35290009843E+01  0.17639334689E+02  0.18907270944E+02  0.17770000000E+01 0.  1.
         15    1    1    2    0    0 -0.17340365785E+02  0.57456559043E+02  0.30638648892E+03  0.31221432188E+03  0.17770000000E+01 0. -1.
</event>
<event>
 6    1  0.6394569E-004  0.5011377E+03  0.7546771E-02  0.9397268E-01
        -11   -1    0    0    0    0  0.00000000000E+00  0.00000000000E+00  0.50000000000E+03  0.50000000000E+03  0.00000000000E+00 0. -1.
         11   -1    0    0    0    0 -0.00000000000E+00 -0.00000000000E+00 -0.50000000000E+03  0.50000000000E+03  0.00000000000E+00 0.  1.
        -11    1    1    2    0    0  0.15044220168E+02 -0.51563662343E+00  0.49863517086E+03  0.49886233378E+03  0.00000000000E+00 0. -1.
         11    1    1    2    0    0 -0.23719551048E+01 -0.61304379366E+01 -0.42283380815E+03  0.42288489894E+03  0.00000000000E+00 0.  1.
        -15    1    1    2    0    0 -0.12790545321E+02  0.49287164322E+00 -0.54362639439E+02  0.55877502341E+02  0.17770000000E+01 0. -1.
         15    1    1    2    0    0  0.11828025792E+00  0.61532029168E+01 -0.21438723275E+02  0.22375264938E+02  0.17770000000E+01 0.  1.
</event>
<event>
 6    1  0.6394569E-004  0.5035570E+03  0.7546771E-02  0.9391886E-01
        -11   -1    0    0    0    0  0.00000000000E+00  0.00000000000E+00  0.50000000000E+03  0.50000000000E+03  0.00000000000E+00 0.  1.
         11   -1    0    0    0    0 -0.00000000000E+00 -0.00000000000E+00 -0.50000000000E+03  0.50000000000E+03  0.00000000000E+00 0.  1.
        -11    1    1    2    0    0  0.93663956882E+02  0.14741539582E+03  0.37914977336E+03  0.41744315348E+03  0.00000000000E+00 0.  1.
         11    1    1    2    0    0 -0.94098216505E+02 -0.14638607319E+03 -0.46494331869E+03  0.49644299408E+03  0.00000000000E+00 0.  1.
        -15    1    1    2    0    0  0.28417066754E+01  0.39194615315E+00  0.24554960139E+02  0.24785736121E+02  0.17770000000E+01 0. -1.
         15    1    1    2    0    0 -0.24074470523E+01 -0.14212687847E+01  0.61238585192E+02  0.61328116322E+02  0.17770000000E+01 0.  1.
</event>
<event>
 6    1  0.6394569E-004  0.5001747E+03  0.7546771E-02  0.9399419E-01
        -11   -1    0    0    0    0  0.00000000000E+00  0.00000000000E+00  0.50000000000E+03  0.50000000000E+03  0.00000000000E+00 0. -1.
         11   -1    0    0    0    0 -0.00000000000E+00 -0.00000000000E+00 -0.50000000000E+03  0.50000000000E+03  0.00000000000E+00 0. -1.
        -11    1    1    2    0    0 -0.20053179515E+01 -0.94283456334E+01  0.49973237124E+03  0.49982532736E+03  0.00000000000E+00 0. -1.
         11    1    1    2    0    0  0.20678550159E+01 -0.35744288654E+01 -0.21431415142E+03  0.21435393177E+03  0.00000000000E+00 0. -1.
        -15    1    1    2    0    0 -0.34290355148E+01  0.55619681204E+01 -0.13735452087E+03  0.13752132892E+03  0.17770000000E+01 0. -1.
         15    1    1    2    0    0  0.33664984504E+01  0.74408063784E+01 -0.14806369894E+03  0.14829941195E+03  0.17770000000E+01 0.  1.
</event>
<event>
 6    1  0.6394569E-004  0.5009330E+03  0.7546771E-02  0.9397724E-01
        -11   -1    0    0    0    0  0.00000000000E+00  0.00000000000E+00  0.50000000000E+03  0.50000000000E+03  0.00000000000E+00 0. -1.
         11   -1    0    0    0    0 -0.00000000000E+00 -0.00000000000E+00 -0.50000000000E+03  0.50000000000E+03  0.00000000000E+00 0.  1.
        -11    1    1    2    0    0 -0.27143172838E+00  0.20615000418E+02  0.26962930110E+03  0.27041636772E+03  0.00000000000E+00 0. -1.
         11    1    1    2    0    0  0.85269982433E+01 -0.23281130347E+01 -0.49898868726E+03  0.49906696928E+03  0.00000000000E+00 0.  1.
        -15    1    1    2    0    0 -0.10291214059E+02 -0.12543476101E+02  0.18268003707E+03  0.18340774671E+03  0.17770000000E+01 0.  1.
         15    1    1    2    0    0  0.20356475441E+01 -0.57434112827E+01  0.46679349087E+02  0.47108916293E+02  0.17770000000E+01 0. -1.
</event>
<event>
 6    1  0.6394569E-004  0.5097695E+03  0.7546771E-02  0.9378211E-01
        -11   -1    0    0    0    0  0.00000000000E+00  0.00000000000E+00  0.50000000000E+03  0.50000000000E+03  0.00000000000E+00 0.  1.
         11   -1    0    0    0    0 -0.00000000000E+00 -0.00000000000E+00 -0.50000000000E+03  0.50000000000E+03  0.00000000000E+00 0. -1.
        -11    1    1    2    0    0 -0.14937975185E+02  0.51498366057E+02  0.48633155922E+02  0.72390666968E+02  0.00000000000E+00 0.  1.
         11    1    1    2    0    0  0.72450845127E+02 -0.65162322785E+02 -0.48044839820E+03  0.49023047294E+03  0.00000000000E+00 0. -1.
        -15    1    1    2    0    0 -0.38120302453E+02  0.25928338812E+02  0.26549259218E+03  0.26947153921E+03  0.17770000000E+01 0.  1.
         15    1    1    2    0    0 -0.19392567488E+02 -0.12264382084E+02  0.16632265010E+03  0.16790732088E+03  0.17770000000E+01 0. -1.
</event>
<event>
 6    1  0.6394569E-004  0.5020026E+03  0.7546771E-02  0.9395340E-01
        -11   -1    0    0    0    0  0.00000000000E+00  0.00000000000E+00  0.50000000000E+03  0.50000000000E+03  0.00000000000E+00 0.  1.
         11   -1    0    0    0    0 -0.00000000000E+00 -0.00000000000E+00 -0.50000000000E+03  0.50000000000E+03  0.00000000000E+00 0.  1.
        -11    1    1    2    0    0 -0.22224823781E+02  0.16752658941E+01  0.49749835803E+03  0.49799735496E+03  0.00000000000E+00 0.  1.
         11    1    1    2    0    0 -0.11974919896E+02  0.19698858240E+01 -0.32537129670E+03  0.32559754279E+03  0.00000000000E+00 0.  1.
        -15    1    1    2    0    0  0.29826721033E+02 -0.23193076508E+01 -0.10770856848E+03  0.11180029485E+03  0.17770000000E+01 0.  1.
         15    1    1    2    0    0  0.43730226439E+01 -0.13258440673E+01 -0.64418492843E+02  0.64604807396E+02  0.17770000000E+01 0. -1.
</event>
<event>
 6    1  0.6394569E-004  0.5051773E+03  0.7546771E-02  0.9388299E-01
        -11   -1    0    0    0    0  0.00000000000E+00  0.00000000000E+00  0.50000000000E+03  0.50000000000E+03  0.00000000000E+00 0.  1.
         11   -1    0    0    0    0 -0.00000000000E+00 -0.00000000000E+00 -0.50000000000E+03  0.50000000000E+03  0.00000000000E+00 0.  1.
        -11    1    1    2    0    0  0.15444470707E+02 -0.40773718391E+02  0.13556821960E+03  0.14240705724E+03  0.00000000000E+00 0.  1.
         11    1    1    2    0    0 -0.38361405894E+01 -0.70752575467E+01 -0.49475727642E+03  0.49482273373E+03  0.00000000000E+00 0.  1.
        -15    1    1    2    0    0 -0.77449077600E+01  0.44191268276E+02  0.30419270403E+03  0.30748855377E+03  0.17770000000E+01 0. -1.
         15    1    1    2    0    0 -0.38634223574E+01  0.36577076624E+01  0.54996352796E+02  0.55281655253E+02  0.17770000000E+01 0.  1.
</event>
<event>
 6    1  0.6394569E-004  0.5008785E+03  0.7546771E-02  0.9397846E-01
        -11   -1    0    0    0    0  0.00000000000E+00  0.00000000000E+00  0.50000000000E+03  0.50000000000E+03  0.00000000000E+00 0.  1.
         11   -1    0    0    0    0 -0.00000000000E+00 -0.00000000000E+00 -0.50000000000E+03  0.50000000000E+03  0.00000000000E+00 0.  1.
        -11    1    1    2    0    0  0.99322215128E+01 -0.14966427234E+02  0.49879818641E+03  0.49912150197E+03  0.00000000000E+00 0.  1.
         11    1    1    2    0    0  0.45648141843E+01 -0.13874878232E+01 -0.35272474221E+03  0.35275700761E+03  0.00000000000E+00 0.  1.
        -15    1    1    2    0    0 -0.56045945494E+01  0.76788628361E+01 -0.34035538393E+02  0.35382933983E+02  0.17770000000E+01 0.  1.
         15    1    1    2    0    0 -0.88924411477E+01  0.86750522215E+01 -0.11203790580E+03  0.11273855643E+03  0.17770000000E+01 0. -1.
</event>
<event>
 6    1  0.6394569E-004  0.4623712E+03  0.7546771E-02  0.9488182E-01
        -11   -1    0    0    0    0  0.00000000000E+00  0.00000000000E+00  0.50000000000E+03  0.50000000000E+03  0.00000000000E+00 0.  1.
         11   -1    0    0    0    0 -0.00000000000E+00 -0.00000000000E+00 -0.50000000000E+03  0.50000000000E+03  0.00000000000E+00 0. -1.
        -11    1    1    2    0    0  0.54338287435E+01 -0.67206895627E+02  0.47559151631E+03  0.48034735734E+03  0.00000000000E+00 0.  1.
         11    1    1    2    0    0  0.44845754609E+01  0.63638111575E+01 -0.44682595561E+03  0.44689377274E+03  0.00000000000E+00 0. -1.
        -15    1    1    2    0    0 -0.77918879525E+01  0.62593434441E+02 -0.25288055127E+02  0.67980107488E+02  0.17770000000E+01 0.  1.
         15    1    1    2    0    0 -0.21265162519E+01 -0.17503499715E+01 -0.34775055727E+01  0.47787624340E+01  0.17770000000E+01 0. -1.
</event>
<event>
 6    1  0.6394569E-004  0.5010432E+03  0.7546771E-02  0.9397478E-01
        -11   -1    0    0    0    0  0.00000000000E+00  0.00000000000E+00  0.50000000000E+03  0.50000000000E+03  0.00000000000E+00 0. -1.
         11   -1    0    0    0    0 -0.00000000000E+00 -0.00000000000E+00 -0.50000000000E+03  0.50000000000E+03  0.00000000000E+00 0.  1.
        -11    1    1    2    0    0 -0.10239912319E+02  0.21327580619E+02  0.15628750464E+03  0.15806804107E+03  0.00000000000E+00 0. -1.
         11    1    1    2    0    0 -0.14147771663E+02 -0.21542176527E+02 -0.49829069816E+03  0.49895675633E+03  0.00000000000E+00 0.  1.
        -15    1    1    2    0    0  0.18491821000E+02 -0.23590154262E+01  0.27632013167E+03  0.27695394074E+03  0.17770000000E+01 0. -1.
         15    1    1    2    0    0  0.58958629829E+01  0.25736113341E+01  0.65683061846E+02  0.66021261864E+02  0.17770000000E+01 0.  1.
</event>
<event>
 6    1  0.6394569E-004  0.5000970E+03  0.7546771E-02  0.9399593E-01
        -11   -1    0    0    0    0  0.00000000000E+00  0.00000000000E+00  0.50000000000E+03  0.50000000000E+03  0.00000000000E+00 0. -1.
         11   -1    0    0    0    0 -0.00000000000E+00 -0.00000000000E+00 -0.50000000000E+03  0.50000000000E+03  0.00000000000E+00 0.  1.
        -11    1    1    2    0    0  0.48373369137E+01 -0.26667180920E+01  0.78481821748E+02  0.78675965572E+02  0.00000000000E+00 0. -1.
         11    1    1    2    0    0 -0.74344297172E+01  0.52217872192E+01 -0.49982048020E+03  0.49990304083E+03  0.00000000000E+00 0.  1.
        -15    1    1    2    0    0 -0.67468431636E+00  0.13743843702E+01  0.67115662909E+02  0.67156638303E+02  0.17770000000E+01 0. -1.
         15    1    1    2    0    0  0.32717771199E+01 -0.39294534974E+01  0.35422299554E+03  0.35426435529E+03  0.17770000000E+01 0. -1.
</event>
<event>
 6    1  0.6394569E-004  0.4881454E+03  0.7546771E-02  0.9426733E-01
        -11   -1    0    0    0    0  0.00000000000E+00  0.00000000000E+00  0.50000000000E+03  0.50000000000E+03  0.00000000000E+00 0.  1.
         11   -1    0    0    0    0 -0.00000000000E+00 -0.00000000000E+00 -0.50000000000E+03  0.50000000000E+03  0.00000000000E+00 0.  1.
        -11    1    1    2    0    0 -0.12505915123E+02  0.11000937160E+02  0.48766632874E+03  0.48795068062E+03  0.00000000000E+00 0.  1.
         11    1    1    2    0    0  0.55422320293E+01 -0.37645294836E+01 -0.48834606168E+03  0.48839201875E+03  0.00000000000E+00 0.  1.
        -15    1    1    2    0    0  0.12499482151E+02 -0.10400916612E+02  0.30243075315E+01  0.16634911645E+02  0.17770000000E+01 0.  1.
         15    1    1    2    0    0 -0.55357990576E+01  0.31645089353E+01 -0.23445745980E+01  0.70223889848E+01  0.17770000000E+01 0.  1.
</event>
<event>
 6    1  0.6394569E-004  0.5008883E+03  0.7546771E-02  0.9397824E-01
        -11   -1    0    0    0    0  0.00000000000E+00  0.00000000000E+00  0.50000000000E+03  0.50000000000E+03  0.00000000000E+00 0.  1.
         11   -1    0    0    0    0 -0.00000000000E+00 -0.00000000000E+00 -0.50000000000E+03  0.50000000000E+03  0.00000000000E+00 0. -1.
        -11    1    1    2    0    0 -0.94369395908E+01  0.88956234375E+01  0.36045581685E+03  0.36068904038E+03  0.00000000000E+00 0.  1.
         11    1    1    2    0    0 -0.61047268868E+01 -0.32881703681E+01 -0.49906349397E+03  0.49911166162E+03  0.00000000000E+00 0. -1.
        -15    1    1    2    0    0  0.82076895455E+01 -0.93153920679E+01  0.90020522537E+02  0.90890015425E+02  0.17770000000E+01 0. -1.
         15    1    1    2    0    0  0.73339769321E+01  0.37079389984E+01  0.48587154580E+02  0.49309282579E+02  0.17770000000E+01 0.  1.
</event>
<event>
 6    1  0.6394569E-004  0.5001755E+03  0.7546771E-02  0.9399417E-01
        -11   -1    0    0    0    0  0.00000000000E+00  0.00000000000E+00  0.50000000000E+03  0.50000000000E+03  0.00000000000E+00 0. -1.
         11   -1    0    0    0    0 -0.00000000000E+00 -0.00000000000E+00 -0.50000000000E+03  0.50000000000E+03  0.00000000000E+00 0.  1.
        -11    1    1    2    0    0  0.68900179727E+01 -0.48102169707E+00  0.19727882853E+03  0.19739969584E+03  0.00000000000E+00 0. -1.
         11    1    1    2    0    0  0.13979543325E+01 -0.80120978523E+01 -0.49975828658E+03  0.49982446218E+03  0.00000000000E+00 0.  1.
        -15    1    1    2    0    0 -0.51663528459E+01  0.32415746888E+01  0.10356466601E+03  0.10375932143E+03  0.17770000000E+01 0. -1.
         15    1    1    2    0    0 -0.31216194593E+01  0.52515448607E+01  0.19891479204E+03  0.19901652055E+03  0.17770000000E+01 0.  1.
</event>
<event>
 6    1  0.6394569E-004  0.5002211E+03  0.7546771E-02  0.9399315E-01
        -11   -1    0    0    0    0  0.00000000000E+00  0.00000000000E+00  0.50000000000E+03  0.50000000000E+03  0.00000000000E+00 0. -1.
         11   -1    0    0    0    0 -0.00000000000E+00 -0.00000000000E+00 -0.50000000000E+03  0.50000000000E+03  0.00000000000E+00 0.  1.
        -11    1    1    2    0    0  0.82119817974E+01  0.22275893280E+02  0.41566828099E+03  0.41634573601E+03  0.00000000000E+00 0. -1.
         11    1    1    2    0    0 -0.86611419256E+01 -0.18823519874E+02 -0.49934923376E+03  0.49977894868E+03  0.00000000000E+00 0.  1.
        -15    1    1    2    0    0 -0.49419148410E+00 -0.22302902548E+01  0.29085051256E+02  0.29228690620E+02  0.17770000000E+01 0.  1.
         15    1    1    2    0    0  0.94335161231E+00 -0.12220831517E+01  0.54595901516E+02  0.54646624697E+02  0.17770000000E+01 0. -1.
</event>
<event>
 6    1  0.6394569E-004  0.4465028E+03  0.7546771E-02  0.9528175E-01
        -11   -1    0    0    0    0  0.00000000000E+00  0.00000000000E+00  0.50000000000E+03  0.50000000000E+03  0.00000000000E+00 0. -1.
         11   -1    0    0    0    0 -0.00000000000E+00 -0.00000000000E+00 -0.50000000000E+03  0.50000000000E+03  0.00000000000E+00 0. -1.
        -11    1    1    2    0    0  0.26955824907E+02 -0.67598421708E+02  0.41720953672E+03  0.42350910338E+03  0.00000000000E+00 0. -1.
         11    1    1    2    0    0  0.76783811341E+01  0.45147739665E+01 -0.47411329236E+03  0.47419695772E+03  0.00000000000E+00 0. -1.
        -15    1    1    2    0    0  0.56353754878E+00  0.20386892253E+02  0.39106230967E+02  0.44140661297E+02  0.17770000000E+01 0. -1.
         15    1    1    2    0    0 -0.35197743590E+02  0.42696755489E+02  0.17797524668E+02  0.58153277606E+02  0.17770000000E+01 0.  1.
</event>
<event>
 6    1  0.6394569E-004  0.4928665E+03  0.7546771E-02  0.9415915E-01
        -11   -1    0    0    0    0  0.00000000000E+00  0.00000000000E+00  0.50000000000E+03  0.50000000000E+03  0.00000000000E+00 0. -1.
         11   -1    0    0    0    0 -0.00000000000E+00 -0.00000000000E+00 -0.50000000000E+03  0.50000000000E+03  0.00000000000E+00 0. -1.
        -11    1    1    2    0    0  0.12500425439E+02  0.69850707386E+01  0.14403739112E+01  0.14391890994E+02  0.00000000000E+00 0. -1.
         11    1    1    2    0    0 -0.10042355180E+02 -0.91527433118E+01 -0.49331010206E+03  0.49349719189E+03  0.00000000000E+00 0. -1.
        -15    1    1    2    0    0 -0.16851160972E+01  0.81508613254E+01  0.21242240400E+03  0.21259283056E+03  0.17770000000E+01 0.  1.
         15    1    1    2    0    0 -0.77295416174E+00 -0.59831887522E+01  0.27944732415E+03  0.27951808655E+03  0.17770000000E+01 0. -1.
</event>
<event>
 6    1  0.6394569E-004  0.5016240E+03  0.7546771E-02  0.9396183E-01
        -11   -1    0    0    0    0  0.00000000000E+00  0.00000000000E+00  0.50000000000E+03  0.50000000000E+03  0.00000000000E+00 0. -1.
         11   -1    0    0    0    0 -0.00000000000E+00 -0.00000000000E+00 -0.50000000000E+03  0.50000000000E+03  0.00000000000E+00 0. -1.
        -11    1    1    2    0    0 -0.53910868414E+01 -0.11055564030E+02  0.49822415766E+03  0.49837596310E+03  0.00000000000E+00 0. -1.
         11    1    1    2    0    0  0.12689728548E+02  0.82929434410E+01 -0.47770727987E+03  0.47794774543E+03  0.00000000000E+00 0. -1.
        -15    1    1    2    0    0 -0.82004525565E+01  0.33983781382E+01 -0.12778974855E+02  0.15660661654E+02  0.17770000000E+01 0. -1.
         15    1    1    2    0    0  0.90181085011E+00 -0.63575754927E+00 -0.77379029381E+01  0.80156298162E+01  0.17770000000E+01 0.  1.
</event>
<event>
 6    1  0.6394569E-004  0.5024665E+03  0.7546771E-02  0.9394308E-01
        -11   -1    0    0    0    0  0.00000000000E+00  0.00000000000E+00  0.50000000000E+03  0.50000000000E+03  0.00000000000E+00 0.  1.
         11   -1    0    0    0    0 -0.00000000000E+00 -0.00000000000E+00 -0.50000000000E+03  0.50000000000E+03  0.00000000000E+00 0.  1.
        -11    1    1    2    0    0 -0.65808679947E+00  0.92924347593E+01  0.49744627245E+03  0.49753349274E+03  0.00000000000E+00 0.  1.
         11    1    1    2    0    0  0.22412325455E+01  0.64028295008E+01 -0.46792789171E+03  0.46797706268E+03  0.00000000000E+00 0.  1.
        -15    1    1    2    0    0 -0.34860040607E+01 -0.14332607648E+02 -0.25478199545E+02  0.29493596718E+02  0.17770000000E+01 0. -1.
         15    1    1    2    0    0  0.19028583147E+01 -0.13626566118E+01 -0.40401811966E+01  0.49958478669E+01  0.17770000000E+01 0. -1.
</event>
<event>
 6    1  0.6394569E-004  0.4562520E+03  0.7546771E-02  0.9503399E-01
        -11   -1    0    0    0    0  0.00000000000E+00  0.00000000000E+00  0.50000000000E+03  0.50000000000E+03  0.00000000000E+00 0.  1.
         11   -1    0    0    0    0 -0.00000000000E+00 -0.00000000000E+00 -0.50000000000E+03  0.50000000000E+03  0.00000000000E+00 0. -1.
        -11    1    1    2    0    0 -0.44828043301E+02 -0.64789505517E+02  0.45453971643E+03  0.46131723066E+03  0.00000000000E+00 0.  1.
         11    1    1    2    0    0 -0.69571609429E+01  0.33909980485E+01 -0.45464909377E+03  0.45471496503E+03  0.00000000000E+00 0. -1.
        -15    1    1    2    0    0  0.15254123167E+02  0.28218381070E+02 -0.98267173864E+01  0.33595943317E+02  0.17770000000E+01 0.  1.
         15    1    1    2    0    0  0.36531081078E+02  0.33180126399E+02  0.99360947317E+01  0.50371860994E+02  0.17770000000E+01 0. -1.
</event>
<event>
 6    1  0.6394569E-004  0.5021823E+03  0.7546771E-02  0.9394940E-01
        -11   -1    0    0    0    0  0.00000000000E+00  0.00000000000E+00  0.50000000000E+03  0.50000000000E+03  0.00000000000E+00 0.  1.
         11   -1    0    0    0    0 -0.00000000000E+00 -0.00000000000E+00 -0.50000000000E+03  0.50000000000E+03  0.00000000000E+00 0.  1.
        -11    1    1    2    0    0 -0.12158025384E+02 -0.10032464096E+02  0.85899401775E+02  0.87333699924E+02  0.00000000000E+00 0.  1.
         11    1    1    2    0    0  0.10181813225E+02 -0.10326006066E+02 -0.49760647893E+03  0.49781774134E+03  0.00000000000E+00 0.  1.
        -15    1    1    2    0    0 -0.12543422029E+02  0.84697007338E+01  0.34988249966E+03  0.35021421240E+03  0.17770000000E+01 0. -1.
         15    1    1    2    0    0  0.14519634187E+02  0.11888769427E+02  0.61824577489E+02  0.64634346335E+02  0.17770000000E+01 0.  1.
</event>
<event>
 6    1  0.6394569E-004  0.5003913E+03  0.7546771E-02  0.9398934E-01
        -11   -1    0    0    0    0  0.00000000000E+00  0.00000000000E+00  0.50000000000E+03  0.50000000000E+03  0.00000000000E+00 0.  1.
         11   -1    0    0    0    0 -0.00000000000E+00 -0.00000000000E+00 -0.50000000000E+03  0.50000000000E+03  0.00000000000E+00 0.  1.
        -11    1    1    2    0    0 -0.11167980195E+01  0.84802264957E+01  0.47673473955E+02  0.48434714804E+02  0.00000000000E+00 0.  1.
         11    1    1    2    0    0  0.26039039542E+00 -0.91606986068E+01 -0.49952460037E+03  0.49960865943E+03  0.00000000000E+00 0.  1.
        -15    1    1    2    0    0 -0.20368722112E+01 -0.32725724591E+01  0.14813684686E+03  0.14819764406E+03  0.17770000000E+01 0. -1.
         15    1    1    2    0    0  0.28932798352E+01  0.39530445703E+01  0.30371427956E+03  0.30375898170E+03  0.17770000000E+01 0.  1.
</event>
<event>
 6    1  0.6394569E-004  0.5029898E+03  0.7546771E-02  0.9393144E-01
        -11   -1    0    0    0    0  0.00000000000E+00  0.00000000000E+00  0.50000000000E+03  0.50000000000E+03  0.00000000000E+00 0. -1.
         11   -1    0    0    0    0 -0.00000000000E+00 -0.00000000000E+00 -0.50000000000E+03  0.50000000000E+03  0.00000000000E+00 0.  1.
        -11    1    1    2    0    0 -0.53778137115E+01 -0.78726819728E+01  0.48264253604E+03  0.48273669593E+03  0.00000000000E+00 0. -1.
         11    1    1    2    0    0 -0.72423151679E+01  0.51544274734E+01 -0.49693064976E+03  0.49701015073E+03  0.00000000000E+00 0.  1.
        -15    1    1    2    0    0  0.95705934391E+01  0.30669701208E+01  0.12889189546E+02  0.16440544415E+02  0.17770000000E+01 0.  1.
         15    1    1    2    0    0  0.30495354403E+01 -0.34871562136E+00  0.13989241775E+01  0.38126089284E+01  0.17770000000E+01 0. -1.
</event>
<event>
 6    1  0.6394569E-004  0.5003569E+03  0.7546771E-02  0.9399012E-01
        -11   -1    0    0    0    0  0.00000000000E+00  0.00000000000E+00  0.50000000000E+03  0.50000000000E+03  0.00000000000E+00 0. -1.
         11   -1    0    0    0    0 -0.00000000000E+00 -0.00000000000E+00 -0.50000000000E+03  0.50000000000E+03  0.00000000000E+00 0. -1.
        -11    1    1    2    0    0  0.10262075327E+02  0.96855514727E+00  0.21893925536E+03  0.21918176436E+03  0.00000000000E+00 0. -1.
         11    1    1    2    0    0 -0.62676022128E+01 -0.67914200623E+01 -0.49955763720E+03  0.49964311174E+03  0.00000000000E+00 0. -1.
        -15    1    1    2    0    0  0.50885513972E+01  0.30031817657E+01  0.54191366000E+02  0.54541491857E+02  0.17770000000E+01 0.  1.
         15    1    1    2    0    0 -0.90830245112E+01  0.28196831493E+01  0.22642701583E+03  0.22663363205E+03  0.17770000000E+01 0. -1.
</event>
<event>
 6    1  0.6394569E-004  0.4809676E+03  0.7546771E-02  0.9443433E-01
        -11   -1    0    0    0    0  0.00000000000E+00  0.00000000000E+00  0.50000000000E+03  0.50000000000E+03  0.00000000000E+00 0. -1.
         11   -1    0    0    0    0 -0.00000000000E+00 -0.00000000000E+00 -0.50000000000E+03  0.50000000000E+03  0.00000000000E+00 0. -1.
        -11    1    1    2    0    0 -0.33122949653E+02 -0.86534569635E+01  0.47917298611E+03  0.48039438249E+03  0.00000000000E+00 0. -1.
         11    1    1    2    0    0  0.89239081252E+01 -0.10012376255E+01 -0.48181343579E+03  0.48189711093E+03  0.00000000000E+00 0. -1.
        -15    1    1    2    0    0  0.25311857532E+02  0.27188610793E+01  0.99738756639E+01  0.27399238348E+02  0.17770000000E+01 0.  1.
         15    1    1    2    0    0 -0.11128160039E+01  0.69358335097E+01 -0.73334259840E+01  0.10309268238E+02  0.17770000000E+01 0. -1.
</event>
<event>
 6    1  0.6394569E-004  0.5028930E+03  0.7546771E-02  0.9393360E-01
        -11   -1    0    0    0    0  0.00000000000E+00  0.00000000000E+00  0.50000000000E+03  0.50000000000E+03  0.00000000000E+00 0.  1.
         11   -1    0    0    0    0 -0.00000000000E+00 -0.00000000000E+00 -0.50000000000E+03  0.50000000000E+03  0.00000000000E+00 0.  1.
        -11    1    1    2    0    0  0.18730147972E+02  0.17506200291E+01  0.49675090056E+03  0.49710697070E+03  0.00000000000E+00 0.  1.
         11    1    1    2    0    0 -0.20307124523E+00 -0.85959799648E+01 -0.43879740677E+03  0.43888164269E+03  0.00000000000E+00 0.  1.
        -15    1    1    2    0    0 -0.71778510157E+01  0.29349460967E+01 -0.43819319294E+01  0.90826488553E+01  0.17770000000E+01 0. -1.
         15    1    1    2    0    0 -0.11349225711E+02  0.39104138390E+01 -0.53571561867E+02  0.54928737747E+02  0.17770000000E+01 0.  1.
</event>
<event>
 6    1  0.6394569E-004  0.5047964E+03  0.7546771E-02  0.9389141E-01
        -11   -1    0    0    0    0  0.00000000000E+00  0.00000000000E+00  0.50000000000E+03  0.50000000000E+03  0.00000000000E+00 0.  1.
         11   -1    0    0    0    0 -0.00000000000E+00 -0.00000000000E+00 -0.50000000000E+03  0.50000000000E+03  0.00000000000E+00 0.  1.
        -11    1    1    2    0    0 -0.48226288461E+01 -0.59497840122E+01  0.45583092985E+03  0.45589526680E+03  0.00000000000E+00 0.  1.
         11    1    1    2    0    0 -0.66661467674E+01  0.57871758943E+01 -0.49512494398E+03  0.49520363394E+03  0.00000000000E+00 0.  1.
        -15    1    1    2    0    0  0.10711708670E+02 -0.87692733961E+00  0.43126920551E+02  0.44481442303E+02  0.17770000000E+01 0.  1.
         15    1    1    2    0    0  0.77706694342E+00  0.10395354575E+01 -0.38329064210E+01  0.44196569588E+01  0.17770000000E+01 0. -1.
</event>
<event>
 6    1  0.6394569E-004  0.5003996E+03  0.7546771E-02  0.9398916E-01
        -11   -1    0    0    0    0  0.00000000000E+00  0.00000000000E+00  0.50000000000E+03  0.50000000000E+03  0.00000000000E+00 0.  1.
         11   -1    0    0    0    0 -0.00000000000E+00 -0.00000000000E+00 -0.50000000000E+03  0.50000000000E+03  0.00000000000E+00 0.  1.
        -11    1    1    2    0    0  0.22251121594E+01 -0.48877674474E+01  0.27700721566E+02  0.28216508821E+02  0.00000000000E+00 0.  1.
         11    1    1    2    0    0  0.10142040955E+02  0.20383805617E+01 -0.49949331249E+03  0.49960042555E+03  0.00000000000E+00 0.  1.
        -15    1    1    2    0    0  0.25160025151E+01 -0.11491497821E+01  0.51913982567E+02  0.52017978900E+02  0.17770000000E+01 0. -1.
         15    1    1    2    0    0 -0.14883155630E+02  0.39985366677E+01  0.41987860836E+03  0.42016508673E+03  0.17770000000E+01 0.  1.
</event>
<event>
 6    1  0.6394569E-004  0.5075908E+03  0.7546771E-02  0.9382983E-01
        -11   -1    0    0    0    0  0.00000000000E+00  0.00000000000E+00  0.50000000000E+03  0.50000000000E+03  0.00000000000E+00 0.  1.
         11   -1    0    0    0    0 -0.00000000000E+00 -0.00000000000E+00 -0.50000000000E+03  0.50000000000E+03  0.00000000000E+00 0. -1.
        -11    1    1    2    0    0  0.29422570198E+02  0.18595952779E+02  0.49117748347E+03  0.49240919708E+03  0.00000000000E+00 0.  1.
         11    1    1    2    0    0  0.17954720477E+01 -0.13514645263E+02 -0.46134028565E+03  0.46154168666E+03  0.00000000000E+00 0. -1.
        -15    1    1    2    0    0 -0.23577306361E+02  0.10362610788E+01 -0.14460248819E+02  0.27734810927E+02  0.17770000000E+01 0. -1.
         15    1    1    2    0    0 -0.76407358851E+01 -0.61175685957E+01 -0.15376948999E+02  0.18314305335E+02  0.17770000000E+01 0.  1.
</event>
<event>
 6    1  0.6394569E-004  0.5002460E+03  0.7546771E-02  0.9399259E-01
        -11   -1    0    0    0    0  0.00000000000E+00  0.00000000000E+00  0.50000000000E+03  0.50000000000E+03  0.00000000000E+00 0.  1.
         11   -1    0    0    0    0 -0.00000000000E+00 -0.00000000000E+00 -0.50000000000E+03  0.50000000000E+03  0.00000000000E+00 0. -1.
        -11    1    1    2    0    0 -0.21555626816E+02  0.17503912648E+00  0.49928888246E+03  0.49975400332E+03  0.00000000000E+00 0.  1.
         11    1    1    2    0    0  0.95954352442E+00 -0.35858837318E+01 -0.24339157370E+03  0.24341987888E+03  0.00000000000E+00 0. -1.
        -15    1    1    2    0    0  0.28165792151E+01  0.13563353722E+01 -0.58811347026E+02  0.58921176432E+02  0.17770000000E+01 0. -1.
         15    1    1    2    0    0  0.17779504077E+02  0.20545092331E+01 -0.19708596174E+03  0.19790494137E+03  0.17770000000E+01 0. -1.
</event>
<event>
 6    1  0.6394569E-004  0.5029314E+03  0.7546771E-02  0.9393274E-01
        -11   -1    0    0    0    0  0.00000000000E+00  0.00000000000E+00  0.50000000000E+03  0.50000000000E+03  0.00000000000E+00 0. -1.
         11   -1    0    0    0    0 -0.00000000000E+00 -0.00000000000E+00 -0.50000000000E+03  0.50000000000E+03  0.00000000000E+00 0.  1.
        -11    1    1    2    0    0  0.40933136926E+02 -0.43843628837E+02  0.49343637296E+03  0.49706864682E+03  0.00000000000E+00 0. -1.
         11    1    1    2    0    0  0.36576272790E+01  0.53144881944E+01 -0.29935491934E+03  0.29942443079E+03  0.00000000000E+00 0.  1.
        -15    1    1    2    0    0 -0.41580724654E+02  0.34865480108E+02 -0.18750342056E+03  0.19520565775E+03  0.17770000000E+01 0. -1.
         15    1    1    2    0    0 -0.30100395507E+01  0.36636605344E+01 -0.65780330646E+01  0.83012646391E+01  0.17770000000E+01 0.  1.
</event>
<event>
 6    1  0.6394569E-004  0.5012328E+03  0.7546771E-02  0.9397055E-01
        -11   -1    0    0    0    0  0.00000000000E+00  0.00000000000E+00  0.50000000000E+03  0.50000000000E+03  0.00000000000E+00 0.  1.
         11   -1    0    0    0    0 -0.00000000000E+00 -0.00000000000E+00 -0.50000000000E+03  0.50000000000E+03  0.00000000000E+00 0. -1.
        -11    1    1    2    0    0 -0.34976250259E+01 -0.33049361690E+02  0.49765876609E+03  0.49876722141E+03  0.00000000000E+00 0.  1.
         11    1    1    2    0    0 -0.19239313759E+02  0.28602276056E+01 -0.11771131358E+03  0.11930752466E+03  0.00000000000E+00 0. -1.
        -15    1    1    2    0    0  0.72383745300E+01  0.16296438997E+02 -0.17942607013E+03  0.18031871883E+03  0.17770000000E+01 0.  1.
         15    1    1    2    0    0  0.15498564255E+02  0.13892695088E+02 -0.20052138238E+03  0.20160653509E+03  0.17770000000E+01 0. -1.
</event>
<event>
 6    1  0.6394569E-004  0.4869339E+03  0.7546771E-02  0.9429530E-01
        -11   -1    0    0    0    0  0.00000000000E+00  0.00000000000E+00  0.50000000000E+03  0.50000000000E+03  0.00000000000E+00 0. -1.
         11   -1    0    0    0    0 -0.00000000000E+00 -0.00000000000E+00 -0.50000000000E+03  0.50000000000E+03  0.00000000000E+00 0. -1.
        -11    1    1    2    0    0 -0.54217235422E+01  0.13490952007E+02  0.48581045899E+03  0.48602798576E+03  0.00000000000E+00 0. -1.
         11    1    1    2    0    0 -0.61830417854E+01  0.52360488558E+01 -0.48802425817E+03  0.48809151066E+03  0.00000000000E+00 0. -1.
        -15    1    1    2    0    0  0.76195836594E+01 -0.19183659772E+02  0.40750091634E+01  0.21114788326E+02  0.17770000000E+01 0.  1.
         15    1    1    2    0    0  0.39851816683E+01  0.45665890887E+00 -0.18612099816E+01  0.47657152541E+01  0.17770000000E+01 0. -1.
</event>
<event>
 6    1  0.6394569E-004  0.4742386E+03  0.7546771E-02  0.9459373E-01
        -11   -1    0    0    0    0  0.00000000000E+00  0.00000000000E+00  0.50000000000E+03  0.50000000000E+03  0.00000000000E+00 0. -1.
         11   -1    0    0    0    0 -0.00000000000E+00 -0.00000000000E+00 -0.50000000000E+03  0.50000000000E+03  0.00000000000E+00 0. -1.
        -11    1    1    2    0    0 -0.32923913242E+02 -0.12975717826E+02  0.47873256819E+03  0.48003877464E+03  0.00000000000E+00 0. -1.
         11    1    1    2    0    0 -0.59854144336E+00 -0.13517709236E+02 -0.46925267512E+03  0.46944771788E+03  0.00000000000E+00 0. -1.
        -15    1    1    2    0    0  0.22854902861E+02  0.30434379328E+02 -0.75453654203E+01  0.38841836957E+02  0.17770000000E+01 0. -1.
         15    1    1    2    0    0  0.10667551824E+02 -0.39409522654E+01 -0.19345276492E+01  0.11671670527E+02  0.17770000000E+01 0.  1.
</event>
<event>
 6    1  0.6394569E-004  0.4886933E+03  0.7546771E-02  0.9425471E-01
        -11   -1    0    0    0    0  0.00000000000E+00  0.00000000000E+00  0.50000000000E+03  0.50000000000E+03  0.00000000000E+00 0. -1.
         11   -1    0    0    0    0 -0.00000000000E+00 -0.00000000000E+00 -0.50000000000E+03  0.50000000000E+03  0.00000000000E+00 0.  1.
        -11    1    1    2    0    0  0.48599301415E+01  0.54417478833E+01  0.48835440396E+03  0.48840890186E+03  0.00000000000E+00 0. -1.
         11    1    1    2    0    0 -0.86560769047E+01  0.47274051834E+01 -0.48893862380E+03  0.48903809041E+03  0.00000000000E+00 0.  1.
        -15    1    1    2    0    0 -0.77808000973E+01 -0.39117685365E+01  0.22529845901E+01  0.91693212291E+01  0.17770000000E+01 0.  1.
         15    1    1    2    0    0  0.11576946861E+02 -0.62573845301E+01 -0.16687647562E+01  0.13383686509E+02  0.17770000000E+01 0. -1.
</event>
<event>
 6    1  0.6394569E-004  0.5017723E+03  0.7546771E-02  0.9395853E-01
        -11   -1    0    0    0    0  0.00000000000E+00  0.00000000000E+00  0.50000000000E+03  0.50000000000E+03  0.00000000000E+00 0. -1.
         11   -1    0    0    0    0 -0.00000000000E+00 -0.00000000000E+00 -0.50000000000E+03  0.50000000000E+03  0.00000000000E+00 0. -1.
        -11    1    1    2    0    0 -0.18385448015E+02  0.10662290426E+02  0.42908931894E+03  0.42961535443E+03  0.00000000000E+00 0. -1.
         11    1    1    2    0    0  0.93657294240E+00 -0.77375376268E+01 -0.49816676284E+03  0.49822772931E+03  0.00000000000E+00 0. -1.
        -15    1    1    2    0    0  0.14714810289E+02 -0.35274957881E+01  0.65623134165E+02  0.67368555981E+02  0.17770000000E+01 0. -1.
         15    1    1    2    0    0  0.27340647829E+01  0.60274298872E+00  0.34543097382E+01  0.47883602742E+01  0.17770000000E+01 0.  1.
</event>
<event>
 6    1  0.6394569E-004  0.4898284E+03  0.7546771E-02  0.9422862E-01
        -11   -1    0    0    0    0  0.00000000000E+00  0.00000000000E+00  0.50000000000E+03  0.50000000000E+03  0.00000000000E+00 0. -1.
         11   -1    0    0    0    0 -0.00000000000E+00 -0.00000000000E+00 -0.50000000000E+03  0.50000000000E+03  0.00000000000E+00 0.  1.
        -11    1    1    2    0    0  0.91735585848E+01 -0.10959640711E+01  0.48624145837E+03  0.48632922096E+03  0.00000000000E+00 0. -1.
         11    1    1    2    0    0  0.61272163466E+01  0.42111097980E+01 -0.49342234018E+03  0.49347835009E+03  0.00000000000E+00 0.  1.
        -15    1    1    2    0    0 -0.63391371491E+00 -0.17487488118E+01 -0.15241718639E+01  0.29901166993E+01  0.17770000000E+01 0.  1.
         15    1    1    2    0    0 -0.14666861216E+02 -0.13663969151E+01  0.87050536651E+01  0.17202312251E+02  0.17770000000E+01 0. -1.
</event>
<event>
 6    1  0.6394569E-004  0.5003270E+03  0.7546771E-02  0.9399078E-01
        -11   -1    0    0    0    0  0.00000000000E+00  0.00000000000E+00  0.50000000000E+03  0.50000000000E+03  0.00000000000E+00 0.  1.
         11   -1    0    0    0    0 -0.00000000000E+00 -0.00000000000E+00 -0.50000000000E+03  0.50000000000E+03  0.00000000000E+00 0. -1.
        -11    1    1    2    0    0  0.88518948069E+01  0.82344713913E+01  0.49952675531E+03  0.49967303493E+03  0.00000000000E+00 0.  1.
         11    1    1    2    0    0 -0.10030848892E+02 -0.36264284302E+01 -0.44134706850E+03  0.44147593794E+03  0.00000000000E+00 0. -1.
        -15    1    1    2    0    0  0.33743918342E+01 -0.44404857521E+01 -0.44372505315E+02  0.44756914448E+02  0.17770000000E+01 0.  1.
         15    1    1    2    0    0 -0.21954377492E+01 -0.16755720893E+00 -0.13807181501E+02  0.14094112683E+02  0.17770000000E+01 0. -1.
</event>
<event>
 6    1  0.6394569E-004  0.5014253E+03  0.7546771E-02  0.9396626E-01
        -11   -1    0    0    0    0  0.00000000000E+00  0.00000000000E+00  0.50000000000E+03  0.50000000000E+03  0.00000000000E+00 0. -1.
         11   -1    0    0    0    0 -0.00000000000E+00 -0.00000000000E+00 -0.50000000000E+03  0.50000000000E+03  0.00000000000E+00 0. -1.
        -11    1    1    2    0    0  0.75846067530E+01  0.19168608433E+02  0.12869270415E+03  0.13033331850E+03  0.00000000000E+00 0. -1.
         11    1    1    2    0    0  0.13618993723E+02  0.35479388058E+01 -0.49837599151E+03  0.49857466219E+03  0.00000000000E+00 0. -1.
        -15    1    1    2    0    0 -0.13516341756E+02 -0.11206283037E+02  0.24372595435E+03  0.24436401295E+03  0.17770000000E+01 0. -1.
         15    1    1    2    0    0 -0.76872587200E+01 -0.11510264202E+02  0.12595733301E+03  0.12672800636E+03  0.17770000000E+01 0. -1.
</event>
<event>
 6    1  0.6394569E-004  0.5005956E+03  0.7546771E-02  0.9398478E-01
        -11   -1    0    0    0    0  0.00000000000E+00  0.00000000000E+00  0.50000000000E+03  0.50000000000E+03  0.00000000000E+00 0.  1.
         11   -1    0    0    0    0 -0.00000000000E+00 -0.00000000000E+00 -0.50000000000E+03  0.50000000000E+03  0.00000000000E+00 0. -1.
        -11    1    1    2    0    0 -0.53936299726E+01  0.59713833993E+01  0.49933953052E+03  0.49940436061E+03  0.00000000000E+00 0.  1.
         11    1    1    2    0    0 -0.50408263405E+00  0.85257658008E+01 -0.33840070719E+03  0.33850846579E+03  0.00000000000E+00 0. -1.
        -15    1    1    2    0    0 -0.25617295569E+01 -0.10982165517E+01 -0.25791604864E+02  0.26002560419E+02  0.17770000000E+01 0. -1.
         15    1    1    2    0    0  0.84594421635E+01 -0.13398932648E+02 -0.13514721846E+03  0.13608461318E+03  0.17770000000E+01 0.  1.
</event>
<event>
 6    1  0.6394569E-004  0.5095076E+03  0.7546771E-02  0.9378783E-01
        -11   -1    0    0    0    0  0.00000000000E+00  0.00000000000E+00  0.50000000000E+03  0.50000000000E+03  0.00000000000E+00 0.  1.
         11   -1    0    0    0    0 -0.00000000000E+00 -0.00000000000E+00 -0.50000000000E+03  0.50000000000E+03  0.00000000000E+00 0.  1.
        -11    1    1    2    0    0 -0.26634870373E+02 -0.47928763968E+02  0.48741789622E+03  0.49049239372E+03  0.00000000000E+00 0.  1.
         11    1    1    2    0    0 -0.37530075817E+02  0.20756289069E+01 -0.33111148820E+03  0.33323810173E+03  0.00000000000E+00 0.  1.
        -15    1    1    2    0    0  0.16180988415E+02  0.11079730494E+02 -0.22391702369E+02  0.29818297703E+02  0.17770000000E+01 0.  1.
         15    1    1    2    0    0  0.47983957775E+02  0.34773404567E+02 -0.13391470565E+03  0.14645120685E+03  0.17770000000E+01 0. -1.
</event>
<event>
 6    1  0.6394569E-004  0.5017028E+03  0.7546771E-02  0.9396008E-01
        -11   -1    0    0    0    0  0.00000000000E+00  0.00000000000E+00  0.50000000000E+03  0.50000000000E+03  0.00000000000E+00 0. -1.
         11   -1    0    0    0    0 -0.00000000000E+00 -0.00000000000E+00 -0.50000000000E+03  0.50000000000E+03  0.00000000000E+00 0. -1.
        -11    1    1    2    0    0 -0.75304815291E+01 -0.22512794274E+02  0.49773137222E+03  0.49829715326E+03  0.00000000000E+00 0. -1.
         11    1    1    2    0    0 -0.11713691639E+02  0.11921152256E+01 -0.22453648540E+03  0.22484497990E+03  0.00000000000E+00 0. -1.
        -15    1    1    2    0    0  0.12854204036E+02  0.55084565990E+01 -0.30977908469E+02  0.34034720472E+02  0.17770000000E+01 0.  1.
         15    1    1    2    0    0  0.63899691329E+01  0.15812222449E+02 -0.24221697835E+03  0.24282314637E+03  0.17770000000E+01 0. -1.
</event>
<event>
 6    1  0.6394569E-004  0.5009165E+03  0.7546771E-02  0.9397761E-01
        -11   -1    0    0    0    0  0.00000000000E+00  0.00000000000E+00  0.50000000000E+03  0.50000000000E+03  0.00000000000E+00 0. -1.
         11   -1    0    0    0    0 -0.00000000000E+00 -0.00000000000E+00 -0.50000000000E+03  0.50000000000E+03  0.00000000000E+00 0.  1.
        -11    1    1    2    0    0 -0.55136413417E+02 -0.11416947052E+02  0.49589712648E+03  0.49908349082E+03  0.00000000000E+00 0. -1.
         11    1    1    2    0    0 -0.17885237980E+01  0.59511946978E+01 -0.25228178207E+02  0.25982234534E+02  0.00000000000E+00 0.  1.
        -15    1    1    2    0    0  0.17640784905E+02  0.14777552535E+02 -0.17618799988E+03  0.17769339431E+03  0.17770000000E+01 0. -1.
         15    1    1    2    0    0  0.39284152310E+02 -0.93118001810E+01 -0.29448094839E+03  0.29724088033E+03  0.17770000000E+01 0.  1.
</event>
<event>
 6    1  0.6394569E-004  0.5010471E+03  0.7546771E-02  0.9397470E-01
        -11   -1    0    0    0    0  0.00000000000E+00  0.00000000000E+00  0.50000000000E+03  0.50000000000E+03  0.00000000000E+00 0. -1.
         11   -1    0    0    0    0 -0.00000000000E+00 -0.00000000000E+00 -0.50000000000E+03  0.50000000000E+03  0.00000000000E+00 0.  1.
        -11    1    1    2    0    0 -0.77272194395E+01  0.24094439477E+02  0.49831085327E+03  0.49895286192E+03  0.00000000000E+00 0. -1.
         11    1    1    2    0    0 -0.17231950427E+01 -0.85985827809E+01 -0.41813000126E+03  0.41822195421E+03  0.00000000000E+00 0.  1.
        -15    1    1    2    0    0  0.83517011922E+01 -0.89884781885E+01 -0.35011812996E+02  0.37142003597E+02  0.17770000000E+01 0. -1.
         15    1    1    2    0    0  0.10987132900E+01 -0.65073785073E+01 -0.45169039008E+02  0.45683180273E+02  0.17770000000E+01 0.  1.
</event>
<event>
 6    1  0.6394569E-004  0.5018580E+03  0.7546771E-02  0.9395662E-01
        -11   -1    0    0    0    0  0.00000000000E+00  0.00000000000E+00  0.50000000000E+03  0.50000000000E+03  0.00000000000E+00 0. -1.
         11   -1    0    0    0    0 -0.00000000000E+00 -0.00000000000E+00 -0.50000000000E+03  0.50000000000E+03  0.00000000000E+00 0.  1.
        -11    1    1    2    0    0 -0.19246078912E+03 -0.93951566780E+02  0.38741785302E+03  0.44267442335E+03  0.00000000000E+00 0. -1.
         11    1    1    2    0    0  0.21246199258E+03  0.10588510218E+03 -0.43794262526E+03  0.49814204417E+03  0.00000000000E+00 0.  1.
        -15    1    1    2    0    0 -0.17740200451E+02 -0.36103596831E+00  0.22372683394E+02  0.28610133699E+02  0.17770000000E+01 0.  1.
         15    1    1    2    0    0 -0.22610030084E+01 -0.11572499436E+02  0.28152088839E+02  0.30573398777E+02  0.17770000000E+01 0. -1.
</event>
<event>
 6    1  0.6394569E-004  0.5001682E+03  0.7546771E-02  0.9399433E-01
        -11   -1    0    0    0    0  0.00000000000E+00  0.00000000000E+00  0.50000000000E+03  0.50000000000E+03  0.00000000000E+00 0. -1.
         11   -1    0    0    0    0 -0.00000000000E+00 -0.00000000000E+00 -0.50000000000E+03  0.50000000000E+03  0.00000000000E+00 0.  1.
        -11    1    1    2    0    0 -0.32920828492E+01  0.21681684746E+02  0.49935048384E+03  0.49983181068E+03  0.00000000000E+00 0. -1.
         11    1    1    2    0    0  0.87644880781E+01 -0.10050034499E+02 -0.21432831685E+03  0.21474274574E+03  0.00000000000E+00 0.  1.
        -15    1    1    2    0    0 -0.55274341636E+01 -0.33998689131E+01 -0.11980658424E+03  0.11999536238E+03  0.17770000000E+01 0. -1.
         15    1    1    2    0    0  0.55028934692E-01 -0.82317813340E+01 -0.16521558275E+03  0.16543008120E+03  0.17770000000E+01 0.  1.
</event>
<event>
 6    1  0.6394569E-004  0.5002135E+03  0.7546771E-02  0.9399332E-01
        -11   -1    0    0    0    0  0.00000000000E+00  0.00000000000E+00  0.50000000000E+03  0.50000000000E+03  0.00000000000E+00 0. -1.
         11   -1    0    0    0    0 -0.00000000000E+00 -0.00000000000E+00 -0.50000000000E+03  0.50000000000E+03  0.00000000000E+00 0. -1.
        -11    1    1    2    0    0  0.36753357998E+01 -0.69022971517E+01  0.49972527865E+03  0.49978645832E+03  0.00000000000E+00 0. -1.
         11    1    1    2    0    0  0.37968259588E+01 -0.91271279697E+00 -0.27523782863E+03  0.27526552861E+03  0.00000000000E+00 0. -1.
        -15    1    1    2    0    0  0.17038375124E+01  0.74557285330E+00 -0.31347184274E+02  0.31452545716E+02  0.17770000000E+01 0.  1.
         15    1    1    2    0    0 -0.91759992709E+01  0.70694370954E+01 -0.19314026575E+03  0.19349546735E+03  0.17770000000E+01 0. -1.
</event>
<event>
 6    1  0.6394569E-004  0.4839048E+03  0.7546771E-02  0.9436562E-01
        -11   -1    0    0    0    0  0.00000000000E+00  0.00000000000E+00  0.50000000000E+03  0.50000000000E+03  0.00000000000E+00 0.  1.
         11   -1    0    0    0    0 -0.00000000000E+00 -0.00000000000E+00 -0.50000000000E+03  0.50000000000E+03  0.00000000000E+00 0.  1.
        -11    1    1    2    0    0  0.12897135217E+02 -0.14203458327E+02  0.48689768832E+03  0.48727552085E+03  0.00000000000E+00 0.  1.
         11    1    1    2    0    0 -0.82519150284E+01 -0.10031873152E+02 -0.48069295581E+03  0.48086843351E+03  0.00000000000E+00 0.  1.
        -15    1    1    2    0    0  0.15565233151E+01  0.57029890389E+01 -0.10112439634E+02  0.11847616349E+02  0.17770000000E+01 0.  1.
         15    1    1    2    0    0 -0.62017435036E+01  0.18532342440E+02  0.39077071265E+01  0.20008429293E+02  0.17770000000E+01 0. -1.
</event>
<event>
 6    1  0.6394569E-004  0.5015421E+03  0.7546771E-02  0.9396366E-01
        -11   -1    0    0    0    0  0.00000000000E+00  0.00000000000E+00  0.50000000000E+03  0.50000000000E+03  0.00000000000E+00 0. -1.
         11   -1    0    0    0    0 -0.00000000000E+00 -0.00000000000E+00 -0.50000000000E+03  0.50000000000E+03  0.00000000000E+00 0. -1.
        -11    1    1    2    0    0 -0.31990893183E+01 -0.10588167427E+02  0.49833511814E+03  0.49845785523E+03  0.00000000000E+00 0. -1.
         11    1    1    2    0    0 -0.17731685687E+01  0.69572911308E+01 -0.46934289699E+03  0.46939780888E+03  0.00000000000E+00 0. -1.
        -15    1    1    2    0    0  0.41835898559E+01  0.75715669955E+01 -0.14281635356E+02  0.16791482611E+02  0.17770000000E+01 0. -1.
         15    1    1    2    0    0  0.78866803114E+00 -0.39406906989E+01 -0.14710585800E+02  0.15352853286E+02  0.17770000000E+01 0. -1.
</event>
<event>
 6    1  0.6394569E-004  0.5057421E+03  0.7546771E-02  0.9387052E-01
        -11   -1    0    0    0    0  0.00000000000E+00  0.00000000000E+00  0.50000000000E+03  0.50000000000E+03  0.00000000000E+00 0. -1.
         11   -1    0    0    0    0 -0.00000000000E+00 -0.00000000000E+00 -0.50000000000E+03  0.50000000000E+03  0.00000000000E+00 0.  1.
        -11    1    1    2    0    0  0.12667949376E+02 -0.10080713764E+02  0.47203770643E+03  0.47231524856E+03  0.00000000000E+00 0. -1.
         11    1    1    2    0    0  0.66110062498E+01 -0.12663039528E+01 -0.49421206606E+03  0.49425790350E+03  0.00000000000E+00 0.  1.
        -15    1    1    2    0    0 -0.19674549653E+02  0.10972317415E+02  0.22036076937E+02  0.31563049112E+02  0.17770000000E+01 0.  1.
         15    1    1    2    0    0  0.39559402745E+00  0.37470030221E+00  0.13828269234E+00  0.18637988234E+01  0.17770000000E+01 0.  1.
</event>
<event>
 6    1  0.6394569E-004  0.5003806E+03  0.7546771E-02  0.9398959E-01
        -11   -1    0    0    0    0  0.00000000000E+00  0.00000000000E+00  0.50000000000E+03  0.50000000000E+03  0.00000000000E+00 0.  1.
         11   -1    0    0    0    0 -0.00000000000E+00 -0.00000000000E+00 -0.50000000000E+03  0.50000000000E+03  0.00000000000E+00 0. -1.
        -11    1    1    2    0    0  0.58612543874E+01 -0.12007010310E+02  0.10789122440E+03  0.10871540324E+03  0.00000000000E+00 0.  1.
         11    1    1    2    0    0 -0.96371150534E+01  0.70001843366E+01 -0.49947742534E+03  0.49961943015E+03  0.00000000000E+00 0. -1.
        -15    1    1    2    0    0  0.10938256415E+01  0.22996629127E+00  0.11144544987E+03  0.11146522043E+03  0.17770000000E+01 0.  1.
         15    1    1    2    0    0  0.26820350245E+01  0.47768596824E+01  0.28014075106E+03  0.28019994617E+03  0.17770000000E+01 0.  1.
</event>
<event>
 6    1  0.6394569E-004  0.5005387E+03  0.7546771E-02  0.9398605E-01
        -11   -1    0    0    0    0  0.00000000000E+00  0.00000000000E+00  0.50000000000E+03  0.50000000000E+03  0.00000000000E+00 0. -1.
         11   -1    0    0    0    0 -0.00000000000E+00 -0.00000000000E+00 -0.50000000000E+03  0.50000000000E+03  0.00000000000E+00 0.  1.
        -11    1    1    2    0    0 -0.10334315315E+02 -0.15300178583E+02  0.49911991689E+03  0.49946129477E+03  0.00000000000E+00 0. -1.
         11    1    1    2    0    0  0.69219329193E+01  0.11280637343E+01 -0.34434798231E+03  0.34441939348E+03  0.00000000000E+00 0.  1.
        -15    1    1    2    0    0  0.66768924513E+01  0.10875353040E+02 -0.68294904509E+02  0.69499682787E+02  0.17770000000E+01 0.  1.
         15    1    1    2    0    0 -0.32645100556E+01  0.32967618090E+01 -0.86477030065E+02  0.86619628966E+02  0.17770000000E+01 0. -1.
</event>
<event>
 6    1  0.6394569E-004  0.5043218E+03  0.7546771E-02  0.9390191E-01
        -11   -1    0    0    0    0  0.00000000000E+00  0.00000000000E+00  0.50000000000E+03  0.50000000000E+03  0.00000000000E+00 0.  1.
         11   -1    0    0    0    0 -0.00000000000E+00 -0.00000000000E+00 -0.50000000000E+03  0.50000000000E+03  0.00000000000E+00 0. -1.
        -11    1    1    2    0    0  0.50387834206E+01  0.19593944457E+02  0.47442288132E+03  0.47485406423E+03  0.00000000000E+00 0.  1.
         11    1    1    2    0    0 -0.17174119539E+02 -0.46716140290E+01 -0.49535856217E+03  0.49567820153E+03  0.00000000000E+00 0. -1.
        -15    1    1    2    0    0  0.61929475145E+01 -0.12331935411E+02  0.12708835968E+02  0.18844136238E+02  0.17770000000E+01 0.  1.
         15    1    1    2    0    0  0.59423886041E+01 -0.25903950176E+01  0.82268448865E+01  0.10623598000E+02  0.17770000000E+01 0. -1.
</event>
<event>
 6    1  0.6394569E-004  0.5002366E+03  0.7546771E-02  0.9399280E-01
        -11   -1    0    0    0    0  0.00000000000E+00  0.00000000000E+00  0.50000000000E+03  0.50000000000E+03  0.00000000000E+00 0.  1.
         11   -1    0    0    0    0 -0.00000000000E+00 -0.00000000000E+00 -0.50000000000E+03  0.50000000000E+03  0.00000000000E+00 0. -1.
        -11    1    1    2    0    0  0.15399460621E+02 -0.84907642866E+01  0.49945392037E+03  0.49976339906E+03  0.00000000000E+00 0.  1.
         11    1    1    2    0    0 -0.23205572321E+01 -0.32519881691E+01 -0.19391143830E+03  0.19395258781E+03  0.00000000000E+00 0. -1.
        -15    1    1    2    0    0 -0.10491286660E+01  0.27804961413E+01 -0.14279187581E+03  0.14283385227E+03  0.17770000000E+01 0. -1.
         15    1    1    2    0    0 -0.12029774722E+02  0.89622563145E+01 -0.16275060626E+03  0.16345016086E+03  0.17770000000E+01 0.  1.
</event>
<event>
 6    1  0.6394569E-004  0.5026618E+03  0.7546771E-02  0.9393873E-01
        -11   -1    0    0    0    0  0.00000000000E+00  0.00000000000E+00  0.50000000000E+03  0.50000000000E+03  0.00000000000E+00 0. -1.
         11   -1    0    0    0    0 -0.00000000000E+00 -0.00000000000E+00 -0.50000000000E+03  0.50000000000E+03  0.00000000000E+00 0. -1.
        -11    1    1    2    0    0 -0.77547391527E+01  0.17720486998E+01  0.49727455696E+03  0.49733817583E+03  0.00000000000E+00 0. -1.
         11    1    1    2    0    0  0.16022371876E+01  0.10855326619E+02 -0.47707477457E+03  0.47720094909E+03  0.00000000000E+00 0. -1.
        -15    1    1    2    0    0  0.65581016120E+01 -0.78294754610E+01 -0.13554463381E+02  0.17064307466E+02  0.17770000000E+01 0. -1.
         15    1    1    2    0    0 -0.40559964693E+00 -0.47978998573E+01 -0.66453190099E+01  0.83965676236E+01  0.17770000000E+01 0.  1.
</event>
<event>
 6    1  0.6394569E-004  0.5010221E+03  0.7546771E-02  0.9397526E-01
        -11   -1    0    0    0    0  0.00000000000E+00  0.00000000000E+00  0.50000000000E+03  0.50000000000E+03  0.00000000000E+00 0.  1.
         11   -1    0    0    0    0 -0.00000000000E+00 -0.00000000000E+00 -0.50000000000E+03  0.50000000000E+03  0.00000000000E+00 0. -1.
        -11    1    1    2    0    0  0.60576555786E+01  0.28152387472E+02  0.49814622398E+03  0.49897786783E+03  0.00000000000E+00 0.  1.
         11    1    1    2    0    0 -0.23412736167E+01 -0.70816947099E+01 -0.34328305505E+03  0.34336407478E+03  0.00000000000E+00 0. -1.
        -15    1    1    2    0    0  0.47571174944E+01  0.26233554325E+00 -0.52094290997E+02  0.52341874921E+02  0.17770000000E+01 0. -1.
         15    1    1    2    0    0 -0.84734994563E+01 -0.21333028306E+02 -0.10276887794E+03  0.10531618247E+03  0.17770000000E+01 0.  1.
</event>
<event>
 6    1  0.6394569E-004  0.5009682E+03  0.7546771E-02  0.9397646E-01
        -11   -1    0    0    0    0  0.00000000000E+00  0.00000000000E+00  0.50000000000E+03  0.50000000000E+03  0.00000000000E+00 0.  1.
         11   -1    0    0    0    0 -0.00000000000E+00 -0.00000000000E+00 -0.50000000000E+03  0.50000000000E+03  0.00000000000E+00 0.  1.
        -11    1    1    2    0    0  0.91053422240E+01 -0.78644466536E+01  0.49888669850E+03  0.49903175723E+03  0.00000000000E+00 0.  1.
         11    1    1    2    0    0  0.48948911731E-01 -0.31335716893E+01 -0.11604789742E+03  0.11609020700E+03  0.00000000000E+00 0.  1.
        -15    1    1    2    0    0  0.13061187085E+02  0.23498411834E+01 -0.20542771041E+03  0.20586359147E+03  0.17770000000E+01 0.  1.
         15    1    1    2    0    0 -0.22215478221E+02  0.86481771594E+01 -0.17741109068E+03  0.17901444430E+03  0.17770000000E+01 0. -1.
</event>
<event>
 6    1  0.6394569E-004  0.5013018E+03  0.7546771E-02  0.9396902E-01
        -11   -1    0    0    0    0  0.00000000000E+00  0.00000000000E+00  0.50000000000E+03  0.50000000000E+03  0.00000000000E+00 0. -1.
         11   -1    0    0    0    0 -0.00000000000E+00 -0.00000000000E+00 -0.50000000000E+03  0.50000000000E+03  0.00000000000E+00 0. -1.
        -11    1    1    2    0    0 -0.13390664143E+02 -0.16334588591E+02  0.49825073927E+03  0.49869823326E+03  0.00000000000E+00 0. -1.
         11    1    1    2    0    0  0.76392370679E+01  0.25206327884E+01 -0.40426346801E+03  0.40434349642E+03  0.00000000000E+00 0. -1.
        -15    1    1    2    0    0 -0.48385529653E+01  0.52517003670E+01 -0.57552155473E+02  0.58020688381E+02  0.17770000000E+01 0. -1.
         15    1    1    2    0    0  0.10589980041E+02  0.85622554351E+01 -0.36435115793E+02  0.38937581939E+02  0.17770000000E+01 0.  1.
</event>
<event>
 6    1  0.6394569E-004  0.4832047E+03  0.7546771E-02  0.9438195E-01
        -11   -1    0    0    0    0  0.00000000000E+00  0.00000000000E+00  0.50000000000E+03  0.50000000000E+03  0.00000000000E+00 0.  1.
         11   -1    0    0    0    0 -0.00000000000E+00 -0.00000000000E+00 -0.50000000000E+03  0.50000000000E+03  0.00000000000E+00 0. -1.
        -11    1    1    2    0    0 -0.19959336374E+02 -0.24127807907E+02 -0.20299894947E+02  0.37317716406E+02  0.00000000000E+00 0.  1.
         11    1    1    2    0    0  0.25998794863E+01  0.29100027315E+02 -0.46839030325E+03  0.46930059358E+03  0.00000000000E+00 0. -1.
        -15    1    1    2    0    0 -0.10019257915E+01 -0.30012290600E+02  0.13421913705E+03  0.13754881287E+03  0.17770000000E+01 0. -1.
         15    1    1    2    0    0  0.18361382679E+02  0.25040071192E+02  0.35447106114E+03  0.35583287714E+03  0.17770000000E+01 0.  1.
</event>
<event>
 6    1  0.6394569E-004  0.5030294E+03  0.7546771E-02  0.9393057E-01
        -11   -1    0    0    0    0  0.00000000000E+00  0.00000000000E+00  0.50000000000E+03  0.50000000000E+03  0.00000000000E+00 0. -1.
         11   -1    0    0    0    0 -0.00000000000E+00 -0.00000000000E+00 -0.50000000000E+03  0.50000000000E+03  0.00000000000E+00 0.  1.
        -11    1    1    2    0    0  0.30589953947E+02 -0.16659986589E+02  0.49574843577E+03  0.49697063495E+03  0.00000000000E+00 0. -1.
         11    1    1    2    0    0 -0.32981246166E+01  0.17668841780E+02 -0.40763491044E+03  0.40803098633E+03  0.00000000000E+00 0.  1.
        -15    1    1    2    0    0  0.11091545462E+01 -0.60502166815E+01 -0.20237062608E+02  0.21225733855E+02  0.17770000000E+01 0. -1.
         15    1    1    2    0    0 -0.28400983877E+02  0.50413614902E+01 -0.67876462718E+02  0.73772644869E+02  0.17770000000E+01 0.  1.
</event>
<event>
 6    1  0.6394569E-004  0.5024066E+03  0.7546771E-02  0.9394441E-01
        -11   -1    0    0    0    0  0.00000000000E+00  0.00000000000E+00  0.50000000000E+03  0.50000000000E+03  0.00000000000E+00 0.  1.
         11   -1    0    0    0    0 -0.00000000000E+00 -0.00000000000E+00 -0.50000000000E+03  0.50000000000E+03  0.00000000000E+00 0. -1.
        -11    1    1    2    0    0 -0.11151562243E+02  0.10356193052E+02  0.49736066093E+03  0.49759344361E+03  0.00000000000E+00 0.  1.
         11    1    1    2    0    0  0.20978813282E+01  0.59409590011E+01 -0.40108355684E+03  0.40113303986E+03  0.00000000000E+00 0. -1.
        -15    1    1    2    0    0 -0.55427978182E+01 -0.41028188141E+01 -0.58592831536E+02  0.59024006695E+02  0.17770000000E+01 0. -1.
         15    1    1    2    0    0  0.14596478733E+02 -0.12194333239E+02 -0.37684272554E+02  0.42249509837E+02  0.17770000000E+01 0.  1.
</event>
<event>
 6    1  0.6394569E-004  0.5019369E+03  0.7546771E-02  0.9395486E-01
        -11   -1    0    0    0    0  0.00000000000E+00  0.00000000000E+00  0.50000000000E+03  0.50000000000E+03  0.00000000000E+00 0.  1.
         11   -1    0    0    0    0 -0.00000000000E+00 -0.00000000000E+00 -0.50000000000E+03  0.50000000000E+03  0.00000000000E+00 0.  1.
        -11    1    1    2    0    0  0.24150504683E+02  0.78441839328E+01  0.36550630040E+03  0.36638727288E+03  0.00000000000E+00 0.  1.
         11    1    1    2    0    0  0.29521672058E+01 -0.11832349910E+02 -0.49791382102E+03  0.49806314154E+03  0.00000000000E+00 0.  1.
        -15    1    1    2    0    0 -0.19108124640E+02  0.14522386215E+00  0.10333956431E+03  0.10510644508E+03  0.17770000000E+01 0.  1.
         15    1    1    2    0    0 -0.79945472492E+01  0.38429421148E+01  0.29067956310E+02  0.30443140489E+02  0.17770000000E+01 0. -1.
</event>
<event>
 6    1  0.6394569E-004  0.4939326E+03  0.7546771E-02  0.9413489E-01
        -11   -1    0    0    0    0  0.00000000000E+00  0.00000000000E+00  0.50000000000E+03  0.50000000000E+03  0.00000000000E+00 0.  1.
         11   -1    0    0    0    0 -0.00000000000E+00 -0.00000000000E+00 -0.50000000000E+03  0.50000000000E+03  0.00000000000E+00 0. -1.
        -11    1    1    2    0    0 -0.55049308230E+01  0.55083996862E+01  0.49370175275E+03  0.49376316935E+03  0.00000000000E+00 0.  1.
         11    1    1    2    0    0 -0.24861780594E+01 -0.91655078585E+01 -0.49404998883E+03  0.49414125417E+03  0.00000000000E+00 0. -1.
        -15    1    1    2    0    0  0.57955718775E+01  0.15132666155E+01  0.36621715726E+01  0.72420893991E+01  0.17770000000E+01 0. -1.
         15    1    1    2    0    0  0.21955370048E+01  0.21438415568E+01 -0.33139354990E+01  0.48534870817E+01  0.17770000000E+01 0.  1.
</event>
<event>
 6    1  0.6394569E-004  0.5002383E+03  0.7546771E-02  0.9399277E-01
        -11   -1    0    0    0    0  0.00000000000E+00  0.00000000000E+00  0.50000000000E+03  0.50000000000E+03  0.00000000000E+00 0. -1.
         11   -1    0    0    0    0 -0.00000000000E+00 -0.00000000000E+00 -0.50000000000E+03  0.50000000000E+03  0.00000000000E+00 0. -1.
        -11    1    1    2    0    0 -0.82311548608E+01 -0.19442199994E+01  0.49969015796E+03  0.49976172909E+03  0.00000000000E+00 0. -1.
         11    1    1    2    0    0  0.79066528003E+01  0.26806863035E+00 -0.33651529105E+03  0.33660827103E+03  0.00000000000E+00 0. -1.
        -15    1    1    2    0    0  0.45345453172E+01  0.31822946153E+01 -0.47476782056E+02  0.47831910516E+02  0.17770000000E+01 0.  1.
         15    1    1    2    0    0 -0.42100432566E+01 -0.15061432462E+01 -0.11569808486E+03  0.11579808936E+03  0.17770000000E+01 0. -1.
</event>
<event>
 6    1  0.6394569E-004  0.5001721E+03  0.7546771E-02  0.9399425E-01
        -11   -1    0    0    0    0  0.00000000000E+00  0.00000000000E+00  0.50000000000E+03  0.50000000000E+03  0.00000000000E+00 0.  1.
         11   -1    0    0    0    0 -0.00000000000E+00 -0.00000000000E+00 -0.50000000000E+03  0.50000000000E+03  0.00000000000E+00 0.  1.
        -11    1    1    2    0    0 -0.40694507133E+01  0.77087396408E+00  0.28636467742E+02  0.28934442461E+02  0.00000000000E+00 0.  1.
         11    1    1    2    0    0  0.38727459687E+01  0.81062507825E+01 -0.49974711306E+03  0.49982785684E+03  0.00000000000E+00 0.  1.
        -15    1    1    2    0    0  0.12070082921E+01 -0.68588924287E+01  0.40612841166E+03  0.40619200603E+03  0.17770000000E+01 0.  1.
         15    1    1    2    0    0 -0.10103035474E+01 -0.20182323179E+01  0.64982233656E+02  0.65045694668E+02  0.17770000000E+01 0.  1.
</event>
<event>
 6    1  0.6394569E-004  0.5057128E+03  0.7546771E-02  0.9387117E-01
        -11   -1    0    0    0    0  0.00000000000E+00  0.00000000000E+00  0.50000000000E+03  0.50000000000E+03  0.00000000000E+00 0. -1.
         11   -1    0    0    0    0 -0.00000000000E+00 -0.00000000000E+00 -0.50000000000E+03  0.50000000000E+03  0.00000000000E+00 0. -1.
        -11    1    1    2    0    0 -0.17542476217E+02  0.17035421505E+02  0.28189453141E+02  0.37317413174E+02  0.00000000000E+00 0. -1.
         11    1    1    2    0    0  0.73995265724E+01 -0.75869753764E+00 -0.49423118720E+03  0.49428715846E+03  0.00000000000E+00 0. -1.
        -15    1    1    2    0    0 -0.41286252408E+01 -0.22235082419E+02  0.39579093325E+03  0.39644049365E+03  0.17770000000E+01 0. -1.
         15    1    1    2    0    0  0.14271574885E+02  0.59583584520E+01  0.70250800814E+02  0.71954934711E+02  0.17770000000E+01 0.  1.
</event>
<event>
 6    1  0.6394569E-004  0.5018988E+03  0.7546771E-02  0.9395571E-01
        -11   -1    0    0    0    0  0.00000000000E+00  0.00000000000E+00  0.50000000000E+03  0.50000000000E+03  0.00000000000E+00 0. -1.
         11   -1    0    0    0    0 -0.00000000000E+00 -0.00000000000E+00 -0.50000000000E+03  0.50000000000E+03  0.00000000000E+00 0.  1.
        -11    1    1    2    0    0  0.10189400106E+02  0.10641296917E+02  0.35514084983E+03  0.35544631703E+03  0.00000000000E+00 0. -1.
         11    1    1    2    0    0  0.46412976168E+01  0.10501563633E+02 -0.49796884197E+03  0.49810118656E+03  0.00000000000E+00 0.  1.
        -15    1    1    2    0    0 -0.17527314299E+02 -0.12534456427E+02  0.11826455235E+03  0.12022471217E+03  0.17770000000E+01 0.  1.
         15    1    1    2    0    0  0.26966165762E+01 -0.86084041233E+01  0.24563439792E+02  0.26227784236E+02  0.17770000000E+01 0. -1.
</event>
<event>
 6    1  0.6394569E-004  0.5020959E+03  0.7546771E-02  0.9395132E-01
        -11   -1    0    0    0    0  0.00000000000E+00  0.00000000000E+00  0.50000000000E+03  0.50000000000E+03  0.00000000000E+00 0.  1.
         11   -1    0    0    0    0 -0.00000000000E+00 -0.00000000000E+00 -0.50000000000E+03  0.50000000000E+03  0.00000000000E+00 0.  1.
        -11    1    1    2    0    0 -0.63271399603E+01  0.39099762419E+01  0.47387710444E+03  0.47393547106E+03  0.00000000000E+00 0.  1.
         11    1    1    2    0    0 -0.69902388960E+01 -0.78608224395E+00 -0.49785444005E+03  0.49790413218E+03  0.00000000000E+00 0.  1.
        -15    1    1    2    0    0  0.72414081674E+01 -0.30934109493E+01  0.10278432931E+02  0.13069471912E+02  0.17770000000E+01 0.  1.
         15    1    1    2    0    0  0.60759706889E+01 -0.30483048693E-01  0.13698902684E+02  0.15090924848E+02  0.17770000000E+01 0. -1.
</event>
<event>
 6    1  0.6394569E-004  0.5003114E+03  0.7546771E-02  0.9399113E-01
        -11   -1    0    0    0    0  0.00000000000E+00  0.00000000000E+00  0.50000000000E+03  0.50000000000E+03  0.00000000000E+00 0.  1.
         11   -1    0    0    0    0 -0.00000000000E+00 -0.00000000000E+00 -0.50000000000E+03  0.50000000000E+03  0.00000000000E+00 0.  1.
        -11    1    1    2    0    0 -0.17576146821E+02 -0.36572683633E+02  0.49803835877E+03  0.49968859195E+03  0.00000000000E+00 0.  1.
         11    1    1    2    0    0  0.96056433118E+01  0.18490360651E+02 -0.13078550964E+03  0.13243493252E+03  0.00000000000E+00 0.  1.
        -15    1    1    2    0    0  0.75231848325E+01  0.17741754371E+02 -0.31796378435E+03  0.31855218418E+03  0.17770000000E+01 0.  1.
         15    1    1    2    0    0  0.44731867716E+00  0.34056861007E+00 -0.49289064783E+02  0.49324291350E+02  0.17770000000E+01 0.  1.
</event>
<event>
 6    1  0.6394569E-004  0.5027934E+03  0.7546771E-02  0.9393581E-01
        -11   -1    0    0    0    0  0.00000000000E+00  0.00000000000E+00  0.50000000000E+03  0.50000000000E+03  0.00000000000E+00 0.  1.
         11   -1    0    0    0    0 -0.00000000000E+00 -0.00000000000E+00 -0.50000000000E+03  0.50000000000E+03  0.00000000000E+00 0.  1.
        -11    1    1    2    0    0 -0.16418555054E+02  0.69011806545E+01  0.39858523849E+03  0.39898294147E+03  0.00000000000E+00 0.  1.
         11    1    1    2    0    0 -0.83966084758E+01  0.76477776681E+01 -0.49707682376E+03  0.49720655693E+03  0.00000000000E+00 0.  1.
        -15    1    1    2    0    0  0.20120472521E+02 -0.13729524917E+02  0.93671774824E+02  0.96803369759E+02  0.17770000000E+01 0.  1.
         15    1    1    2    0    0  0.46946910097E+01 -0.81943340541E+00  0.48198104508E+01  0.70071318358E+01  0.17770000000E+01 0. -1.
</event>
<event>
 6    1  0.6394569E-004  0.5003669E+03  0.7546771E-02  0.9398989E-01
        -11   -1    0    0    0    0  0.00000000000E+00  0.00000000000E+00  0.50000000000E+03  0.50000000000E+03  0.00000000000E+00 0.  1.
         11   -1    0    0    0    0 -0.00000000000E+00 -0.00000000000E+00 -0.50000000000E+03  0.50000000000E+03  0.00000000000E+00 0. -1.
        -11    1    1    2    0    0  0.60319635092E+01  0.45687792945E+01  0.28464467557E+03  0.28474523641E+03  0.00000000000E+00 0.  1.
         11    1    1    2    0    0  0.14879624725E+01  0.76026166863E+01 -0.49957298939E+03  0.49963305089E+03  0.00000000000E+00 0. -1.
        -15    1    1    2    0    0 -0.20515751338E+01 -0.44753848152E+01  0.30691843660E+02  0.31134948627E+02  0.17770000000E+01 0. -1.
         15    1    1    2    0    0 -0.54683508479E+01 -0.76960111657E+01  0.18423647016E+03  0.18448676407E+03  0.17770000000E+01 0.  1.
</event>
<event>
 6    1  0.6394569E-004  0.5061318E+03  0.7546771E-02  0.9386193E-01
        -11   -1    0    0    0    0  0.00000000000E+00  0.00000000000E+00  0.50000000000E+03  0.50000000000E+03  0.00000000000E+00 0.  1.
         11   -1    0    0    0    0 -0.00000000000E+00 -0.00000000000E+00 -0.50000000000E+03  0.50000000000E+03  0.00000000000E+00 0. -1.
        -11    1    1    2    0    0  0.53307496121E+01  0.24047133322E+02  0.49325362529E+03  0.49386822167E+03  0.00000000000E+00 0.  1.
         11    1    1    2    0    0 -0.89146072818E+01 -0.54971080910E+01 -0.48054405152E+03  0.48065816738E+03  0.00000000000E+00 0. -1.
        -15    1    1    2    0    0  0.38357651402E+01 -0.67996609166E+01  0.88315488515E-01  0.80071225429E+01  0.17770000000E+01 0. -1.
         15    1    1    2    0    0 -0.25190747058E+00 -0.11750364314E+02 -0.12797889261E+02  0.17466488412E+02  0.17770000000E+01 0.  1.
</event>
<event>
 6    1  0.6394569E-004  0.5000812E+03  0.7546771E-02  0.9399628E-01
        -11   -1    0    0    0    0  0.00000000000E+00  0.00000000000E+00  0.50000000000E+03  0.50000000000E+03  0.00000000000E+00 0. -1.
         11   -1    0    0    0    0 -0.00000000000E+00 -0.00000000000E+00 -0.50000000000E+03  0.50000000000E+03  0.00000000000E+00 0.  1.
        -11    1    1    2    0    0  0.68226816269E+01 -0.13913827681E+02  0.49967851049E+03  0.49991875083E+03  0.00000000000E+00 0. -1.
         11    1    1    2    0    0 -0.30251237098E+01  0.66692835421E+01 -0.35916582944E+03  0.35924048179E+03  0.00000000000E+00 0.  1.
        -15    1    1    2    0    0 -0.13378398967E+01  0.43564644455E+01 -0.52167055957E+02  0.52395878219E+02  0.17770000000E+01 0. -1.
         15    1    1    2    0    0 -0.24597180204E+01  0.28880796931E+01 -0.88345625093E+02  0.88444889163E+02  0.17770000000E+01 0.  1.
</event>
<event>
 6    1  0.6394569E-004  0.5020240E+03  0.7546771E-02  0.9395292E-01
        -11   -1    0    0    0    0  0.00000000000E+00  0.00000000000E+00  0.50000000000E+03  0.50000000000E+03  0.00000000000E+00 0. -1.
         11   -1    0    0    0    0 -0.00000000000E+00 -0.00000000000E+00 -0.50000000000E+03  0.50000000000E+03  0.00000000000E+00 0.  1.
        -11    1    1    2    0    0 -0.23695292864E+02  0.18343383025E+01  0.49740854315E+03  0.49797599390E+03  0.00000000000E+00 0. -1.
         11    1    1    2    0    0  0.46134610849E+01 -0.49397757929E+01 -0.40236742565E+03  0.40242419240E+03  0.00000000000E+00 0.  1.
        -15    1    1    2    0    0 -0.52779324980E+00 -0.58813563298E+01 -0.39712485638E+02  0.40188408311E+02  0.17770000000E+01 0.  1.
         15    1    1    2    0    0  0.19609625029E+02  0.89867938202E+01 -0.55328631868E+02  0.59411405389E+02  0.17770000000E+01 0. -1.
</event>
<event>
 6    1  0.6394569E-004  0.5062245E+03  0.7546771E-02  0.9385989E-01
        -11   -1    0    0    0    0  0.00000000000E+00  0.00000000000E+00  0.50000000000E+03  0.50000000000E+03  0.00000000000E+00 0. -1.
         11   -1    0    0    0    0 -0.00000000000E+00 -0.00000000000E+00 -0.50000000000E+03  0.50000000000E+03  0.00000000000E+00 0. -1.
        -11    1    1    2    0    0  0.18995386482E+02  0.97712914487E+01  0.49331321056E+03  0.49377548193E+03  0.00000000000E+00 0. -1.
         11    1    1    2    0    0  0.49658492926E+01 -0.63784084642E+01 -0.47229950352E+03  0.47236867464E+03  0.00000000000E+00 0. -1.
        -15    1    1    2    0    0 -0.57968230871E+01  0.73877646771E+00 -0.56005834667E+00  0.61335424450E+01  0.17770000000E+01 0.  1.
         15    1    1    2    0    0 -0.18164412688E+02 -0.41316594522E+01 -0.20453648694E+02  0.27722300987E+02  0.17770000000E+01 0. -1.
</event>
<event>
 6    1  0.6394569E-004  0.5184218E+03  0.7546771E-02  0.9359508E-01
        -11   -1    0    0    0    0  0.00000000000E+00  0.00000000000E+00  0.50000000000E+03  0.50000000000E+03  0.00000000000E+00 0.  1.
         11   -1    0    0    0    0 -0.00000000000E+00 -0.00000000000E+00 -0.50000000000E+03  0.50000000000E+03  0.00000000000E+00 0.  1.
        -11    1    1    2    0    0  0.51087675468E+02 -0.30339078044E+02  0.47789873419E+03  0.48157824949E+03  0.00000000000E+00 0.  1.
         11    1    1    2    0    0  0.71449707032E+01 -0.98929396177E+01 -0.42108550027E+03  0.42126229288E+03  0.00000000000E+00 0.  1.
        -15    1    1    2    0    0 -0.59666772959E+02  0.39128357863E+02 -0.59889691233E+02  0.93172340474E+02  0.17770000000E+01 0.  1.
         15    1    1    2    0    0  0.14341267875E+01  0.11036597981E+01  0.30764573152E+01  0.39871171546E+01  0.17770000000E+01 0. -1.
</event>
<event>
 6    1  0.6394569E-004  0.5042394E+03  0.7546771E-02  0.9390373E-01
        -11   -1    0    0    0    0  0.00000000000E+00  0.00000000000E+00  0.50000000000E+03  0.50000000000E+03  0.00000000000E+00 0. -1.
         11   -1    0    0    0    0 -0.00000000000E+00 -0.00000000000E+00 -0.50000000000E+03  0.50000000000E+03  0.00000000000E+00 0.  1.
        -11    1    1    2    0    0 -0.11612167348E+02 -0.60682341213E+02  0.16802910518E+03  0.17902784463E+03  0.00000000000E+00 0. -1.
         11    1    1    2    0    0  0.35694922228E+01  0.52479858162E+02 -0.49296218400E+03  0.49576061930E+03  0.00000000000E+00 0.  1.
        -15    1    1    2    0    0  0.18714578096E+01  0.23348420091E+01  0.41722071622E+02  0.41866965868E+02  0.17770000000E+01 0. -1.
         15    1    1    2    0    0  0.61712173158E+01  0.58676410415E+01  0.28321100720E+03  0.28334457020E+03  0.17770000000E+01 0. -1.
</event>
<event>
 6    1  0.6394569E-004  0.5006210E+03  0.7546771E-02  0.9398421E-01
        -11   -1    0    0    0    0  0.00000000000E+00  0.00000000000E+00  0.50000000000E+03  0.50000000000E+03  0.00000000000E+00 0. -1.
         11   -1    0    0    0    0 -0.00000000000E+00 -0.00000000000E+00 -0.50000000000E+03  0.50000000000E+03  0.00000000000E+00 0.  1.
        -11    1    1    2    0    0  0.88180411766E+01 -0.18929022671E+02  0.36244014441E+03  0.36304121533E+03  0.00000000000E+00 0. -1.
         11    1    1    2    0    0  0.46307514202E+01  0.20027423491E+02 -0.49895573205E+03  0.49937897843E+03  0.00000000000E+00 0.  1.
        -15    1    1    2    0    0 -0.73584318687E+01 -0.64822117773E+00  0.11183776770E+03  0.11209554283E+03  0.17770000000E+01 0. -1.
         15    1    1    2    0    0 -0.60903607281E+01 -0.45017964165E+00  0.24677819937E+02  0.25484263406E+02  0.17770000000E+01 0.  1.
</event>
<event>
 6    1  0.9532032E-004  0.5000346E+03  0.7546771E-02  0.9399732E-01
        -11   -1    0    0    0    0  0.00000000000E+00  0.00000000000E+00  0.50000000000E+03  0.50000000000E+03  0.00000000000E+00 0.  1.
         11   -1    0    0    0    0 -0.00000000000E+00 -0.00000000000E+00 -0.50000000000E+03  0.50000000000E+03  0.00000000000E+00 0.  1.
        -11    1    1    2    0    0 -0.95866384687E+01 -0.72394244330E+01  0.49982101547E+03  0.49996535921E+03  0.00000000000E+00 0.  1.
         11    1    1    2    0    0 -0.18771051953E+00 -0.97794161707E+00 -0.42231676893E+02  0.42243415324E+02  0.00000000000E+00 0.  1.
        -15    1    1    2    0    0  0.36105125815E+01  0.33971968894E+01 -0.13629398720E+03  0.13639569430E+03  0.17770000000E+01 0. -1.
         15    1    1    2    0    0  0.61638364068E+01  0.48201691607E+01 -0.32129535138E+03  0.32139553117E+03  0.17770000000E+01 0.  1.
</event>
<event>
 6    1  0.6394569E-004  0.5037516E+03  0.7546771E-02  0.9391454E-01
        -11   -1    0    0    0    0  0.00000000000E+00  0.00000000000E+00  0.50000000000E+03  0.50000000000E+03  0.00000000000E+00 0.  1.
         11   -1    0    0    0    0 -0.00000000000E+00 -0.00000000000E+00 -0.50000000000E+03  0.50000000000E+03  0.00000000000E+00 0.  1.
        -11    1    1    2    0    0 -0.96676936124E+01 -0.66293820215E+01  0.49610996265E+03  0.49624843380E+03  0.00000000000E+00 0.  1.
         11    1    1    2    0    0  0.48006406024E+01 -0.95973276945E+01 -0.47577817415E+03  0.47589917614E+03  0.00000000000E+00 0.  1.
        -15    1    1    2    0    0  0.15402130891E+01  0.57496425691E+01 -0.22304257083E+01  0.66002404405E+01  0.17770000000E+01 0. -1.
         15    1    1    2    0    0  0.33268399209E+01  0.10477067147E+02 -0.18101362788E+02  0.21252149624E+02  0.17770000000E+01 0.  1.
</event>
<event>
 6    1  0.6394569E-004  0.5028945E+03  0.7546771E-02  0.9393356E-01
        -11   -1    0    0    0    0  0.00000000000E+00  0.00000000000E+00  0.50000000000E+03  0.50000000000E+03  0.00000000000E+00 0. -1.
         11   -1    0    0    0    0 -0.00000000000E+00 -0.00000000000E+00 -0.50000000000E+03  0.50000000000E+03  0.00000000000E+00 0. -1.
        -11    1    1    2    0    0  0.10896385352E+02  0.10204908481E+02  0.42479368832E+03  0.42505593633E+03  0.00000000000E+00 0. -1.
         11    1    1    2    0    0  0.61733874691E+01  0.33617929531E+01 -0.49705582136E+03  0.49710552392E+03  0.00000000000E+00 0. -1.
        -15    1    1    2    0    0 -0.17197650153E+02 -0.69292888704E+01  0.65870569288E+02  0.68453369839E+02  0.17770000000E+01 0.  1.
         15    1    1    2    0    0  0.12787733107E+00 -0.66374125635E+01  0.63915637508E+01  0.93851699148E+01  0.17770000000E+01 0. -1.
</event>
<event>
 6    1  0.6394569E-004  0.4883136E+03  0.7546771E-02  0.9426345E-01
        -11   -1    0    0    0    0  0.00000000000E+00  0.00000000000E+00  0.50000000000E+03  0.50000000000E+03  0.00000000000E+00 0.  1.
         11   -1    0    0    0    0 -0.00000000000E+00 -0.00000000000E+00 -0.50000000000E+03  0.50000000000E+03  0.00000000000E+00 0. -1.
        -11    1    1    2    0    0 -0.39590282152E+01  0.19640419617E+02  0.11656738494E+02  0.23179722592E+02  0.00000000000E+00 0.  1.
         11    1    1    2    0    0 -0.31418296457E+02 -0.81647729511E+01 -0.49294578603E+03  0.49401348244E+03  0.00000000000E+00 0. -1.
        -15    1    1    2    0    0  0.19154614359E+02 -0.82723014897E+01  0.22220165656E+03  0.22318616474E+03  0.17770000000E+01 0.  1.
         15    1    1    2    0    0  0.16222710314E+02 -0.32033451756E+01  0.25908739098E+03  0.25962063023E+03  0.17770000000E+01 0.  1.
</event>
<event>
 6    1  0.6394569E-004  0.4713098E+03  0.7546771E-02  0.9466398E-01
        -11   -1    0    0    0    0  0.00000000000E+00  0.00000000000E+00  0.50000000000E+03  0.50000000000E+03  0.00000000000E+00 0. -1.
         11   -1    0    0    0    0 -0.00000000000E+00 -0.00000000000E+00 -0.50000000000E+03  0.50000000000E+03  0.00000000000E+00 0. -1.
        -11    1    1    2    0    0 -0.23432495321E+02 -0.10524322143E+02  0.47788978357E+03  0.47857965736E+03  0.00000000000E+00 0. -1.
         11    1    1    2    0    0 -0.14892032501E+02 -0.20573545085E+02 -0.46472942082E+03  0.46542290228E+03  0.00000000000E+00 0. -1.
        -15    1    1    2    0    0  0.87705134441E+01  0.31313326120E+01 -0.11947244078E+02  0.15251934961E+02  0.17770000000E+01 0.  1.
         15    1    1    2    0    0  0.29554014378E+02  0.27966534616E+02 -0.12131186693E+01  0.40745505399E+02  0.17770000000E+01 0. -1.
</event>
<event>
 6    1  0.6394569E-004  0.5001201E+03  0.7546771E-02  0.9399541E-01
        -11   -1    0    0    0    0  0.00000000000E+00  0.00000000000E+00  0.50000000000E+03  0.50000000000E+03  0.00000000000E+00 0. -1.
         11   -1    0    0    0    0 -0.00000000000E+00 -0.00000000000E+00 -0.50000000000E+03  0.50000000000E+03  0.00000000000E+00 0.  1.
        -11    1    1    2    0    0  0.43854654880E+01  0.23633351911E+01  0.96859124482E+02  0.96987152016E+02  0.00000000000E+00 0. -1.
         11    1    1    2    0    0 -0.11939263900E+02  0.44557288658E+01 -0.49971740360E+03  0.49987986857E+03  0.00000000000E+00 0.  1.
        -15    1    1    2    0    0  0.73323099575E+01  0.10710438456E-01  0.16934086611E+03  0.16950884799E+03  0.17770000000E+01 0.  1.
         15    1    1    2    0    0  0.22148845434E+00 -0.68297744954E+01  0.23351741300E+03  0.23362413142E+03  0.17770000000E+01 0. -1.
</event>
<event>
 6    1  0.6394569E-004  0.4884168E+03  0.7546771E-02  0.9426108E-01
        -11   -1    0    0    0    0  0.00000000000E+00  0.00000000000E+00  0.50000000000E+03  0.50000000000E+03  0.00000000000E+00 0. -1.
         11   -1    0    0    0    0 -0.00000000000E+00 -0.00000000000E+00 -0.50000000000E+03  0.50000000000E+03  0.00000000000E+00 0.  1.
        -11    1    1    2    0    0 -0.70212983352E+01  0.12341111640E+02  0.49158656478E+03  0.49179157408E+03  0.00000000000E+00 0. -1.
         11    1    1    2    0    0 -0.91653436704E+01 -0.40716251528E+00 -0.48518318831E+03  0.48526992027E+03  0.00000000000E+00 0.  1.
        -15    1    1    2    0    0  0.87054699333E+01 -0.73285392179E+01 -0.77397978117E+01  0.13876414991E+02  0.17770000000E+01 0. -1.
         15    1    1    2    0    0  0.74811720723E+01 -0.46054099065E+01  0.13364213406E+01  0.90620906518E+01  0.17770000000E+01 0.  1.
</event>
<event>
 6    1  0.6394569E-004  0.5009323E+03  0.7546771E-02  0.9397726E-01
        -11   -1    0    0    0    0  0.00000000000E+00  0.00000000000E+00  0.50000000000E+03  0.50000000000E+03  0.00000000000E+00 0. -1.
         11   -1    0    0    0    0 -0.00000000000E+00 -0.00000000000E+00 -0.50000000000E+03  0.50000000000E+03  0.00000000000E+00 0.  1.
        -11    1    1    2    0    0  0.68238922637E+01 -0.19698224989E+01  0.49901720432E+03  0.49906774682E+03  0.00000000000E+00 0. -1.
         11    1    1    2    0    0  0.98735799370E+01 -0.11308025470E+01 -0.41138208636E+03  0.41150211090E+03  0.00000000000E+00 0.  1.
        -15    1    1    2    0    0 -0.13465281151E+02  0.12437110638E+01 -0.64021412608E+02  0.65458075247E+02  0.17770000000E+01 0. -1.
         15    1    1    2    0    0 -0.32321910492E+01  0.18569139821E+01 -0.23613705352E+02  0.23972067035E+02  0.17770000000E+01 0.  1.
</event>
<event>
 6    1  0.6394569E-004  0.5003273E+03  0.7546771E-02  0.9399078E-01
        -11   -1    0    0    0    0  0.00000000000E+00  0.00000000000E+00  0.50000000000E+03  0.50000000000E+03  0.00000000000E+00 0. -1.
         11   -1    0    0    0    0 -0.00000000000E+00 -0.00000000000E+00 -0.50000000000E+03  0.50000000000E+03  0.00000000000E+00 0. -1.
        -11    1    1    2    0    0 -0.89067455779E+01 -0.94547131734E+00  0.49959243990E+03  0.49967272293E+03  0.00000000000E+00 0. -1.
         11    1    1    2    0    0  0.50252589224E+01  0.51197758441E+01 -0.42369019419E+03  0.42375092447E+03  0.00000000000E+00 0. -1.
        -15    1    1    2    0    0  0.16428817233E+01 -0.30860054736E+01 -0.12508617402E+02  0.13108994182E+02  0.17770000000E+01 0. -1.
         15    1    1    2    0    0  0.22386049322E+01 -0.10882990532E+01 -0.63393628303E+02  0.63467358424E+02  0.17770000000E+01 0.  1.
</event>
<event>
 6    1  0.6394569E-004  0.5013828E+03  0.7546771E-02  0.9396721E-01
        -11   -1    0    0    0    0  0.00000000000E+00  0.00000000000E+00  0.50000000000E+03  0.50000000000E+03  0.00000000000E+00 0.  1.
         11   -1    0    0    0    0 -0.00000000000E+00 -0.00000000000E+00 -0.50000000000E+03  0.50000000000E+03  0.00000000000E+00 0.  1.
        -11    1    1    2    0    0  0.15804243605E+02 -0.97536627366E+01  0.61177520450E+02  0.63934318336E+02  0.00000000000E+00 0.  1.
         11    1    1    2    0    0 -0.90896023232E+01  0.11579142637E+02 -0.49839981477E+03  0.49861716053E+03  0.00000000000E+00 0.  1.
        -15    1    1    2    0    0 -0.15339135065E+01 -0.33126269303E+01  0.44403410206E+02  0.44588641544E+02  0.17770000000E+01 0. -1.
         15    1    1    2    0    0 -0.51807277755E+01  0.14871470296E+01  0.39281888411E+03  0.39285987959E+03  0.17770000000E+01 0.  1.
</event>
<event>
 6    1  0.6394569E-004  0.5037176E+03  0.7546771E-02  0.9391530E-01
        -11   -1    0    0    0    0  0.00000000000E+00  0.00000000000E+00  0.50000000000E+03  0.50000000000E+03  0.00000000000E+00 0.  1.
         11   -1    0    0    0    0 -0.00000000000E+00 -0.00000000000E+00 -0.50000000000E+03  0.50000000000E+03  0.00000000000E+00 0.  1.
        -11    1    1    2    0    0  0.26195180028E+02  0.26380759946E+01  0.41419555829E+03  0.41503145352E+03  0.00000000000E+00 0.  1.
         11    1    1    2    0    0  0.89869523677E+00  0.13141284188E+02 -0.49610759893E+03  0.49628243040E+03  0.00000000000E+00 0.  1.
        -15    1    1    2    0    0 -0.18621418362E+02 -0.41062315925E+01  0.40544652054E+02  0.44840215196E+02  0.17770000000E+01 0.  1.
         15    1    1    2    0    0 -0.84724569024E+01 -0.11673128590E+02  0.41367388587E+02  0.43845900887E+02  0.17770000000E+01 0. -1.
</event>
<event>
 6    1  0.6394569E-004  0.5040380E+03  0.7546771E-02  0.9390819E-01
        -11   -1    0    0    0    0  0.00000000000E+00  0.00000000000E+00  0.50000000000E+03  0.50000000000E+03  0.00000000000E+00 0. -1.
         11   -1    0    0    0    0 -0.00000000000E+00 -0.00000000000E+00 -0.50000000000E+03  0.50000000000E+03  0.00000000000E+00 0.  1.
        -11    1    1    2    0    0 -0.74347647296E+01 -0.50380190473E+01  0.47698364536E+03  0.47706818727E+03  0.00000000000E+00 0. -1.
         11    1    1    2    0    0  0.72180133283E+01  0.33859106950E-01 -0.49590944175E+03  0.49596196959E+03  0.00000000000E+00 0.  1.
        -15    1    1    2    0    0 -0.37654625353E+01  0.32676371845E+01 -0.18985871230E+01  0.56230350290E+01  0.17770000000E+01 0. -1.
         15    1    1    2    0    0  0.39822139365E+01  0.17365227559E+01  0.20824383507E+02  0.21346808112E+02  0.17770000000E+01 0.  1.
</event>
<event>
 6    1  0.6394569E-004  0.5017713E+03  0.7546771E-02  0.9395855E-01
        -11   -1    0    0    0    0  0.00000000000E+00  0.00000000000E+00  0.50000000000E+03  0.50000000000E+03  0.00000000000E+00 0.  1.
         11   -1    0    0    0    0 -0.00000000000E+00 -0.00000000000E+00 -0.50000000000E+03  0.50000000000E+03  0.00000000000E+00 0. -1.
        -11    1    1    2    0    0  0.10173169419E+02 -0.10037549357E+02  0.49802371275E+03  0.49822872683E+03  0.00000000000E+00 0.  1.
         11    1    1    2    0    0  0.59371035409E+01  0.55718644172E-01 -0.43053430217E+03  0.43057524040E+03  0.00000000000E+00 0. -1.
        -15    1    1    2    0    0 -0.56747613639E+01 -0.14697988646E+01 -0.29520016945E+02  0.30148836706E+02  0.17770000000E+01 0. -1.
         15    1    1    2    0    0 -0.10435511596E+02  0.11451629578E+02 -0.37969393641E+02  0.41047196064E+02  0.17770000000E+01 0.  1.
</event>
<event>
 6    1  0.6394569E-004  0.4813714E+03  0.7546771E-02  0.9442485E-01
        -11   -1    0    0    0    0  0.00000000000E+00  0.00000000000E+00  0.50000000000E+03  0.50000000000E+03  0.00000000000E+00 0. -1.
         11   -1    0    0    0    0 -0.00000000000E+00 -0.00000000000E+00 -0.50000000000E+03  0.50000000000E+03  0.00000000000E+00 0.  1.
        -11    1    1    2    0    0  0.16551907008E+01 -0.17772337142E+02  0.48147449329E+03  0.48180523379E+03  0.00000000000E+00 0. -1.
         11    1    1    2    0    0  0.67196084132E+01 -0.15995344182E+02 -0.48125337023E+03  0.48156599811E+03  0.00000000000E+00 0.  1.
        -15    1    1    2    0    0  0.36148737486E+00  0.26874772626E+01 -0.26736784389E+01  0.42023199014E+01  0.17770000000E+01 0. -1.
         15    1    1    2    0    0 -0.87362864888E+01  0.31080204061E+02  0.24525553835E+01  0.32426448202E+02  0.17770000000E+01 0.  1.
</event>
<event>
 6    1  0.6394569E-004  0.5002839E+03  0.7546771E-02  0.9399175E-01
        -11   -1    0    0    0    0  0.00000000000E+00  0.00000000000E+00  0.50000000000E+03  0.50000000000E+03  0.00000000000E+00 0. -1.
         11   -1    0    0    0    0 -0.00000000000E+00 -0.00000000000E+00 -0.50000000000E+03  0.50000000000E+03  0.00000000000E+00 0. -1.
        -11    1    1    2    0    0 -0.68575908578E+01  0.84833080911E+00  0.18930104801E+03  0.18942711790E+03  0.00000000000E+00 0. -1.
         11    1    1    2    0    0 -0.80818089975E+01 -0.51198843558E+00 -0.49965047235E+03  0.49971609169E+03  0.00000000000E+00 0. -1.
        -15    1    1    2    0    0  0.26034675079E+01  0.35005667349E+01  0.80226934178E+02  0.80365108767E+02  0.17770000000E+01 0.  1.
         15    1    1    2    0    0  0.12335932347E+02 -0.38369091084E+01  0.23012249017E+03  0.23049168165E+03  0.17770000000E+01 0. -1.
</event>
<event>
 6    1  0.6394569E-004  0.5001616E+03  0.7546771E-02  0.9399448E-01
        -11   -1    0    0    0    0  0.00000000000E+00  0.00000000000E+00  0.50000000000E+03  0.50000000000E+03  0.00000000000E+00 0. -1.
         11   -1    0    0    0    0 -0.00000000000E+00 -0.00000000000E+00 -0.50000000000E+03  0.50000000000E+03  0.00000000000E+00 0. -1.
        -11    1    1    2    0    0  0.15565901844E+01 -0.46556421408E+01  0.22801043832E+03  0.22806327622E+03  0.00000000000E+00 0. -1.
         11    1    1    2    0    0 -0.63828459391E+01 -0.33930732036E+01 -0.49978614370E+03  0.49983841700E+03  0.00000000000E+00 0. -1.
        -15    1    1    2    0    0  0.13070865613E+01  0.51738857768E+01  0.22470707500E+03  0.22477745628E+03  0.17770000000E+01 0. -1.
         15    1    1    2    0    0  0.35191691935E+01  0.28748295677E+01  0.47068630386E+02  0.47320850503E+02  0.17770000000E+01 0.  1.
</event>
<event>
 6    1  0.6394569E-004  0.4926952E+03  0.7546771E-02  0.9416305E-01
        -11   -1    0    0    0    0  0.00000000000E+00  0.00000000000E+00  0.50000000000E+03  0.50000000000E+03  0.00000000000E+00 0.  1.
         11   -1    0    0    0    0 -0.00000000000E+00 -0.00000000000E+00 -0.50000000000E+03  0.50000000000E+03  0.00000000000E+00 0. -1.
        -11    1    1    2    0    0  0.46214442710E+01  0.51724952460E+01  0.49588837090E+03  0.49593687990E+03  0.00000000000E+00 0.  1.
         11    1    1    2    0    0  0.68994473180E+01 -0.27697709080E+01 -0.48948814623E+03  0.48954460399E+03  0.00000000000E+00 0. -1.
        -15    1    1    2    0    0 -0.72444835909E+01 -0.34528506897E+01 -0.47384709982E+01  0.94876528596E+01  0.17770000000E+01 0.  1.
         15    1    1    2    0    0 -0.42764079981E+01  0.10501263518E+01 -0.16617536727E+01  0.50308632450E+01  0.17770000000E+01 0. -1.
</event>
<event>
 6    1  0.6394569E-004  0.5073177E+03  0.7546771E-02  0.9383583E-01
        -11   -1    0    0    0    0  0.00000000000E+00  0.00000000000E+00  0.50000000000E+03  0.50000000000E+03  0.00000000000E+00 0. -1.
         11   -1    0    0    0    0 -0.00000000000E+00 -0.00000000000E+00 -0.50000000000E+03  0.50000000000E+03  0.00000000000E+00 0.  1.
        -11    1    1    2    0    0  0.63570711116E+01 -0.10547717078E+02  0.47721735859E+03  0.47737623949E+03  0.00000000000E+00 0. -1.
         11    1    1    2    0    0  0.82691224688E+01  0.11628563202E+01 -0.49261152663E+03  0.49268229802E+03  0.00000000000E+00 0.  1.
        -15    1    1    2    0    0 -0.58876082684E+01 -0.48338434452E+01  0.11069127747E+01  0.79001872425E+01  0.17770000000E+01 0.  1.
         15    1    1    2    0    0 -0.87385853120E+01  0.14218704203E+02  0.14287255257E+02  0.22041275241E+02  0.17770000000E+01 0. -1.
</event>
<event>
 6    1  0.6394569E-004  0.5056432E+03  0.7546771E-02  0.9387270E-01
        -11   -1    0    0    0    0  0.00000000000E+00  0.00000000000E+00  0.50000000000E+03  0.50000000000E+03  0.00000000000E+00 0. -1.
         11   -1    0    0    0    0 -0.00000000000E+00 -0.00000000000E+00 -0.50000000000E+03  0.50000000000E+03  0.00000000000E+00 0.  1.
        -11    1    1    2    0    0  0.52505613295E+00  0.71303392953E+02  0.48918731493E+03  0.49435683329E+03  0.00000000000E+00 0. -1.
         11    1    1    2    0    0 -0.14244990051E+02 -0.52554056724E+02 -0.11081598434E+03  0.12347076984E+03  0.00000000000E+00 0.  1.
        -15    1    1    2    0    0 -0.12853281019E+02 -0.12160516417E+02 -0.26232315435E+03  0.26292523658E+03  0.17770000000E+01 0.  1.
         15    1    1    2    0    0  0.26573214936E+02 -0.65888198119E+01 -0.11604817624E+03  0.11924716029E+03  0.17770000000E+01 0. -1.
</event>
<event>
 6    1  0.6394569E-004  0.5022374E+03  0.7546771E-02  0.9394817E-01
        -11   -1    0    0    0    0  0.00000000000E+00  0.00000000000E+00  0.50000000000E+03  0.50000000000E+03  0.00000000000E+00 0. -1.
         11   -1    0    0    0    0 -0.00000000000E+00 -0.00000000000E+00 -0.50000000000E+03  0.50000000000E+03  0.00000000000E+00 0. -1.
        -11    1    1    2    0    0 -0.28432202038E+02 -0.61899867665E+01  0.49691133086E+03  0.49776257070E+03  0.00000000000E+00 0. -1.
         11    1    1    2    0    0 -0.83396269154E+00  0.92220708361E+01 -0.40532039152E+03  0.40542614847E+03  0.00000000000E+00 0. -1.
        -15    1    1    2    0    0  0.25578680470E+02 -0.41923189450E+01 -0.85651689611E+02  0.89505385843E+02  0.17770000000E+01 0.  1.
         15    1    1    2    0    0  0.36874842600E+01  0.11602348755E+01 -0.59392497367E+01  0.73058949875E+01  0.17770000000E+01 0. -1.
</event>
<event>
 6    1  0.6394569E-004  0.5038683E+03  0.7546771E-02  0.9391196E-01
        -11   -1    0    0    0    0  0.00000000000E+00  0.00000000000E+00  0.50000000000E+03  0.50000000000E+03  0.00000000000E+00 0.  1.
         11   -1    0    0    0    0 -0.00000000000E+00 -0.00000000000E+00 -0.50000000000E+03  0.50000000000E+03  0.00000000000E+00 0.  1.
        -11    1    1    2    0    0 -0.12104289165E+02 -0.12316745122E+02  0.49583109068E+03  0.49613172294E+03  0.00000000000E+00 0.  1.
         11    1    1    2    0    0  0.13744296399E+02 -0.71327378200E+01 -0.47246929196E+03  0.47272297752E+03  0.00000000000E+00 0.  1.
        -15    1    1    2    0    0  0.95001332782E+00  0.10944938040E+02 -0.15876188388E+02  0.19388276890E+02  0.17770000000E+01 0.  1.
         15    1    1    2    0    0 -0.25900205619E+01  0.85045449020E+01 -0.74856103324E+01  0.11757022648E+02  0.17770000000E+01 0. -1.
</event>
<event>
 6    1  0.6394569E-004  0.5002590E+03  0.7546771E-02  0.9399230E-01
        -11   -1    0    0    0    0  0.00000000000E+00  0.00000000000E+00  0.50000000000E+03  0.50000000000E+03  0.00000000000E+00 0.  1.
         11   -1    0    0    0    0 -0.00000000000E+00 -0.00000000000E+00 -0.50000000000E+03  0.50000000000E+03  0.00000000000E+00 0. -1.
        -11    1    1    2    0    0  0.13222082323E+02 -0.37331498424E+01  0.37278453899E+03  0.37303762864E+03  0.00000000000E+00 0.  1.
         11    1    1    2    0    0 -0.99165363793E+01 -0.24820559362E+01 -0.49963645556E+03  0.49974101895E+03  0.00000000000E+00 0. -1.
        -15    1    1    2    0    0  0.14872215953E+01  0.19751869426E+01  0.38608452459E+02  0.38728329706E+02  0.17770000000E+01 0.  1.
         15    1    1    2    0    0 -0.47927675388E+01  0.42400188360E+01  0.88243464112E+02  0.88493022707E+02  0.17770000000E+01 0. -1.
</event>
<event>
 6    1  0.6394569E-004  0.5035492E+03  0.7546771E-02  0.9391903E-01
        -11   -1    0    0    0    0  0.00000000000E+00  0.00000000000E+00  0.50000000000E+03  0.50000000000E+03  0.00000000000E+00 0. -1.
         11   -1    0    0    0    0 -0.00000000000E+00 -0.00000000000E+00 -0.50000000000E+03  0.50000000000E+03  0.00000000000E+00 0. -1.
        -11    1    1    2    0    0 -0.13440387927E+02  0.29455287469E+01  0.44082704671E+03  0.44104172737E+03  0.00000000000E+00 0. -1.
         11    1    1    2    0    0 -0.78315149041E+01 -0.86888073057E+01 -0.49631298605E+03  0.49645081138E+03  0.00000000000E+00 0. -1.
        -15    1    1    2    0    0  0.10545502538E+02 -0.64040632393E+01  0.23013072528E+02  0.26172101290E+02  0.17770000000E+01 0. -1.
         15    1    1    2    0    0  0.10726400293E+02  0.12147341798E+02  0.32472866810E+02  0.36335359966E+02  0.17770000000E+01 0.  1.
</event>
<event>
 6    1  0.6394569E-004  0.5014798E+03  0.7546771E-02  0.9396505E-01
        -11   -1    0    0    0    0  0.00000000000E+00  0.00000000000E+00  0.50000000000E+03  0.50000000000E+03  0.00000000000E+00 0. -1.
         11   -1    0    0    0    0 -0.00000000000E+00 -0.00000000000E+00 -0.50000000000E+03  0.50000000000E+03  0.00000000000E+00 0.  1.
        -11    1    1    2    0    0  0.13378650306E+02  0.95128079301E+01  0.33873904844E+03  0.33913658714E+03  0.00000000000E+00 0. -1.
         11    1    1    2    0    0  0.10144791077E+02 -0.10676306782E+01 -0.49841583737E+03  0.49852021380E+03  0.00000000000E+00 0.  1.
        -15    1    1    2    0    0 -0.11696176216E+02 -0.11220163593E+01  0.11250661514E+03  0.11313246942E+03  0.17770000000E+01 0.  1.
         15    1    1    2    0    0 -0.11827265166E+02 -0.73231608926E+01  0.47170173797E+02  0.49210729641E+02  0.17770000000E+01 0. -1.
</event>
<event>
 6    1  0.6394569E-004  0.5176653E+03  0.7546771E-02  0.9361127E-01
        -11   -1    0    0    0    0  0.00000000000E+00  0.00000000000E+00  0.50000000000E+03  0.50000000000E+03  0.00000000000E+00 0. -1.
         11   -1    0    0    0    0 -0.00000000000E+00 -0.00000000000E+00 -0.50000000000E+03  0.50000000000E+03  0.00000000000E+00 0.  1.
        -11    1    1    2    0    0 -0.59157716197E+02  0.20756953104E+02  0.47824289974E+03  0.48233469463E+03  0.00000000000E+00 0. -1.
         11    1    1    2    0    0 -0.71398096381E+01 -0.51851325581E+01 -0.41639283073E+03  0.41648631666E+03  0.00000000000E+00 0.  1.
        -15    1    1    2    0    0  0.64922831007E+02 -0.13588206586E+02 -0.36651973130E+02  0.75803286258E+02  0.17770000000E+01 0. -1.
         15    1    1    2    0    0  0.13746948283E+01 -0.19836139599E+01 -0.25198095880E+02  0.25375702457E+02  0.17770000000E+01 0.  1.
</event>
<event>
 6    1  0.1942414E-003  0.5000544E+03  0.7546771E-02  0.9399688E-01
        -11   -1    0    0    0    0  0.00000000000E+00  0.00000000000E+00  0.50000000000E+03  0.50000000000E+03  0.00000000000E+00 0. -1.
         11   -1    0    0    0    0 -0.00000000000E+00 -0.00000000000E+00 -0.50000000000E+03  0.50000000000E+03  0.00000000000E+00 0. -1.
        -11    1    1    2    0    0 -0.29190591275E+00 -0.84070359215E+01  0.49987482221E+03  0.49994559838E+03  0.00000000000E+00 0. -1.
         11    1    1    2    0    0  0.20968481001E+01  0.78839331796E+01 -0.25712808875E+03  0.25725747259E+03  0.00000000000E+00 0. -1.
        -15    1    1    2    0    0 -0.21919826413E-01  0.12056109232E+01 -0.14290168223E+03  0.14291781726E+03  0.17770000000E+01 0. -1.
         15    1    1    2    0    0 -0.17830223609E+01 -0.68250818127E+00 -0.99845051222E+02  0.99879111773E+02  0.17770000000E+01 0. -1.
</event>
<event>
 6    1  0.6394569E-004  0.5061096E+03  0.7546771E-02  0.9386242E-01
        -11   -1    0    0    0    0  0.00000000000E+00  0.00000000000E+00  0.50000000000E+03  0.50000000000E+03  0.00000000000E+00 0. -1.
         11   -1    0    0    0    0 -0.00000000000E+00 -0.00000000000E+00 -0.50000000000E+03  0.50000000000E+03  0.00000000000E+00 0.  1.
        -11    1    1    2    0    0 -0.63274683589E+01 -0.99848718692E+01  0.46787608133E+03  0.46802538607E+03  0.00000000000E+00 0. -1.
         11    1    1    2    0    0 -0.56195024652E+01 -0.13409534049E+02 -0.49367630148E+03  0.49389035732E+03  0.00000000000E+00 0.  1.
        -15    1    1    2    0    0  0.26313332751E+01  0.82671888758E+00  0.15567603365E+01  0.36316126815E+01  0.17770000000E+01 0. -1.
         15    1    1    2    0    0  0.93156375490E+01  0.22567687030E+02  0.24243459817E+02  0.34452643930E+02  0.17770000000E+01 0.  1.
</event>
<event>
 6    1  0.6394569E-004  0.5006196E+03  0.7546771E-02  0.9398424E-01
        -11   -1    0    0    0    0  0.00000000000E+00  0.00000000000E+00  0.50000000000E+03  0.50000000000E+03  0.00000000000E+00 0. -1.
         11   -1    0    0    0    0 -0.00000000000E+00 -0.00000000000E+00 -0.50000000000E+03  0.50000000000E+03  0.00000000000E+00 0. -1.
        -11    1    1    2    0    0 -0.52609288535E+01  0.55177906829E+01  0.38249574730E+03  0.38257171888E+03  0.00000000000E+00 0. -1.
         11    1    1    2    0    0 -0.66404693635E+01  0.45027590912E+01 -0.49931597488E+03  0.49938042958E+03  0.00000000000E+00 0. -1.
        -15    1    1    2    0    0  0.29777578894E+01 -0.23049695630E+01  0.49830861952E+02  0.50004524381E+02  0.17770000000E+01 0. -1.
         15    1    1    2    0    0  0.89236403275E+01 -0.77155802111E+01  0.66989365633E+02  0.68043327165E+02  0.17770000000E+01 0.  1.
</event>
<event>
 6    1  0.6394569E-004  0.4957606E+03  0.7546771E-02  0.9409346E-01
        -11   -1    0    0    0    0  0.00000000000E+00  0.00000000000E+00  0.50000000000E+03  0.50000000000E+03  0.00000000000E+00 0.  1.
         11   -1    0    0    0    0 -0.00000000000E+00 -0.00000000000E+00 -0.50000000000E+03  0.50000000000E+03  0.00000000000E+00 0. -1.
        -11    1    1    2    0    0  0.15387560603E+03  0.17635358678E+02  0.47021080908E+03  0.49506253442E+03  0.00000000000E+00 0.  1.
         11    1    1    2    0    0 -0.14807899174E+03 -0.16935936904E+02 -0.47358188329E+03  0.49648163504E+03  0.00000000000E+00 0. -1.
        -15    1    1    2    0    0 -0.40634827367E+01  0.46284777778E+00  0.50090552461E+00  0.44871767696E+01  0.17770000000E+01 0.  1.
         15    1    1    2    0    0 -0.17331315541E+01 -0.11622695519E+01  0.28701686814E+01  0.39686537711E+01  0.17770000000E+01 0. -1.
</event>
<event>
 6    1  0.6394569E-004  0.5060043E+03  0.7546771E-02  0.9386474E-01
        -11   -1    0    0    0    0  0.00000000000E+00  0.00000000000E+00  0.50000000000E+03  0.50000000000E+03  0.00000000000E+00 0.  1.
         11   -1    0    0    0    0 -0.00000000000E+00 -0.00000000000E+00 -0.50000000000E+03  0.50000000000E+03  0.00000000000E+00 0. -1.
        -11    1    1    2    0    0 -0.11312597201E+02  0.38888445453E+02  0.49233266520E+03  0.49399568750E+03  0.00000000000E+00 0.  1.
         11    1    1    2    0    0 -0.12211970947E+01  0.91621411952E+01 -0.35654576468E+03  0.35666555548E+03  0.00000000000E+00 0. -1.
        -15    1    1    2    0    0  0.15603739984E+02 -0.44730268084E+02 -0.77500498578E+02  0.90850198641E+02  0.17770000000E+01 0. -1.
         15    1    1    2    0    0 -0.30699456881E+01 -0.33203185642E+01 -0.58286401936E+02  0.58488558381E+02  0.17770000000E+01 0.  1.
</event>
<event>
 6    1  0.6394569E-004  0.4842744E+03  0.7546771E-02  0.9435701E-01
        -11   -1    0    0    0    0  0.00000000000E+00  0.00000000000E+00  0.50000000000E+03  0.50000000000E+03  0.00000000000E+00 0. -1.
         11   -1    0    0    0    0 -0.00000000000E+00 -0.00000000000E+00 -0.50000000000E+03  0.50000000000E+03  0.00000000000E+00 0.  1.
        -11    1    1    2    0    0  0.16223372039E+02  0.62438877863E+01  0.47978674571E+03  0.48010155727E+03  0.00000000000E+00 0. -1.
         11    1    1    2    0    0 -0.59150802832E+01  0.11991102200E+02 -0.48853029788E+03  0.48871323560E+03  0.00000000000E+00 0.  1.
        -15    1    1    2    0    0 -0.89098729988E+01 -0.11848661593E+02  0.15566776783E+02  0.21569860612E+02  0.17770000000E+01 0.  1.
         15    1    1    2    0    0 -0.13984187572E+01 -0.63863283933E+01 -0.68232246183E+01  0.96153465127E+01  0.17770000000E+01 0. -1.
</event>
<event>
 6    1  0.6394569E-004  0.5004299E+03  0.7546771E-02  0.9398848E-01
        -11   -1    0    0    0    0  0.00000000000E+00  0.00000000000E+00  0.50000000000E+03  0.50000000000E+03  0.00000000000E+00 0. -1.
         11   -1    0    0    0    0 -0.00000000000E+00 -0.00000000000E+00 -0.50000000000E+03  0.50000000000E+03  0.00000000000E+00 0.  1.
        -11    1    1    2    0    0  0.64173161689E+01  0.25697871397E+01  0.49952225193E+03  0.49957008109E+03  0.00000000000E+00 0. -1.
         11    1    1    2    0    0 -0.23641723758E+01  0.86119239594E+01 -0.34115153091E+03  0.34126840110E+03  0.00000000000E+00 0.  1.
        -15    1    1    2    0    0 -0.22995769379E+01 -0.98039409253E+01 -0.14937688719E+03  0.14972647550E+03  0.17770000000E+01 0.  1.
         15    1    1    2    0    0 -0.17535668553E+01 -0.13777701738E+01 -0.89938338289E+01  0.94350423056E+01  0.17770000000E+01 0. -1.
</event>
<event>
 6    1  0.6394569E-004  0.4470634E+03  0.7546771E-02  0.9526732E-01
        -11   -1    0    0    0    0  0.00000000000E+00  0.00000000000E+00  0.50000000000E+03  0.50000000000E+03  0.00000000000E+00 0. -1.
         11   -1    0    0    0    0 -0.00000000000E+00 -0.00000000000E+00 -0.50000000000E+03  0.50000000000E+03  0.00000000000E+00 0. -1.
        -11    1    1    2    0    0 -0.11450728706E+02 -0.80934693585E+02  0.43081415728E+03  0.43850015043E+03  0.00000000000E+00 0. -1.
         11    1    1    2    0    0  0.65392183763E+01 -0.58211124461E+01 -0.46023750735E+03  0.46032076849E+03  0.00000000000E+00 0. -1.
        -15    1    1    2    0    0 -0.89239009678E+00 -0.21409613808E+01 -0.48901828816E+01  0.56966387752E+01  0.17770000000E+01 0. -1.
         15    1    1    2    0    0  0.58039004261E+01  0.88896767412E+02  0.34313532954E+02  0.95482442309E+02  0.17770000000E+01 0.  1.
</event>
<event>
 6    1  0.6394569E-004  0.5015795E+03  0.7546771E-02  0.9396282E-01
        -11   -1    0    0    0    0  0.00000000000E+00  0.00000000000E+00  0.50000000000E+03  0.50000000000E+03  0.00000000000E+00 0. -1.
         11   -1    0    0    0    0 -0.00000000000E+00 -0.00000000000E+00 -0.50000000000E+03  0.50000000000E+03  0.00000000000E+00 0.  1.
        -11    1    1    2    0    0 -0.98530236326E+01 -0.19817409287E+02  0.37259782922E+03  0.37325454334E+03  0.00000000000E+00 0. -1.
         11    1    1    2    0    0  0.67303298032E+01  0.12287155250E+02 -0.49822361355E+03  0.49842054595E+03  0.00000000000E+00 0.  1.
        -15    1    1    2    0    0 -0.25505330599E+01 -0.44516798509E+01  0.65839686431E+01  0.85339934660E+01  0.17770000000E+01 0. -1.
         15    1    1    2    0    0  0.56732268893E+01  0.11981933888E+02  0.11904181569E+03  0.11979091725E+03  0.17770000000E+01 0.  1.
</event>
<event>
 6    1  0.6394569E-004  0.5047415E+03  0.7546771E-02  0.9389262E-01
        -11   -1    0    0    0    0  0.00000000000E+00  0.00000000000E+00  0.50000000000E+03  0.50000000000E+03  0.00000000000E+00 0.  1.
         11   -1    0    0    0    0 -0.00000000000E+00 -0.00000000000E+00 -0.50000000000E+03  0.50000000000E+03  0.00000000000E+00 0. -1.
        -11    1    1    2    0    0 -0.45568326924E+01 -0.84365764909E+01  0.49516570858E+03  0.49525853803E+03  0.00000000000E+00 0.  1.
         11    1    1    2    0    0  0.67503137224E+01 -0.32023364622E+01 -0.48692927865E+03  0.48698659540E+03  0.00000000000E+00 0. -1.
        -15    1    1    2    0    0  0.19159019389E-01  0.97413244710E+01 -0.12522120942E+01  0.99809585534E+01  0.17770000000E+01 0. -1.
         15    1    1    2    0    0 -0.22126400495E+01  0.18975884821E+01 -0.69842178339E+01  0.77739080126E+01  0.17770000000E+01 0.  1.
</event>
<event>
 6    1  0.6394569E-004  0.5002448E+03  0.7546771E-02  0.9399262E-01
        -11   -1    0    0    0    0  0.00000000000E+00  0.00000000000E+00  0.50000000000E+03  0.50000000000E+03  0.00000000000E+00 0.  1.
         11   -1    0    0    0    0 -0.00000000000E+00 -0.00000000000E+00 -0.50000000000E+03  0.50000000000E+03  0.00000000000E+00 0. -1.
        -11    1    1    2    0    0 -0.10440335145E+02 -0.13674521922E+02  0.49945897393E+03  0.49975519986E+03  0.00000000000E+00 0.  1.
         11    1    1    2    0    0 -0.26978137836E+01 -0.17388144602E+01 -0.98910087579E+02  0.98962149834E+02  0.00000000000E+00 0. -1.
        -15    1    1    2    0    0  0.40295769642E+01 -0.15119291802E+01 -0.10578548728E+03  0.10588791465E+03  0.17770000000E+01 0. -1.
         15    1    1    2    0    0  0.91085719645E+01  0.16925265562E+02 -0.29476339907E+03  0.29539473566E+03  0.17770000000E+01 0. -1.
</event>
<event>
 6    1  0.6394569E-004  0.5017627E+03  0.7546771E-02  0.9395874E-01
        -11   -1    0    0    0    0  0.00000000000E+00  0.00000000000E+00  0.50000000000E+03  0.50000000000E+03  0.00000000000E+00 0. -1.
         11   -1    0    0    0    0 -0.00000000000E+00 -0.00000000000E+00 -0.50000000000E+03  0.50000000000E+03  0.00000000000E+00 0. -1.
        -11    1    1    2    0    0 -0.45072193681E+01  0.11732268895E+02  0.42327873224E+03  0.42346528349E+03  0.00000000000E+00 0. -1.
         11    1    1    2    0    0  0.47480674369E+01  0.50649260394E+01 -0.49818893922E+03  0.49823730971E+03  0.00000000000E+00 0. -1.
        -15    1    1    2    0    0 -0.61266231965E+01 -0.26830736761E+01  0.16501835282E+02  0.17894208360E+02  0.17770000000E+01 0.  1.
         15    1    1    2    0    0  0.58857751277E+01 -0.14114121259E+02  0.58408371704E+02  0.60403198441E+02  0.17770000000E+01 0. -1.
</event>
<event>
 6    1  0.6394569E-004  0.5013301E+03  0.7546771E-02  0.9396839E-01
        -11   -1    0    0    0    0  0.00000000000E+00  0.00000000000E+00  0.50000000000E+03  0.50000000000E+03  0.00000000000E+00 0. -1.
         11   -1    0    0    0    0 -0.00000000000E+00 -0.00000000000E+00 -0.50000000000E+03  0.50000000000E+03  0.00000000000E+00 0. -1.
        -11    1    1    2    0    0  0.24601560662E+02  0.10517351007E+02  0.22737014628E+03  0.22893893264E+03  0.00000000000E+00 0. -1.
         11    1    1    2    0    0 -0.54182896390E+01 -0.17381087466E+02 -0.49833748094E+03  0.49866993591E+03  0.00000000000E+00 0. -1.
        -15    1    1    2    0    0 -0.19585504302E+02 -0.10436013288E+01  0.18928140536E+03  0.19030315086E+03  0.17770000000E+01 0. -1.
         15    1    1    2    0    0  0.40223327852E+00  0.79073377870E+01  0.81685929305E+02  0.82087980593E+02  0.17770000000E+01 0.  1.
</event>
<event>
 6    1  0.6394569E-004  0.5028784E+03  0.7546771E-02  0.9393392E-01
        -11   -1    0    0    0    0  0.00000000000E+00  0.00000000000E+00  0.50000000000E+03  0.50000000000E+03  0.00000000000E+00 0. -1.
         11   -1    0    0    0    0 -0.00000000000E+00 -0.00000000000E+00 -0.50000000000E+03  0.50000000000E+03  0.00000000000E+00 0. -1.
        -11    1    1    2    0    0 -0.34891457727E+01  0.10709895444E+02  0.44584786699E+03  0.44599013049E+03  0.00000000000E+00 0. -1.
         11    1    1    2    0    0  0.44568124584E+01  0.84267633468E+01 -0.49703015820E+03  0.49712156629E+03  0.00000000000E+00 0. -1.
        -15    1    1    2    0    0 -0.76166741706E+00 -0.13984931803E+02  0.16221490962E+02  0.21504719315E+02  0.17770000000E+01 0. -1.
         15    1    1    2    0    0 -0.20599926867E+00 -0.51517269885E+01  0.34960800249E+02  0.35383583901E+02  0.17770000000E+01 0.  1.
</event>
<event>
 6    1  0.6394569E-004  0.4793972E+03  0.7546771E-02  0.9447128E-01
        -11   -1    0    0    0    0  0.00000000000E+00  0.00000000000E+00  0.50000000000E+03  0.50000000000E+03  0.00000000000E+00 0. -1.
         11   -1    0    0    0    0 -0.00000000000E+00 -0.00000000000E+00 -0.50000000000E+03  0.50000000000E+03  0.00000000000E+00 0.  1.
        -11    1    1    2    0    0  0.29939126277E+02 -0.10298692910E+02  0.47728459568E+03  0.47833356523E+03  0.00000000000E+00 0. -1.
         11    1    1    2    0    0  0.52185401182E+00  0.15999322115E+02 -0.48070115072E+03  0.48096761527E+03  0.00000000000E+00 0.  1.
        -15    1    1    2    0    0 -0.13072062306E+02 -0.12265888801E+02 -0.69907511206E+01  0.19322504269E+02  0.17770000000E+01 0. -1.
         15    1    1    2    0    0 -0.17388917983E+02  0.65652595960E+01  0.10407306158E+02  0.21376315226E+02  0.17770000000E+01 0.  1.
</event>
<event>
 6    1  0.6394569E-004  0.5001119E+03  0.7546771E-02  0.9399559E-01
        -11   -1    0    0    0    0  0.00000000000E+00  0.00000000000E+00  0.50000000000E+03  0.50000000000E+03  0.00000000000E+00 0.  1.
         11   -1    0    0    0    0 -0.00000000000E+00 -0.00000000000E+00 -0.50000000000E+03  0.50000000000E+03  0.00000000000E+00 0.  1.
        -11    1    1    2    0    0 -0.54385839969E+01  0.67168254366E+01  0.18799285804E+03  0.18819141483E+03  0.00000000000E+00 0.  1.
         11    1    1    2    0    0 -0.24252038934E+00 -0.77235005302E+01 -0.49982832276E+03  0.49988805098E+03  0.00000000000E+00 0.  1.
        -15    1    1    2    0    0  0.26026086465E+01  0.13585845089E+01  0.19590298666E+03  0.19593304273E+03  0.17770000000E+01 0.  1.
         15    1    1    2    0    0  0.30784957398E+01 -0.35190941537E+00  0.11593247806E+03  0.11598749146E+03  0.17770000000E+01 0.  1.
</event>
<event>
 6    1  0.6394569E-004  0.5028403E+03  0.7546771E-02  0.9393477E-01
        -11   -1    0    0    0    0  0.00000000000E+00  0.00000000000E+00  0.50000000000E+03  0.50000000000E+03  0.00000000000E+00 0. -1.
         11   -1    0    0    0    0 -0.00000000000E+00 -0.00000000000E+00 -0.50000000000E+03  0.50000000000E+03  0.00000000000E+00 0.  1.
        -11    1    1    2    0    0 -0.32370680331E+02 -0.17471002022E+02  0.10631087287E+03  0.11249488232E+03  0.00000000000E+00 0. -1.
         11    1    1    2    0    0  0.39237668521E+02  0.73168254763E+01 -0.49555485200E+03  0.49715967445E+03  0.00000000000E+00 0.  1.
        -15    1    1    2    0    0  0.56294866277E+01  0.93345076613E+01  0.30067948866E+03  0.30088226399E+03  0.17770000000E+01 0. -1.
         15    1    1    2    0    0 -0.12496474818E+02  0.81966888410E+00  0.88564490462E+02  0.89463179240E+02  0.17770000000E+01 0.  1.
</event>
<event>
 6    1  0.6394569E-004  0.4632253E+03  0.7546771E-02  0.9486078E-01
        -11   -1    0    0    0    0  0.00000000000E+00  0.00000000000E+00  0.50000000000E+03  0.50000000000E+03  0.00000000000E+00 0.  1.
         11   -1    0    0    0    0 -0.00000000000E+00 -0.00000000000E+00 -0.50000000000E+03  0.50000000000E+03  0.00000000000E+00 0. -1.
        -11    1    1    2    0    0  0.37213722483E+02  0.14266491599E+01  0.46469373399E+03  0.46618361498E+03  0.00000000000E+00 0.  1.
         11    1    1    2    0    0  0.12316100302E+02  0.30476909377E+02 -0.46097526864E+03  0.46214578504E+03  0.00000000000E+00 0. -1.
        -15    1    1    2    0    0 -0.29848317483E+01 -0.63541992895E+01  0.13921711359E+02  0.15692572936E+02  0.17770000000E+01 0. -1.
         15    1    1    2    0    0 -0.46544991037E+02 -0.25549359247E+02 -0.17640176700E+02  0.55978027042E+02  0.17770000000E+01 0.  1.
</event>
<event>
 6    1  0.6394569E-004  0.5027319E+03  0.7546771E-02  0.9393718E-01
        -11   -1    0    0    0    0  0.00000000000E+00  0.00000000000E+00  0.50000000000E+03  0.50000000000E+03  0.00000000000E+00 0.  1.
         11   -1    0    0    0    0 -0.00000000000E+00 -0.00000000000E+00 -0.50000000000E+03  0.50000000000E+03  0.00000000000E+00 0.  1.
        -11    1    1    2    0    0  0.10485143136E+02 -0.10033846398E+02  0.47558839409E+03  0.47580976965E+03  0.00000000000E+00 0.  1.
         11    1    1    2    0    0  0.38702437163E+01  0.61267993387E+01 -0.49721530128E+03  0.49726810905E+03  0.00000000000E+00 0.  1.
        -15    1    1    2    0    0 -0.46618675032E+01  0.22088835820E+01  0.44266830631E+01  0.70260534610E+01  0.17770000000E+01 0.  1.
         15    1    1    2    0    0 -0.96935193488E+01  0.16981634769E+01  0.17200224124E+02  0.19896067839E+02  0.17770000000E+01 0. -1.
</event>
<event>
 6    1  0.6394569E-004  0.5008730E+03  0.7546771E-02  0.9397858E-01
        -11   -1    0    0    0    0  0.00000000000E+00  0.00000000000E+00  0.50000000000E+03  0.50000000000E+03  0.00000000000E+00 0.  1.
         11   -1    0    0    0    0 -0.00000000000E+00 -0.00000000000E+00 -0.50000000000E+03  0.50000000000E+03  0.00000000000E+00 0.  1.
        -11    1    1    2    0    0  0.12699774180E+02 -0.64720606018E+00  0.30926945703E+03  0.30953077422E+03  0.00000000000E+00 0.  1.
         11    1    1    2    0    0  0.10045740466E+02  0.14878389077E+01 -0.49902367329E+03  0.49912699493E+03  0.00000000000E+00 0.  1.
        -15    1    1    2    0    0 -0.56363769220E+01 -0.32567939287E+01  0.71724235654E+02  0.72040954746E+02  0.17770000000E+01 0. -1.
         15    1    1    2    0    0 -0.17109137724E+02  0.24161610812E+01  0.11802998061E+03  0.11930127610E+03  0.17770000000E+01 0.  1.
</event>
<event>
 6    1  0.6394569E-004  0.5000970E+03  0.7546771E-02  0.9399593E-01
        -11   -1    0    0    0    0  0.00000000000E+00  0.00000000000E+00  0.50000000000E+03  0.50000000000E+03  0.00000000000E+00 0. -1.
         11   -1    0    0    0    0 -0.00000000000E+00 -0.00000000000E+00 -0.50000000000E+03  0.50000000000E+03  0.00000000000E+00 0.  1.
        -11    1    1    2    0    0  0.44546223946E+01 -0.31141835513E+01  0.21349134546E+03  0.21356052160E+03  0.00000000000E+00 0. -1.
         11    1    1    2    0    0 -0.94629451109E+01  0.52320817487E+01 -0.49978609071E+03  0.49990304907E+03  0.00000000000E+00 0.  1.
        -15    1    1    2    0    0  0.76586023466E+00 -0.55906764726E+01  0.16235903640E+03  0.16246678625E+03  0.17770000000E+01 0. -1.
         15    1    1    2    0    0  0.42424624817E+01  0.34727782752E+01  0.12393570885E+03  0.12406964308E+03  0.17770000000E+01 0.  1.
</event>
<event>
 6    1  0.6394569E-004  0.5019146E+03  0.7546771E-02  0.9395536E-01
        -11   -1    0    0    0    0  0.00000000000E+00  0.00000000000E+00  0.50000000000E+03  0.50000000000E+03  0.00000000000E+00 0. -1.
         11   -1    0    0    0    0 -0.00000000000E+00 -0.00000000000E+00 -0.50000000000E+03  0.50000000000E+03  0.00000000000E+00 0. -1.
        -11    1    1    2    0    0  0.30926933824E+01 -0.71426366038E+01  0.46507515909E+03  0.46514028595E+03  0.00000000000E+00 0. -1.
         11    1    1    2    0    0 -0.40133770994E+01 -0.68147521364E+01 -0.49802257894E+03  0.49808537138E+03  0.00000000000E+00 0. -1.
        -15    1    1    2    0    0  0.73434041692E-01  0.12732424464E+02  0.31546077523E+02  0.34065125295E+02  0.17770000000E+01 0. -1.
         15    1    1    2    0    0  0.84724967535E+00  0.12249642762E+01  0.14013423266E+01  0.27092173790E+01  0.17770000000E+01 0.  1.
</event>
<event>
 6    1  0.6394569E-004  0.5000959E+03  0.7546771E-02  0.9399595E-01
        -11   -1    0    0    0    0  0.00000000000E+00  0.00000000000E+00  0.50000000000E+03  0.50000000000E+03  0.00000000000E+00 0.  1.
         11   -1    0    0    0    0 -0.00000000000E+00 -0.00000000000E+00 -0.50000000000E+03  0.50000000000E+03  0.00000000000E+00 0. -1.
        -11    1    1    2    0    0 -0.86922301209E+01  0.36223110828E+01  0.27380790664E+03  0.27396978983E+03  0.00000000000E+00 0.  1.
         11    1    1    2    0    0  0.60851119521E+01 -0.64513459301E+01 -0.49982539468E+03  0.49990406441E+03  0.00000000000E+00 0. -1.
        -15    1    1    2    0    0 -0.32808653301E+00  0.13948159907E+01  0.36017274956E+02  0.36089541098E+02  0.17770000000E+01 0.  1.
         15    1    1    2    0    0  0.29352047018E+01  0.14342188566E+01  0.19000021308E+03  0.19003660466E+03  0.17770000000E+01 0.  1.
</event>
<event>
 6    1  0.6394569E-004  0.5001599E+03  0.7546771E-02  0.9399452E-01
        -11   -1    0    0    0    0  0.00000000000E+00  0.00000000000E+00  0.50000000000E+03  0.50000000000E+03  0.00000000000E+00 0. -1.
         11   -1    0    0    0    0 -0.00000000000E+00 -0.00000000000E+00 -0.50000000000E+03  0.50000000000E+03  0.00000000000E+00 0. -1.
        -11    1    1    2    0    0 -0.78510542463E+01  0.86209697669E+01  0.36386238824E+03  0.36404916941E+03  0.00000000000E+00 0. -1.
         11    1    1    2    0    0  0.84399965017E+01 -0.40569206963E+01 -0.49975238668E+03  0.49984011458E+03  0.00000000000E+00 0. -1.
        -15    1    1    2    0    0 -0.17821122881E+01 -0.35289787283E+01  0.11570797149E+03  0.11578912734E+03  0.17770000000E+01 0.  1.
         15    1    1    2    0    0  0.11931700328E+01 -0.10350703423E+01  0.20182026946E+02  0.20321588667E+02  0.17770000000E+01 0. -1.
</event>
<event>
 6    1  0.6394569E-004  0.5093282E+03  0.7546771E-02  0.9379176E-01
        -11   -1    0    0    0    0  0.00000000000E+00  0.00000000000E+00  0.50000000000E+03  0.50000000000E+03  0.00000000000E+00 0. -1.
         11   -1    0    0    0    0 -0.00000000000E+00 -0.00000000000E+00 -0.50000000000E+03  0.50000000000E+03  0.00000000000E+00 0. -1.
        -11    1    1    2    0    0 -0.28755625456E+02  0.68308440179E+02  0.19428643056E+03  0.20794265098E+03  0.00000000000E+00 0. -1.
         11    1    1    2    0    0  0.18793929502E+02 -0.38092236582E+02 -0.48882983054E+03  0.49067181853E+03  0.00000000000E+00 0. -1.
        -15    1    1    2    0    0 -0.15036602701E+02 -0.13157282348E+01  0.25881793091E+02  0.30014255016E+02  0.17770000000E+01 0.  1.
         15    1    1    2    0    0  0.24998298654E+02 -0.28900475362E+02  0.26866160689E+03  0.27137127548E+03  0.17770000000E+01 0. -1.
</event>
<event>
 6    1  0.6394569E-004  0.5001508E+03  0.7546771E-02  0.9399472E-01
        -11   -1    0    0    0    0  0.00000000000E+00  0.00000000000E+00  0.50000000000E+03  0.50000000000E+03  0.00000000000E+00 0.  1.
         11   -1    0    0    0    0 -0.00000000000E+00 -0.00000000000E+00 -0.50000000000E+03  0.50000000000E+03  0.00000000000E+00 0.  1.
        -11    1    1    2    0    0 -0.21283846096E+01  0.41652444261E+01  0.17355229495E+03  0.17361531719E+03  0.00000000000E+00 0.  1.
         11    1    1    2    0    0 -0.57848835295E+01  0.58833223714E+01 -0.49978111124E+03  0.49984921478E+03  0.00000000000E+00 0.  1.
        -15    1    1    2    0    0  0.63780714344E+01 -0.86201832687E+01  0.28948597004E+03  0.28968995829E+03  0.17770000000E+01 0.  1.
         15    1    1    2    0    0  0.15351967047E+01 -0.14283835287E+01  0.36742846252E+02  0.36845509742E+02  0.17770000000E+01 0.  1.
</event>
<event>
 6    1  0.6394569E-004  0.5011334E+03  0.7546771E-02  0.9397277E-01
        -11   -1    0    0    0    0  0.00000000000E+00  0.00000000000E+00  0.50000000000E+03  0.50000000000E+03  0.00000000000E+00 0. -1.
         11   -1    0    0    0    0 -0.00000000000E+00 -0.00000000000E+00 -0.50000000000E+03  0.50000000000E+03  0.00000000000E+00 0.  1.
        -11    1    1    2    0    0  0.20195695781E+02  0.50315872791E+01  0.10850964184E+03  0.11048767067E+03  0.00000000000E+00 0. -1.
         11    1    1    2    0    0 -0.59486516707E+01 -0.80496816814E+01 -0.49876618225E+03  0.49886660380E+03  0.00000000000E+00 0.  1.
        -15    1    1    2    0    0 -0.13577846368E+02  0.13896935539E+01  0.25909649143E+03  0.25946182525E+03  0.17770000000E+01 0. -1.
         15    1    1    2    0    0 -0.66919774295E+00  0.16284008483E+01  0.13116004898E+03  0.13118390028E+03  0.17770000000E+01 0.  1.
</event>
<event>
 6    1  0.6394569E-004  0.4908983E+03  0.7546771E-02  0.9420409E-01
        -11   -1    0    0    0    0  0.00000000000E+00  0.00000000000E+00  0.50000000000E+03  0.50000000000E+03  0.00000000000E+00 0.  1.
         11   -1    0    0    0    0 -0.00000000000E+00 -0.00000000000E+00 -0.50000000000E+03  0.50000000000E+03  0.00000000000E+00 0.  1.
        -11    1    1    2    0    0 -0.15007756764E+02 -0.40580576113E+01  0.49379483305E+03  0.49403951031E+03  0.00000000000E+00 0.  1.
         11    1    1    2    0    0  0.30439551294E+01 -0.59936170207E+01 -0.48785310522E+03  0.48789941728E+03  0.00000000000E+00 0.  1.
        -15    1    1    2    0    0  0.45442152560E+01  0.30198824883E+01  0.64022164946E+00  0.57738371380E+01  0.17770000000E+01 0. -1.
         15    1    1    2    0    0  0.74195863782E+01  0.70317921437E+01 -0.65819494764E+01  0.12287235274E+02  0.17770000000E+01 0.  1.
</event>
<event>
 6    1  0.6394569E-004  0.5001331E+03  0.7546771E-02  0.9399512E-01
        -11   -1    0    0    0    0  0.00000000000E+00  0.00000000000E+00  0.50000000000E+03  0.50000000000E+03  0.00000000000E+00 0.  1.
         11   -1    0    0    0    0 -0.00000000000E+00 -0.00000000000E+00 -0.50000000000E+03  0.50000000000E+03  0.00000000000E+00 0.  1.
        -11    1    1    2    0    0  0.95329334931E+01  0.12983656411E+02  0.49960727502E+03  0.49986686368E+03  0.00000000000E+00 0.  1.
         11    1    1    2    0    0  0.11808460845E+00 -0.18687921669E+01 -0.70044558967E+02  0.70069583766E+02  0.00000000000E+00 0.  1.
        -15    1    1    2    0    0 -0.54222214294E+01  0.82777626046E+00 -0.59239489189E+02  0.59519412860E+02  0.17770000000E+01 0. -1.
         15    1    1    2    0    0 -0.42287966721E+01 -0.11942640504E+02 -0.37032322686E+03  0.37054413970E+03  0.17770000000E+01 0.  1.
</event>
<event>
 6    1  0.6394569E-004  0.4662336E+03  0.7546771E-02  0.9478705E-01
        -11   -1    0    0    0    0  0.00000000000E+00  0.00000000000E+00  0.50000000000E+03  0.50000000000E+03  0.00000000000E+00 0.  1.
         11   -1    0    0    0    0 -0.00000000000E+00 -0.00000000000E+00 -0.50000000000E+03  0.50000000000E+03  0.00000000000E+00 0.  1.
        -11    1    1    2    0    0 -0.30595243665E+02 -0.22927047018E+02  0.47535643762E+03  0.47689145642E+03  0.00000000000E+00 0.  1.
         11    1    1    2    0    0 -0.65992859690E+01 -0.25863673364E+01 -0.45679547026E+03  0.45685045860E+03  0.00000000000E+00 0.  1.
        -15    1    1    2    0    0  0.28685665617E+01 -0.16836395913E+00 -0.22885938870E+02  0.23133978203E+02  0.17770000000E+01 0. -1.
         15    1    1    2    0    0  0.34325963073E+02  0.25681778314E+02  0.43249715146E+01  0.43124106783E+02  0.17770000000E+01 0.  1.
</event>
<event>
 6    1  0.6394569E-004  0.5041222E+03  0.7546771E-02  0.9390633E-01
        -11   -1    0    0    0    0  0.00000000000E+00  0.00000000000E+00  0.50000000000E+03  0.50000000000E+03  0.00000000000E+00 0. -1.
         11   -1    0    0    0    0 -0.00000000000E+00 -0.00000000000E+00 -0.50000000000E+03  0.50000000000E+03  0.00000000000E+00 0. -1.
        -11    1    1    2    0    0  0.16613061971E+02 -0.71825320189E+00  0.49559896198E+03  0.49587784870E+03  0.00000000000E+00 0. -1.
         11    1    1    2    0    0 -0.11930103031E+01  0.10050332968E+02 -0.47544910475E+03  0.47555681435E+03  0.00000000000E+00 0. -1.
        -15    1    1    2    0    0 -0.81776520921E+01 -0.94759761773E+01 -0.14294446966E+02  0.19082899709E+02  0.17770000000E+01 0.  1.
         15    1    1    2    0    0 -0.72423995759E+01  0.14389641125E+00 -0.58554102561E+01  0.94824372427E+01  0.17770000000E+01 0. -1.
</event>
<event>
 6    1  0.6394569E-004  0.5000506E+03  0.7546771E-02  0.9399697E-01
        -11   -1    0    0    0    0  0.00000000000E+00  0.00000000000E+00  0.50000000000E+03  0.50000000000E+03  0.00000000000E+00 0.  1.
         11   -1    0    0    0    0 -0.00000000000E+00 -0.00000000000E+00 -0.50000000000E+03  0.50000000000E+03  0.00000000000E+00 0. -1.
        -11    1    1    2    0    0 -0.17460576779E+02  0.65830213694E+01  0.38481000788E+03  0.38526218355E+03  0.00000000000E+00 0.  1.
         11    1    1    2    0    0  0.24284200055E+02 -0.66123014861E+01 -0.49931551489E+03  0.49994942575E+03  0.00000000000E+00 0. -1.
        -15    1    1    2    0    0 -0.17640256519E+01  0.23061519770E+00  0.26351452642E+02  0.26471149488E+02  0.17770000000E+01 0. -1.
         15    1    1    2    0    0 -0.50595976239E+01 -0.20133508100E+00  0.88154054368E+02  0.88317241207E+02  0.17770000000E+01 0.  1.
</event>
<event>
 6    1  0.6394569E-004  0.5006490E+03  0.7546771E-02  0.9398359E-01
        -11   -1    0    0    0    0  0.00000000000E+00  0.00000000000E+00  0.50000000000E+03  0.50000000000E+03  0.00000000000E+00 0. -1.
         11   -1    0    0    0    0 -0.00000000000E+00 -0.00000000000E+00 -0.50000000000E+03  0.50000000000E+03  0.00000000000E+00 0.  1.
        -11    1    1    2    0    0 -0.13812275741E+00 -0.24446025800E+02  0.49875220810E+03  0.49935097110E+03  0.00000000000E+00 0. -1.
         11    1    1    2    0    0 -0.14962505943E+01 -0.86523570151E+01 -0.77052233508E+02  0.77550942846E+02  0.00000000000E+00 0.  1.
        -15    1    1    2    0    0  0.39535416307E+01  0.85307359530E+01 -0.12893797421E+03  0.12929254762E+03  0.17770000000E+01 0.  1.
         15    1    1    2    0    0 -0.23191682789E+01  0.24567646862E+02 -0.29276200039E+03  0.29380553843E+03  0.17770000000E+01 0.  1.
</event>
<event>
 6    1  0.6394569E-004  0.5030895E+03  0.7546771E-02  0.9392923E-01
        -11   -1    0    0    0    0  0.00000000000E+00  0.00000000000E+00  0.50000000000E+03  0.50000000000E+03  0.00000000000E+00 0. -1.
         11   -1    0    0    0    0 -0.00000000000E+00 -0.00000000000E+00 -0.50000000000E+03  0.50000000000E+03  0.00000000000E+00 0.  1.
        -11    1    1    2    0    0  0.34769984482E+01  0.10373500273E+02  0.48962248706E+03  0.48974470784E+03  0.00000000000E+00 0. -1.
         11    1    1    2    0    0  0.52276222832E+01 -0.71106069927E+01 -0.49683209086E+03  0.49691047007E+03  0.00000000000E+00 0.  1.
        -15    1    1    2    0    0 -0.50927488444E+01 -0.86222514384E+00  0.98087157846E+00  0.55497172040E+01  0.17770000000E+01 0. -1.
         15    1    1    2    0    0 -0.36118718870E+01 -0.24006681362E+01  0.62287322171E+01  0.77951048781E+01  0.17770000000E+01 0.  1.
</event>
<event>
 6    1  0.6394569E-004  0.5001582E+03  0.7546771E-02  0.9399456E-01
        -11   -1    0    0    0    0  0.00000000000E+00  0.00000000000E+00  0.50000000000E+03  0.50000000000E+03  0.00000000000E+00 0.  1.
         11   -1    0    0    0    0 -0.00000000000E+00 -0.00000000000E+00 -0.50000000000E+03  0.50000000000E+03  0.00000000000E+00 0. -1.
        -11    1    1    2    0    0  0.21530054501E+02  0.25850709013E+02  0.40699628536E+03  0.40838435169E+03  0.00000000000E+00 0.  1.
         11    1    1    2    0    0 -0.19523590134E+02 -0.31125766293E+02 -0.49848957403E+03  0.49984181429E+03  0.00000000000E+00 0. -1.
        -15    1    1    2    0    0 -0.11706981001E+01  0.16463111421E+01  0.23089895885E+02  0.23246115706E+02  0.17770000000E+01 0.  1.
         15    1    1    2    0    0 -0.83576626658E+00  0.36287461380E+01  0.68403392785E+02  0.68527718313E+02  0.17770000000E+01 0.  1.
</event>
<event>
 6    1  0.6394569E-004  0.5074734E+03  0.7546771E-02  0.9383241E-01
        -11   -1    0    0    0    0  0.00000000000E+00  0.00000000000E+00  0.50000000000E+03  0.50000000000E+03  0.00000000000E+00 0. -1.
         11   -1    0    0    0    0 -0.00000000000E+00 -0.00000000000E+00 -0.50000000000E+03  0.50000000000E+03  0.00000000000E+00 0. -1.
        -11    1    1    2    0    0  0.63767005221E+02 -0.15242161876E+02  0.48814328562E+03  0.49252656959E+03  0.00000000000E+00 0. -1.
         11    1    1    2    0    0 -0.67029479923E+01 -0.11033267593E+02 -0.32786973541E+03  0.32812379661E+03  0.00000000000E+00 0. -1.
        -15    1    1    2    0    0 -0.63152854408E+02  0.13821385642E+02 -0.14427082861E+03  0.15810295202E+03  0.17770000000E+01 0. -1.
         15    1    1    2    0    0  0.60887971798E+01  0.12454043827E+02 -0.16002721598E+02  0.21246681771E+02  0.17770000000E+01 0.  1.
</event>
<event>
 6    1  0.6394569E-004  0.4438227E+03  0.7546771E-02  0.9535104E-01
        -11   -1    0    0    0    0  0.00000000000E+00  0.00000000000E+00  0.50000000000E+03  0.50000000000E+03  0.00000000000E+00 0. -1.
         11   -1    0    0    0    0 -0.00000000000E+00 -0.00000000000E+00 -0.50000000000E+03  0.50000000000E+03  0.00000000000E+00 0. -1.
        -11    1    1    2    0    0 -0.97221001315E+02  0.60744492593E+01  0.45046526175E+03  0.46087717895E+03  0.00000000000E+00 0. -1.
         11    1    1    2    0    0 -0.18656635630E+01 -0.85197778747E+01 -0.43238012476E+03  0.43246807929E+03  0.00000000000E+00 0. -1.
        -15    1    1    2    0    0  0.76621675231E+01  0.27493419973E+01  0.80141322039E+01  0.11560784426E+02  0.17770000000E+01 0. -1.
         15    1    1    2    0    0  0.91424497355E+02 -0.30401338183E+00 -0.26099269198E+02  0.95093957339E+02  0.17770000000E+01 0.  1.
</event>
<event>
 6    1  0.6394569E-004  0.5043410E+03  0.7546771E-02  0.9390149E-01
        -11   -1    0    0    0    0  0.00000000000E+00  0.00000000000E+00  0.50000000000E+03  0.50000000000E+03  0.00000000000E+00 0.  1.
         11   -1    0    0    0    0 -0.00000000000E+00 -0.00000000000E+00 -0.50000000000E+03  0.50000000000E+03  0.00000000000E+00 0. -1.
        -11    1    1    2    0    0  0.30661141410E+02  0.17577543808E+02  0.49439740688E+03  0.49565902753E+03  0.00000000000E+00 0.  1.
         11    1    1    2    0    0  0.11800035027E+01  0.30830124136E+02 -0.27439018325E+03  0.27611928876E+03  0.00000000000E+00 0. -1.
        -15    1    1    2    0    0 -0.45979528060E+01 -0.10494966077E+02 -0.74530795809E+02  0.75427334143E+02  0.17770000000E+01 0.  1.
         15    1    1    2    0    0 -0.27243192107E+02 -0.37912701867E+02 -0.14547642782E+03  0.15279434957E+03  0.17770000000E+01 0. -1.
</event>
<event>
 6    1  0.6394569E-004  0.5021601E+03  0.7546771E-02  0.9394989E-01
        -11   -1    0    0    0    0  0.00000000000E+00  0.00000000000E+00  0.50000000000E+03  0.50000000000E+03  0.00000000000E+00 0. -1.
         11   -1    0    0    0    0 -0.00000000000E+00 -0.00000000000E+00 -0.50000000000E+03  0.50000000000E+03  0.00000000000E+00 0.  1.
        -11    1    1    2    0    0  0.63870571029E+01 -0.31008973914E+01  0.49778927949E+03  0.49783991085E+03  0.00000000000E+00 0. -1.
         11    1    1    2    0    0  0.31546942837E+01 -0.76641464951E+01 -0.46567173417E+03  0.46574548333E+03  0.00000000000E+00 0.  1.
        -15    1    1    2    0    0 -0.71215029133E+01  0.10735258618E+02 -0.30121759401E+02  0.32809140491E+02  0.17770000000E+01 0. -1.
         15    1    1    2    0    0 -0.24202484732E+01  0.29785268536E-01 -0.19957859177E+01  0.36054653325E+01  0.17770000000E+01 0.  1.
</event>
<event>
 6    1  0.6394569E-004  0.5017148E+03  0.7546771E-02  0.9395981E-01
        -11   -1    0    0    0    0  0.00000000000E+00  0.00000000000E+00  0.50000000000E+03  0.50000000000E+03  0.00000000000E+00 0.  1.
         11   -1    0    0    0    0 -0.00000000000E+00 -0.00000000000E+00 -0.50000000000E+03  0.50000000000E+03  0.00000000000E+00 0.  1.
        -11    1    1    2    0    0 -0.25847001552E+01  0.88598797970E+01  0.11816437924E+02  0.14993543615E+02  0.00000000000E+00 0.  1.
         11    1    1    2    0    0 -0.98813419719E+01  0.11999954619E+00 -0.49818720278E+03  0.49828520381E+03  0.00000000000E+00 0.  1.
        -15    1    1    2    0    0  0.43561712646E+01 -0.31762976983E+01  0.31514384934E+03  0.31519496919E+03  0.17770000000E+01 0.  1.
         15    1    1    2    0    0  0.81098708625E+01 -0.58035816449E+01  0.17122691552E+03  0.17152628339E+03  0.17770000000E+01 0. -1.
</event>
<event>
 6    1  0.6394569E-004  0.5098882E+03  0.7546771E-02  0.9377952E-01
        -11   -1    0    0    0    0  0.00000000000E+00  0.00000000000E+00  0.50000000000E+03  0.50000000000E+03  0.00000000000E+00 0. -1.
         11   -1    0    0    0    0 -0.00000000000E+00 -0.00000000000E+00 -0.50000000000E+03  0.50000000000E+03  0.00000000000E+00 0. -1.
        -11    1    1    2    0    0  0.67750720367E+01 -0.16326735835E+02  0.46046955842E+03  0.46080872186E+03  0.00000000000E+00 0. -1.
         11    1    1    2    0    0 -0.30147969972E+02  0.56009342949E+01 -0.48915166744E+03  0.49011184878E+03  0.00000000000E+00 0. -1.
        -15    1    1    2    0    0  0.21406648573E+02  0.74617013458E+01  0.34851354131E+02  0.41613654056E+02  0.17770000000E+01 0.  1.
         15    1    1    2    0    0  0.19662493620E+01  0.32641001942E+01 -0.61692451155E+01  0.74657753065E+01  0.17770000000E+01 0. -1.
</event>
<event>
 6    1  0.6394569E-004  0.5083434E+03  0.7546771E-02  0.9381332E-01
        -11   -1    0    0    0    0  0.00000000000E+00  0.00000000000E+00  0.50000000000E+03  0.50000000000E+03  0.00000000000E+00 0.  1.
         11   -1    0    0    0    0 -0.00000000000E+00 -0.00000000000E+00 -0.50000000000E+03  0.50000000000E+03  0.00000000000E+00 0. -1.
        -11    1    1    2    0    0  0.11576727437E+02  0.82306677629E+01  0.49145136632E+03  0.49165659761E+03  0.00000000000E+00 0.  1.
         11    1    1    2    0    0  0.12181372642E+02  0.34354799674E+01 -0.47199885978E+03  0.47216852076E+03  0.00000000000E+00 0. -1.
        -15    1    1    2    0    0 -0.26267162877E+01  0.32312878411E+01 -0.37008905120E+01  0.58476644184E+01  0.17770000000E+01 0. -1.
         15    1    1    2    0    0 -0.21131383791E+02 -0.14897435571E+02 -0.15751616028E+02  0.30327217215E+02  0.17770000000E+01 0.  1.
</event>
<event>
 6    1  0.6394569E-004  0.5003083E+03  0.7546771E-02  0.9399120E-01
        -11   -1    0    0    0    0  0.00000000000E+00  0.00000000000E+00  0.50000000000E+03  0.50000000000E+03  0.00000000000E+00 0. -1.
         11   -1    0    0    0    0 -0.00000000000E+00 -0.00000000000E+00 -0.50000000000E+03  0.50000000000E+03  0.00000000000E+00 0. -1.
        -11    1    1    2    0    0 -0.81508063338E+01  0.73365084579E+01  0.83763271532E+02  0.84478077973E+02  0.00000000000E+00 0. -1.
         11    1    1    2    0    0  0.93238227766E+01 -0.12063438135E+02 -0.49945908437E+03  0.49969174215E+03  0.00000000000E+00 0. -1.
        -15    1    1    2    0    0 -0.32764096272E+01 -0.12055792740E+01  0.18611911328E+03  0.18616033504E+03  0.17770000000E+01 0.  1.
         15    1    1    2    0    0  0.21033931844E+01  0.59325089513E+01  0.22957669955E+03  0.22966984485E+03  0.17770000000E+01 0. -1.
</event>
<event>
 6    1  0.7798884E-004  0.5002845E+03  0.7546771E-02  0.9399173E-01
        -11   -1    0    0    0    0  0.00000000000E+00  0.00000000000E+00  0.50000000000E+03  0.50000000000E+03  0.00000000000E+00 0.  1.
         11   -1    0    0    0    0 -0.00000000000E+00 -0.00000000000E+00 -0.50000000000E+03  0.50000000000E+03  0.00000000000E+00 0. -1.
        -11    1    1    2    0    0 -0.36090469384E+02 -0.27512984960E+02  0.49765054171E+03  0.49971546703E+03  0.00000000000E+00 0.  1.
         11    1    1    2    0    0  0.27448993525E+02  0.26978231209E+02 -0.33228318758E+03  0.33450469198E+03  0.00000000000E+00 0. -1.
        -15    1    1    2    0    0  0.56317104801E+01 -0.20067883897E+01 -0.59868318215E+02  0.60192330221E+02  0.17770000000E+01 0.  1.
         15    1    1    2    0    0  0.30097653784E+01  0.25415421408E+01 -0.10549903591E+03  0.10558751077E+03  0.17770000000E+01 0. -1.
</event>
<event>
 6    1  0.6394569E-004  0.5009148E+03  0.7546771E-02  0.9397765E-01
        -11   -1    0    0    0    0  0.00000000000E+00  0.00000000000E+00  0.50000000000E+03  0.50000000000E+03  0.00000000000E+00 0. -1.
         11   -1    0    0    0    0 -0.00000000000E+00 -0.00000000000E+00 -0.50000000000E+03  0.50000000000E+03  0.00000000000E+00 0.  1.
        -11    1    1    2    0    0 -0.14117482844E+02 -0.10963309870E+02  0.15979774030E+03  0.16079432605E+03  0.00000000000E+00 0. -1.
         11    1    1    2    0    0 -0.17664845432E+00 -0.70425543356E+01 -0.49903546556E+03  0.49908518778E+03  0.00000000000E+00 0.  1.
        -15    1    1    2    0    0  0.87315455163E+01  0.13165813843E+02  0.27022403276E+03  0.27069127092E+03  0.17770000000E+01 0.  1.
         15    1    1    2    0    0  0.55625857825E+01  0.48400503624E+01  0.69013692499E+02  0.69429215244E+02  0.17770000000E+01 0. -1.
</event>
<event>
 6    1  0.6394569E-004  0.4693756E+03  0.7546771E-02  0.9471068E-01
        -11   -1    0    0    0    0  0.00000000000E+00  0.00000000000E+00  0.50000000000E+03  0.50000000000E+03  0.00000000000E+00 0. -1.
         11   -1    0    0    0    0 -0.00000000000E+00 -0.00000000000E+00 -0.50000000000E+03  0.50000000000E+03  0.00000000000E+00 0.  1.
        -11    1    1    2    0    0  0.46834163652E+02 -0.30969035196E+01  0.47587739240E+03  0.47818649322E+03  0.00000000000E+00 0. -1.
         11    1    1    2    0    0  0.48891834939E+01  0.49508037008E+01 -0.46203985510E+03  0.46209224433E+03  0.00000000000E+00 0.  1.
        -15    1    1    2    0    0 -0.48702074811E+02  0.98670515778E+00 -0.40118595306E+01  0.48909287706E+02  0.17770000000E+01 0. -1.
         15    1    1    2    0    0 -0.30212723352E+01 -0.28406053390E+01 -0.98256777700E+01  0.10811974744E+02  0.17770000000E+01 0. -1.
</event>
<event>
 6    1  0.6394569E-004  0.5148686E+03  0.7546771E-02  0.9367141E-01
        -11   -1    0    0    0    0  0.00000000000E+00  0.00000000000E+00  0.50000000000E+03  0.50000000000E+03  0.00000000000E+00 0. -1.
         11   -1    0    0    0    0 -0.00000000000E+00 -0.00000000000E+00 -0.50000000000E+03  0.50000000000E+03  0.00000000000E+00 0.  1.
        -11    1    1    2    0    0 -0.22674680879E+02 -0.11449875530E+02  0.44999278341E+03  0.45070915891E+03  0.00000000000E+00 0. -1.
         11    1    1    2    0    0 -0.11484080098E+02  0.36391465108E+02 -0.48362821618E+03  0.48513139902E+03  0.00000000000E+00 0.  1.
        -15    1    1    2    0    0  0.16366226714E+02  0.69657805054E+01  0.13555085908E+02  0.22433759334E+02  0.17770000000E+01 0. -1.
         15    1    1    2    0    0  0.17792534264E+02 -0.31907370083E+02  0.20080346862E+02  0.41725682742E+02  0.17770000000E+01 0.  1.
</event>
<event>
 6    1  0.6394569E-004  0.5009212E+03  0.7546771E-02  0.9397751E-01
        -11   -1    0    0    0    0  0.00000000000E+00  0.00000000000E+00  0.50000000000E+03  0.50000000000E+03  0.00000000000E+00 0.  1.
         11   -1    0    0    0    0 -0.00000000000E+00 -0.00000000000E+00 -0.50000000000E+03  0.50000000000E+03  0.00000000000E+00 0.  1.
        -11    1    1    2    0    0  0.25812363525E+02  0.13729437124E+02  0.26736966908E+03  0.26896340921E+03  0.00000000000E+00 0.  1.
         11    1    1    2    0    0 -0.26613737348E+02  0.26659611680E+01 -0.49836160728E+03  0.49907884145E+03  0.00000000000E+00 0.  1.
        -15    1    1    2    0    0 -0.29100564185E+01 -0.11041662421E+02  0.19472239637E+03  0.19506500484E+03  0.17770000000E+01 0.  1.
         15    1    1    2    0    0  0.37114302422E+01 -0.53537358709E+01  0.36269541838E+02  0.36892744495E+02  0.17770000000E+01 0. -1.
</event>
<event>
 6    1  0.6394569E-004  0.5000488E+03  0.7546771E-02  0.9399701E-01
        -11   -1    0    0    0    0  0.00000000000E+00  0.00000000000E+00  0.50000000000E+03  0.50000000000E+03  0.00000000000E+00 0.  1.
         11   -1    0    0    0    0 -0.00000000000E+00 -0.00000000000E+00 -0.50000000000E+03  0.50000000000E+03  0.00000000000E+00 0. -1.
        -11    1    1    2    0    0 -0.10489191056E+02 -0.54344723030E+01  0.49981162538E+03  0.49995121510E+03  0.00000000000E+00 0.  1.
         11    1    1    2    0    0 -0.46470096686E+00  0.24180381138E+01 -0.15698693770E+03  0.15700624658E+03  0.00000000000E+00 0. -1.
        -15    1    1    2    0    0  0.27346940697E+01  0.17915310740E+01 -0.10004541554E+03  0.10011458952E+03  0.17770000000E+01 0.  1.
         15    1    1    2    0    0  0.82191979528E+01  0.12249031152E+01 -0.24277927213E+03  0.24292794880E+03  0.17770000000E+01 0. -1.
</event>
<event>
 6    1  0.6394569E-004  0.5011172E+03  0.7546771E-02  0.9397313E-01
        -11   -1    0    0    0    0  0.00000000000E+00  0.00000000000E+00  0.50000000000E+03  0.50000000000E+03  0.00000000000E+00 0. -1.
         11   -1    0    0    0    0 -0.00000000000E+00 -0.00000000000E+00 -0.50000000000E+03  0.50000000000E+03  0.00000000000E+00 0.  1.
        -11    1    1    2    0    0  0.93837413352E+00 -0.85832172780E+01  0.49880807829E+03  0.49888280301E+03  0.00000000000E+00 0. -1.
         11    1    1    2    0    0  0.70113166334E+01 -0.18837722625E+01 -0.44542158698E+03  0.44548074853E+03  0.00000000000E+00 0.  1.
        -15    1    1    2    0    0 -0.71539153561E+01  0.30586981692E+01 -0.25787279575E+02  0.26993992967E+02  0.17770000000E+01 0. -1.
         15    1    1    2    0    0 -0.79577541081E+00  0.74082913713E+01 -0.27599211737E+02  0.28642455500E+02  0.17770000000E+01 0.  1.
</event>
<event>
 6    1  0.6394569E-004  0.5025794E+03  0.7546771E-02  0.9394057E-01
        -11   -1    0    0    0    0  0.00000000000E+00  0.00000000000E+00  0.50000000000E+03  0.50000000000E+03  0.00000000000E+00 0. -1.
         11   -1    0    0    0    0 -0.00000000000E+00 -0.00000000000E+00 -0.50000000000E+03  0.50000000000E+03  0.00000000000E+00 0. -1.
        -11    1    1    2    0    0 -0.20536165601E+02  0.19451885867E+02  0.35975550160E+03  0.36086580732E+03  0.00000000000E+00 0. -1.
         11    1    1    2    0    0  0.62399766200E+01  0.49386270763E+01 -0.49735692929E+03  0.49742058909E+03  0.00000000000E+00 0. -1.
        -15    1    1    2    0    0  0.98691853469E+01 -0.20040747010E+02  0.63627208820E+02  0.67458222563E+02  0.17770000000E+01 0.  1.
         15    1    1    2    0    0  0.44270036340E+01 -0.43497659334E+01  0.73974218868E+02  0.74255381024E+02  0.17770000000E+01 0. -1.
</event>
<event>
 6    1  0.6394569E-004  0.5147211E+03  0.7546771E-02  0.9367460E-01
        -11   -1    0    0    0    0  0.00000000000E+00  0.00000000000E+00  0.50000000000E+03  0.50000000000E+03  0.00000000000E+00 0. -1.
         11   -1    0    0    0    0 -0.00000000000E+00 -0.00000000000E+00 -0.50000000000E+03  0.50000000000E+03  0.00000000000E+00 0. -1.
        -11    1    1    2    0    0 -0.32490342054E+01  0.75529643135E+02  0.17122460506E+03  0.18717144172E+03  0.00000000000E+00 0. -1.
         11    1    1    2    0    0  0.18105110018E+02  0.12388585044E+02 -0.48478279956E+03  0.48527892474E+03  0.00000000000E+00 0. -1.
        -15    1    1    2    0    0  0.36769379191E+01 -0.31667929459E+01  0.56888533539E+01  0.76856510137E+01  0.17770000000E+01 0.  1.
         15    1    1    2    0    0 -0.18533013732E+02 -0.84751435233E+02  0.30786934114E+03  0.31986398253E+03  0.17770000000E+01 0. -1.
</event>
<event>
 6    1  0.6394569E-004  0.5003235E+03  0.7546771E-02  0.9399086E-01
        -11   -1    0    0    0    0  0.00000000000E+00  0.00000000000E+00  0.50000000000E+03  0.50000000000E+03  0.00000000000E+00 0.  1.
         11   -1    0    0    0    0 -0.00000000000E+00 -0.00000000000E+00 -0.50000000000E+03  0.50000000000E+03  0.00000000000E+00 0. -1.
        -11    1    1    2    0    0 -0.10985775372E+02  0.23644305501E+02  0.49899590029E+03  0.49967654433E+03  0.00000000000E+00 0.  1.
         11    1    1    2    0    0 -0.37674986837E+00 -0.34757532954E+01 -0.12593448422E+03  0.12598300329E+03  0.00000000000E+00 0. -1.
        -15    1    1    2    0    0  0.82978854335E+01 -0.21833857674E+02 -0.22279981016E+03  0.22402786742E+03  0.17770000000E+01 0.  1.
         15    1    1    2    0    0  0.30646398066E+01  0.16653054688E+01 -0.15026160590E+03  0.15031258496E+03  0.17770000000E+01 0. -1.
</event>
<event>
 6    1  0.6394569E-004  0.5065828E+03  0.7546771E-02  0.9385200E-01
        -11   -1    0    0    0    0  0.00000000000E+00  0.00000000000E+00  0.50000000000E+03  0.50000000000E+03  0.00000000000E+00 0.  1.
         11   -1    0    0    0    0 -0.00000000000E+00 -0.00000000000E+00 -0.50000000000E+03  0.50000000000E+03  0.00000000000E+00 0.  1.
        -11    1    1    2    0    0 -0.28702626508E+02  0.20631472874E+02  0.45028276354E+03  0.45166809228E+03  0.00000000000E+00 0.  1.
         11    1    1    2    0    0  0.11766938272E+02 -0.50857807354E-01 -0.49327691106E+03  0.49341724170E+03  0.00000000000E+00 0.  1.
        -15    1    1    2    0    0  0.12550936018E+02 -0.15621306309E+01  0.26028631040E+02  0.28993337336E+02  0.17770000000E+01 0.  1.
         15    1    1    2    0    0  0.43847522172E+01 -0.19018484436E+02  0.16965516477E+02  0.25921328681E+02  0.17770000000E+01 0. -1.
</event>
<event>
 6    1  0.6394569E-004  0.5004855E+03  0.7546771E-02  0.9398724E-01
        -11   -1    0    0    0    0  0.00000000000E+00  0.00000000000E+00  0.50000000000E+03  0.50000000000E+03  0.00000000000E+00 0.  1.
         11   -1    0    0    0    0 -0.00000000000E+00 -0.00000000000E+00 -0.50000000000E+03  0.50000000000E+03  0.00000000000E+00 0. -1.
        -11    1    1    2    0    0  0.17856513015E+02  0.56003487597E+01  0.49916384723E+03  0.49951452966E+03  0.00000000000E+00 0.  1.
         11    1    1    2    0    0 -0.71143308118E+01 -0.84884132189E+01 -0.42290861606E+03  0.42305361882E+03  0.00000000000E+00 0. -1.
        -15    1    1    2    0    0 -0.52605436551E-01  0.17770861625E+01 -0.16792614685E+02  0.16979706697E+02  0.17770000000E+01 0. -1.
         15    1    1    2    0    0 -0.10689576767E+02  0.11109782968E+01 -0.59462616486E+02  0.60452144813E+02  0.17770000000E+01 0.  1.
</event>
<event>
 6    1  0.6394569E-004  0.5006817E+03  0.7546771E-02  0.9398286E-01
        -11   -1    0    0    0    0  0.00000000000E+00  0.00000000000E+00  0.50000000000E+03  0.50000000000E+03  0.00000000000E+00 0.  1.
         11   -1    0    0    0    0 -0.00000000000E+00 -0.00000000000E+00 -0.50000000000E+03  0.50000000000E+03  0.00000000000E+00 0.  1.
        -11    1    1    2    0    0  0.17985361239E+01 -0.15862850290E+02  0.49906306626E+03  0.49931834420E+03  0.00000000000E+00 0.  1.
         11    1    1    2    0    0  0.61438552371E+01  0.10289178432E+01 -0.39288052057E+03  0.39292990351E+03  0.00000000000E+00 0.  1.
        -15    1    1    2    0    0 -0.39720905200E+01  0.27138469710E+01 -0.40068085049E+02  0.40394945686E+02  0.17770000000E+01 0.  1.
         15    1    1    2    0    0 -0.39703008411E+01  0.12120085476E+02 -0.66114460644E+02  0.67356806604E+02  0.17770000000E+01 0. -1.
</event>
<event>
 6    1  0.6394569E-004  0.4688157E+03  0.7546771E-02  0.9472425E-01
        -11   -1    0    0    0    0  0.00000000000E+00  0.00000000000E+00  0.50000000000E+03  0.50000000000E+03  0.00000000000E+00 0. -1.
         11   -1    0    0    0    0 -0.00000000000E+00 -0.00000000000E+00 -0.50000000000E+03  0.50000000000E+03  0.00000000000E+00 0.  1.
        -11    1    1    2    0    0 -0.26561206430E+02 -0.12533334865E+02  0.47569713059E+03  0.47660291881E+03  0.00000000000E+00 0. -1.
         11    1    1    2    0    0 -0.11249618506E+02 -0.64074211688E+01 -0.46190160379E+03  0.46208300180E+03  0.00000000000E+00 0.  1.
        -15    1    1    2    0    0  0.34735614264E+02  0.40950073896E+01  0.68031087699E+01  0.35675930286E+02  0.17770000000E+01 0.  1.
         15    1    1    2    0    0  0.30752106725E+01  0.14845748644E+02 -0.20598635566E+02  0.25638149107E+02  0.17770000000E+01 0. -1.
</event>
<event>
 6    1  0.6394569E-004  0.3944722E+03  0.7546771E-02  0.9672876E-01
        -11   -1    0    0    0    0  0.00000000000E+00  0.00000000000E+00  0.50000000000E+03  0.50000000000E+03  0.00000000000E+00 0. -1.
         11   -1    0    0    0    0 -0.00000000000E+00 -0.00000000000E+00 -0.50000000000E+03  0.50000000000E+03  0.00000000000E+00 0.  1.
        -11    1    1    2    0    0 -0.83982915999E+02 -0.77518780245E+02  0.41346375939E+03  0.42896919680E+03  0.00000000000E+00 0. -1.
         11    1    1    2    0    0 -0.67757713116E+02  0.49824216386E+02 -0.36674846508E+03  0.37626851697E+03  0.00000000000E+00 0.  1.
        -15    1    1    2    0    0  0.60564377452E+02 -0.20468541024E+02  0.25511521001E+02  0.68854922994E+02  0.17770000000E+01 0. -1.
         15    1    1    2    0    0  0.91176251662E+02  0.48163104883E+02 -0.72226815314E+02  0.12590736324E+03  0.17770000000E+01 0.  1.
</event>
<event>
 6    1  0.6394569E-004  0.5004001E+03  0.7546771E-02  0.9398915E-01
        -11   -1    0    0    0    0  0.00000000000E+00  0.00000000000E+00  0.50000000000E+03  0.50000000000E+03  0.00000000000E+00 0. -1.
         11   -1    0    0    0    0 -0.00000000000E+00 -0.00000000000E+00 -0.50000000000E+03  0.50000000000E+03  0.00000000000E+00 0. -1.
        -11    1    1    2    0    0 -0.18413519717E+01 -0.20853812209E+02  0.14877831222E+03  0.15024399571E+03  0.00000000000E+00 0. -1.
         11    1    1    2    0    0  0.78364857466E+01  0.27247518458E+02 -0.49879477904E+03  0.49959990929E+03  0.00000000000E+00 0. -1.
        -15    1    1    2    0    0 -0.30045458758E+01 -0.43968870530E+01  0.24216732919E+03  0.24223239455E+03  0.17770000000E+01 0. -1.
         15    1    1    2    0    0 -0.29905878991E+01 -0.19968191962E+01  0.10784913762E+03  0.10792370045E+03  0.17770000000E+01 0. -1.
</event>
<event>
 6    1  0.6394569E-004  0.5025973E+03  0.7546771E-02  0.9394017E-01
        -11   -1    0    0    0    0  0.00000000000E+00  0.00000000000E+00  0.50000000000E+03  0.50000000000E+03  0.00000000000E+00 0.  1.
         11   -1    0    0    0    0 -0.00000000000E+00 -0.00000000000E+00 -0.50000000000E+03  0.50000000000E+03  0.00000000000E+00 0.  1.
        -11    1    1    2    0    0  0.13937995158E+02  0.11249040016E+02  0.38415059057E+03  0.38456791968E+03  0.00000000000E+00 0.  1.
         11    1    1    2    0    0  0.54946564540E+01  0.12162446096E+02 -0.49722357820E+03  0.49740265687E+03  0.00000000000E+00 0.  1.
        -15    1    1    2    0    0 -0.78982010096E+01 -0.63948867238E+01  0.63514788544E+02  0.64347200780E+02  0.17770000000E+01 0.  1.
         15    1    1    2    0    0 -0.11534450602E+02 -0.17016599388E+02  0.49558199082E+02  0.53682222669E+02  0.17770000000E+01 0.  1.
</event>
<event>
 6    1  0.6394569E-004  0.5001163E+03  0.7546771E-02  0.9399550E-01
        -11   -1    0    0    0    0  0.00000000000E+00  0.00000000000E+00  0.50000000000E+03  0.50000000000E+03  0.00000000000E+00 0. -1.
         11   -1    0    0    0    0 -0.00000000000E+00 -0.00000000000E+00 -0.50000000000E+03  0.50000000000E+03  0.00000000000E+00 0. -1.
        -11    1    1    2    0    0 -0.97492798192E+01 -0.17651533704E+02  0.49947681681E+03  0.49988370210E+03  0.00000000000E+00 0. -1.
         11    1    1    2    0    0  0.31316394010E+01  0.15397176244E+02 -0.39776970381E+03  0.39807991343E+03  0.00000000000E+00 0. -1.
        -15    1    1    2    0    0  0.43897281971E+01  0.77155129927E+00 -0.50047425461E+02  0.50276908510E+02  0.17770000000E+01 0. -1.
         15    1    1    2    0    0  0.22279122211E+01  0.14828061610E+01 -0.51659687533E+02  0.51759475963E+02  0.17770000000E+01 0. -1.
</event>
<event>
 6    1  0.6394569E-004  0.5100883E+03  0.7546771E-02  0.9377515E-01
        -11   -1    0    0    0    0  0.00000000000E+00  0.00000000000E+00  0.50000000000E+03  0.50000000000E+03  0.00000000000E+00 0.  1.
         11   -1    0    0    0    0 -0.00000000000E+00 -0.00000000000E+00 -0.50000000000E+03  0.50000000000E+03  0.00000000000E+00 0.  1.
        -11    1    1    2    0    0 -0.42507296545E+02  0.35246048917E+02  0.48678985769E+03  0.48991174692E+03  0.00000000000E+00 0.  1.
         11    1    1    2    0    0 -0.31071089714E+01 -0.48497660589E+01 -0.36932358357E+03  0.36936849315E+03  0.00000000000E+00 0.  1.
        -15    1    1    2    0    0  0.42252617192E+01  0.52313637275E+01 -0.63644385664E+02  0.64023320427E+02  0.17770000000E+01 0.  1.
         15    1    1    2    0    0  0.41389143797E+02 -0.35627646586E+02 -0.53821888457E+02  0.76696439497E+02  0.17770000000E+01 0. -1.
</event>
<event>
 6    1  0.6394569E-004  0.5003951E+03  0.7546771E-02  0.9398926E-01
        -11   -1    0    0    0    0  0.00000000000E+00  0.00000000000E+00  0.50000000000E+03  0.50000000000E+03  0.00000000000E+00 0. -1.
         11   -1    0    0    0    0 -0.00000000000E+00 -0.00000000000E+00 -0.50000000000E+03  0.50000000000E+03  0.00000000000E+00 0.  1.
        -11    1    1    2    0    0 -0.13854062479E+02 -0.73991791104E+01  0.12368955929E+03  0.12468275733E+03  0.00000000000E+00 0. -1.
         11    1    1    2    0    0  0.10544467362E+02  0.13233545694E+02 -0.49931825111E+03  0.49960487229E+03  0.00000000000E+00 0.  1.
        -15    1    1    2    0    0  0.30236225852E+00 -0.25681897520E+01  0.15782110654E+03  0.15785229305E+03  0.17770000000E+01 0.  1.
         15    1    1    2    0    0  0.30072328581E+01 -0.32661768314E+01  0.21780758528E+03  0.21786007733E+03  0.17770000000E+01 0. -1.
</event>
<event>
 6    1  0.6394569E-004  0.4822459E+03  0.7546771E-02  0.9440436E-01
        -11   -1    0    0    0    0  0.00000000000E+00  0.00000000000E+00  0.50000000000E+03  0.50000000000E+03  0.00000000000E+00 0. -1.
         11   -1    0    0    0    0 -0.00000000000E+00 -0.00000000000E+00 -0.50000000000E+03  0.50000000000E+03  0.00000000000E+00 0. -1.
        -11    1    1    2    0    0 -0.24621862379E+02 -0.93515727287E+01  0.47941013540E+03  0.48013307108E+03  0.00000000000E+00 0. -1.
         11    1    1    2    0    0 -0.75260501096E+01  0.65126964552E+01 -0.48481149083E+03  0.48491364003E+03  0.00000000000E+00 0. -1.
        -15    1    1    2    0    0  0.80955232773E+01  0.12316973113E+01 -0.36539814143E+01  0.91413283813E+01  0.17770000000E+01 0. -1.
         15    1    1    2    0    0  0.24052389211E+02  0.16071789622E+01  0.90553368430E+01  0.25811960509E+02  0.17770000000E+01 0.  1.
</event>
<event>
 6    1  0.6394569E-004  0.5012494E+03  0.7546771E-02  0.9397018E-01
        -11   -1    0    0    0    0  0.00000000000E+00  0.00000000000E+00  0.50000000000E+03  0.50000000000E+03  0.00000000000E+00 0. -1.
         11   -1    0    0    0    0 -0.00000000000E+00 -0.00000000000E+00 -0.50000000000E+03  0.50000000000E+03  0.00000000000E+00 0. -1.
        -11    1    1    2    0    0 -0.11820875918E+02  0.76076625288E+01  0.40731386047E+03  0.40755636490E+03  0.00000000000E+00 0. -1.
         11    1    1    2    0    0 -0.60325577418E+00 -0.70915256512E+01 -0.49869980175E+03  0.49875058488E+03  0.00000000000E+00 0. -1.
        -15    1    1    2    0    0  0.23552992623E+01  0.68742758604E+01  0.24088791699E+02  0.25223614288E+02  0.17770000000E+01 0. -1.
         15    1    1    2    0    0  0.10068832430E+02 -0.73904127380E+01  0.67297149579E+02  0.68469435936E+02  0.17770000000E+01 0.  1.
</event>
<event>
 6    1  0.6394569E-004  0.5001029E+03  0.7546771E-02  0.9399580E-01
        -11   -1    0    0    0    0  0.00000000000E+00  0.00000000000E+00  0.50000000000E+03  0.50000000000E+03  0.00000000000E+00 0. -1.
         11   -1    0    0    0    0 -0.00000000000E+00 -0.00000000000E+00 -0.50000000000E+03  0.50000000000E+03  0.00000000000E+00 0. -1.
        -11    1    1    2    0    0  0.36392425294E+01 -0.16672161040E+02  0.42691581426E+03  0.42725673489E+03  0.00000000000E+00 0. -1.
         11    1    1    2    0    0 -0.62428156635E+01  0.17142882345E+02 -0.49956407915E+03  0.49989710975E+03  0.00000000000E+00 0. -1.
        -15    1    1    2    0    0  0.76794942864E-02 -0.11440749598E+01  0.32980843691E+02  0.33048490828E+02  0.17770000000E+01 0. -1.
         15    1    1    2    0    0  0.25958936398E+01  0.67335365425E+00  0.39667421195E+02  0.39797664532E+02  0.17770000000E+01 0.  1.
</event>
<event>
 6    1  0.6394569E-004  0.5005841E+03  0.7546771E-02  0.9398504E-01
        -11   -1    0    0    0    0  0.00000000000E+00  0.00000000000E+00  0.50000000000E+03  0.50000000000E+03  0.00000000000E+00 0.  1.
         11   -1    0    0    0    0 -0.00000000000E+00 -0.00000000000E+00 -0.50000000000E+03  0.50000000000E+03  0.00000000000E+00 0. -1.
        -11    1    1    2    0    0 -0.13272915263E+01 -0.11195487746E+02  0.17657073515E+03  0.17693028334E+03  0.00000000000E+00 0.  1.
         11    1    1    2    0    0  0.10740642932E+02  0.67024507754E+00 -0.49929989434E+03  0.49941585390E+03  0.00000000000E+00 0. -1.
        -15    1    1    2    0    0 -0.14844246192E+02  0.37455590073E+01  0.18595215951E+03  0.18658977521E+03  0.17770000000E+01 0. -1.
         15    1    1    2    0    0  0.54308947861E+01  0.67796836607E+01  0.13677699967E+03  0.13706408756E+03  0.17770000000E+01 0.  1.
</event>
<event>
 6    1  0.6394569E-004  0.5010565E+03  0.7546771E-02  0.9397449E-01
        -11   -1    0    0    0    0  0.00000000000E+00  0.00000000000E+00  0.50000000000E+03  0.50000000000E+03  0.00000000000E+00 0.  1.
         11   -1    0    0    0    0 -0.00000000000E+00 -0.00000000000E+00 -0.50000000000E+03  0.50000000000E+03  0.00000000000E+00 0. -1.
        -11    1    1    2    0    0 -0.56004061243E+01  0.89748235097E+01  0.49883136945E+03  0.49894353102E+03  0.00000000000E+00 0.  1.
         11    1    1    2    0    0 -0.66605048789E+01  0.87155869080E+00 -0.37830844999E+03  0.37836808174E+03  0.00000000000E+00 0. -1.
        -15    1    1    2    0    0  0.90968618760E+00 -0.27176205739E+01 -0.77882910494E+02  0.77955875125E+02  0.17770000000E+01 0. -1.
         15    1    1    2    0    0  0.11351224816E+02 -0.71287616265E+01 -0.42640008960E+02  0.44732512116E+02  0.17770000000E+01 0.  1.
</event>
<event>
 6    1  0.6394569E-004  0.5003667E+03  0.7546771E-02  0.9398990E-01
        -11   -1    0    0    0    0  0.00000000000E+00  0.00000000000E+00  0.50000000000E+03  0.50000000000E+03  0.00000000000E+00 0.  1.
         11   -1    0    0    0    0 -0.00000000000E+00 -0.00000000000E+00 -0.50000000000E+03  0.50000000000E+03  0.00000000000E+00 0.  1.
        -11    1    1    2    0    0  0.33390037515E+00  0.93600247974E+01  0.38097776032E+03  0.38109286980E+03  0.00000000000E+00 0.  1.
         11    1    1    2    0    0  0.64926854788E+01 -0.78384469631E+01 -0.49952959073E+03  0.49963327374E+03  0.00000000000E+00 0.  1.
        -15    1    1    2    0    0 -0.15475245707E+01 -0.45625795590E+01  0.83098892640E+02  0.83257405986E+02  0.17770000000E+01 0.  1.
         15    1    1    2    0    0 -0.52790612833E+01  0.30410017247E+01  0.35452937765E+02  0.36016450473E+02  0.17770000000E+01 0. -1.
</event>
<event>
 6    1  0.6394569E-004  0.5250701E+03  0.7546771E-02  0.9345397E-01
        -11   -1    0    0    0    0  0.00000000000E+00  0.00000000000E+00  0.50000000000E+03  0.50000000000E+03  0.00000000000E+00 0.  1.
         11   -1    0    0    0    0 -0.00000000000E+00 -0.00000000000E+00 -0.50000000000E+03  0.50000000000E+03  0.00000000000E+00 0.  1.
        -11    1    1    2    0    0 -0.62404695666E+02  0.30303892895E+02  0.38948096351E+03  0.39561103739E+03  0.00000000000E+00 0.  1.
         11    1    1    2    0    0 -0.14525440577E+02  0.21290240546E+02 -0.47423001577E+03  0.47492985864E+03  0.00000000000E+00 0.  1.
        -15    1    1    2    0    0  0.63060141759E+02 -0.37386429953E+02  0.80839841109E+02  0.10914469416E+03  0.17770000000E+01 0.  1.
         15    1    1    2    0    0  0.13869994483E+02 -0.14207703488E+02  0.39092111485E+01  0.20314409816E+02  0.17770000000E+01 0. -1.
</event>
<event>
 6    1  0.6394569E-004  0.5002411E+03  0.7546771E-02  0.9399270E-01
        -11   -1    0    0    0    0  0.00000000000E+00  0.00000000000E+00  0.50000000000E+03  0.50000000000E+03  0.00000000000E+00 0. -1.
         11   -1    0    0    0    0 -0.00000000000E+00 -0.00000000000E+00 -0.50000000000E+03  0.50000000000E+03  0.00000000000E+00 0.  1.
        -11    1    1    2    0    0  0.82746594516E+01  0.76349861969E+01  0.42880718070E+03  0.42895496409E+03  0.00000000000E+00 0. -1.
         11    1    1    2    0    0 -0.72641597804E+01 -0.14953043695E+01 -0.49970388159E+03  0.49975891511E+03  0.00000000000E+00 0.  1.
        -15    1    1    2    0    0 -0.70314879839E+00 -0.33918743028E+01  0.28908269854E+02  0.29169247924E+02  0.17770000000E+01 0.  1.
         15    1    1    2    0    0 -0.30735087287E+00 -0.27478075245E+01  0.41988431040E+02  0.42116872877E+02  0.17770000000E+01 0.  1.
</event>
<event>
 6    1  0.6394569E-004  0.5214105E+03  0.7546771E-02  0.9353137E-01
        -11   -1    0    0    0    0  0.00000000000E+00  0.00000000000E+00  0.50000000000E+03  0.50000000000E+03  0.00000000000E+00 0. -1.
         11   -1    0    0    0    0 -0.00000000000E+00 -0.00000000000E+00 -0.50000000000E+03  0.50000000000E+03  0.00000000000E+00 0. -1.
        -11    1    1    2    0    0  0.51266898084E+02 -0.38667821550E+02  0.29505193376E+03  0.30195883640E+03  0.00000000000E+00 0. -1.
         11    1    1    2    0    0  0.58217765152E+01  0.89392681770E+01 -0.47847063499E+03  0.47858954454E+03  0.00000000000E+00 0. -1.
        -15    1    1    2    0    0  0.24906903220E+02  0.15042411156E+02  0.88369861720E+02  0.93053845438E+02  0.17770000000E+01 0. -1.
         15    1    1    2    0    0 -0.81995577820E+02  0.14686142217E+02  0.95048839506E+02  0.12639777362E+03  0.17770000000E+01 0.  1.
</event>
<event>
 6    1  0.6394569E-004  0.5020535E+03  0.7546771E-02  0.9395227E-01
        -11   -1    0    0    0    0  0.00000000000E+00  0.00000000000E+00  0.50000000000E+03  0.50000000000E+03  0.00000000000E+00 0. -1.
         11   -1    0    0    0    0 -0.00000000000E+00 -0.00000000000E+00 -0.50000000000E+03  0.50000000000E+03  0.00000000000E+00 0. -1.
        -11    1    1    2    0    0 -0.11165610254E+00 -0.20546762839E+02  0.49752240442E+03  0.49794650800E+03  0.00000000000E+00 0. -1.
         11    1    1    2    0    0 -0.72719487679E+01 -0.19609376555E+01 -0.33731975160E+03  0.33740382531E+03  0.00000000000E+00 0. -1.
        -15    1    1    2    0    0  0.14384647880E+02  0.39067600447E+01 -0.38517004129E+02  0.41338822005E+02  0.17770000000E+01 0.  1.
         15    1    1    2    0    0 -0.70010430096E+01  0.18600940450E+02 -0.12168564869E+03  0.12331084468E+03  0.17770000000E+01 0. -1.
</event>
<event>
 6    1  0.6394569E-004  0.5110458E+03  0.7546771E-02  0.9375428E-01
        -11   -1    0    0    0    0  0.00000000000E+00  0.00000000000E+00  0.50000000000E+03  0.50000000000E+03  0.00000000000E+00 0.  1.
         11   -1    0    0    0    0 -0.00000000000E+00 -0.00000000000E+00 -0.50000000000E+03  0.50000000000E+03  0.00000000000E+00 0. -1.
        -11    1    1    2    0    0  0.18061794971E+02  0.27466022598E+02  0.41981172577E+03  0.42109677739E+03  0.00000000000E+00 0.  1.
         11    1    1    2    0    0 -0.39230917010E+01  0.70420169487E+01 -0.48888778059E+03  0.48895423370E+03  0.00000000000E+00 0. -1.
        -15    1    1    2    0    0 -0.15978849164E+02 -0.30108130776E+02  0.74842349502E+02  0.82257876020E+02  0.17770000000E+01 0. -1.
         15    1    1    2    0    0  0.18401458937E+01 -0.43999087707E+01 -0.57662946818E+01  0.76911128881E+01  0.17770000000E+01 0.  1.
</event>
<event>
 6    1  0.6394569E-004  0.5023177E+03  0.7546771E-02  0.9394638E-01
        -11   -1    0    0    0    0  0.00000000000E+00  0.00000000000E+00  0.50000000000E+03  0.50000000000E+03  0.00000000000E+00 0.  1.
         11   -1    0    0    0    0 -0.00000000000E+00 -0.00000000000E+00 -0.50000000000E+03  0.50000000000E+03  0.00000000000E+00 0. -1.
        -11    1    1    2    0    0  0.92765136516E+01  0.11107459972E+02  0.49747181216E+03  0.49768226135E+03  0.00000000000E+00 0.  1.
         11    1    1    2    0    0 -0.62790197991E+01  0.69555522020E+00 -0.46373299045E+03  0.46377601956E+03  0.00000000000E+00 0. -1.
        -15    1    1    2    0    0 -0.49440725057E+01 -0.11645114298E+02 -0.15379425895E+02  0.19993424165E+02  0.17770000000E+01 0. -1.
         15    1    1    2    0    0  0.19465786532E+01 -0.15790089395E+00 -0.18359395811E+02  0.18548294927E+02  0.17770000000E+01 0.  1.
</event>
<event>
 6    1  0.6394569E-004  0.5053814E+03  0.7546771E-02  0.9387848E-01
        -11   -1    0    0    0    0  0.00000000000E+00  0.00000000000E+00  0.50000000000E+03  0.50000000000E+03  0.00000000000E+00 0.  1.
         11   -1    0    0    0    0 -0.00000000000E+00 -0.00000000000E+00 -0.50000000000E+03  0.50000000000E+03  0.00000000000E+00 0. -1.
        -11    1    1    2    0    0 -0.10949128474E+02  0.32238686805E+00  0.47376638385E+03  0.47389299828E+03  0.00000000000E+00 0.  1.
         11    1    1    2    0    0 -0.39891160462E+00 -0.68563286173E+01 -0.49457095111E+03  0.49461863497E+03  0.00000000000E+00 0. -1.
        -15    1    1    2    0    0  0.67472998195E+00 -0.29561635292E+01  0.15899241982E+02  0.16283052169E+02  0.17770000000E+01 0.  1.
         15    1    1    2    0    0  0.10673310097E+02  0.94901052785E+01  0.49053252793E+01  0.15205314588E+02  0.17770000000E+01 0. -1.
</event>
<event>
 6    1  0.6394569E-004  0.5013510E+03  0.7546771E-02  0.9396792E-01
        -11   -1    0    0    0    0  0.00000000000E+00  0.00000000000E+00  0.50000000000E+03  0.50000000000E+03  0.00000000000E+00 0. -1.
         11   -1    0    0    0    0 -0.00000000000E+00 -0.00000000000E+00 -0.50000000000E+03  0.50000000000E+03  0.00000000000E+00 0.  1.
        -11    1    1    2    0    0 -0.92324916213E+01  0.80644489256E+01  0.49849834143E+03  0.49864904556E+03  0.00000000000E+00 0. -1.
         11    1    1    2    0    0 -0.69602588130E+01 -0.72689140836E+00 -0.42549464890E+03  0.42555219400E+03  0.00000000000E+00 0.  1.
        -15    1    1    2    0    0  0.10677948111E+02 -0.81757791457E+01 -0.38929518727E+02  0.41225321076E+02  0.17770000000E+01 0.  1.
         15    1    1    2    0    0  0.55148023232E+01  0.83822162850E+00 -0.34074173798E+02  0.34573439360E+02  0.17770000000E+01 0. -1.
</event>
<event>
 6    1  0.6394569E-004  0.4853927E+03  0.7546771E-02  0.9433101E-01
        -11   -1    0    0    0    0  0.00000000000E+00  0.00000000000E+00  0.50000000000E+03  0.50000000000E+03  0.00000000000E+00 0. -1.
         11   -1    0    0    0    0 -0.00000000000E+00 -0.00000000000E+00 -0.50000000000E+03  0.50000000000E+03  0.00000000000E+00 0.  1.
        -11    1    1    2    0    0 -0.15325965199E+02  0.49271895976E+01  0.49022411486E+03  0.49048837417E+03  0.00000000000E+00 0. -1.
         11    1    1    2    0    0 -0.88893035285E+01  0.29557993496E+01 -0.48058740985E+03  0.48067870243E+03  0.00000000000E+00 0.  1.
        -15    1    1    2    0    0  0.15227321468E+01 -0.95629617604E+00  0.10664142426E+01  0.27437536158E+01  0.17770000000E+01 0. -1.
         15    1    1    2    0    0  0.22692536581E+02 -0.69266927712E+01 -0.10703119256E+02  0.26089169784E+02  0.17770000000E+01 0.  1.
</event>
<event>
 6    1  0.6394569E-004  0.5017570E+03  0.7546771E-02  0.9395887E-01
        -11   -1    0    0    0    0  0.00000000000E+00  0.00000000000E+00  0.50000000000E+03  0.50000000000E+03  0.00000000000E+00 0.  1.
         11   -1    0    0    0    0 -0.00000000000E+00 -0.00000000000E+00 -0.50000000000E+03  0.50000000000E+03  0.00000000000E+00 0. -1.
        -11    1    1    2    0    0  0.18196402930E+02 -0.34460511998E+02  0.16677806851E+03  0.17127042974E+03  0.00000000000E+00 0.  1.
         11    1    1    2    0    0  0.52484163409E+01  0.45117240237E+02 -0.49616829006E+03  0.49824299624E+03  0.00000000000E+00 0. -1.
        -15    1    1    2    0    0 -0.19838214560E+02 -0.83804621986E+01  0.29450975657E+03  0.29530144149E+03  0.17770000000E+01 0.  1.
         15    1    1    2    0    0 -0.36066047104E+01 -0.22762660396E+01  0.34880464987E+02  0.35185132532E+02  0.17770000000E+01 0.  1.
</event>
<event>
 6    1  0.6394569E-004  0.5017240E+03  0.7546771E-02  0.9395960E-01
        -11   -1    0    0    0    0  0.00000000000E+00  0.00000000000E+00  0.50000000000E+03  0.50000000000E+03  0.00000000000E+00 0.  1.
         11   -1    0    0    0    0 -0.00000000000E+00 -0.00000000000E+00 -0.50000000000E+03  0.50000000000E+03  0.00000000000E+00 0.  1.
        -11    1    1    2    0    0 -0.15906732159E+02  0.82486664385E+01  0.46008519998E+03  0.46043398644E+03  0.00000000000E+00 0.  1.
         11    1    1    2    0    0  0.60697513405E+01 -0.16311772271E+02 -0.49797189478E+03  0.49827595144E+03  0.00000000000E+00 0.  1.
        -15    1    1    2    0    0  0.86812979865E+01  0.90753910274E+00  0.19086413728E+02  0.21062703529E+02  0.17770000000E+01 0.  1.
         15    1    1    2    0    0  0.11556828322E+01  0.71555667293E+01  0.18800281068E+02  0.20227358584E+02  0.17770000000E+01 0. -1.
</event>
<event>
 6    1  0.6394569E-004  0.4664736E+03  0.7546771E-02  0.9478120E-01
        -11   -1    0    0    0    0  0.00000000000E+00  0.00000000000E+00  0.50000000000E+03  0.50000000000E+03  0.00000000000E+00 0.  1.
         11   -1    0    0    0    0 -0.00000000000E+00 -0.00000000000E+00 -0.50000000000E+03  0.50000000000E+03  0.00000000000E+00 0.  1.
        -11    1    1    2    0    0 -0.15436027822E+02  0.18373376654E+02  0.47671239781E+03  0.47731599822E+03  0.00000000000E+00 0.  1.
         11    1    1    2    0    0  0.11721331316E+02  0.16944011649E+02 -0.45606985334E+03  0.45653499348E+03  0.00000000000E+00 0.  1.
        -15    1    1    2    0    0 -0.62320929301E+01 -0.19505759593E+02  0.15286280729E+02  0.25615263947E+02  0.17770000000E+01 0.  1.
         15    1    1    2    0    0  0.99467894365E+01 -0.15811628710E+02 -0.35928825198E+02  0.40533744358E+02  0.17770000000E+01 0. -1.
</event>
<event>
 6    1  0.6394569E-004  0.5006401E+03  0.7546771E-02  0.9398379E-01
        -11   -1    0    0    0    0  0.00000000000E+00  0.00000000000E+00  0.50000000000E+03  0.50000000000E+03  0.00000000000E+00 0. -1.
         11   -1    0    0    0    0 -0.00000000000E+00 -0.00000000000E+00 -0.50000000000E+03  0.50000000000E+03  0.00000000000E+00 0.  1.
        -11    1    1    2    0    0  0.66808689439E+02 -0.27040850010E+01  0.49486321862E+03  0.49935990849E+03  0.00000000000E+00 0. -1.
         11    1    1    2    0    0 -0.43896753492E+02 -0.74705515161E+00 -0.40784900838E+03  0.41020518852E+03  0.00000000000E+00 0.  1.
        -15    1    1    2    0    0 -0.18343563875E+02  0.35585336176E+01 -0.56680652465E+02  0.59707651018E+02  0.17770000000E+01 0.  1.
         15    1    1    2    0    0 -0.45683720722E+01 -0.10739346504E+00 -0.30333557783E+02  0.30727251968E+02  0.17770000000E+01 0. -1.
</event>
<event>
 6    1  0.6394569E-004  0.5062013E+03  0.7546771E-02  0.9386040E-01
        -11   -1    0    0    0    0  0.00000000000E+00  0.00000000000E+00  0.50000000000E+03  0.50000000000E+03  0.00000000000E+00 0.  1.
         11   -1    0    0    0    0 -0.00000000000E+00 -0.00000000000E+00 -0.50000000000E+03  0.50000000000E+03  0.00000000000E+00 0. -1.
        -11    1    1    2    0    0  0.16377510176E+02 -0.28958048965E+01  0.46361549027E+03  0.46391371109E+03  0.00000000000E+00 0.  1.
         11    1    1    2    0    0  0.23295797843E+01  0.14821779912E+02 -0.49357067687E+03  0.49379866866E+03  0.00000000000E+00 0. -1.
        -15    1    1    2    0    0 -0.53825005122E+01 -0.69986034990E+01 -0.88951338768E-01  0.90065200850E+01  0.17770000000E+01 0. -1.
         15    1    1    2    0    0 -0.13324589448E+02 -0.49273715169E+01  0.30044137945E+02  0.33281100160E+02  0.17770000000E+01 0.  1.
</event>
<event>
 6    1  0.6394569E-004  0.5044367E+03  0.7546771E-02  0.9389937E-01
        -11   -1    0    0    0    0  0.00000000000E+00  0.00000000000E+00  0.50000000000E+03  0.50000000000E+03  0.00000000000E+00 0. -1.
         11   -1    0    0    0    0 -0.00000000000E+00 -0.00000000000E+00 -0.50000000000E+03  0.50000000000E+03  0.00000000000E+00 0.  1.
        -11    1    1    2    0    0  0.36938327172E+01 -0.22838829470E+02  0.23681493232E+02  0.33106942677E+02  0.00000000000E+00 0. -1.
         11    1    1    2    0    0 -0.95116600220E+01  0.26105228577E+02 -0.49478384878E+03  0.49556332759E+03  0.00000000000E+00 0.  1.
        -15    1    1    2    0    0 -0.32079181629E+01 -0.30100063008E+01  0.99022726166E+02  0.99136314755E+02  0.17770000000E+01 0.  1.
         15    1    1    2    0    0  0.90257454677E+01 -0.25639280606E+00  0.37207962939E+03  0.37219341498E+03  0.17770000000E+01 0. -1.
</event>
<event>
 6    1  0.6394569E-004  0.5030638E+03  0.7546771E-02  0.9392980E-01
        -11   -1    0    0    0    0  0.00000000000E+00  0.00000000000E+00  0.50000000000E+03  0.50000000000E+03  0.00000000000E+00 0.  1.
         11   -1    0    0    0    0 -0.00000000000E+00 -0.00000000000E+00 -0.50000000000E+03  0.50000000000E+03  0.00000000000E+00 0. -1.
        -11    1    1    2    0    0  0.68697705665E+01  0.24387202754E+02  0.33761173414E+03  0.33856109114E+03  0.00000000000E+00 0.  1.
         11    1    1    2    0    0 -0.53027789602E+01  0.84823425338E+01 -0.49683554345E+03  0.49693624021E+03  0.00000000000E+00 0. -1.
        -15    1    1    2    0    0 -0.67619298671E+01 -0.33836943709E+02  0.14788151252E+03  0.15186428787E+03  0.17770000000E+01 0.  1.
         15    1    1    2    0    0  0.51949382608E+01  0.96739842084E+00  0.11342296789E+02  0.12638380778E+02  0.17770000000E+01 0. -1.
</event>
<event>
 6    1  0.6394569E-004  0.5018815E+03  0.7546771E-02  0.9395610E-01
        -11   -1    0    0    0    0  0.00000000000E+00  0.00000000000E+00  0.50000000000E+03  0.50000000000E+03  0.00000000000E+00 0. -1.
         11   -1    0    0    0    0 -0.00000000000E+00 -0.00000000000E+00 -0.50000000000E+03  0.50000000000E+03  0.00000000000E+00 0. -1.
        -11    1    1    2    0    0 -0.57232517474E+01  0.63654585222E+01  0.49804495011E+03  0.49811850698E+03  0.00000000000E+00 0. -1.
         11    1    1    2    0    0 -0.63368809027E+01 -0.39443763373E+01 -0.47159009316E+03  0.47164916000E+03  0.00000000000E+00 0. -1.
        -15    1    1    2    0    0  0.45305070214E+01 -0.94534197012E+00 -0.18031029885E+02  0.18700131898E+02  0.17770000000E+01 0.  1.
         15    1    1    2    0    0  0.75296256287E+01 -0.14757402147E+01 -0.84238270636E+01  0.11532201121E+02  0.17770000000E+01 0. -1.
</event>
<event>
 6    1  0.6394569E-004  0.5030916E+03  0.7546771E-02  0.9392918E-01
        -11   -1    0    0    0    0  0.00000000000E+00  0.00000000000E+00  0.50000000000E+03  0.50000000000E+03  0.00000000000E+00 0.  1.
         11   -1    0    0    0    0 -0.00000000000E+00 -0.00000000000E+00 -0.50000000000E+03  0.50000000000E+03  0.00000000000E+00 0. -1.
        -11    1    1    2    0    0 -0.94361887504E+01  0.65289482357E+01  0.41553789625E+03  0.41569629784E+03  0.00000000000E+00 0.  1.
         11    1    1    2    0    0  0.45776089023E+01  0.15035001237E+02 -0.49665978297E+03  0.49690838772E+03  0.00000000000E+00 0. -1.
        -15    1    1    2    0    0 -0.12394980401E+01 -0.25044039326E+02  0.66102949387E+02  0.70721269133E+02  0.17770000000E+01 0. -1.
         15    1    1    2    0    0  0.60980778882E+01  0.34800898533E+01  0.15018937331E+02  0.16674045306E+02  0.17770000000E+01 0.  1.
</event>
<event>
 6    1  0.6648437E-004  0.5000672E+03  0.7546771E-02  0.9399659E-01
        -11   -1    0    0    0    0  0.00000000000E+00  0.00000000000E+00  0.50000000000E+03  0.50000000000E+03  0.00000000000E+00 0.  1.
         11   -1    0    0    0    0 -0.00000000000E+00 -0.00000000000E+00 -0.50000000000E+03  0.50000000000E+03  0.00000000000E+00 0. -1.
        -11    1    1    2    0    0  0.85679417026E+01  0.65016207787E+01  0.49981706377E+03  0.49993277341E+03  0.00000000000E+00 0.  1.
         11    1    1    2    0    0 -0.15534325280E+00 -0.27282359115E+01 -0.15901753803E+03  0.15904101611E+03  0.00000000000E+00 0. -1.
        -15    1    1    2    0    0 -0.23202469296E+01  0.18824468753E+01 -0.14586806144E+03  0.14590947957E+03  0.17770000000E+01 0. -1.
         15    1    1    2    0    0 -0.60923515202E+01 -0.56558317425E+01 -0.19493146429E+03  0.19511673091E+03  0.17770000000E+01 0.  1.
</event>
<event>
 6    1  0.6394569E-004  0.4850849E+03  0.7546771E-02  0.9433816E-01
        -11   -1    0    0    0    0  0.00000000000E+00  0.00000000000E+00  0.50000000000E+03  0.50000000000E+03  0.00000000000E+00 0. -1.
         11   -1    0    0    0    0 -0.00000000000E+00 -0.00000000000E+00 -0.50000000000E+03  0.50000000000E+03  0.00000000000E+00 0.  1.
        -11    1    1    2    0    0 -0.28311437997E+02  0.11771621959E+01 -0.11099244911E+02  0.30432161768E+02  0.00000000000E+00 0. -1.
         11    1    1    2    0    0  0.66149066865E+01 -0.42811972980E+01 -0.47842337680E+03  0.47848825807E+03  0.00000000000E+00 0.  1.
        -15    1    1    2    0    0  0.83722689062E+00 -0.26915025152E+01  0.46499151020E+01  0.57205396696E+01  0.17770000000E+01 0. -1.
         15    1    1    2    0    0  0.20859304420E+02  0.57955376174E+01  0.48487270661E+03  0.48535904049E+03  0.17770000000E+01 0. -1.
</event>
<event>
 6    1  0.6394569E-004  0.5036037E+03  0.7546771E-02  0.9391782E-01
        -11   -1    0    0    0    0  0.00000000000E+00  0.00000000000E+00  0.50000000000E+03  0.50000000000E+03  0.00000000000E+00 0. -1.
         11   -1    0    0    0    0 -0.00000000000E+00 -0.00000000000E+00 -0.50000000000E+03  0.50000000000E+03  0.00000000000E+00 0. -1.
        -11    1    1    2    0    0 -0.92879186509E+01 -0.14105586086E+02  0.39346395330E+03  0.39382625044E+03  0.00000000000E+00 0. -1.
         11    1    1    2    0    0  0.50660495392E+01 -0.17356009816E+02 -0.49606687346E+03  0.49639625188E+03  0.00000000000E+00 0. -1.
        -15    1    1    2    0    0  0.47814928358E+01  0.14175677311E+02  0.79217149466E+02  0.80637007630E+02  0.17770000000E+01 0. -1.
         15    1    1    2    0    0 -0.55962372412E+00  0.17285918591E+02  0.23385770699E+02  0.29140490051E+02  0.17770000000E+01 0.  1.
</event>
<event>
 6    1  0.6394569E-004  0.4848345E+03  0.7546771E-02  0.9434398E-01
        -11   -1    0    0    0    0  0.00000000000E+00  0.00000000000E+00  0.50000000000E+03  0.50000000000E+03  0.00000000000E+00 0.  1.
         11   -1    0    0    0    0 -0.00000000000E+00 -0.00000000000E+00 -0.50000000000E+03  0.50000000000E+03  0.00000000000E+00 0. -1.
        -11    1    1    2    0    0  0.16958219617E+02  0.15989241668E+02  0.48749545687E+03  0.48805231024E+03  0.00000000000E+00 0.  1.
         11    1    1    2    0    0  0.50809537921E+01 -0.62017846840E+01 -0.48186613436E+03  0.48193282692E+03  0.00000000000E+00 0. -1.
        -15    1    1    2    0    0 -0.23960289641E+02 -0.10439303738E+02 -0.32102854768E+01  0.26392010231E+02  0.17770000000E+01 0. -1.
         15    1    1    2    0    0  0.19211162322E+01  0.65184675356E+00 -0.24190370389E+01  0.36228526003E+01  0.17770000000E+01 0. -1.
</event>
<event>
 6    1  0.6394569E-004  0.5103162E+03  0.7546771E-02  0.9377018E-01
        -11   -1    0    0    0    0  0.00000000000E+00  0.00000000000E+00  0.50000000000E+03  0.50000000000E+03  0.00000000000E+00 0. -1.
         11   -1    0    0    0    0 -0.00000000000E+00 -0.00000000000E+00 -0.50000000000E+03  0.50000000000E+03  0.00000000000E+00 0. -1.
        -11    1    1    2    0    0  0.36734630282E+01 -0.53939463341E+02  0.41792621798E+03  0.42140868964E+03  0.00000000000E+00 0. -1.
         11    1    1    2    0    0  0.17339854672E+02  0.11057673211E+02 -0.48925174423E+03  0.48968378769E+03  0.00000000000E+00 0. -1.
        -15    1    1    2    0    0 -0.20280855946E+02  0.22160065993E+02  0.29243537856E+02  0.41960980423E+02  0.17770000000E+01 0.  1.
         15    1    1    2    0    0 -0.73246175468E+00  0.20721724137E+02  0.42081988399E+02  0.46946542237E+02  0.17770000000E+01 0. -1.
</event>
<event>
 6    1  0.6394569E-004  0.5063822E+03  0.7546771E-02  0.9385641E-01
        -11   -1    0    0    0    0  0.00000000000E+00  0.00000000000E+00  0.50000000000E+03  0.50000000000E+03  0.00000000000E+00 0.  1.
         11   -1    0    0    0    0 -0.00000000000E+00 -0.00000000000E+00 -0.50000000000E+03  0.50000000000E+03  0.00000000000E+00 0. -1.
        -11    1    1    2    0    0  0.24638521753E+02 -0.30538577752E+02  0.40995730278E+03  0.41183085313E+03  0.00000000000E+00 0.  1.
         11    1    1    2    0    0  0.44309791412E+01  0.12633552477E+02 -0.49343618166E+03  0.49361777277E+03  0.00000000000E+00 0. -1.
        -15    1    1    2    0    0 -0.22329982018E+02  0.14055695973E+01  0.26006077780E+02  0.34352256598E+02  0.17770000000E+01 0.  1.
         15    1    1    2    0    0 -0.67395188755E+01  0.16499455678E+02  0.57472801103E+02  0.60199117501E+02  0.17770000000E+01 0. -1.
</event>
<event>
 6    1  0.6394569E-004  0.5002206E+03  0.7546771E-02  0.9399316E-01
        -11   -1    0    0    0    0  0.00000000000E+00  0.00000000000E+00  0.50000000000E+03  0.50000000000E+03  0.00000000000E+00 0.  1.
         11   -1    0    0    0    0 -0.00000000000E+00 -0.00000000000E+00 -0.50000000000E+03  0.50000000000E+03  0.00000000000E+00 0. -1.
        -11    1    1    2    0    0  0.38468082578E+00  0.43710226435E+01  0.54895924057E+02  0.55071011397E+02  0.00000000000E+00 0.  1.
         11    1    1    2    0    0  0.82952696371E+01  0.11268909689E+01 -0.49970927234E+03  0.49977938957E+03  0.00000000000E+00 0. -1.
        -15    1    1    2    0    0 -0.64775962337E+01 -0.12244369626E+01  0.39764130327E+03  0.39769991488E+03  0.17770000000E+01 0.  1.
         15    1    1    2    0    0 -0.22023542292E+01 -0.42734766499E+01  0.47172045008E+02  0.47449684151E+02  0.17770000000E+01 0. -1.
</event>
<event>
 6    1  0.6394569E-004  0.5031204E+03  0.7546771E-02  0.9392855E-01
        -11   -1    0    0    0    0  0.00000000000E+00  0.00000000000E+00  0.50000000000E+03  0.50000000000E+03  0.00000000000E+00 0. -1.
         11   -1    0    0    0    0 -0.00000000000E+00 -0.00000000000E+00 -0.50000000000E+03  0.50000000000E+03  0.00000000000E+00 0.  1.
        -11    1    1    2    0    0  0.65241549218E+01  0.44942419858E+01  0.49681643119E+03  0.49687959217E+03  0.00000000000E+00 0. -1.
         11    1    1    2    0    0 -0.23456661081E+01  0.67719766633E+01 -0.48394767019E+03  0.48400073275E+03  0.00000000000E+00 0.  1.
        -15    1    1    2    0    0 -0.50863450254E+01 -0.55706089755E+01 -0.50800533068E+01  0.92664589071E+01  0.17770000000E+01 0.  1.
         15    1    1    2    0    0  0.90785621171E+00 -0.56956096735E+01 -0.77887076970E+01  0.98532161776E+01  0.17770000000E+01 0. -1.
</event>
<event>
 6    1  0.6394569E-004  0.5068436E+03  0.7546771E-02  0.9384626E-01
        -11   -1    0    0    0    0  0.00000000000E+00  0.00000000000E+00  0.50000000000E+03  0.50000000000E+03  0.00000000000E+00 0.  1.
         11   -1    0    0    0    0 -0.00000000000E+00 -0.00000000000E+00 -0.50000000000E+03  0.50000000000E+03  0.00000000000E+00 0. -1.
        -11    1    1    2    0    0 -0.22112319635E+02 -0.68232242234E+02  0.48791256583E+03  0.49315643102E+03  0.00000000000E+00 0.  1.
         11    1    1    2    0    0  0.46723945146E+01  0.29281666953E+02 -0.40024464227E+03  0.40134152658E+03  0.00000000000E+00 0. -1.
        -15    1    1    2    0    0 -0.64742211316E+01 -0.43120565095E+01 -0.58491787667E+01  0.98934317528E+01  0.17770000000E+01 0.  1.
         15    1    1    2    0    0  0.23914146252E+02  0.43262631791E+02 -0.81818744800E+02  0.95608610648E+02  0.17770000000E+01 0. -1.
</event>
<event>
 6    1  0.6394569E-004  0.5075506E+03  0.7546771E-02  0.9383071E-01
        -11   -1    0    0    0    0  0.00000000000E+00  0.00000000000E+00  0.50000000000E+03  0.50000000000E+03  0.00000000000E+00 0. -1.
         11   -1    0    0    0    0 -0.00000000000E+00 -0.00000000000E+00 -0.50000000000E+03  0.50000000000E+03  0.00000000000E+00 0. -1.
        -11    1    1    2    0    0  0.99852461356E+01  0.16990186575E+02  0.47199624358E+03  0.47240747828E+03  0.00000000000E+00 0. -1.
         11    1    1    2    0    0 -0.20814286575E+01  0.74719322710E+01 -0.49238827712E+03  0.49244936548E+03  0.00000000000E+00 0. -1.
        -15    1    1    2    0    0 -0.14219901861E+01 -0.12881029091E+02  0.34110190846E+01  0.13517978648E+02  0.17770000000E+01 0.  1.
         15    1    1    2    0    0 -0.64818272920E+01 -0.11581089754E+02  0.16981014455E+02  0.21625177591E+02  0.17770000000E+01 0. -1.
</event>
<event>
 6    1  0.6394569E-004  0.5003132E+03  0.7546771E-02  0.9399109E-01
        -11   -1    0    0    0    0  0.00000000000E+00  0.00000000000E+00  0.50000000000E+03  0.50000000000E+03  0.00000000000E+00 0.  1.
         11   -1    0    0    0    0 -0.00000000000E+00 -0.00000000000E+00 -0.50000000000E+03  0.50000000000E+03  0.00000000000E+00 0.  1.
        -11    1    1    2    0    0  0.91605243099E+01  0.52009571270E+01  0.12691111030E+03  0.12734753660E+03  0.00000000000E+00 0.  1.
         11    1    1    2    0    0 -0.27530166028E+00 -0.96753103254E+01 -0.49959301796E+03  0.49968677290E+03  0.00000000000E+00 0.  1.
        -15    1    1    2    0    0 -0.75687288688E+00  0.57057689465E+01  0.13323655092E+03  0.13337265419E+03  0.17770000000E+01 0.  1.
         15    1    1    2    0    0 -0.81283497627E+01 -0.12314157480E+01  0.23944535674E+03  0.23959303631E+03  0.17770000000E+01 0. -1.
</event>
<event>
 6    1  0.6394569E-004  0.5001607E+03  0.7546771E-02  0.9399450E-01
        -11   -1    0    0    0    0  0.00000000000E+00  0.00000000000E+00  0.50000000000E+03  0.50000000000E+03  0.00000000000E+00 0. -1.
         11   -1    0    0    0    0 -0.00000000000E+00 -0.00000000000E+00 -0.50000000000E+03  0.50000000000E+03  0.00000000000E+00 0.  1.
        -11    1    1    2    0    0  0.13521084630E+01 -0.74123513832E+01  0.49978246935E+03  0.49983926198E+03  0.00000000000E+00 0. -1.
         11    1    1    2    0    0 -0.20526739448E+01  0.29793543911E+01 -0.25552044762E+03  0.25554606077E+03  0.00000000000E+00 0.  1.
        -15    1    1    2    0    0  0.11220359505E+01  0.80069670840E+01 -0.19994166018E+03  0.20011295733E+03  0.17770000000E+01 0.  1.
         15    1    1    2    0    0 -0.42147046875E+00 -0.35739700918E+01 -0.44320361537E+02  0.44501719914E+02  0.17770000000E+01 0. -1.
</event>
<event>
 6    1  0.6394569E-004  0.5002350E+03  0.7546771E-02  0.9399284E-01
        -11   -1    0    0    0    0  0.00000000000E+00  0.00000000000E+00  0.50000000000E+03  0.50000000000E+03  0.00000000000E+00 0.  1.
         11   -1    0    0    0    0 -0.00000000000E+00 -0.00000000000E+00 -0.50000000000E+03  0.50000000000E+03  0.00000000000E+00 0.  1.
        -11    1    1    2    0    0  0.95340810617E+01  0.24100617670E+00  0.99129083289E+02  0.99586806051E+02  0.00000000000E+00 0.  1.
         11    1    1    2    0    0 -0.67716410532E+01 -0.38721130038E+01 -0.49970407524E+03  0.49976495595E+03  0.00000000000E+00 0.  1.
        -15    1    1    2    0    0 -0.24953431466E+01  0.42356602111E+01  0.34765040413E+03  0.34768970186E+03  0.17770000000E+01 0.  1.
         15    1    1    2    0    0 -0.26709686189E+00 -0.60455338399E+00  0.52924587821E+02  0.52958536144E+02  0.17770000000E+01 0.  1.
</event>
<event>
 6    1  0.6394569E-004  0.5017268E+03  0.7546771E-02  0.9395954E-01
        -11   -1    0    0    0    0  0.00000000000E+00  0.00000000000E+00  0.50000000000E+03  0.50000000000E+03  0.00000000000E+00 0. -1.
         11   -1    0    0    0    0 -0.00000000000E+00 -0.00000000000E+00 -0.50000000000E+03  0.50000000000E+03  0.00000000000E+00 0. -1.
        -11    1    1    2    0    0  0.18221205671E+02  0.60392899423E+01  0.32236905456E+03  0.32294007602E+03  0.00000000000E+00 0. -1.
         11    1    1    2    0    0 -0.82702319413E+01  0.10939698340E+02 -0.49808441762E+03  0.49827317890E+03  0.00000000000E+00 0. -1.
        -15    1    1    2    0    0 -0.14506627936E+02 -0.83791876316E+01  0.15406392949E+03  0.15498227363E+03  0.17770000000E+01 0. -1.
         15    1    1    2    0    0  0.45556542062E+01 -0.85998006507E+01  0.21651433573E+02  0.23804471454E+02  0.17770000000E+01 0.  1.
</event>
<event>
 6    1  0.6394569E-004  0.5068250E+03  0.7546771E-02  0.9384667E-01
        -11   -1    0    0    0    0  0.00000000000E+00  0.00000000000E+00  0.50000000000E+03  0.50000000000E+03  0.00000000000E+00 0.  1.
         11   -1    0    0    0    0 -0.00000000000E+00 -0.00000000000E+00 -0.50000000000E+03  0.50000000000E+03  0.00000000000E+00 0.  1.
        -11    1    1    2    0    0  0.10826135683E+02  0.10989414900E+02  0.49293371165E+03  0.49317503641E+03  0.00000000000E+00 0.  1.
         11    1    1    2    0    0  0.68654259740E+01  0.77310215940E+01 -0.47351388201E+03  0.47362675096E+03  0.00000000000E+00 0.  1.
        -15    1    1    2    0    0 -0.12004735717E+01 -0.38618402872E+01 -0.49842383645E+01  0.66599780986E+01  0.17770000000E+01 0.  1.
         15    1    1    2    0    0 -0.16491088086E+02 -0.14858596207E+02 -0.14435591275E+02  0.26538234530E+02  0.17770000000E+01 0. -1.
</event>
<event>
 6    1  0.6394569E-004  0.5003370E+03  0.7546771E-02  0.9399056E-01
        -11   -1    0    0    0    0  0.00000000000E+00  0.00000000000E+00  0.50000000000E+03  0.50000000000E+03  0.00000000000E+00 0.  1.
         11   -1    0    0    0    0 -0.00000000000E+00 -0.00000000000E+00 -0.50000000000E+03  0.50000000000E+03  0.00000000000E+00 0. -1.
        -11    1    1    2    0    0 -0.13826481556E+02  0.21756818648E-01  0.33782523573E+03  0.33810806255E+03  0.00000000000E+00 0.  1.
         11    1    1    2    0    0  0.84480658784E+01  0.33619635051E+01 -0.49958027198E+03  0.49966300720E+03  0.00000000000E+00 0. -1.
        -15    1    1    2    0    0 -0.19583661922E+01 -0.40225559919E+01  0.63887222128E+02  0.64068330984E+02  0.17770000000E+01 0.  1.
         15    1    1    2    0    0  0.73367818699E+01  0.63883566817E+00  0.97867814123E+02  0.98160599272E+02  0.17770000000E+01 0. -1.
</event>
<event>
 6    1  0.6394569E-004  0.5071865E+03  0.7546771E-02  0.9383872E-01
        -11   -1    0    0    0    0  0.00000000000E+00  0.00000000000E+00  0.50000000000E+03  0.50000000000E+03  0.00000000000E+00 0.  1.
         11   -1    0    0    0    0 -0.00000000000E+00 -0.00000000000E+00 -0.50000000000E+03  0.50000000000E+03  0.00000000000E+00 0. -1.
        -11    1    1    2    0    0  0.27732787342E+01  0.16892877150E+02  0.47954252928E+03  0.47984799444E+03  0.00000000000E+00 0.  1.
         11    1    1    2    0    0  0.52760361144E+01 -0.45750228961E+01 -0.49276405906E+03  0.49281354009E+03  0.00000000000E+00 0. -1.
        -15    1    1    2    0    0 -0.37672817774E+01 -0.12556702298E+02  0.16866702433E+02  0.21436104230E+02  0.17770000000E+01 0. -1.
         15    1    1    2    0    0 -0.42820330712E+01  0.23884804491E+00 -0.36451726537E+01  0.59023612467E+01  0.17770000000E+01 0.  1.
</event>
<event>
 6    1  0.6394569E-004  0.5037218E+03  0.7546771E-02  0.9391520E-01
        -11   -1    0    0    0    0  0.00000000000E+00  0.00000000000E+00  0.50000000000E+03  0.50000000000E+03  0.00000000000E+00 0. -1.
         11   -1    0    0    0    0 -0.00000000000E+00 -0.00000000000E+00 -0.50000000000E+03  0.50000000000E+03  0.00000000000E+00 0.  1.
        -11    1    1    2    0    0  0.20893129886E+02 -0.24673549329E+02  0.44748432833E+03  0.44865078960E+03  0.00000000000E+00 0. -1.
         11    1    1    2    0    0 -0.15586306240E+02  0.35821431537E+01 -0.49602044020E+03  0.49627818992E+03  0.00000000000E+00 0.  1.
        -15    1    1    2    0    0 -0.65772761637E+01  0.20319931392E+02  0.48174029660E+02  0.52726227214E+02  0.17770000000E+01 0.  1.
         15    1    1    2    0    0  0.12704525173E+01  0.77147478316E+00  0.36208221332E+00  0.23447932679E+01  0.17770000000E+01 0. -1.
</event>
<event>
 6    1  0.6394569E-004  0.5009396E+03  0.7546771E-02  0.9397710E-01
        -11   -1    0    0    0    0  0.00000000000E+00  0.00000000000E+00  0.50000000000E+03  0.50000000000E+03  0.00000000000E+00 0. -1.
         11   -1    0    0    0    0 -0.00000000000E+00 -0.00000000000E+00 -0.50000000000E+03  0.50000000000E+03  0.00000000000E+00 0.  1.
        -11    1    1    2    0    0 -0.80925541988E+01  0.48148368666E+01  0.49897158112E+03  0.49906042806E+03  0.00000000000E+00 0. -1.
         11    1    1    2    0    0  0.30261105614E+01  0.65151472722E+01 -0.44395868342E+03  0.44401679819E+03  0.00000000000E+00 0.  1.
        -15    1    1    2    0    0  0.39329169174E+01 -0.15632453733E+01 -0.19317971583E+02  0.19855813422E+02  0.17770000000E+01 0. -1.
         15    1    1    2    0    0  0.11335267200E+01 -0.97667387656E+01 -0.35694926119E+02  0.37066960336E+02  0.17770000000E+01 0.  1.
</event>
<event>
 6    1  0.8001877E-004  0.5001051E+03  0.7546771E-02  0.9399575E-01
        -11   -1    0    0    0    0  0.00000000000E+00  0.00000000000E+00  0.50000000000E+03  0.50000000000E+03  0.00000000000E+00 0. -1.
         11   -1    0    0    0    0 -0.00000000000E+00 -0.00000000000E+00 -0.50000000000E+03  0.50000000000E+03  0.00000000000E+00 0.  1.
        -11    1    1    2    0    0  0.26908074285E+02  0.80341139705E+01  0.49910552887E+03  0.49989490935E+03  0.00000000000E+00 0. -1.
         11    1    1    2    0    0 -0.20907309014E+02 -0.78410948506E+01 -0.37907477269E+03  0.37973185490E+03  0.00000000000E+00 0.  1.
        -15    1    1    2    0    0 -0.45207344584E+01  0.24510198208E+01 -0.63055248971E+02  0.63289546452E+02  0.17770000000E+01 0. -1.
         15    1    1    2    0    0 -0.14800308128E+01 -0.26440389408E+01 -0.56975507206E+02  0.57083689295E+02  0.17770000000E+01 0.  1.
</event>
<event>
 6    1  0.6394569E-004  0.5099549E+03  0.7546771E-02  0.9377806E-01
        -11   -1    0    0    0    0  0.00000000000E+00  0.00000000000E+00  0.50000000000E+03  0.50000000000E+03  0.00000000000E+00 0.  1.
         11   -1    0    0    0    0 -0.00000000000E+00 -0.00000000000E+00 -0.50000000000E+03  0.50000000000E+03  0.00000000000E+00 0. -1.
        -11    1    1    2    0    0  0.20673097386E+02  0.53549199170E+01  0.44401118633E+03  0.44452444894E+03  0.00000000000E+00 0.  1.
         11    1    1    2    0    0 -0.54971417991E+01  0.76672937335E+01 -0.48995431214E+03  0.49004513460E+03  0.00000000000E+00 0. -1.
        -15    1    1    2    0    0 -0.14710872694E+02  0.23589938730E+01  0.47545875135E+02  0.49857222134E+02  0.17770000000E+01 0.  1.
         15    1    1    2    0    0 -0.46508289204E+00 -0.15381207524E+02 -0.16027493245E+01  0.15573194321E+02  0.17770000000E+01 0. -1.
</event>
<event>
 6    1  0.6394569E-004  0.5022934E+03  0.7546771E-02  0.9394693E-01
        -11   -1    0    0    0    0  0.00000000000E+00  0.00000000000E+00  0.50000000000E+03  0.50000000000E+03  0.00000000000E+00 0. -1.
         11   -1    0    0    0    0 -0.00000000000E+00 -0.00000000000E+00 -0.50000000000E+03  0.50000000000E+03  0.00000000000E+00 0.  1.
        -11    1    1    2    0    0 -0.82947817595E+01 -0.81361519454E+01  0.47452432500E+03  0.47466655179E+03  0.00000000000E+00 0. -1.
         11    1    1    2    0    0  0.37581440913E+01  0.18975175396E+02 -0.49733055142E+03  0.49770659862E+03  0.00000000000E+00 0.  1.
        -15    1    1    2    0    0  0.31424912118E+01  0.37850798622E+00  0.89404841336E+01  0.96492748357E+01  0.17770000000E+01 0.  1.
         15    1    1    2    0    0  0.13941464564E+01 -0.11217531436E+02  0.13865742289E+02  0.17977574755E+02  0.17770000000E+01 0. -1.
</event>
<event>
 6    1  0.6394569E-004  0.5149876E+03  0.7546771E-02  0.9366884E-01
        -11   -1    0    0    0    0  0.00000000000E+00  0.00000000000E+00  0.50000000000E+03  0.50000000000E+03  0.00000000000E+00 0.  1.
         11   -1    0    0    0    0 -0.00000000000E+00 -0.00000000000E+00 -0.50000000000E+03  0.50000000000E+03  0.00000000000E+00 0. -1.
        -11    1    1    2    0    0 -0.59094603712E+02 -0.29288736960E+02  0.38980832411E+03  0.39534862065E+03  0.00000000000E+00 0.  1.
         11    1    1    2    0    0  0.75496537415E+01  0.57783161372E+01 -0.48491919582E+03  0.48501238405E+03  0.00000000000E+00 0. -1.
        -15    1    1    2    0    0 -0.14181286015E+01 -0.69529893148E+01  0.94816008030E+00  0.73764412612E+01  0.17770000000E+01 0. -1.
         15    1    1    2    0    0  0.52963078572E+02  0.30463410138E+02  0.94162711626E+02  0.11226255404E+03  0.17770000000E+01 0.  1.
</event>
<event>
 6    1  0.6394569E-004  0.5011859E+03  0.7546771E-02  0.9397160E-01
        -11   -1    0    0    0    0  0.00000000000E+00  0.00000000000E+00  0.50000000000E+03  0.50000000000E+03  0.00000000000E+00 0.  1.
         11   -1    0    0    0    0 -0.00000000000E+00 -0.00000000000E+00 -0.50000000000E+03  0.50000000000E+03  0.00000000000E+00 0.  1.
        -11    1    1    2    0    0  0.81422507168E+00  0.13115675100E+02  0.37403445294E+02  0.39644692150E+02  0.00000000000E+00 0.  1.
         11    1    1    2    0    0  0.16642420236E+01 -0.14335845853E+02 -0.49860531566E+03  0.49881414072E+03  0.00000000000E+00 0.  1.
        -15    1    1    2    0    0  0.21417399514E+01 -0.64330234022E+01  0.29996782941E+03  0.30004970797E+03  0.17770000000E+01 0. -1.
         15    1    1    2    0    0 -0.46202070467E+01  0.76531941553E+01  0.16123404095E+03  0.16149145917E+03  0.17770000000E+01 0.  1.
</event>
<event>
 6    1  0.6394569E-004  0.5003943E+03  0.7546771E-02  0.9398928E-01
        -11   -1    0    0    0    0  0.00000000000E+00  0.00000000000E+00  0.50000000000E+03  0.50000000000E+03  0.00000000000E+00 0. -1.
         11   -1    0    0    0    0 -0.00000000000E+00 -0.00000000000E+00 -0.50000000000E+03  0.50000000000E+03  0.00000000000E+00 0. -1.
        -11    1    1    2    0    0  0.69982329879E+01  0.12463773473E+02  0.49940119433E+03  0.49960571835E+03  0.00000000000E+00 0. -1.
         11    1    1    2    0    0  0.14983306885E+00 -0.63710304902E+01 -0.39731316041E+03  0.39736426603E+03  0.00000000000E+00 0. -1.
        -15    1    1    2    0    0 -0.48173925349E+01 -0.82761469962E+01 -0.60192761057E+02  0.60975635238E+02  0.17770000000E+01 0. -1.
         15    1    1    2    0    0 -0.23306735219E+01  0.21834040137E+01 -0.41895272863E+02  0.42054380383E+02  0.17770000000E+01 0.  1.
</event>
<event>
 6    1  0.6394569E-004  0.5001407E+03  0.7546771E-02  0.9399495E-01
        -11   -1    0    0    0    0  0.00000000000E+00  0.00000000000E+00  0.50000000000E+03  0.50000000000E+03  0.00000000000E+00 0. -1.
         11   -1    0    0    0    0 -0.00000000000E+00 -0.00000000000E+00 -0.50000000000E+03  0.50000000000E+03  0.00000000000E+00 0.  1.
        -11    1    1    2    0    0  0.33192909285E+01 -0.33625586833E+01  0.12145591693E+03  0.12154778587E+03  0.00000000000E+00 0. -1.
         11    1    1    2    0    0 -0.82714001671E+01 -0.47396423391E+01 -0.49976840984E+03  0.49985932395E+03  0.00000000000E+00 0.  1.
        -15    1    1    2    0    0  0.71898788191E+01  0.89151025556E+01  0.30582649565E+03  0.30604603671E+03  0.17770000000E+01 0. -1.
         15    1    1    2    0    0 -0.22377695805E+01 -0.81290153324E+00  0.72485997256E+02  0.72546853473E+02  0.17770000000E+01 0. -1.
</event>
<event>
 6    1  0.6394569E-004  0.5005057E+03  0.7546771E-02  0.9398679E-01
        -11   -1    0    0    0    0  0.00000000000E+00  0.00000000000E+00  0.50000000000E+03  0.50000000000E+03  0.00000000000E+00 0. -1.
         11   -1    0    0    0    0 -0.00000000000E+00 -0.00000000000E+00 -0.50000000000E+03  0.50000000000E+03  0.00000000000E+00 0.  1.
        -11    1    1    2    0    0 -0.17989354395E+02  0.10426046381E+02  0.49906136726E+03  0.49949431189E+03  0.00000000000E+00 0. -1.
         11    1    1    2    0    0 -0.35139189963E+01 -0.35306666122E+01 -0.29149777277E+03  0.29154033128E+03  0.00000000000E+00 0.  1.
        -15    1    1    2    0    0  0.57193613243E+01 -0.44454957080E+01 -0.45554540004E+02  0.46161102349E+02  0.17770000000E+01 0. -1.
         15    1    1    2    0    0  0.15783912067E+02 -0.24498840611E+01 -0.16200905448E+03  0.16280425448E+03  0.17770000000E+01 0.  1.
</event>
<event>
 6    1  0.6394569E-004  0.5003724E+03  0.7546771E-02  0.9398977E-01
        -11   -1    0    0    0    0  0.00000000000E+00  0.00000000000E+00  0.50000000000E+03  0.50000000000E+03  0.00000000000E+00 0. -1.
         11   -1    0    0    0    0 -0.00000000000E+00 -0.00000000000E+00 -0.50000000000E+03  0.50000000000E+03  0.00000000000E+00 0. -1.
        -11    1    1    2    0    0 -0.10213975026E+02  0.44184162388E+01  0.35276896529E+03  0.35294445818E+03  0.00000000000E+00 0. -1.
         11    1    1    2    0    0  0.59762913529E+01  0.60492472040E+01 -0.49955518290E+03  0.49962755149E+03  0.00000000000E+00 0. -1.
        -15    1    1    2    0    0  0.46066939819E+01 -0.36907872336E+01  0.48226309722E+02  0.48618702350E+02  0.17770000000E+01 0. -1.
         15    1    1    2    0    0 -0.36901030845E+00 -0.67768762092E+01  0.98559907888E+02  0.98809287982E+02  0.17770000000E+01 0.  1.
</event>
<event>
 6    1  0.6394569E-004  0.4788459E+03  0.7546771E-02  0.9448429E-01
        -11   -1    0    0    0    0  0.00000000000E+00  0.00000000000E+00  0.50000000000E+03  0.50000000000E+03  0.00000000000E+00 0.  1.
         11   -1    0    0    0    0 -0.00000000000E+00 -0.00000000000E+00 -0.50000000000E+03  0.50000000000E+03  0.00000000000E+00 0.  1.
        -11    1    1    2    0    0 -0.15459923565E+02  0.21581101476E+02  0.47330307672E+03  0.47404699726E+03  0.00000000000E+00 0.  1.
         11    1    1    2    0    0 -0.53239778290E+01  0.49916281322E+01 -0.48424619219E+03  0.48430118289E+03  0.00000000000E+00 0.  1.
        -15    1    1    2    0    0 -0.31380870071E+00 -0.39982629342E+01 -0.51526529234E+01  0.67669892523E+01  0.17770000000E+01 0.  1.
         15    1    1    2    0    0  0.21097710095E+02 -0.22574466674E+02  0.16095768401E+02  0.34884830604E+02  0.17770000000E+01 0. -1.
</event>
<event>
 6    1  0.6394569E-004  0.5020379E+03  0.7546771E-02  0.9395261E-01
        -11   -1    0    0    0    0  0.00000000000E+00  0.00000000000E+00  0.50000000000E+03  0.50000000000E+03  0.00000000000E+00 0.  1.
         11   -1    0    0    0    0 -0.00000000000E+00 -0.00000000000E+00 -0.50000000000E+03  0.50000000000E+03  0.00000000000E+00 0.  1.
        -11    1    1    2    0    0  0.95708384522E+01 -0.24785263777E+01  0.48544066405E+03  0.48554132919E+03  0.00000000000E+00 0.  1.
         11    1    1    2    0    0 -0.78185717761E+01 -0.55509274913E+01 -0.49786979045E+03  0.49796211814E+03  0.00000000000E+00 0.  1.
        -15    1    1    2    0    0  0.22064913777E+01  0.40252744370E+01  0.51542571830E+01  0.71270986103E+01  0.17770000000E+01 0. -1.
         15    1    1    2    0    0 -0.39587580537E+01  0.40041794321E+01  0.72748692185E+01  0.93694540609E+01  0.17770000000E+01 0.  1.
</event>
<event>
 6    1  0.6394569E-004  0.5021232E+03  0.7546771E-02  0.9395071E-01
        -11   -1    0    0    0    0  0.00000000000E+00  0.00000000000E+00  0.50000000000E+03  0.50000000000E+03  0.00000000000E+00 0. -1.
         11   -1    0    0    0    0 -0.00000000000E+00 -0.00000000000E+00 -0.50000000000E+03  0.50000000000E+03  0.00000000000E+00 0.  1.
        -11    1    1    2    0    0 -0.22013249072E+01  0.99288661700E+01  0.49117052062E+03  0.49127579682E+03  0.00000000000E+00 0. -1.
         11    1    1    2    0    0  0.77396977843E+01 -0.68197215958E+01 -0.49776995172E+03  0.49787682851E+03  0.00000000000E+00 0.  1.
        -15    1    1    2    0    0 -0.48734820596E+01 -0.35322758728E+01  0.62783373910E+01  0.88771081790E+01  0.17770000000E+01 0. -1.
         15    1    1    2    0    0 -0.66489081744E+00  0.42313129861E+00  0.32109371433E+00  0.19702664968E+01  0.17770000000E+01 0.  1.
</event>
<event>
 6    1  0.6394569E-004  0.5024112E+03  0.7546771E-02  0.9394431E-01
        -11   -1    0    0    0    0  0.00000000000E+00  0.00000000000E+00  0.50000000000E+03  0.50000000000E+03  0.00000000000E+00 0.  1.
         11   -1    0    0    0    0 -0.00000000000E+00 -0.00000000000E+00 -0.50000000000E+03  0.50000000000E+03  0.00000000000E+00 0. -1.
        -11    1    1    2    0    0 -0.84772747331E+01  0.13203025122E+02  0.44161839639E+03  0.44189703788E+03  0.00000000000E+00 0.  1.
         11    1    1    2    0    0 -0.19894305030E+01 -0.69085926989E+01 -0.49753686578E+03  0.49758880544E+03  0.00000000000E+00 0. -1.
        -15    1    1    2    0    0 -0.24312435392E+01  0.42038200035E+01  0.62873882821E+01  0.81407633658E+01  0.17770000000E+01 0. -1.
         15    1    1    2    0    0  0.12897948775E+02 -0.10498252426E+02  0.49631081106E+02  0.52373393315E+02  0.17770000000E+01 0.  1.
</event>
<event>
 6    1  0.6394569E-004  0.5042928E+03  0.7546771E-02  0.9390255E-01
        -11   -1    0    0    0    0  0.00000000000E+00  0.00000000000E+00  0.50000000000E+03  0.50000000000E+03  0.00000000000E+00 0. -1.
         11   -1    0    0    0    0 -0.00000000000E+00 -0.00000000000E+00 -0.50000000000E+03  0.50000000000E+03  0.00000000000E+00 0.  1.
        -11    1    1    2    0    0 -0.13010554864E+02  0.13854850694E+02  0.45059062506E+03  0.45099128907E+03  0.00000000000E+00 0. -1.
         11    1    1    2    0    0 -0.60761783890E+01 -0.35722044989E+01 -0.49565706768E+03  0.49570718103E+03  0.00000000000E+00 0.  1.
        -15    1    1    2    0    0  0.28307834394E+01  0.40790509502E+01  0.16916122220E+02  0.17719055039E+02  0.17770000000E+01 0.  1.
         15    1    1    2    0    0  0.16255949813E+02 -0.14361697145E+02  0.28150320395E+02  0.35582474852E+02  0.17770000000E+01 0. -1.
</event>
<event>
 6    1  0.6394569E-004  0.5036293E+03  0.7546771E-02  0.9391725E-01
        -11   -1    0    0    0    0  0.00000000000E+00  0.00000000000E+00  0.50000000000E+03  0.50000000000E+03  0.00000000000E+00 0. -1.
         11   -1    0    0    0    0 -0.00000000000E+00 -0.00000000000E+00 -0.50000000000E+03  0.50000000000E+03  0.00000000000E+00 0. -1.
        -11    1    1    2    0    0  0.39542794337E+01 -0.84157989951E+01  0.49628361532E+03  0.49637071714E+03  0.00000000000E+00 0. -1.
         11    1    1    2    0    0 -0.54015969859E+01 -0.71938284596E+01 -0.47537335547E+03  0.47545846875E+03  0.00000000000E+00 0. -1.
        -15    1    1    2    0    0  0.51732464224E+01  0.11844312080E+02 -0.16605427397E+02  0.21117484586E+02  0.17770000000E+01 0. -1.
         15    1    1    2    0    0 -0.37259288703E+01  0.37653153744E+01 -0.43048324593E+01  0.70533295200E+01  0.17770000000E+01 0.  1.
</event>
<event>
 6    1  0.6394569E-004  0.5006789E+03  0.7546771E-02  0.9398292E-01
        -11   -1    0    0    0    0  0.00000000000E+00  0.00000000000E+00  0.50000000000E+03  0.50000000000E+03  0.00000000000E+00 0.  1.
         11   -1    0    0    0    0 -0.00000000000E+00 -0.00000000000E+00 -0.50000000000E+03  0.50000000000E+03  0.00000000000E+00 0.  1.
        -11    1    1    2    0    0  0.10661085823E+02  0.57615801240E+01  0.41207974131E+03  0.41225788986E+03  0.00000000000E+00 0.  1.
         11    1    1    2    0    0 -0.32180931363E+01 -0.13118868082E+02 -0.49913833331E+03  0.49932107567E+03  0.00000000000E+00 0.  1.
        -15    1    1    2    0    0  0.25760681158E+01  0.28741058178E+01  0.19946728583E+02  0.20394271778E+02  0.17770000000E+01 0.  1.
         15    1    1    2    0    0 -0.10019060803E+02  0.44831821402E+01  0.67111863424E+02  0.68026762695E+02  0.17770000000E+01 0. -1.
</event>
<event>
 6    1  0.6394569E-004  0.5018143E+03  0.7546771E-02  0.9395759E-01
        -11   -1    0    0    0    0  0.00000000000E+00  0.00000000000E+00  0.50000000000E+03  0.50000000000E+03  0.00000000000E+00 0. -1.
         11   -1    0    0    0    0 -0.00000000000E+00 -0.00000000000E+00 -0.50000000000E+03  0.50000000000E+03  0.00000000000E+00 0. -1.
        -11    1    1    2    0    0  0.25579459454E+02  0.74293718225E+01  0.49747310264E+03  0.49818570048E+03  0.00000000000E+00 0. -1.
         11    1    1    2    0    0 -0.38398168684E+01 -0.82638921123E+01 -0.38648186656E+03  0.38658927725E+03  0.00000000000E+00 0. -1.
        -15    1    1    2    0    0 -0.10355434364E+02  0.44104028055E+01 -0.92153210511E+02  0.92855040845E+02  0.17770000000E+01 0.  1.
         15    1    1    2    0    0 -0.11384208222E+02 -0.35758825157E+01 -0.18838025568E+02  0.22369981423E+02  0.17770000000E+01 0. -1.
</event>
<event>
 6    1  0.6394569E-004  0.5028717E+03  0.7546771E-02  0.9393407E-01
        -11   -1    0    0    0    0  0.00000000000E+00  0.00000000000E+00  0.50000000000E+03  0.50000000000E+03  0.00000000000E+00 0. -1.
         11   -1    0    0    0    0 -0.00000000000E+00 -0.00000000000E+00 -0.50000000000E+03  0.50000000000E+03  0.00000000000E+00 0. -1.
        -11    1    1    2    0    0 -0.10600555660E+02  0.16128622952E+01  0.49701260572E+03  0.49712825644E+03  0.00000000000E+00 0. -1.
         11    1    1    2    0    0 -0.55951624713E+01 -0.95029749027E+01 -0.45635166438E+03  0.45648488908E+03  0.00000000000E+00 0. -1.
        -15    1    1    2    0    0  0.12513930191E+02 -0.49290333663E+00 -0.27351895296E+02  0.30135117517E+02  0.17770000000E+01 0.  1.
         15    1    1    2    0    0  0.36817879405E+01  0.83830159442E+01 -0.13309046040E+02  0.16251736961E+02  0.17770000000E+01 0. -1.
</event>
<event>
 6    1  0.6394569E-004  0.5030620E+03  0.7546771E-02  0.9392984E-01
        -11   -1    0    0    0    0  0.00000000000E+00  0.00000000000E+00  0.50000000000E+03  0.50000000000E+03  0.00000000000E+00 0.  1.
         11   -1    0    0    0    0 -0.00000000000E+00 -0.00000000000E+00 -0.50000000000E+03  0.50000000000E+03  0.00000000000E+00 0.  1.
        -11    1    1    2    0    0 -0.31424040705E+01 -0.97364742112E+01  0.49683271501E+03  0.49693804477E+03  0.00000000000E+00 0.  1.
         11    1    1    2    0    0  0.59527748508E+00 -0.14949398927E+02 -0.42987352598E+03  0.43013380153E+03  0.00000000000E+00 0.  1.
        -15    1    1    2    0    0  0.12269056032E+01  0.25894048472E+02 -0.56810118176E+02  0.62470427402E+02  0.17770000000E+01 0. -1.
         15    1    1    2    0    0  0.13202209822E+01 -0.12081753337E+01 -0.10149070857E+02  0.10457726298E+02  0.17770000000E+01 0.  1.
</event>
<event>
 6    1  0.6394569E-004  0.5095035E+03  0.7546771E-02  0.9378792E-01
        -11   -1    0    0    0    0  0.00000000000E+00  0.00000000000E+00  0.50000000000E+03  0.50000000000E+03  0.00000000000E+00 0.  1.
         11   -1    0    0    0    0 -0.00000000000E+00 -0.00000000000E+00 -0.50000000000E+03  0.50000000000E+03  0.00000000000E+00 0. -1.
        -11    1    1    2    0    0 -0.29866767409E+02  0.40989865060E+02  0.33107795678E+03  0.33494000403E+03  0.00000000000E+00 0.  1.
         11    1    1    2    0    0  0.43168801622E+01  0.92997184344E+01 -0.49038928768E+03  0.49049645635E+03  0.00000000000E+00 0. -1.
        -15    1    1    2    0    0  0.32772341207E+02 -0.46307014461E+02  0.15504860907E+03  0.16511085621E+03  0.17770000000E+01 0.  1.
         15    1    1    2    0    0 -0.72224539600E+01 -0.39825690325E+01  0.42627218379E+01  0.94526834164E+01  0.17770000000E+01 0. -1.
</event>
<event>
 6    1  0.6394569E-004  0.5026398E+03  0.7546771E-02  0.9393922E-01
        -11   -1    0    0    0    0  0.00000000000E+00  0.00000000000E+00  0.50000000000E+03  0.50000000000E+03  0.00000000000E+00 0.  1.
         11   -1    0    0    0    0 -0.00000000000E+00 -0.00000000000E+00 -0.50000000000E+03  0.50000000000E+03  0.00000000000E+00 0.  1.
        -11    1    1    2    0    0 -0.20849332240E+02 -0.64239596725E+00  0.44524798860E+03  0.44573633314E+03  0.00000000000E+00 0.  1.
         11    1    1    2    0    0  0.70554227831E+01  0.61902755186E+01 -0.49727164865E+03  0.49736022263E+03  0.00000000000E+00 0.  1.
        -15    1    1    2    0    0  0.13098519166E+02  0.35821046297E+01  0.32418840775E+02  0.35192920369E+02  0.17770000000E+01 0. -1.
         15    1    1    2    0    0  0.69539029121E+00 -0.91299841810E+01  0.19604819275E+02  0.21710523868E+02  0.17770000000E+01 0.  1.
</event>
<event>
 6    1  0.6394569E-004  0.5047866E+03  0.7546771E-02  0.9389163E-01
        -11   -1    0    0    0    0  0.00000000000E+00  0.00000000000E+00  0.50000000000E+03  0.50000000000E+03  0.00000000000E+00 0.  1.
         11   -1    0    0    0    0 -0.00000000000E+00 -0.00000000000E+00 -0.50000000000E+03  0.50000000000E+03  0.00000000000E+00 0. -1.
        -11    1    1    2    0    0  0.81953317609E-02 -0.20722706068E+02  0.47268029000E+03  0.47313432254E+03  0.00000000000E+00 0.  1.
         11    1    1    2    0    0 -0.11146190646E+02  0.32420464551E+01 -0.49507732314E+03  0.49521339271E+03  0.00000000000E+00 0. -1.
        -15    1    1    2    0    0  0.31784759200E+01  0.11989079158E+02  0.12849786584E+02  0.17947575672E+02  0.17770000000E+01 0.  1.
         15    1    1    2    0    0  0.79595193942E+01  0.54915804554E+01  0.95472465647E+01  0.13704709076E+02  0.17770000000E+01 0. -1.
</event>
<event>
 6    1  0.6394569E-004  0.5010128E+03  0.7546771E-02  0.9397546E-01
        -11   -1    0    0    0    0  0.00000000000E+00  0.00000000000E+00  0.50000000000E+03  0.50000000000E+03  0.00000000000E+00 0. -1.
         11   -1    0    0    0    0 -0.00000000000E+00 -0.00000000000E+00 -0.50000000000E+03  0.50000000000E+03  0.00000000000E+00 0.  1.
        -11    1    1    2    0    0 -0.76071877719E+01  0.79855244749E+01  0.42862637298E+03  0.42876824220E+03  0.00000000000E+00 0. -1.
         11    1    1    2    0    0  0.82389065695E+01  0.79661439193E+01 -0.49885553152E+03  0.49898715450E+03  0.00000000000E+00 0.  1.
        -15    1    1    2    0    0 -0.22045918923E+01 -0.51025255867E+01  0.24963639285E+02  0.25636634103E+02  0.17770000000E+01 0. -1.
         15    1    1    2    0    0  0.15728730947E+01 -0.10849142808E+02  0.45265519259E+02  0.46607969192E+02  0.17770000000E+01 0.  1.
</event>
<event>
 6    1  0.6394569E-004  0.5022455E+03  0.7546771E-02  0.9394799E-01
        -11   -1    0    0    0    0  0.00000000000E+00  0.00000000000E+00  0.50000000000E+03  0.50000000000E+03  0.00000000000E+00 0.  1.
         11   -1    0    0    0    0 -0.00000000000E+00 -0.00000000000E+00 -0.50000000000E+03  0.50000000000E+03  0.00000000000E+00 0. -1.
        -11    1    1    2    0    0  0.65473275936E+01  0.33780973031E+00  0.48153954769E+03  0.48158417499E+03  0.00000000000E+00 0.  1.
         11    1    1    2    0    0 -0.19360998252E+01 -0.74520715734E+01 -0.49769496055E+03  0.49775451340E+03  0.00000000000E+00 0. -1.
        -15    1    1    2    0    0 -0.67592115921E+01  0.29974286673E+01  0.11872092939E+02  0.14098788590E+02  0.17770000000E+01 0. -1.
         15    1    1    2    0    0  0.21479838237E+01  0.41168331758E+01  0.42833199208E+01  0.65625230246E+01  0.17770000000E+01 0.  1.
</event>
<event>
 6    1  0.6394569E-004  0.5002097E+03  0.7546771E-02  0.9399341E-01
        -11   -1    0    0    0    0  0.00000000000E+00  0.00000000000E+00  0.50000000000E+03  0.50000000000E+03  0.00000000000E+00 0.  1.
         11   -1    0    0    0    0 -0.00000000000E+00 -0.00000000000E+00 -0.50000000000E+03  0.50000000000E+03  0.00000000000E+00 0.  1.
        -11    1    1    2    0    0 -0.10955704949E+01 -0.76285850122E+01  0.49973088871E+03  0.49979031275E+03  0.00000000000E+00 0.  1.
         11    1    1    2    0    0  0.31951617629E+01 -0.32877367844E+01 -0.28549646864E+03  0.28553327630E+03  0.00000000000E+00 0.  1.
        -15    1    1    2    0    0  0.76492133672E+00  0.85570690389E+01 -0.17659255228E+03  0.17681033846E+03  0.17770000000E+01 0.  1.
         15    1    1    2    0    0 -0.28645126047E+01  0.23592527576E+01 -0.37641867792E+02  0.37866072491E+02  0.17770000000E+01 0. -1.
</event>
<event>
 6    1  0.6394569E-004  0.5045238E+03  0.7546771E-02  0.9389744E-01
        -11   -1    0    0    0    0  0.00000000000E+00  0.00000000000E+00  0.50000000000E+03  0.50000000000E+03  0.00000000000E+00 0. -1.
         11   -1    0    0    0    0 -0.00000000000E+00 -0.00000000000E+00 -0.50000000000E+03  0.50000000000E+03  0.00000000000E+00 0.  1.
        -11    1    1    2    0    0  0.19876841943E+02 -0.81744362746E+00  0.49507669331E+03  0.49547622478E+03  0.00000000000E+00 0. -1.
         11    1    1    2    0    0  0.28361674671E+01 -0.58855264860E+01 -0.45247160757E+03  0.45251877190E+03  0.00000000000E+00 0.  1.
        -15    1    1    2    0    0 -0.21306503625E+02 -0.80591214314E+00 -0.26238609018E+02  0.33856150450E+02  0.17770000000E+01 0. -1.
         15    1    1    2    0    0 -0.14065057855E+01  0.75088822566E+01 -0.16366476723E+02  0.18148852872E+02  0.17770000000E+01 0.  1.
</event>
<event>
 6    1  0.6394569E-004  0.5066694E+03  0.7546771E-02  0.9385009E-01
        -11   -1    0    0    0    0  0.00000000000E+00  0.00000000000E+00  0.50000000000E+03  0.50000000000E+03  0.00000000000E+00 0. -1.
         11   -1    0    0    0    0 -0.00000000000E+00 -0.00000000000E+00 -0.50000000000E+03  0.50000000000E+03  0.00000000000E+00 0.  1.
        -11    1    1    2    0    0  0.56407222457E+01  0.26082603446E+02  0.49260829176E+03  0.49333056774E+03  0.00000000000E+00 0. -1.
         11    1    1    2    0    0  0.13608628401E+02  0.13956296546E+02 -0.41932090759E+03  0.41977374444E+03  0.00000000000E+00 0.  1.
        -15    1    1    2    0    0 -0.36154447134E+01 -0.15850860815E+01 -0.30716349301E+01  0.53081643254E+01  0.17770000000E+01 0.  1.
         15    1    1    2    0    0 -0.15633905934E+02 -0.38453813910E+02 -0.70215749241E+02  0.81587523492E+02  0.17770000000E+01 0. -1.
</event>
<event>
 6    1  0.6394569E-004  0.5017930E+03  0.7546771E-02  0.9395807E-01
        -11   -1    0    0    0    0  0.00000000000E+00  0.00000000000E+00  0.50000000000E+03  0.50000000000E+03  0.00000000000E+00 0. -1.
         11   -1    0    0    0    0 -0.00000000000E+00 -0.00000000000E+00 -0.50000000000E+03  0.50000000000E+03  0.00000000000E+00 0. -1.
        -11    1    1    2    0    0 -0.20055648749E+02  0.73197820812E+00  0.60798012139E+02  0.64024707098E+02  0.00000000000E+00 0. -1.
         11    1    1    2    0    0  0.35579903772E+01 -0.17417804665E+02 -0.49788976267E+03  0.49820704028E+03  0.00000000000E+00 0. -1.
        -15    1    1    2    0    0  0.12706921474E+02  0.14055395546E+02  0.31298651650E+03  0.31356456629E+03  0.17770000000E+01 0. -1.
         15    1    1    2    0    0  0.37907368972E+01  0.26304309113E+01  0.12410523403E+03  0.12420368632E+03  0.17770000000E+01 0.  1.
</event>
<event>
 6    1  0.6394569E-004  0.5011323E+03  0.7546771E-02  0.9397280E-01
        -11   -1    0    0    0    0  0.00000000000E+00  0.00000000000E+00  0.50000000000E+03  0.50000000000E+03  0.00000000000E+00 0. -1.
         11   -1    0    0    0    0 -0.00000000000E+00 -0.00000000000E+00 -0.50000000000E+03  0.50000000000E+03  0.00000000000E+00 0. -1.
        -11    1    1    2    0    0  0.14540504303E+02  0.20057888485E+02  0.49825221569E+03  0.49886773357E+03  0.00000000000E+00 0. -1.
         11    1    1    2    0    0  0.62007219557E+01  0.57870676728E+01 -0.26737135424E+03  0.26750585072E+03  0.00000000000E+00 0. -1.
        -15    1    1    2    0    0 -0.20872438933E+02 -0.21153029016E+02 -0.21240060199E+03  0.21447676517E+03  0.17770000000E+01 0. -1.
         15    1    1    2    0    0  0.13121267497E+00 -0.46919271414E+01 -0.18480259459E+02  0.19149650538E+02  0.17770000000E+01 0.  1.
</event>
<event>
 6    1  0.6394569E-004  0.5001950E+03  0.7546771E-02  0.9399373E-01
        -11   -1    0    0    0    0  0.00000000000E+00  0.00000000000E+00  0.50000000000E+03  0.50000000000E+03  0.00000000000E+00 0. -1.
         11   -1    0    0    0    0 -0.00000000000E+00 -0.00000000000E+00 -0.50000000000E+03  0.50000000000E+03  0.00000000000E+00 0. -1.
        -11    1    1    2    0    0  0.80237919134E+01  0.17305795403E+01  0.15742962877E+03  0.15764347166E+03  0.00000000000E+00 0. -1.
         11    1    1    2    0    0 -0.18735310756E+02  0.88974697638E+00 -0.49945290133E+03  0.49980496613E+03  0.00000000000E+00 0. -1.
        -15    1    1    2    0    0  0.47947781295E+01 -0.81992799507E+01  0.12693609598E+03  0.12730337105E+03  0.17770000000E+01 0. -1.
         15    1    1    2    0    0  0.59167407134E+01  0.55789534340E+01  0.21508717658E+03  0.21524819117E+03  0.17770000000E+01 0.  1.
</event>
<event>
 6    1  0.6394569E-004  0.5005349E+03  0.7546771E-02  0.9398614E-01
        -11   -1    0    0    0    0  0.00000000000E+00  0.00000000000E+00  0.50000000000E+03  0.50000000000E+03  0.00000000000E+00 0.  1.
         11   -1    0    0    0    0 -0.00000000000E+00 -0.00000000000E+00 -0.50000000000E+03  0.50000000000E+03  0.00000000000E+00 0. -1.
        -11    1    1    2    0    0 -0.99494761071E+01  0.14850107470E+02  0.23037214704E+03  0.23106458816E+03  0.00000000000E+00 0.  1.
         11    1    1    2    0    0 -0.29065717787E+01 -0.79868708746E+01 -0.49939281722E+03  0.49946513807E+03  0.00000000000E+00 0. -1.
        -15    1    1    2    0    0  0.93787505402E+01 -0.66474165294E+01  0.19577473733E+03  0.19612000055E+03  0.17770000000E+01 0.  1.
         15    1    1    2    0    0  0.34772973456E+01 -0.21582006556E+00  0.73245932839E+02  0.73350273221E+02  0.17770000000E+01 0.  1.
</event>
<event>
 6    1  0.6394569E-004  0.5007374E+03  0.7546771E-02  0.9398161E-01
        -11   -1    0    0    0    0  0.00000000000E+00  0.00000000000E+00  0.50000000000E+03  0.50000000000E+03  0.00000000000E+00 0.  1.
         11   -1    0    0    0    0 -0.00000000000E+00 -0.00000000000E+00 -0.50000000000E+03  0.50000000000E+03  0.00000000000E+00 0. -1.
        -11    1    1    2    0    0  0.81252503742E-01 -0.71539773091E+01  0.42283265628E+03  0.42289317943E+03  0.00000000000E+00 0.  1.
         11    1    1    2    0    0 -0.11818988458E+02  0.26032162823E+01 -0.49911587644E+03  0.49926257955E+03  0.00000000000E+00 0. -1.
        -15    1    1    2    0    0  0.71388654197E+01 -0.11295677827E+01  0.48197497726E+02  0.48768799851E+02  0.17770000000E+01 0. -1.
         15    1    1    2    0    0  0.45988705346E+01  0.56803288094E+01  0.28085722431E+02  0.29075441166E+02  0.17770000000E+01 0.  1.
</event>
<event>
 6    1  0.6394569E-004  0.5033522E+03  0.7546771E-02  0.9392340E-01
        -11   -1    0    0    0    0  0.00000000000E+00  0.00000000000E+00  0.50000000000E+03  0.50000000000E+03  0.00000000000E+00 0. -1.
         11   -1    0    0    0    0 -0.00000000000E+00 -0.00000000000E+00 -0.50000000000E+03  0.50000000000E+03  0.00000000000E+00 0. -1.
        -11    1    1    2    0    0  0.54658309408E+02  0.94214388171E+01  0.49354105805E+03  0.49664783326E+03  0.00000000000E+00 0. -1.
         11    1    1    2    0    0 -0.10126116467E+02 -0.98989261732E+00 -0.37672555704E+03  0.37686292395E+03  0.00000000000E+00 0. -1.
        -15    1    1    2    0    0 -0.96466552902E+00 -0.34410139953E+01 -0.16806506777E+02  0.17273898111E+02  0.17770000000E+01 0. -1.
         15    1    1    2    0    0 -0.43567527412E+02 -0.49905322045E+01 -0.10000899424E+03  0.10921534468E+03  0.17770000000E+01 0.  1.
</event>
<event>
 6    1  0.6394569E-004  0.5007356E+03  0.7546771E-02  0.9398165E-01
        -11   -1    0    0    0    0  0.00000000000E+00  0.00000000000E+00  0.50000000000E+03  0.50000000000E+03  0.00000000000E+00 0. -1.
         11   -1    0    0    0    0 -0.00000000000E+00 -0.00000000000E+00 -0.50000000000E+03  0.50000000000E+03  0.00000000000E+00 0.  1.
        -11    1    1    2    0    0  0.90665986023E+01  0.36246426150E+02  0.49786441846E+03  0.49926444475E+03  0.00000000000E+00 0. -1.
         11    1    1    2    0    0 -0.11100298028E+01  0.57712544467E+01 -0.82803459386E+02  0.83011760796E+02  0.00000000000E+00 0.  1.
        -15    1    1    2    0    0 -0.10443340576E+02 -0.10130147337E+02 -0.10635770066E+03  0.10736294270E+03  0.17770000000E+01 0. -1.
         15    1    1    2    0    0  0.24867717769E+01 -0.31887533260E+02 -0.30870325842E+03  0.31036085175E+03  0.17770000000E+01 0.  1.
</event>
<event>
 6    1  0.6394569E-004  0.4786835E+03  0.7546771E-02  0.9448812E-01
        -11   -1    0    0    0    0  0.00000000000E+00  0.00000000000E+00  0.50000000000E+03  0.50000000000E+03  0.00000000000E+00 0. -1.
         11   -1    0    0    0    0 -0.00000000000E+00 -0.00000000000E+00 -0.50000000000E+03  0.50000000000E+03  0.00000000000E+00 0. -1.
        -11    1    1    2    0    0  0.19391105263E+02 -0.20114573929E+02  0.48592011333E+03  0.48672268037E+03  0.00000000000E+00 0. -1.
         11    1    1    2    0    0  0.41491346077E+01 -0.81044745798E+01 -0.47137191399E+03  0.47145983829E+03  0.00000000000E+00 0. -1.
        -15    1    1    2    0    0 -0.12058766447E+02  0.12285085131E+02  0.10073470715E-01  0.17305923708E+02  0.17770000000E+01 0. -1.
         15    1    1    2    0    0 -0.11481473424E+02  0.15933963377E+02 -0.14558272817E+02  0.24511557627E+02  0.17770000000E+01 0.  1.
</event>
<event>
 6    1  0.6394569E-004  0.5000961E+03  0.7546771E-02  0.9399595E-01
        -11   -1    0    0    0    0  0.00000000000E+00  0.00000000000E+00  0.50000000000E+03  0.50000000000E+03  0.00000000000E+00 0.  1.
         11   -1    0    0    0    0 -0.00000000000E+00 -0.00000000000E+00 -0.50000000000E+03  0.50000000000E+03  0.00000000000E+00 0.  1.
        -11    1    1    2    0    0  0.19632239362E+02 -0.10021759872E+01  0.49951728486E+03  0.49990393782E+03  0.00000000000E+00 0.  1.
         11    1    1    2    0    0 -0.18484770633E+02 -0.17129108199E+01 -0.43039745580E+03  0.43079762159E+03  0.00000000000E+00 0.  1.
        -15    1    1    2    0    0  0.22050481353E+00  0.16937836734E+01 -0.39124855103E+02  0.39202417545E+02  0.17770000000E+01 0. -1.
         15    1    1    2    0    0 -0.13679735422E+01  0.10213031338E+01 -0.29994973954E+02  0.30096023046E+02  0.17770000000E+01 0. -1.
</event>
<event>
 6    1  0.6394569E-004  0.5005349E+03  0.7546771E-02  0.9398614E-01
        -11   -1    0    0    0    0  0.00000000000E+00  0.00000000000E+00  0.50000000000E+03  0.50000000000E+03  0.00000000000E+00 0. -1.
         11   -1    0    0    0    0 -0.00000000000E+00 -0.00000000000E+00 -0.50000000000E+03  0.50000000000E+03  0.00000000000E+00 0. -1.
        -11    1    1    2    0    0 -0.63370715120E+01  0.79234899202E+01  0.13268017965E+03  0.13306754014E+03  0.00000000000E+00 0. -1.
         11    1    1    2    0    0 -0.84962211038E+01  0.31667770342E+01 -0.49938275939E+03  0.49946506848E+03  0.00000000000E+00 0. -1.
        -15    1    1    2    0    0  0.10372113552E+01  0.30568224845E+01  0.43125217373E+02  0.43282352912E+02  0.17770000000E+01 0.  1.
         15    1    1    2    0    0  0.13796081261E+02 -0.14147089439E+02  0.32357736237E+03  0.32418503847E+03  0.17770000000E+01 0. -1.
</event>
<event>
 6    1  0.6394569E-004  0.5000771E+03  0.7546771E-02  0.9399637E-01
        -11   -1    0    0    0    0  0.00000000000E+00  0.00000000000E+00  0.50000000000E+03  0.50000000000E+03  0.00000000000E+00 0. -1.
         11   -1    0    0    0    0 -0.00000000000E+00 -0.00000000000E+00 -0.50000000000E+03  0.50000000000E+03  0.00000000000E+00 0. -1.
        -11    1    1    2    0    0  0.76657769880E+01  0.13074742355E+02  0.49969310826E+03  0.49992290952E+03  0.00000000000E+00 0. -1.
         11    1    1    2    0    0 -0.49518418849E+01 -0.27342033278E+01 -0.28662107575E+03  0.28667688722E+03  0.00000000000E+00 0. -1.
        -15    1    1    2    0    0 -0.32628712599E+01 -0.56772659649E+01 -0.11555425446E+03  0.11575327698E+03  0.17770000000E+01 0.  1.
         15    1    1    2    0    0  0.54893615670E+00 -0.46632730621E+01 -0.97517778049E+02  0.97646926276E+02  0.17770000000E+01 0. -1.
</event>
<event>
 6    1  0.6394569E-004  0.4881617E+03  0.7546771E-02  0.9426695E-01
        -11   -1    0    0    0    0  0.00000000000E+00  0.00000000000E+00  0.50000000000E+03  0.50000000000E+03  0.00000000000E+00 0. -1.
         11   -1    0    0    0    0 -0.00000000000E+00 -0.00000000000E+00 -0.50000000000E+03  0.50000000000E+03  0.00000000000E+00 0. -1.
        -11    1    1    2    0    0 -0.32415158086E+01  0.13135401204E+02  0.48411723823E+03  0.48430625284E+03  0.00000000000E+00 0. -1.
         11    1    1    2    0    0 -0.35706417059E+01  0.57127447378E+01 -0.49221030639E+03  0.49225640742E+03  0.00000000000E+00 0. -1.
        -15    1    1    2    0    0  0.49650674841E+01 -0.18312497610E+02  0.83510668133E+01  0.20806189217E+02  0.17770000000E+01 0. -1.
         15    1    1    2    0    0  0.18470900304E+01 -0.53564833226E+00 -0.25799865783E+00  0.26311505133E+01  0.17770000000E+01 0.  1.
</event>
<event>
 6    1  0.6394569E-004  0.5041628E+03  0.7546771E-02  0.9390543E-01
        -11   -1    0    0    0    0  0.00000000000E+00  0.00000000000E+00  0.50000000000E+03  0.50000000000E+03  0.00000000000E+00 0. -1.
         11   -1    0    0    0    0 -0.00000000000E+00 -0.00000000000E+00 -0.50000000000E+03  0.50000000000E+03  0.00000000000E+00 0.  1.
        -11    1    1    2    0    0  0.17148221032E+02  0.17774243822E+02  0.49522172014E+03  0.49583720849E+03  0.00000000000E+00 0. -1.
         11    1    1    2    0    0 -0.75922914750E+01  0.40345040330E+01 -0.44825748652E+03  0.44833993167E+03  0.00000000000E+00 0.  1.
        -15    1    1    2    0    0 -0.13480472855E+02 -0.93196130961E+01 -0.30916279096E+02  0.35036443580E+02  0.17770000000E+01 0.  1.
         15    1    1    2    0    0  0.39245432971E+01 -0.12489134759E+02 -0.16047954530E+02  0.20786416255E+02  0.17770000000E+01 0. -1.
</event>
<event>
 6    1  0.6394569E-004  0.5012391E+03  0.7546771E-02  0.9397041E-01
        -11   -1    0    0    0    0  0.00000000000E+00  0.00000000000E+00  0.50000000000E+03  0.50000000000E+03  0.00000000000E+00 0.  1.
         11   -1    0    0    0    0 -0.00000000000E+00 -0.00000000000E+00 -0.50000000000E+03  0.50000000000E+03  0.00000000000E+00 0.  1.
        -11    1    1    2    0    0 -0.99681363170E+01 -0.52628317066E+01  0.30824389605E+03  0.30844993206E+03  0.00000000000E+00 0.  1.
         11    1    1    2    0    0 -0.48636923997E+01  0.60440076314E+01 -0.49870059205E+03  0.49876093075E+03  0.00000000000E+00 0.  1.
        -15    1    1    2    0    0 -0.20070314582E+01  0.61653650991E+01  0.11299031654E+03  0.11319014649E+03  0.17770000000E+01 0. -1.
         15    1    1    2    0    0  0.16838860175E+02 -0.69465410239E+01  0.77466379458E+02  0.79598990694E+02  0.17770000000E+01 0.  1.
</event>
<event>
 6    1  0.6394569E-004  0.4786483E+03  0.7546771E-02  0.9448895E-01
        -11   -1    0    0    0    0  0.00000000000E+00  0.00000000000E+00  0.50000000000E+03  0.50000000000E+03  0.00000000000E+00 0.  1.
         11   -1    0    0    0    0 -0.00000000000E+00 -0.00000000000E+00 -0.50000000000E+03  0.50000000000E+03  0.00000000000E+00 0.  1.
        -11    1    1    2    0    0  0.24657453278E+02 -0.20048856737E+02  0.48657248909E+03  0.48760920192E+03  0.00000000000E+00 0.  1.
         11    1    1    2    0    0  0.13234756080E+01 -0.75226287028E+01 -0.47050946513E+03  0.47057145930E+03  0.00000000000E+00 0.  1.
        -15    1    1    2    0    0 -0.20873893711E+02  0.25013594991E+02 -0.13726433508E+02  0.35397345647E+02  0.17770000000E+01 0. -1.
         15    1    1    2    0    0 -0.51070351755E+01  0.25578904496E+01 -0.23365904545E+01  0.64219931320E+01  0.17770000000E+01 0.  1.
</event>
<event>
 6    1  0.6394569E-004  0.5000757E+03  0.7546771E-02  0.9399640E-01
        -11   -1    0    0    0    0  0.00000000000E+00  0.00000000000E+00  0.50000000000E+03  0.50000000000E+03  0.00000000000E+00 0. -1.
         11   -1    0    0    0    0 -0.00000000000E+00 -0.00000000000E+00 -0.50000000000E+03  0.50000000000E+03  0.00000000000E+00 0. -1.
        -11    1    1    2    0    0  0.17173428343E+01 -0.71207348902E+01  0.16779453500E+03  0.16795433936E+03  0.00000000000E+00 0. -1.
         11    1    1    2    0    0 -0.50476160741E+01  0.13683675231E+02 -0.49971147549E+03  0.49992427439E+03  0.00000000000E+00 0. -1.
        -15    1    1    2    0    0  0.53808532114E+01 -0.15809416131E+01  0.19014254030E+03  0.19023353100E+03  0.17770000000E+01 0.  1.
         15    1    1    2    0    0 -0.20505799716E+01 -0.49819987279E+01  0.14177440019E+03  0.14188785525E+03  0.17770000000E+01 0. -1.
</event>
<event>
 6    1  0.6394569E-004  0.5003057E+03  0.7546771E-02  0.9399126E-01
        -11   -1    0    0    0    0  0.00000000000E+00  0.00000000000E+00  0.50000000000E+03  0.50000000000E+03  0.00000000000E+00 0. -1.
         11   -1    0    0    0    0 -0.00000000000E+00 -0.00000000000E+00 -0.50000000000E+03  0.50000000000E+03  0.00000000000E+00 0. -1.
        -11    1    1    2    0    0  0.17195311433E+01 -0.69007703381E+01  0.40392698019E+02  0.41013991172E+02  0.00000000000E+00 0. -1.
         11    1    1    2    0    0 -0.91047683301E+01  0.57962421411E+01 -0.49957769626E+03  0.49969427436E+03  0.00000000000E+00 0. -1.
        -15    1    1    2    0    0  0.72764186379E+01  0.21745087785E+01  0.37516037924E+03  0.37524144579E+03  0.17770000000E+01 0. -1.
         15    1    1    2    0    0  0.10881854890E+00 -0.10699805815E+01  0.84024619002E+02  0.84050288681E+02  0.17770000000E+01 0. -1.
</event>
<event>
 6    1  0.6394569E-004  0.5010511E+03  0.7546771E-02  0.9397461E-01
        -11   -1    0    0    0    0  0.00000000000E+00  0.00000000000E+00  0.50000000000E+03  0.50000000000E+03  0.00000000000E+00 0. -1.
         11   -1    0    0    0    0 -0.00000000000E+00 -0.00000000000E+00 -0.50000000000E+03  0.50000000000E+03  0.00000000000E+00 0.  1.
        -11    1    1    2    0    0  0.17028903119E+02 -0.22713469627E+02  0.49814070767E+03  0.49894894516E+03  0.00000000000E+00 0. -1.
         11    1    1    2    0    0 -0.90456827602E+00  0.55881053700E+01 -0.32183325163E+03  0.32188303314E+03  0.00000000000E+00 0.  1.
        -15    1    1    2    0    0 -0.80012749508E+01  0.21126107757E+02 -0.12567989240E+03  0.12770640513E+03  0.17770000000E+01 0.  1.
         15    1    1    2    0    0 -0.81230598919E+01 -0.40007435000E+01 -0.50627563640E+02  0.51461616567E+02  0.17770000000E+01 0. -1.
</event>
<event>
 6    1  0.6394569E-004  0.5002850E+03  0.7546771E-02  0.9399172E-01
        -11   -1    0    0    0    0  0.00000000000E+00  0.00000000000E+00  0.50000000000E+03  0.50000000000E+03  0.00000000000E+00 0. -1.
         11   -1    0    0    0    0 -0.00000000000E+00 -0.00000000000E+00 -0.50000000000E+03  0.50000000000E+03  0.00000000000E+00 0.  1.
        -11    1    1    2    0    0 -0.73592609899E+00 -0.93599607693E+01  0.42212641631E+03  0.42223081579E+03  0.00000000000E+00 0. -1.
         11    1    1    2    0    0 -0.43586309192E+01  0.76263899840E+01 -0.49963782699E+03  0.49971503644E+03  0.00000000000E+00 0.  1.
        -15    1    1    2    0    0  0.23874594641E+01  0.30864107565E+01  0.62116080298E+02  0.62263882425E+02  0.17770000000E+01 0.  1.
         15    1    1    2    0    0  0.27070975541E+01 -0.13528399712E+01  0.15395330380E+02  0.15790265345E+02  0.17770000000E+01 0. -1.
</event>
<event>
 6    1  0.6394569E-004  0.5000731E+03  0.7546771E-02  0.9399646E-01
        -11   -1    0    0    0    0  0.00000000000E+00  0.00000000000E+00  0.50000000000E+03  0.50000000000E+03  0.00000000000E+00 0. -1.
         11   -1    0    0    0    0 -0.00000000000E+00 -0.00000000000E+00 -0.50000000000E+03  0.50000000000E+03  0.00000000000E+00 0.  1.
        -11    1    1    2    0    0 -0.40960593717E+01  0.79400522590E+01  0.49984707609E+03  0.49992691627E+03  0.00000000000E+00 0. -1.
         11    1    1    2    0    0  0.14095829707E+01  0.17933975370E+01 -0.94338111167E+02  0.94365684534E+02  0.00000000000E+00 0.  1.
        -15    1    1    2    0    0  0.92998514257E+00 -0.95749745672E+01 -0.35684969291E+03  0.35698376163E+03  0.17770000000E+01 0.  1.
         15    1    1    2    0    0  0.17564912585E+01 -0.15847522880E+00 -0.48659272014E+02  0.48723637568E+02  0.17770000000E+01 0. -1.
</event>
<event>
 6    1  0.6394569E-004  0.5042319E+03  0.7546771E-02  0.9390390E-01
        -11   -1    0    0    0    0  0.00000000000E+00  0.00000000000E+00  0.50000000000E+03  0.50000000000E+03  0.00000000000E+00 0.  1.
         11   -1    0    0    0    0 -0.00000000000E+00 -0.00000000000E+00 -0.50000000000E+03  0.50000000000E+03  0.00000000000E+00 0.  1.
        -11    1    1    2    0    0  0.28274542625E+02 -0.14740253792E+02  0.66293108935E+02  0.73562905970E+02  0.00000000000E+00 0.  1.
         11    1    1    2    0    0 -0.47170115942E+01 -0.67710559851E+01 -0.49569937297E+03  0.49576805641E+03  0.00000000000E+00 0.  1.
        -15    1    1    2    0    0 -0.10509758582E+01  0.13532919638E+01  0.21447647844E+02  0.21589239830E+02  0.17770000000E+01 0.  1.
         15    1    1    2    0    0 -0.22506555172E+02  0.20158017814E+02  0.40795861619E+03  0.40907979779E+03  0.17770000000E+01 0.  1.
</event>
<event>
 6    1  0.6394569E-004  0.5009655E+03  0.7546771E-02  0.9397652E-01
        -11   -1    0    0    0    0  0.00000000000E+00  0.00000000000E+00  0.50000000000E+03  0.50000000000E+03  0.00000000000E+00 0. -1.
         11   -1    0    0    0    0 -0.00000000000E+00 -0.00000000000E+00 -0.50000000000E+03  0.50000000000E+03  0.00000000000E+00 0.  1.
        -11    1    1    2    0    0 -0.64909490909E+01 -0.27868696278E+01  0.13056821779E+02  0.14845189705E+02  0.00000000000E+00 0. -1.
         11    1    1    2    0    0  0.68179244933E+01 -0.46317220161E+01 -0.49896645704E+03  0.49903453006E+03  0.00000000000E+00 0.  1.
        -15    1    1    2    0    0 -0.30899146396E+01 -0.17514237544E+01  0.85507577272E+02  0.85599757929E+02  0.17770000000E+01 0.  1.
         15    1    1    2    0    0  0.27629392371E+01  0.91700153984E+01  0.40040205799E+03  0.40052052230E+03  0.17770000000E+01 0. -1.
</event>
<event>
 6    1  0.6394569E-004  0.5022116E+03  0.7546771E-02  0.9394875E-01
        -11   -1    0    0    0    0  0.00000000000E+00  0.00000000000E+00  0.50000000000E+03  0.50000000000E+03  0.00000000000E+00 0.  1.
         11   -1    0    0    0    0 -0.00000000000E+00 -0.00000000000E+00 -0.50000000000E+03  0.50000000000E+03  0.00000000000E+00 0.  1.
        -11    1    1    2    0    0  0.78633013909E+01  0.23095800084E+01  0.49772096252E+03  0.49778843117E+03  0.00000000000E+00 0.  1.
         11    1    1    2    0    0 -0.27370264643E+01  0.62410747097E+01 -0.48630639154E+03  0.48635413926E+03  0.00000000000E+00 0.  1.
        -15    1    1    2    0    0 -0.13222262004E+01 -0.50457894130E+01 -0.62912794038E+01  0.83633843904E+01  0.17770000000E+01 0.  1.
         15    1    1    2    0    0 -0.38040487262E+01 -0.35048653051E+01 -0.51232915800E+01  0.74940451781E+01  0.17770000000E+01 0. -1.
</event>
<event>
 6    1  0.6394569E-004  0.5003469E+03  0.7546771E-02  0.9399034E-01
        -11   -1    0    0    0    0  0.00000000000E+00  0.00000000000E+00  0.50000000000E+03  0.50000000000E+03  0.00000000000E+00 0. -1.
         11   -1    0    0    0    0 -0.00000000000E+00 -0.00000000000E+00 -0.50000000000E+03  0.50000000000E+03  0.00000000000E+00 0.  1.
        -11    1    1    2    0    0 -0.58628552048E+01  0.95795091491E+01  0.49952683501E+03  0.49965307861E+03  0.00000000000E+00 0. -1.
         11    1    1    2    0    0  0.48179637528E+01 -0.28895890663E+01 -0.39804408031E+03  0.39808372533E+03  0.00000000000E+00 0.  1.
        -15    1    1    2    0    0  0.53488676417E+01 -0.19838391817E+01 -0.50585597703E+02  0.50937279343E+02  0.17770000000E+01 0. -1.
         15    1    1    2    0    0 -0.43039761898E+01 -0.47060809011E+01 -0.50897156994E+02  0.51325916724E+02  0.17770000000E+01 0.  1.
</event>
<event>
 6    1  0.6394569E-004  0.5006116E+03  0.7546771E-02  0.9398442E-01
        -11   -1    0    0    0    0  0.00000000000E+00  0.00000000000E+00  0.50000000000E+03  0.50000000000E+03  0.00000000000E+00 0. -1.
         11   -1    0    0    0    0 -0.00000000000E+00 -0.00000000000E+00 -0.50000000000E+03  0.50000000000E+03  0.00000000000E+00 0.  1.
        -11    1    1    2    0    0 -0.36776171273E+02  0.86549912302E+01  0.49795720393E+03  0.49938839853E+03  0.00000000000E+00 0. -1.
         11    1    1    2    0    0 -0.38738963489E+01  0.17955655952E+01 -0.12702106361E+03  0.12709280754E+03  0.00000000000E+00 0.  1.
        -15    1    1    2    0    0  0.49451085048E+01 -0.53501702883E+01 -0.79827976765E+02  0.80179436414E+02  0.17770000000E+01 0. -1.
         15    1    1    2    0    0  0.35704959117E+02 -0.51003865371E+01 -0.29110816356E+03  0.29333935751E+03  0.17770000000E+01 0.  1.
</event>
<event>
 6    1  0.6394569E-004  0.5004375E+03  0.7546771E-02  0.9398831E-01
        -11   -1    0    0    0    0  0.00000000000E+00  0.00000000000E+00  0.50000000000E+03  0.50000000000E+03  0.00000000000E+00 0.  1.
         11   -1    0    0    0    0 -0.00000000000E+00 -0.00000000000E+00 -0.50000000000E+03  0.50000000000E+03  0.00000000000E+00 0.  1.
        -11    1    1    2    0    0 -0.83868213941E+01  0.61778787993E+01  0.40553138995E+03  0.40566514910E+03  0.00000000000E+00 0.  1.
         11    1    1    2    0    0  0.52915573298E+01  0.46647069658E+01 -0.49951272357E+03  0.49956252969E+03  0.00000000000E+00 0.  1.
        -15    1    1    2    0    0  0.11455576329E+01 -0.48712449712E+01  0.54128616332E+02  0.54388474559E+02  0.17770000000E+01 0.  1.
         15    1    1    2    0    0  0.19497064313E+01 -0.59713407939E+01  0.39852717287E+02  0.40383846650E+02  0.17770000000E+01 0. -1.
</event>
<event>
 6    1  0.6394569E-004  0.5025446E+03  0.7546771E-02  0.9394134E-01
        -11   -1    0    0    0    0  0.00000000000E+00  0.00000000000E+00  0.50000000000E+03  0.50000000000E+03  0.00000000000E+00 0.  1.
         11   -1    0    0    0    0 -0.00000000000E+00 -0.00000000000E+00 -0.50000000000E+03  0.50000000000E+03  0.00000000000E+00 0. -1.
        -11    1    1    2    0    0 -0.42765137641E+02 -0.17151166772E+02  0.49531688827E+03  0.49745536416E+03  0.00000000000E+00 0.  1.
         11    1    1    2    0    0  0.52286834238E+01  0.53094186226E+01 -0.29692201053E+03  0.29701550363E+03  0.00000000000E+00 0. -1.
        -15    1    1    2    0    0  0.40255310132E+02  0.16519974727E+02 -0.13436072153E+03  0.14124220608E+03  0.17770000000E+01 0. -1.
         15    1    1    2    0    0 -0.27188559144E+01 -0.46782265782E+01 -0.64034156210E+02  0.64286926135E+02  0.17770000000E+01 0. -1.
</event>
<event>
 6    1  0.6394569E-004  0.4834694E+03  0.7546771E-02  0.9437577E-01
        -11   -1    0    0    0    0  0.00000000000E+00  0.00000000000E+00  0.50000000000E+03  0.50000000000E+03  0.00000000000E+00 0. -1.
         11   -1    0    0    0    0 -0.00000000000E+00 -0.00000000000E+00 -0.50000000000E+03  0.50000000000E+03  0.00000000000E+00 0.  1.
        -11    1    1    2    0    0 -0.15670110532E+02 -0.12795440042E+02  0.48525960881E+03  0.48568113366E+03  0.00000000000E+00 0. -1.
         11    1    1    2    0    0  0.44119551360E+00 -0.10342241252E+02 -0.48155021530E+03  0.48166146459E+03  0.00000000000E+00 0.  1.
        -15    1    1    2    0    0  0.16094397574E+02  0.11497161468E+02 -0.57516355817E+01  0.20674946093E+02  0.17770000000E+01 0. -1.
         15    1    1    2    0    0 -0.86548255512E+00  0.11640519826E+02  0.20422420721E+01  0.11982455657E+02  0.17770000000E+01 0.  1.
</event>
<event>
 6    1  0.6394569E-004  0.5060794E+03  0.7546771E-02  0.9386308E-01
        -11   -1    0    0    0    0  0.00000000000E+00  0.00000000000E+00  0.50000000000E+03  0.50000000000E+03  0.00000000000E+00 0. -1.
         11   -1    0    0    0    0 -0.00000000000E+00 -0.00000000000E+00 -0.50000000000E+03  0.50000000000E+03  0.00000000000E+00 0.  1.
        -11    1    1    2    0    0  0.18300794733E+02 -0.20054295122E+02  0.49317386720E+03  0.49392059800E+03  0.00000000000E+00 0. -1.
         11    1    1    2    0    0  0.29084659764E+01  0.52662870512E+01 -0.44298601530E+03  0.44302686454E+03  0.00000000000E+00 0.  1.
        -15    1    1    2    0    0  0.52335600956E+00 -0.64211555237E+01 -0.15720046670E+02  0.17081649103E+02  0.17770000000E+01 0.  1.
         15    1    1    2    0    0 -0.21732616719E+02  0.21209163595E+02 -0.34467805233E+02  0.45970888358E+02  0.17770000000E+01 0. -1.
</event>
<event>
 6    1  0.6394569E-004  0.5001013E+03  0.7546771E-02  0.9399583E-01
        -11   -1    0    0    0    0  0.00000000000E+00  0.00000000000E+00  0.50000000000E+03  0.50000000000E+03  0.00000000000E+00 0.  1.
         11   -1    0    0    0    0 -0.00000000000E+00 -0.00000000000E+00 -0.50000000000E+03  0.50000000000E+03  0.00000000000E+00 0. -1.
        -11    1    1    2    0    0  0.15147693527E+02  0.17614516741E+02  0.39142240736E+03  0.39211124034E+03  0.00000000000E+00 0.  1.
         11    1    1    2    0    0 -0.14226768076E+02 -0.18796646816E+02 -0.49934253231E+03  0.49989866916E+03  0.00000000000E+00 0. -1.
        -15    1    1    2    0    0 -0.45286108405E+00  0.34140104285E+00  0.50876107972E+02  0.50910290995E+02  0.17770000000E+01 0.  1.
         15    1    1    2    0    0 -0.46806436669E+00  0.84072903190E+00  0.57044016976E+02  0.57079799503E+02  0.17770000000E+01 0. -1.
</event>
<event>
 6    1  0.6394569E-004  0.5032013E+03  0.7546771E-02  0.9392675E-01
        -11   -1    0    0    0    0  0.00000000000E+00  0.00000000000E+00  0.50000000000E+03  0.50000000000E+03  0.00000000000E+00 0. -1.
         11   -1    0    0    0    0 -0.00000000000E+00 -0.00000000000E+00 -0.50000000000E+03  0.50000000000E+03  0.00000000000E+00 0.  1.
        -11    1    1    2    0    0 -0.16347821264E+02 -0.72438886461E+00  0.49652914928E+03  0.49679872391E+03  0.00000000000E+00 0. -1.
         11    1    1    2    0    0  0.66183275161E+01  0.40385514868E+01 -0.48568262063E+03  0.48574450089E+03  0.00000000000E+00 0.  1.
        -15    1    1    2    0    0  0.91560196235E+01 -0.50080742995E+01 -0.64726106713E+01  0.12408300506E+02  0.17770000000E+01 0.  1.
         15    1    1    2    0    0  0.57347412462E+00  0.16939116772E+01 -0.43739179708E+01  0.50484746961E+01  0.17770000000E+01 0. -1.
</event>
<event>
 6    1  0.6394569E-004  0.5005968E+03  0.7546771E-02  0.9398475E-01
        -11   -1    0    0    0    0  0.00000000000E+00  0.00000000000E+00  0.50000000000E+03  0.50000000000E+03  0.00000000000E+00 0. -1.
         11   -1    0    0    0    0 -0.00000000000E+00 -0.00000000000E+00 -0.50000000000E+03  0.50000000000E+03  0.00000000000E+00 0.  1.
        -11    1    1    2    0    0  0.20393436342E+02  0.65463075661E+00  0.15379112075E+03  0.15513874309E+03  0.00000000000E+00 0. -1.
         11    1    1    2    0    0 -0.25197530219E+02  0.70053529043E+01 -0.49871795734E+03  0.49940323535E+03  0.00000000000E+00 0.  1.
        -15    1    1    2    0    0 -0.50903417847E+01 -0.72390832167E+01  0.17705631767E+03  0.17728624668E+03  0.17770000000E+01 0. -1.
         15    1    1    2    0    0  0.98944356616E+01 -0.42090044419E+00  0.16787051892E+03  0.16817177488E+03  0.17770000000E+01 0.  1.
</event>
<event>
 6    1  0.6394569E-004  0.5006787E+03  0.7546771E-02  0.9398292E-01
        -11   -1    0    0    0    0  0.00000000000E+00  0.00000000000E+00  0.50000000000E+03  0.50000000000E+03  0.00000000000E+00 0.  1.
         11   -1    0    0    0    0 -0.00000000000E+00 -0.00000000000E+00 -0.50000000000E+03  0.50000000000E+03  0.00000000000E+00 0. -1.
        -11    1    1    2    0    0 -0.55259703555E+01 -0.41541093480E+01  0.49927346619E+03  0.49932132641E+03  0.00000000000E+00 0.  1.
         11    1    1    2    0    0  0.33605044770E+01 -0.44563451980E+01 -0.38786922081E+03  0.38790937660E+03  0.00000000000E+00 0. -1.
        -15    1    1    2    0    0 -0.24268704719E+01  0.30403098105E+01 -0.77744979518E+01  0.88732029975E+01  0.17770000000E+01 0.  1.
         15    1    1    2    0    0  0.45923363504E+01  0.55701447355E+01 -0.10362974743E+03  0.10389609399E+03  0.17770000000E+01 0. -1.
</event>
<event>
 6    1  0.6394569E-004  0.5112252E+03  0.7546771E-02  0.9375037E-01
        -11   -1    0    0    0    0  0.00000000000E+00  0.00000000000E+00  0.50000000000E+03  0.50000000000E+03  0.00000000000E+00 0.  1.
         11   -1    0    0    0    0 -0.00000000000E+00 -0.00000000000E+00 -0.50000000000E+03  0.50000000000E+03  0.00000000000E+00 0.  1.
        -11    1    1    2    0    0 -0.24786175528E+02 -0.27959364145E+02  0.48734452167E+03  0.48877475727E+03  0.00000000000E+00 0.  1.
         11    1    1    2    0    0 -0.42791606059E+00 -0.74243827015E+01 -0.45620410844E+03  0.45626471826E+03  0.00000000000E+00 0.  1.
        -15    1    1    2    0    0 -0.15935593841E+00  0.63150532192E+01 -0.58537972720E+01  0.87937456740E+01  0.17770000000E+01 0.  1.
         15    1    1    2    0    0  0.25373447527E+02  0.29068693628E+02 -0.25286615961E+02  0.46166778796E+02  0.17770000000E+01 0. -1.
</event>
<event>
 6    1  0.6394569E-004  0.4843841E+03  0.7546771E-02  0.9435446E-01
        -11   -1    0    0    0    0  0.00000000000E+00  0.00000000000E+00  0.50000000000E+03  0.50000000000E+03  0.00000000000E+00 0.  1.
         11   -1    0    0    0    0 -0.00000000000E+00 -0.00000000000E+00 -0.50000000000E+03  0.50000000000E+03  0.00000000000E+00 0.  1.
        -11    1    1    2    0    0 -0.22089646664E+02 -0.59368362577E+00  0.48529923658E+03  0.48580207284E+03  0.00000000000E+00 0.  1.
         11    1    1    2    0    0 -0.48475313521E+01  0.92621310717E+01 -0.48326839883E+03  0.48338145490E+03  0.00000000000E+00 0.  1.
        -15    1    1    2    0    0  0.26697273000E+02 -0.68928224934E+01 -0.35715297883E+01  0.27859808715E+02  0.17770000000E+01 0. -1.
         15    1    1    2    0    0  0.23990501538E+00 -0.17756249525E+01  0.15406920311E+01  0.29566635458E+01  0.17770000000E+01 0.  1.
</event>
<event>
 6    1  0.6394569E-004  0.5006177E+03  0.7546771E-02  0.9398429E-01
        -11   -1    0    0    0    0  0.00000000000E+00  0.00000000000E+00  0.50000000000E+03  0.50000000000E+03  0.00000000000E+00 0.  1.
         11   -1    0    0    0    0 -0.00000000000E+00 -0.00000000000E+00 -0.50000000000E+03  0.50000000000E+03  0.00000000000E+00 0.  1.
        -11    1    1    2    0    0 -0.29303793626E+00  0.92145556884E+01  0.35749191237E+03  0.35761076790E+03  0.00000000000E+00 0.  1.
         11    1    1    2    0    0 -0.74959931703E+01  0.16302545301E+01 -0.49932333344E+03  0.49938225735E+03  0.00000000000E+00 0.  1.
        -15    1    1    2    0    0  0.17630649109E+00 -0.55166753477E+01  0.20413911343E+02  0.21221458390E+02  0.17770000000E+01 0. -1.
         15    1    1    2    0    0  0.76127246155E+01 -0.53281348709E+01  0.12141750973E+03  0.12178551636E+03  0.17770000000E+01 0.  1.
</event>
<event>
 6    1  0.6394569E-004  0.5021891E+03  0.7546771E-02  0.9394925E-01
        -11   -1    0    0    0    0  0.00000000000E+00  0.00000000000E+00  0.50000000000E+03  0.50000000000E+03  0.00000000000E+00 0.  1.
         11   -1    0    0    0    0 -0.00000000000E+00 -0.00000000000E+00 -0.50000000000E+03  0.50000000000E+03  0.00000000000E+00 0. -1.
        -11    1    1    2    0    0 -0.68800076157E+01  0.76918033912E+01  0.49770394377E+03  0.49781092193E+03  0.00000000000E+00 0.  1.
         11    1    1    2    0    0  0.66109513630E+01 -0.35519989471E+01 -0.46877121944E+03  0.46883128901E+03  0.00000000000E+00 0. -1.
        -15    1    1    2    0    0 -0.15198001938E+01  0.17748996094E+01 -0.26212395389E+02  0.26376267027E+02  0.17770000000E+01 0. -1.
         15    1    1    2    0    0  0.17888564464E+01 -0.59147040535E+01 -0.27203289381E+01  0.69815220373E+01  0.17770000000E+01 0.  1.
</event>
<event>
 6    1  0.6394569E-004  0.5054111E+03  0.7546771E-02  0.9387783E-01
        -11   -1    0    0    0    0  0.00000000000E+00  0.00000000000E+00  0.50000000000E+03  0.50000000000E+03  0.00000000000E+00 0. -1.
         11   -1    0    0    0    0 -0.00000000000E+00 -0.00000000000E+00 -0.50000000000E+03  0.50000000000E+03  0.00000000000E+00 0. -1.
        -11    1    1    2    0    0 -0.13185843321E+02  0.46757921652E+01  0.43419780451E+03  0.43442313812E+03  0.00000000000E+00 0. -1.
         11    1    1    2    0    0 -0.50603761653E+01  0.16996126461E+02 -0.49427088075E+03  0.49458889927E+03  0.00000000000E+00 0. -1.
        -15    1    1    2    0    0  0.12076316813E+02 -0.12486517144E+02  0.10968558224E+02  0.20620803492E+02  0.17770000000E+01 0. -1.
         15    1    1    2    0    0  0.61699026735E+01 -0.91854014823E+01  0.49104518018E+02  0.50367159123E+02  0.17770000000E+01 0.  1.
</event>
<event>
 6    1  0.6394569E-004  0.5011681E+03  0.7546771E-02  0.9397200E-01
        -11   -1    0    0    0    0  0.00000000000E+00  0.00000000000E+00  0.50000000000E+03  0.50000000000E+03  0.00000000000E+00 0.  1.
         11   -1    0    0    0    0 -0.00000000000E+00 -0.00000000000E+00 -0.50000000000E+03  0.50000000000E+03  0.00000000000E+00 0.  1.
        -11    1    1    2    0    0 -0.91277461652E+01 -0.84540785648E+00  0.43050450444E+03  0.43060208871E+03  0.00000000000E+00 0.  1.
         11    1    1    2    0    0 -0.57640858832E+01  0.58127655447E+01 -0.49876476552E+03  0.49883193989E+03  0.00000000000E+00 0.  1.
        -15    1    1    2    0    0  0.81711320277E+01  0.11273543704E+01  0.37971078875E+02  0.38897286363E+02  0.17770000000E+01 0. -1.
         15    1    1    2    0    0  0.67207000207E+01 -0.60947120586E+01  0.30289182210E+02  0.31668685034E+02  0.17770000000E+01 0.  1.
</event>
<event>
 6    1  0.6394569E-004  0.5103990E+03  0.7546771E-02  0.9376837E-01
        -11   -1    0    0    0    0  0.00000000000E+00  0.00000000000E+00  0.50000000000E+03  0.50000000000E+03  0.00000000000E+00 0. -1.
         11   -1    0    0    0    0 -0.00000000000E+00 -0.00000000000E+00 -0.50000000000E+03  0.50000000000E+03  0.00000000000E+00 0.  1.
        -11    1    1    2    0    0 -0.11718649509E+02  0.38705193682E+02  0.48792799553E+03  0.48960100856E+03  0.00000000000E+00 0. -1.
         11    1    1    2    0    0  0.15700613973E+02  0.12492843324E+02 -0.42505230921E+03  0.42552561143E+03  0.00000000000E+00 0.  1.
        -15    1    1    2    0    0 -0.84906671431E+01 -0.23757144469E+02 -0.14793532802E+02  0.29300165249E+02  0.17770000000E+01 0.  1.
         15    1    1    2    0    0  0.45087026785E+01 -0.27440892537E+02 -0.48082153517E+02  0.55573214761E+02  0.17770000000E+01 0. -1.
</event>
<event>
 6    1  0.6394569E-004  0.5055552E+03  0.7546771E-02  0.9387465E-01
        -11   -1    0    0    0    0  0.00000000000E+00  0.00000000000E+00  0.50000000000E+03  0.50000000000E+03  0.00000000000E+00 0.  1.
         11   -1    0    0    0    0 -0.00000000000E+00 -0.00000000000E+00 -0.50000000000E+03  0.50000000000E+03  0.00000000000E+00 0. -1.
        -11    1    1    2    0    0  0.95660185245E+01  0.19562505895E+02  0.36386116386E+03  0.36451220406E+03  0.00000000000E+00 0.  1.
         11    1    1    2    0    0  0.13588542427E+02  0.23916673713E+02 -0.49367902939E+03  0.49444477935E+03  0.00000000000E+00 0. -1.
        -15    1    1    2    0    0 -0.14122214291E+02 -0.44523046180E+01  0.31047102609E+02  0.34443290527E+02  0.17770000000E+01 0.  1.
         15    1    1    2    0    0 -0.90323466608E+01 -0.39026874990E+02  0.98770762924E+02  0.10659972606E+03  0.17770000000E+01 0. -1.
</event>
<event>
 6    1  0.6394569E-004  0.5040826E+03  0.7546771E-02  0.9390721E-01
        -11   -1    0    0    0    0  0.00000000000E+00  0.00000000000E+00  0.50000000000E+03  0.50000000000E+03  0.00000000000E+00 0.  1.
         11   -1    0    0    0    0 -0.00000000000E+00 -0.00000000000E+00 -0.50000000000E+03  0.50000000000E+03  0.00000000000E+00 0.  1.
        -11    1    1    2    0    0  0.34568784586E+02 -0.17369171133E+02  0.49440607727E+03  0.49591739052E+03  0.00000000000E+00 0.  1.
         11    1    1    2    0    0  0.41955562708E+01  0.18402794810E+02 -0.40084523388E+03  0.40128938071E+03  0.00000000000E+00 0.  1.
        -15    1    1    2    0    0 -0.24538517221E+02  0.71759469277E+01 -0.49579402957E+02  0.55811360566E+02  0.17770000000E+01 0.  1.
         15    1    1    2    0    0 -0.14225823635E+02 -0.82095706050E+01 -0.43981440440E+02  0.46981868202E+02  0.17770000000E+01 0. -1.
</event>
<event>
 6    1  0.6394569E-004  0.4874524E+03  0.7546771E-02  0.9428332E-01
        -11   -1    0    0    0    0  0.00000000000E+00  0.00000000000E+00  0.50000000000E+03  0.50000000000E+03  0.00000000000E+00 0.  1.
         11   -1    0    0    0    0 -0.00000000000E+00 -0.00000000000E+00 -0.50000000000E+03  0.50000000000E+03  0.00000000000E+00 0.  1.
        -11    1    1    2    0    0 -0.11836224659E+02  0.17953298323E+00  0.48862403722E+03  0.48876740705E+03  0.00000000000E+00 0.  1.
         11    1    1    2    0    0 -0.87506857788E+01  0.87581823895E+01 -0.48624106538E+03  0.48639865740E+03  0.00000000000E+00 0.  1.
        -15    1    1    2    0    0  0.18439203736E+02 -0.82679569881E+01  0.11085260240E+01  0.20316247343E+02  0.17770000000E+01 0. -1.
         15    1    1    2    0    0  0.21477067017E+01 -0.66975838462E+00 -0.34914978652E+01  0.45176882045E+01  0.17770000000E+01 0.  1.
</event>
<event>
 6    1  0.6394569E-004  0.5003174E+03  0.7546771E-02  0.9399100E-01
        -11   -1    0    0    0    0  0.00000000000E+00  0.00000000000E+00  0.50000000000E+03  0.50000000000E+03  0.00000000000E+00 0. -1.
         11   -1    0    0    0    0 -0.00000000000E+00 -0.00000000000E+00 -0.50000000000E+03  0.50000000000E+03  0.00000000000E+00 0. -1.
        -11    1    1    2    0    0  0.59465132830E+01  0.96923183006E+01  0.16164091509E+03  0.16204038843E+03  0.00000000000E+00 0. -1.
         11    1    1    2    0    0  0.53001918782E+01 -0.84296318603E+01 -0.49958339120E+03  0.49968261475E+03  0.00000000000E+00 0. -1.
        -15    1    1    2    0    0 -0.12135252447E+02  0.20819729274E+00  0.30238567785E+03  0.30263437279E+03  0.17770000000E+01 0. -1.
         15    1    1    2    0    0  0.88854728600E+00 -0.14708837331E+01  0.35556798262E+02  0.35642624018E+02  0.17770000000E+01 0. -1.
</event>
<event>
 6    1  0.6394569E-004  0.5002883E+03  0.7546771E-02  0.9399165E-01
        -11   -1    0    0    0    0  0.00000000000E+00  0.00000000000E+00  0.50000000000E+03  0.50000000000E+03  0.00000000000E+00 0.  1.
         11   -1    0    0    0    0 -0.00000000000E+00 -0.00000000000E+00 -0.50000000000E+03  0.50000000000E+03  0.00000000000E+00 0. -1.
        -11    1    1    2    0    0 -0.14086736721E+01 -0.42085360562E+01  0.13005201358E+03  0.13012771562E+03  0.00000000000E+00 0.  1.
         11    1    1    2    0    0 -0.91897586187E+01 -0.63114397434E+01 -0.49958730025E+03  0.49971167337E+03  0.00000000000E+00 0. -1.
        -15    1    1    2    0    0  0.96702030913E+01  0.11939147217E+00  0.23650454967E+03  0.23670886512E+03  0.17770000000E+01 0. -1.
         15    1    1    2    0    0  0.92822919944E+00  0.10400584327E+02  0.13303073700E+03  0.13345174588E+03  0.17770000000E+01 0.  1.
</event>
<event>
 6    1  0.6394569E-004  0.5024145E+03  0.7546771E-02  0.9394423E-01
        -11   -1    0    0    0    0  0.00000000000E+00  0.00000000000E+00  0.50000000000E+03  0.50000000000E+03  0.00000000000E+00 0. -1.
         11   -1    0    0    0    0 -0.00000000000E+00 -0.00000000000E+00 -0.50000000000E+03  0.50000000000E+03  0.00000000000E+00 0.  1.
        -11    1    1    2    0    0 -0.11884811080E+02 -0.30774427553E+02  0.49649069142E+03  0.49758549093E+03  0.00000000000E+00 0. -1.
         11    1    1    2    0    0 -0.61299419901E+01  0.51390045889E+01 -0.39348587150E+03  0.39356716915E+03  0.00000000000E+00 0.  1.
        -15    1    1    2    0    0  0.12969902559E+02  0.75740670050E+01 -0.32123597445E+02  0.35505888317E+02  0.17770000000E+01 0. -1.
         15    1    1    2    0    0  0.50448505111E+01  0.18061355959E+02 -0.70881222466E+02  0.73341451601E+02  0.17770000000E+01 0.  1.
</event>
<event>
 6    1  0.6394569E-004  0.5014401E+03  0.7546771E-02  0.9396593E-01
        -11   -1    0    0    0    0  0.00000000000E+00  0.00000000000E+00  0.50000000000E+03  0.50000000000E+03  0.00000000000E+00 0. -1.
         11   -1    0    0    0    0 -0.00000000000E+00 -0.00000000000E+00 -0.50000000000E+03  0.50000000000E+03  0.00000000000E+00 0. -1.
        -11    1    1    2    0    0 -0.72020121115E+01 -0.10893580081E+02  0.39475921613E+03  0.39497516097E+03  0.00000000000E+00 0. -1.
         11    1    1    2    0    0 -0.88562437565E+01  0.87798387823E+01 -0.49840395443E+03  0.49855994666E+03  0.00000000000E+00 0. -1.
        -15    1    1    2    0    0  0.67521913031E+01  0.82373377385E+01  0.73299768093E+02  0.74090887104E+02  0.17770000000E+01 0.  1.
         15    1    1    2    0    0  0.93060645649E+01 -0.61235964395E+01  0.30344970210E+02  0.32374005268E+02  0.17770000000E+01 0. -1.
</event>
<event>
 6    1  0.1148150E-003  0.5001696E+03  0.7546771E-02  0.9399430E-01
        -11   -1    0    0    0    0  0.00000000000E+00  0.00000000000E+00  0.50000000000E+03  0.50000000000E+03  0.00000000000E+00 0. -1.
         11   -1    0    0    0    0 -0.00000000000E+00 -0.00000000000E+00 -0.50000000000E+03  0.50000000000E+03  0.00000000000E+00 0.  1.
        -11    1    1    2    0    0 -0.20477523212E+02 -0.23644376951E+02  0.49885070278E+03  0.49983038041E+03  0.00000000000E+00 0. -1.
         11    1    1    2    0    0  0.21554368597E+02  0.22049334989E+02 -0.38931203517E+03  0.39053120836E+03  0.00000000000E+00 0.  1.
        -15    1    1    2    0    0  0.48511739713E+00  0.91836054833E+00 -0.64229102905E+02  0.64262073682E+02  0.17770000000E+01 0.  1.
         15    1    1    2    0    0 -0.15619627820E+01  0.67668141308E+00 -0.45309564710E+02  0.45376337541E+02  0.17770000000E+01 0. -1.
</event>
<event>
 6    1  0.6394569E-004  0.5013026E+03  0.7546771E-02  0.9396900E-01
        -11   -1    0    0    0    0  0.00000000000E+00  0.00000000000E+00  0.50000000000E+03  0.50000000000E+03  0.00000000000E+00 0. -1.
         11   -1    0    0    0    0 -0.00000000000E+00 -0.00000000000E+00 -0.50000000000E+03  0.50000000000E+03  0.00000000000E+00 0. -1.
        -11    1    1    2    0    0  0.46368360749E+01  0.16398093916E+02  0.49840615707E+03  0.49869739837E+03  0.00000000000E+00 0. -1.
         11    1    1    2    0    0 -0.10332372516E+02  0.20836018107E+01 -0.41208092119E+03  0.41221570194E+03  0.00000000000E+00 0. -1.
        -15    1    1    2    0    0 -0.11934347758E+01 -0.19071194520E+01 -0.25009182384E+02  0.25172968114E+02  0.17770000000E+01 0. -1.
         15    1    1    2    0    0  0.68889712168E+01 -0.16574576275E+02 -0.61316053498E+02  0.63913931569E+02  0.17770000000E+01 0. -1.
</event>
<event>
 6    1  0.6394569E-004  0.5001245E+03  0.7546771E-02  0.9399531E-01
        -11   -1    0    0    0    0  0.00000000000E+00  0.00000000000E+00  0.50000000000E+03  0.50000000000E+03  0.00000000000E+00 0.  1.
         11   -1    0    0    0    0 -0.00000000000E+00 -0.00000000000E+00 -0.50000000000E+03  0.50000000000E+03  0.00000000000E+00 0.  1.
        -11    1    1    2    0    0  0.11071721087E+02 -0.64639773159E+01  0.49971102989E+03  0.49987546390E+03  0.00000000000E+00 0.  1.
         11    1    1    2    0    0  0.56600334258E+00 -0.25927688028E+01 -0.15238318544E+03  0.15240629257E+03  0.00000000000E+00 0.  1.
        -15    1    1    2    0    0 -0.11804160307E+01  0.26159579295E+01 -0.40835596906E+02  0.40974874271E+02  0.17770000000E+01 0. -1.
         15    1    1    2    0    0 -0.10457308399E+02  0.64407881893E+01 -0.30649224754E+03  0.30674336926E+03  0.17770000000E+01 0.  1.
</event>
<event>
 6    1  0.6394569E-004  0.5003754E+03  0.7546771E-02  0.9398970E-01
        -11   -1    0    0    0    0  0.00000000000E+00  0.00000000000E+00  0.50000000000E+03  0.50000000000E+03  0.00000000000E+00 0.  1.
         11   -1    0    0    0    0 -0.00000000000E+00 -0.00000000000E+00 -0.50000000000E+03  0.50000000000E+03  0.00000000000E+00 0. -1.
        -11    1    1    2    0    0 -0.50908718238E+01  0.93807374242E+01  0.29986232299E+03  0.30005220873E+03  0.00000000000E+00 0.  1.
         11    1    1    2    0    0 -0.80057382830E+01 -0.36134801424E+01 -0.49954739932E+03  0.49962461234E+03  0.00000000000E+00 0. -1.
        -15    1    1    2    0    0  0.50282409350E+01  0.83820958508E+00  0.66979994532E+02  0.67197196360E+02  0.17770000000E+01 0. -1.
         15    1    1    2    0    0  0.80683691718E+01 -0.66054668669E+01  0.13270508179E+03  0.13312598258E+03  0.17770000000E+01 0.  1.
</event>
<event>
 6    1  0.6394569E-004  0.5002359E+03  0.7546771E-02  0.9399282E-01
        -11   -1    0    0    0    0  0.00000000000E+00  0.00000000000E+00  0.50000000000E+03  0.50000000000E+03  0.00000000000E+00 0. -1.
         11   -1    0    0    0    0 -0.00000000000E+00 -0.00000000000E+00 -0.50000000000E+03  0.50000000000E+03  0.00000000000E+00 0.  1.
        -11    1    1    2    0    0 -0.11717299485E+02 -0.14201972586E+01  0.36372927553E+03  0.36392073030E+03  0.00000000000E+00 0. -1.
         11    1    1    2    0    0  0.77970343766E+01 -0.16308906647E+01 -0.49970064503E+03  0.49976413256E+03  0.00000000000E+00 0.  1.
        -15    1    1    2    0    0 -0.96646029781E+00  0.38206266206E+01  0.70994060161E+02  0.71125561793E+02  0.17770000000E+01 0.  1.
         15    1    1    2    0    0  0.48867254058E+01 -0.76953869727E+00  0.64977309346E+02  0.65189575347E+02  0.17770000000E+01 0. -1.
</event>
<event>
 6    1  0.6394569E-004  0.5001243E+03  0.7546771E-02  0.9399532E-01
        -11   -1    0    0    0    0  0.00000000000E+00  0.00000000000E+00  0.50000000000E+03  0.50000000000E+03  0.00000000000E+00 0. -1.
         11   -1    0    0    0    0 -0.00000000000E+00 -0.00000000000E+00 -0.50000000000E+03  0.50000000000E+03  0.00000000000E+00 0. -1.
        -11    1    1    2    0    0  0.72409680766E+01  0.37898533304E+01  0.49980890357E+03  0.49987571925E+03  0.00000000000E+00 0. -1.
         11    1    1    2    0    0 -0.57832854806E+01  0.42298575265E+01 -0.21120517087E+03  0.21132667197E+03  0.00000000000E+00 0. -1.
        -15    1    1    2    0    0  0.15322825225E+01 -0.91833072510E+00 -0.50810363634E+02  0.50872802190E+02  0.17770000000E+01 0. -1.
         15    1    1    2    0    0 -0.29899651184E+01 -0.71013801318E+01 -0.23779336907E+03  0.23792480659E+03  0.17770000000E+01 0. -1.
</event>
<event>
 6    1  0.6394569E-004  0.5088056E+03  0.7546771E-02  0.9380319E-01
        -11   -1    0    0    0    0  0.00000000000E+00  0.00000000000E+00  0.50000000000E+03  0.50000000000E+03  0.00000000000E+00 0.  1.
         11   -1    0    0    0    0 -0.00000000000E+00 -0.00000000000E+00 -0.50000000000E+03  0.50000000000E+03  0.00000000000E+00 0. -1.
        -11    1    1    2    0    0 -0.25503178617E+02  0.16961994616E+02  0.49023856191E+03  0.49119443092E+03  0.00000000000E+00 0.  1.
         11    1    1    2    0    0  0.33696348759E+01  0.12931338842E+02 -0.44776015245E+03  0.44795951612E+03  0.00000000000E+00 0. -1.
        -15    1    1    2    0    0  0.64195787073E+01 -0.34476145321E+01  0.98866939797E+00  0.75651988024E+01  0.17770000000E+01 0.  1.
         15    1    1    2    0    0  0.15713965034E+02 -0.26445718926E+02 -0.43467078857E+02  0.53280854160E+02  0.17770000000E+01 0. -1.
</event>
<event>
 6    1  0.6394569E-004  0.5033901E+03  0.7546771E-02  0.9392256E-01
        -11   -1    0    0    0    0  0.00000000000E+00  0.00000000000E+00  0.50000000000E+03  0.50000000000E+03  0.00000000000E+00 0. -1.
         11   -1    0    0    0    0 -0.00000000000E+00 -0.00000000000E+00 -0.50000000000E+03  0.50000000000E+03  0.00000000000E+00 0. -1.
        -11    1    1    2    0    0 -0.32088070816E+01  0.16537457822E+02  0.17686715318E+02  0.24425475489E+02  0.00000000000E+00 0. -1.
         11    1    1    2    0    0 -0.31920892191E+01 -0.88646425075E+01 -0.49652051227E+03  0.49660989763E+03  0.00000000000E+00 0. -1.
        -15    1    1    2    0    0  0.45775026375E+01 -0.37728543234E+01  0.21285723622E+03  0.21294729090E+03  0.17770000000E+01 0. -1.
         15    1    1    2    0    0  0.18233936633E+01 -0.38999609914E+01  0.26597656073E+03  0.26601733599E+03  0.17770000000E+01 0.  1.
</event>
<event>
 6    1  0.6394569E-004  0.5043020E+03  0.7546771E-02  0.9390235E-01
        -11   -1    0    0    0    0  0.00000000000E+00  0.00000000000E+00  0.50000000000E+03  0.50000000000E+03  0.00000000000E+00 0. -1.
         11   -1    0    0    0    0 -0.00000000000E+00 -0.00000000000E+00 -0.50000000000E+03  0.50000000000E+03  0.00000000000E+00 0.  1.
        -11    1    1    2    0    0  0.59381668234E+01  0.77789524782E+01  0.48403658591E+03  0.48413550833E+03  0.00000000000E+00 0. -1.
         11    1    1    2    0    0  0.62173366544E+01 -0.56909283089E+01 -0.49562635748E+03  0.49569802115E+03  0.00000000000E+00 0.  1.
        -15    1    1    2    0    0 -0.57011125918E+01  0.17460155705E+01 -0.26577271426E-01  0.62217112202E+01  0.17770000000E+01 0. -1.
         15    1    1    2    0    0 -0.64543908860E+01 -0.38340397398E+01  0.11616348840E+02  0.13944759296E+02  0.17770000000E+01 0.  1.
</event>
<event>
 6    1  0.6394569E-004  0.5019904E+03  0.7546771E-02  0.9395367E-01
        -11   -1    0    0    0    0  0.00000000000E+00  0.00000000000E+00  0.50000000000E+03  0.50000000000E+03  0.00000000000E+00 0.  1.
         11   -1    0    0    0    0 -0.00000000000E+00 -0.00000000000E+00 -0.50000000000E+03  0.50000000000E+03  0.00000000000E+00 0.  1.
        -11    1    1    2    0    0  0.52708792788E+01 -0.73562213540E+01  0.42279440270E+03  0.42289124266E+03  0.00000000000E+00 0.  1.
         11    1    1    2    0    0 -0.78701265673E+01 -0.15581383846E+01 -0.49794497461E+03  0.49800960275E+03  0.00000000000E+00 0.  1.
        -15    1    1    2    0    0  0.11831935481E+02  0.85658671255E+01  0.53623784969E+02  0.55606086180E+02  0.17770000000E+01 0.  1.
         15    1    1    2    0    0 -0.92326881928E+01  0.34849261315E+00  0.21526786943E+02  0.23493068413E+02  0.17770000000E+01 0. -1.
</event>
<event>
 6    1  0.6394569E-004  0.4902346E+03  0.7546771E-02  0.9421930E-01
        -11   -1    0    0    0    0  0.00000000000E+00  0.00000000000E+00  0.50000000000E+03  0.50000000000E+03  0.00000000000E+00 0. -1.
         11   -1    0    0    0    0 -0.00000000000E+00 -0.00000000000E+00 -0.50000000000E+03  0.50000000000E+03  0.00000000000E+00 0. -1.
        -11    1    1    2    0    0  0.12432922441E+02 -0.84448567515E+01  0.48650564054E+03  0.48673774401E+03  0.00000000000E+00 0. -1.
         11    1    1    2    0    0  0.19039900478E+01  0.88860157773E+01 -0.49377970149E+03  0.49386332123E+03  0.00000000000E+00 0. -1.
        -15    1    1    2    0    0 -0.20668099587E+01  0.23087569077E+00 -0.24154674251E+01  0.36492764860E+01  0.17770000000E+01 0.  1.
         15    1    1    2    0    0 -0.12270102530E+02 -0.67203471653E+00  0.96895283764E+01  0.15749658279E+02  0.17770000000E+01 0. -1.
</event>
<event>
 6    1  0.6394569E-004  0.5073690E+03  0.7546771E-02  0.9383470E-01
        -11   -1    0    0    0    0  0.00000000000E+00  0.00000000000E+00  0.50000000000E+03  0.50000000000E+03  0.00000000000E+00 0.  1.
         11   -1    0    0    0    0 -0.00000000000E+00 -0.00000000000E+00 -0.50000000000E+03  0.50000000000E+03  0.00000000000E+00 0.  1.
        -11    1    1    2    0    0  0.11864305608E+02 -0.37582675038E+01  0.49247376013E+03  0.49263098841E+03  0.00000000000E+00 0.  1.
         11    1    1    2    0    0  0.63790547634E+01  0.66515556658E+01 -0.48079238333E+03  0.48088070392E+03  0.00000000000E+00 0.  1.
        -15    1    1    2    0    0 -0.73152284525E+01 -0.51447749515E+01 -0.12137488484E+02  0.15180831081E+02  0.17770000000E+01 0.  1.
         15    1    1    2    0    0 -0.10928131918E+02  0.22514867896E+01  0.45611168197E+00  0.11307476591E+02  0.17770000000E+01 0. -1.
</event>
<event>
 6    1  0.6394569E-004  0.5006072E+03  0.7546771E-02  0.9398452E-01
        -11   -1    0    0    0    0  0.00000000000E+00  0.00000000000E+00  0.50000000000E+03  0.50000000000E+03  0.00000000000E+00 0. -1.
         11   -1    0    0    0    0 -0.00000000000E+00 -0.00000000000E+00 -0.50000000000E+03  0.50000000000E+03  0.00000000000E+00 0. -1.
        -11    1    1    2    0    0  0.46031560899E+01 -0.69120003353E+01  0.34997102544E+03  0.35006954086E+03  0.00000000000E+00 0. -1.
         11    1    1    2    0    0  0.58768330385E+01 -0.67641890367E+01 -0.49931238119E+03  0.49939277671E+03  0.00000000000E+00 0. -1.
        -15    1    1    2    0    0 -0.12802677764E+01  0.45480060542E+01  0.64099640511E+02  0.64298095519E+02  0.17770000000E+01 0. -1.
         15    1    1    2    0    0 -0.91997213519E+01  0.91281833178E+01  0.85241715242E+02  0.86239586908E+02  0.17770000000E+01 0.  1.
</event>
<event>
 6    1  0.6394569E-004  0.5039587E+03  0.7546771E-02  0.9390995E-01
        -11   -1    0    0    0    0  0.00000000000E+00  0.00000000000E+00  0.50000000000E+03  0.50000000000E+03  0.00000000000E+00 0. -1.
         11   -1    0    0    0    0 -0.00000000000E+00 -0.00000000000E+00 -0.50000000000E+03  0.50000000000E+03  0.00000000000E+00 0. -1.
        -11    1    1    2    0    0  0.58488780163E+01 -0.98486785868E+01  0.44394344370E+03  0.44409119226E+03  0.00000000000E+00 0. -1.
         11    1    1    2    0    0  0.23765337518E+01 -0.67521374080E+01 -0.49598969562E+03  0.49604134650E+03  0.00000000000E+00 0. -1.
        -15    1    1    2    0    0 -0.10010027724E+02  0.10794073197E+02  0.51410594816E+02  0.53506258134E+02  0.17770000000E+01 0. -1.
         15    1    1    2    0    0  0.17846159560E+01  0.58067427979E+01  0.63565710761E+00  0.63612031086E+01  0.17770000000E+01 0.  1.
</event>
<event>
 6    1  0.6394569E-004  0.5050376E+03  0.7546771E-02  0.9388608E-01
        -11   -1    0    0    0    0  0.00000000000E+00  0.00000000000E+00  0.50000000000E+03  0.50000000000E+03  0.00000000000E+00 0.  1.
         11   -1    0    0    0    0 -0.00000000000E+00 -0.00000000000E+00 -0.50000000000E+03  0.50000000000E+03  0.00000000000E+00 0. -1.
        -11    1    1    2    0    0  0.23135502586E+02 -0.13681968153E+02  0.27547216609E+02  0.38487619768E+02  0.00000000000E+00 0.  1.
         11    1    1    2    0    0 -0.26457434941E+02  0.14271244888E+02 -0.49404868780E+03  0.49496239272E+03  0.00000000000E+00 0. -1.
        -15    1    1    2    0    0  0.24509225507E+01  0.18795278494E+01  0.24361027431E+03  0.24363633375E+03  0.17770000000E+01 0. -1.
         15    1    1    2    0    0  0.87100980421E+00 -0.24688045838E+01  0.22289119688E+03  0.22291365375E+03  0.17770000000E+01 0.  1.
</event>
<event>
 6    1  0.6394569E-004  0.5058200E+03  0.7546771E-02  0.9386880E-01
        -11   -1    0    0    0    0  0.00000000000E+00  0.00000000000E+00  0.50000000000E+03  0.50000000000E+03  0.00000000000E+00 0.  1.
         11   -1    0    0    0    0 -0.00000000000E+00 -0.00000000000E+00 -0.50000000000E+03  0.50000000000E+03  0.00000000000E+00 0. -1.
        -11    1    1    2    0    0 -0.18625716949E+01 -0.82077486291E+01  0.48908277028E+03  0.48915518243E+03  0.00000000000E+00 0.  1.
         11    1    1    2    0    0  0.66337870208E+01  0.29429183864E+01 -0.49412666080E+03  0.49417995185E+03  0.00000000000E+00 0. -1.
        -15    1    1    2    0    0  0.72681657507E+00  0.88469685632E+01  0.34022472093E+01  0.96710976712E+01  0.17770000000E+01 0.  1.
         15    1    1    2    0    0 -0.54980319010E+01 -0.35821383205E+01  0.16416433086E+01  0.69937680462E+01  0.17770000000E+01 0. -1.
</event>
<event>
 6    1  0.6394569E-004  0.5001666E+03  0.7546771E-02  0.9399437E-01
        -11   -1    0    0    0    0  0.00000000000E+00  0.00000000000E+00  0.50000000000E+03  0.50000000000E+03  0.00000000000E+00 0. -1.
         11   -1    0    0    0    0 -0.00000000000E+00 -0.00000000000E+00 -0.50000000000E+03  0.50000000000E+03  0.00000000000E+00 0. -1.
        -11    1    1    2    0    0  0.52025792457E+01  0.18548175171E+01  0.40649013748E+02  0.41022548647E+02  0.00000000000E+00 0. -1.
         11    1    1    2    0    0 -0.12399180752E+02 -0.42642263384E+00 -0.49967937425E+03  0.49983337081E+03  0.00000000000E+00 0. -1.
        -15    1    1    2    0    0  0.50919128453E+01 -0.36575054757E+01  0.25671404091E+03  0.25679673178E+03  0.17770000000E+01 0. -1.
         15    1    1    2    0    0  0.21046886615E+01  0.22291105924E+01  0.20231631960E+03  0.20234734877E+03  0.17770000000E+01 0.  1.
</event>
<event>
 6    1  0.6394569E-004  0.4793209E+03  0.7546771E-02  0.9447308E-01
        -11   -1    0    0    0    0  0.00000000000E+00  0.00000000000E+00  0.50000000000E+03  0.50000000000E+03  0.00000000000E+00 0.  1.
         11   -1    0    0    0    0 -0.00000000000E+00 -0.00000000000E+00 -0.50000000000E+03  0.50000000000E+03  0.00000000000E+00 0.  1.
        -11    1    1    2    0    0  0.15866580593E+02  0.21768647108E+02  0.48606183825E+03  0.48680769610E+03  0.00000000000E+00 0.  1.
         11    1    1    2    0    0 -0.47647482144E+01  0.57609106967E+01 -0.47233259314E+03  0.47239175423E+03  0.00000000000E+00 0.  1.
        -15    1    1    2    0    0  0.24016988276E+01 -0.24134394765E+02 -0.75477807562E+01  0.25462990620E+02  0.17770000000E+01 0. -1.
         15    1    1    2    0    0 -0.13503531206E+02 -0.33951630394E+01 -0.61814643573E+01  0.15337559053E+02  0.17770000000E+01 0.  1.
</event>
<event>
 6    1  0.6394569E-004  0.5026057E+03  0.7546771E-02  0.9393998E-01
        -11   -1    0    0    0    0  0.00000000000E+00  0.00000000000E+00  0.50000000000E+03  0.50000000000E+03  0.00000000000E+00 0.  1.
         11   -1    0    0    0    0 -0.00000000000E+00 -0.00000000000E+00 -0.50000000000E+03  0.50000000000E+03  0.00000000000E+00 0.  1.
        -11    1    1    2    0    0  0.20595029189E+02  0.13615447794E+02  0.49678122332E+03  0.49739432997E+03  0.00000000000E+00 0.  1.
         11    1    1    2    0    0  0.20419778796E+01 -0.19681489509E+02 -0.42487431580E+03  0.42533482685E+03  0.00000000000E+00 0.  1.
        -15    1    1    2    0    0 -0.16553118594E+02  0.10437894173E+02 -0.41695124082E+02  0.46093345194E+02  0.17770000000E+01 0.  1.
         15    1    1    2    0    0 -0.60838884753E+01 -0.43718524575E+01 -0.30211783437E+02  0.31177497981E+02  0.17770000000E+01 0. -1.
</event>
<event>
 6    1  0.6394569E-004  0.5041490E+03  0.7546771E-02  0.9390574E-01
        -11   -1    0    0    0    0  0.00000000000E+00  0.00000000000E+00  0.50000000000E+03  0.50000000000E+03  0.00000000000E+00 0. -1.
         11   -1    0    0    0    0 -0.00000000000E+00 -0.00000000000E+00 -0.50000000000E+03  0.50000000000E+03  0.00000000000E+00 0. -1.
        -11    1    1    2    0    0  0.20271584079E+02 -0.64342740803E+01  0.22636069492E+02  0.31060081231E+02  0.00000000000E+00 0. -1.
         11    1    1    2    0    0 -0.17588036125E+02  0.29670808434E+01 -0.49553006717E+03  0.49585097565E+03  0.00000000000E+00 0. -1.
        -15    1    1    2    0    0  0.29992494432E+01 -0.48983745578E-01  0.43573464068E+02  0.43712725796E+02  0.17770000000E+01 0.  1.
         15    1    1    2    0    0 -0.56827973978E+01  0.35161769825E+01  0.42932053361E+03  0.42937621732E+03  0.17770000000E+01 0. -1.
</event>
<event>
 6    1  0.6394569E-004  0.5016371E+03  0.7546771E-02  0.9396154E-01
        -11   -1    0    0    0    0  0.00000000000E+00  0.00000000000E+00  0.50000000000E+03  0.50000000000E+03  0.00000000000E+00 0. -1.
         11   -1    0    0    0    0 -0.00000000000E+00 -0.00000000000E+00 -0.50000000000E+03  0.50000000000E+03  0.00000000000E+00 0. -1.
        -11    1    1    2    0    0 -0.42845825440E+01 -0.11304610919E+02  0.49821623442E+03  0.49836288798E+03  0.00000000000E+00 0. -1.
         11    1    1    2    0    0  0.63743901341E+01 -0.40687169932E+01 -0.45389614084E+03  0.45395913250E+03  0.00000000000E+00 0. -1.
        -15    1    1    2    0    0  0.22086020070E+01  0.10258633865E+02 -0.25755210032E+02  0.27867652653E+02  0.17770000000E+01 0. -1.
         15    1    1    2    0    0 -0.42984095971E+01  0.51146940471E+01 -0.18564883551E+02  0.19810326865E+02  0.17770000000E+01 0.  1.
</event>
<event>
 6    1  0.6394569E-004  0.5000615E+03  0.7546771E-02  0.9399672E-01
        -11   -1    0    0    0    0  0.00000000000E+00  0.00000000000E+00  0.50000000000E+03  0.50000000000E+03  0.00000000000E+00 0. -1.
         11   -1    0    0    0    0 -0.00000000000E+00 -0.00000000000E+00 -0.50000000000E+03  0.50000000000E+03  0.00000000000E+00 0. -1.
        -11    1    1    2    0    0 -0.23641409037E+01 -0.81544001278E+01  0.24621066990E+03  0.24635701203E+03  0.00000000000E+00 0. -1.
         11    1    1    2    0    0  0.56663248886E+01  0.93842793421E+01 -0.49981826096E+03  0.49993846214E+03  0.00000000000E+00 0. -1.
        -15    1    1    2    0    0 -0.12036731647E+01 -0.26542343173E+01  0.17921705747E+03  0.17924956125E+03  0.17770000000E+01 0.  1.
         15    1    1    2    0    0 -0.20985108202E+01  0.14243551030E+01  0.74390533588E+02  0.74454964587E+02  0.17770000000E+01 0.  1.
</event>
<event>
 6    1  0.6394569E-004  0.5019788E+03  0.7546771E-02  0.9395393E-01
        -11   -1    0    0    0    0  0.00000000000E+00  0.00000000000E+00  0.50000000000E+03  0.50000000000E+03  0.00000000000E+00 0.  1.
         11   -1    0    0    0    0 -0.00000000000E+00 -0.00000000000E+00 -0.50000000000E+03  0.50000000000E+03  0.00000000000E+00 0. -1.
        -11    1    1    2    0    0 -0.92448454013E+01  0.26914075229E+02  0.42675205200E+03  0.42769983458E+03  0.00000000000E+00 0.  1.
         11    1    1    2    0    0 -0.84191391499E+01 -0.15780038600E+02 -0.49769993720E+03  0.49802120338E+03  0.00000000000E+00 0. -1.
        -15    1    1    2    0    0  0.13735660897E+02 -0.58396565035E+01  0.52446084531E+02  0.54557487845E+02  0.17770000000E+01 0.  1.
         15    1    1    2    0    0  0.39283236547E+01 -0.52943801251E+01  0.18501800671E+02  0.19721474202E+02  0.17770000000E+01 0. -1.
</event>
<event>
 6    1  0.6394569E-004  0.5002069E+03  0.7546771E-02  0.9399347E-01
        -11   -1    0    0    0    0  0.00000000000E+00  0.00000000000E+00  0.50000000000E+03  0.50000000000E+03  0.00000000000E+00 0. -1.
         11   -1    0    0    0    0 -0.00000000000E+00 -0.00000000000E+00 -0.50000000000E+03  0.50000000000E+03  0.00000000000E+00 0.  1.
        -11    1    1    2    0    0 -0.41797529351E+01 -0.21457861666E+02  0.49931479514E+03  0.49979313201E+03  0.00000000000E+00 0. -1.
         11    1    1    2    0    0  0.57853120481E+00 -0.34630403412E+00 -0.42016290484E+02  0.42021700237E+02  0.00000000000E+00 0.  1.
        -15    1    1    2    0    0 -0.63977817093E+01  0.37041579419E+01 -0.10398304704E+03  0.10426065508E+03  0.17770000000E+01 0. -1.
         15    1    1    2    0    0  0.99990034396E+01  0.18100007758E+02 -0.35331545762E+03  0.35392451267E+03  0.17770000000E+01 0.  1.
</event>
<event>
 6    1  0.6394569E-004  0.5003518E+03  0.7546771E-02  0.9399023E-01
        -11   -1    0    0    0    0  0.00000000000E+00  0.00000000000E+00  0.50000000000E+03  0.50000000000E+03  0.00000000000E+00 0. -1.
         11   -1    0    0    0    0 -0.00000000000E+00 -0.00000000000E+00 -0.50000000000E+03  0.50000000000E+03  0.00000000000E+00 0. -1.
        -11    1    1    2    0    0 -0.17826146577E+02 -0.11636883610E+02  0.28390805957E+03  0.28470506643E+03  0.00000000000E+00 0. -1.
         11    1    1    2    0    0  0.14706043506E+02  0.87345599152E+01 -0.49935534137E+03  0.49964819344E+03  0.00000000000E+00 0. -1.
        -15    1    1    2    0    0  0.28255942155E+01  0.39339557578E+01  0.19927678031E+03  0.19934355493E+03  0.17770000000E+01 0.  1.
         15    1    1    2    0    0  0.29450885556E+00 -0.10316320632E+01  0.16170501493E+02  0.16303185201E+02  0.17770000000E+01 0. -1.
</event>
<event>
 6    1  0.6394569E-004  0.5003696E+03  0.7546771E-02  0.9398983E-01
        -11   -1    0    0    0    0  0.00000000000E+00  0.00000000000E+00  0.50000000000E+03  0.50000000000E+03  0.00000000000E+00 0. -1.
         11   -1    0    0    0    0 -0.00000000000E+00 -0.00000000000E+00 -0.50000000000E+03  0.50000000000E+03  0.00000000000E+00 0. -1.
        -11    1    1    2    0    0  0.24007975136E+01  0.27171636192E+02  0.37645428973E+03  0.37744124562E+03  0.00000000000E+00 0. -1.
         11    1    1    2    0    0 -0.61387808027E+01 -0.22694470796E+02 -0.49907692456E+03  0.49963036364E+03  0.00000000000E+00 0. -1.
        -15    1    1    2    0    0  0.24051480902E+01  0.35618029926E+00  0.61899081115E+02  0.61972296824E+02  0.17770000000E+01 0. -1.
         15    1    1    2    0    0  0.13328351989E+01 -0.48333456954E+01  0.60723553721E+02  0.60956093919E+02  0.17770000000E+01 0. -1.
</event>
<event>
 6    1  0.6394569E-004  0.4877623E+03  0.7546771E-02  0.9427617E-01
        -11   -1    0    0    0    0  0.00000000000E+00  0.00000000000E+00  0.50000000000E+03  0.50000000000E+03  0.00000000000E+00 0.  1.
         11   -1    0    0    0    0 -0.00000000000E+00 -0.00000000000E+00 -0.50000000000E+03  0.50000000000E+03  0.00000000000E+00 0.  1.
        -11    1    1    2    0    0  0.99794251068E+01  0.33875848234E+01  0.49152345143E+03  0.49163641847E+03  0.00000000000E+00 0.  1.
         11    1    1    2    0    0  0.98123183456E+01 -0.92798441317E+00 -0.48402062626E+03  0.48412096566E+03  0.00000000000E+00 0.  1.
        -15    1    1    2    0    0 -0.19234294746E+02 -0.34532700398E+01 -0.38098095938E+01  0.19988885574E+02  0.17770000000E+01 0. -1.
         15    1    1    2    0    0 -0.55744870658E+00  0.99366962958E+00 -0.36930155775E+01  0.42537302981E+01  0.17770000000E+01 0.  1.
</event>
<event>
 6    1  0.6394569E-004  0.5001151E+03  0.7546771E-02  0.9399552E-01
        -11   -1    0    0    0    0  0.00000000000E+00  0.00000000000E+00  0.50000000000E+03  0.50000000000E+03  0.00000000000E+00 0. -1.
         11   -1    0    0    0    0 -0.00000000000E+00 -0.00000000000E+00 -0.50000000000E+03  0.50000000000E+03  0.00000000000E+00 0.  1.
        -11    1    1    2    0    0 -0.63452782545E+01  0.10371899424E+02  0.18777397278E+03  0.18816722272E+03  0.00000000000E+00 0. -1.
         11    1    1    2    0    0  0.10429829279E+02 -0.23198656831E+02 -0.49923732702E+03  0.49988485445E+03  0.00000000000E+00 0.  1.
        -15    1    1    2    0    0 -0.26845407464E+00  0.31643165642E+01  0.22496677862E+02  0.22789102895E+02  0.17770000000E+01 0. -1.
         15    1    1    2    0    0 -0.38160969495E+01  0.96624408423E+01  0.28896667638E+03  0.28915881994E+03  0.17770000000E+01 0.  1.
</event>
<event>
 6    1  0.6394569E-004  0.5161670E+03  0.7546771E-02  0.9364344E-01
        -11   -1    0    0    0    0  0.00000000000E+00  0.00000000000E+00  0.50000000000E+03  0.50000000000E+03  0.00000000000E+00 0.  1.
         11   -1    0    0    0    0 -0.00000000000E+00 -0.00000000000E+00 -0.50000000000E+03  0.50000000000E+03  0.00000000000E+00 0.  1.
        -11    1    1    2    0    0  0.12909735423E+02 -0.51916993909E+02  0.48086626427E+03  0.48383302868E+03  0.00000000000E+00 0.  1.
         11    1    1    2    0    0  0.21024981390E+02 -0.29783400707E+02 -0.37443960181E+03  0.37621020215E+03  0.00000000000E+00 0.  1.
        -15    1    1    2    0    0 -0.35477181177E+02  0.67523218106E+02 -0.92970996015E+02  0.12026961044E+03  0.17770000000E+01 0. -1.
         15    1    1    2    0    0  0.15424643642E+01  0.14177176511E+02 -0.13455666449E+02  0.19687158726E+02  0.17770000000E+01 0.  1.
</event>
<event>
 6    1  0.6394569E-004  0.5041198E+03  0.7546771E-02  0.9390638E-01
        -11   -1    0    0    0    0  0.00000000000E+00  0.00000000000E+00  0.50000000000E+03  0.50000000000E+03  0.00000000000E+00 0.  1.
         11   -1    0    0    0    0 -0.00000000000E+00 -0.00000000000E+00 -0.50000000000E+03  0.50000000000E+03  0.00000000000E+00 0.  1.
        -11    1    1    2    0    0 -0.21997045913E+02  0.15822100564E+02  0.49513936318E+03  0.49588022533E+03  0.00000000000E+00 0.  1.
         11    1    1    2    0    0  0.62587100592E+01 -0.25387952173E+00 -0.44601406951E+03  0.44605805239E+03  0.00000000000E+00 0.  1.
        -15    1    1    2    0    0  0.20742006173E+02 -0.11707720129E+02 -0.33777352891E+02  0.41368693816E+02  0.17770000000E+01 0.  1.
         15    1    1    2    0    0 -0.50036703187E+01 -0.38605009132E+01 -0.15347940785E+02  0.16693028464E+02  0.17770000000E+01 0. -1.
</event>
<event>
 6    1  0.6394569E-004  0.5006601E+03  0.7546771E-02  0.9398334E-01
        -11   -1    0    0    0    0  0.00000000000E+00  0.00000000000E+00  0.50000000000E+03  0.50000000000E+03  0.00000000000E+00 0. -1.
         11   -1    0    0    0    0 -0.00000000000E+00 -0.00000000000E+00 -0.50000000000E+03  0.50000000000E+03  0.00000000000E+00 0. -1.
        -11    1    1    2    0    0 -0.48791690303E+00 -0.90326051674E+01  0.39924375147E+03  0.39934621459E+03  0.00000000000E+00 0. -1.
         11    1    1    2    0    0  0.13246613767E+01  0.98635936469E+01 -0.49924073354E+03  0.49933991953E+03  0.00000000000E+00 0. -1.
        -15    1    1    2    0    0 -0.40656123747E+01 -0.73443969952E+01  0.45087496596E+02  0.45896725913E+02  0.17770000000E+01 0.  1.
         15    1    1    2    0    0  0.32288679011E+01  0.65134085157E+01  0.54909485473E+02  0.55417139969E+02  0.17770000000E+01 0. -1.
</event>
<event>
 6    1  0.6394569E-004  0.5015411E+03  0.7546771E-02  0.9396368E-01
        -11   -1    0    0    0    0  0.00000000000E+00  0.00000000000E+00  0.50000000000E+03  0.50000000000E+03  0.00000000000E+00 0. -1.
         11   -1    0    0    0    0 -0.00000000000E+00 -0.00000000000E+00 -0.50000000000E+03  0.50000000000E+03  0.00000000000E+00 0.  1.
        -11    1    1    2    0    0  0.91683620222E-01 -0.19297728053E+02  0.32849372215E+03  0.32906007993E+03  0.00000000000E+00 0. -1.
         11    1    1    2    0    0 -0.24893930565E+01 -0.78920139528E+01 -0.49839023354E+03  0.49845893096E+03  0.00000000000E+00 0.  1.
        -15    1    1    2    0    0  0.11271391928E+01  0.27259632747E+02  0.16184443428E+03  0.16413755407E+03  0.17770000000E+01 0. -1.
         15    1    1    2    0    0  0.12705702435E+01 -0.69890741425E-01  0.80520771119E+01  0.83434350405E+01  0.17770000000E+01 0.  1.
</event>
<event>
 6    1  0.6394569E-004  0.5002261E+03  0.7546771E-02  0.9399304E-01
        -11   -1    0    0    0    0  0.00000000000E+00  0.00000000000E+00  0.50000000000E+03  0.50000000000E+03  0.00000000000E+00 0.  1.
         11   -1    0    0    0    0 -0.00000000000E+00 -0.00000000000E+00 -0.50000000000E+03  0.50000000000E+03  0.00000000000E+00 0. -1.
        -11    1    1    2    0    0 -0.12388877758E+02 -0.76396250679E+01  0.18245294930E+03  0.18303258418E+03  0.00000000000E+00 0.  1.
         11    1    1    2    0    0  0.91772533903E+01  0.15769595700E+02 -0.49944072968E+03  0.49977389347E+03  0.00000000000E+00 0. -1.
        -15    1    1    2    0    0  0.69288754083E+00 -0.50514760142E+01  0.25300001312E+03  0.25305762559E+03  0.17770000000E+01 0.  1.
         15    1    1    2    0    0  0.25187368273E+01 -0.30784946179E+01  0.63987767268E+02  0.64135896761E+02  0.17770000000E+01 0. -1.
</event>
<event>
 6    1  0.6394569E-004  0.5001971E+03  0.7546771E-02  0.9399369E-01
        -11   -1    0    0    0    0  0.00000000000E+00  0.00000000000E+00  0.50000000000E+03  0.50000000000E+03  0.00000000000E+00 0.  1.
         11   -1    0    0    0    0 -0.00000000000E+00 -0.00000000000E+00 -0.50000000000E+03  0.50000000000E+03  0.00000000000E+00 0. -1.
        -11    1    1    2    0    0  0.10065460172E+02  0.37510335146E+01  0.49968747914E+03  0.49980292171E+03  0.00000000000E+00 0.  1.
         11    1    1    2    0    0  0.51434987433E+01 -0.57051764823E+00 -0.16991372429E+03  0.16999251387E+03  0.00000000000E+00 0. -1.
        -15    1    1    2    0    0 -0.27233911444E+01 -0.23128291873E+01 -0.10479087444E+03  0.10486682570E+03  0.17770000000E+01 0. -1.
         15    1    1    2    0    0 -0.12485567771E+02 -0.86768667909E+00 -0.22498288041E+03  0.22533773872E+03  0.17770000000E+01 0.  1.
</event>
<event>
 6    1  0.6394569E-004  0.5087895E+03  0.7546771E-02  0.9380355E-01
        -11   -1    0    0    0    0  0.00000000000E+00  0.00000000000E+00  0.50000000000E+03  0.50000000000E+03  0.00000000000E+00 0. -1.
         11   -1    0    0    0    0 -0.00000000000E+00 -0.00000000000E+00 -0.50000000000E+03  0.50000000000E+03  0.00000000000E+00 0.  1.
        -11    1    1    2    0    0  0.18738033057E+02  0.15985534691E+02  0.46494078680E+03  0.46559272592E+03  0.00000000000E+00 0. -1.
         11    1    1    2    0    0  0.51916849362E+01 -0.44489833725E+01 -0.49116294461E+03  0.49121053043E+03  0.00000000000E+00 0.  1.
        -15    1    1    2    0    0 -0.91164637727E+01 -0.90139359444E+01  0.24830963031E+02  0.28001703644E+02  0.17770000000E+01 0. -1.
         15    1    1    2    0    0 -0.14813254221E+02 -0.25226153745E+01  0.13911947824E+01  0.15195040009E+02  0.17770000000E+01 0.  1.
</event>
<event>
 6    1  0.6394569E-004  0.5000834E+03  0.7546771E-02  0.9399623E-01
        -11   -1    0    0    0    0  0.00000000000E+00  0.00000000000E+00  0.50000000000E+03  0.50000000000E+03  0.00000000000E+00 0. -1.
         11   -1    0    0    0    0 -0.00000000000E+00 -0.00000000000E+00 -0.50000000000E+03  0.50000000000E+03  0.00000000000E+00 0. -1.
        -11    1    1    2    0    0 -0.36087008951E+01  0.50514850980E+00  0.13916884467E+03  0.13921654077E+03  0.00000000000E+00 0. -1.
         11    1    1    2    0    0  0.26572435479E+01 -0.66420966753E+01 -0.49986543927E+03  0.49991662881E+03  0.00000000000E+00 0. -1.
        -15    1    1    2    0    0  0.42087767516E+01  0.41728728396E+01  0.27265241715E+03  0.27272261544E+03  0.17770000000E+01 0. -1.
         15    1    1    2    0    0 -0.32573194044E+01  0.19640753259E+01  0.88044177449E+02  0.88144214974E+02  0.17770000000E+01 0.  1.
</event>
<event>
 6    1  0.6394569E-004  0.4906380E+03  0.7546771E-02  0.9421005E-01
        -11   -1    0    0    0    0  0.00000000000E+00  0.00000000000E+00  0.50000000000E+03  0.50000000000E+03  0.00000000000E+00 0.  1.
         11   -1    0    0    0    0 -0.00000000000E+00 -0.00000000000E+00 -0.50000000000E+03  0.50000000000E+03  0.00000000000E+00 0.  1.
        -11    1    1    2    0    0  0.87602174415E+01  0.60955021295E+01  0.49260172178E+03  0.49271731536E+03  0.00000000000E+00 0.  1.
         11    1    1    2    0    0  0.16672829230E+01  0.69309549476E+01 -0.48865649077E+03  0.48870848564E+03  0.00000000000E+00 0.  1.
        -15    1    1    2    0    0 -0.31014902383E+01 -0.66433291482E+01  0.85410120562E+00  0.75921197132E+01  0.17770000000E+01 0. -1.
         15    1    1    2    0    0 -0.73260101262E+01 -0.63831279289E+01 -0.47993322196E+01  0.10982079279E+02  0.17770000000E+01 0.  1.
</event>
<event>
 6    1  0.6394569E-004  0.5097158E+03  0.7546771E-02  0.9378328E-01
        -11   -1    0    0    0    0  0.00000000000E+00  0.00000000000E+00  0.50000000000E+03  0.50000000000E+03  0.00000000000E+00 0.  1.
         11   -1    0    0    0    0 -0.00000000000E+00 -0.00000000000E+00 -0.50000000000E+03  0.50000000000E+03  0.00000000000E+00 0. -1.
        -11    1    1    2    0    0 -0.16856658984E+02 -0.56687610183E+01  0.47491275821E+03  0.47524563092E+03  0.00000000000E+00 0.  1.
         11    1    1    2    0    0  0.96613952220E+01  0.64992847295E+00 -0.49018851806E+03  0.49028415047E+03  0.00000000000E+00 0. -1.
        -15    1    1    2    0    0  0.18208135717E+02  0.50179506330E+01  0.13232092220E+02  0.23129246170E+02  0.17770000000E+01 0. -1.
         15    1    1    2    0    0 -0.11012871955E+02  0.88191241008E-03  0.20436676282E+01  0.11340972438E+02  0.17770000000E+01 0.  1.
</event>
<event>
 6    1  0.6394569E-004  0.5015842E+03  0.7546771E-02  0.9396272E-01
        -11   -1    0    0    0    0  0.00000000000E+00  0.00000000000E+00  0.50000000000E+03  0.50000000000E+03  0.00000000000E+00 0. -1.
         11   -1    0    0    0    0 -0.00000000000E+00 -0.00000000000E+00 -0.50000000000E+03  0.50000000000E+03  0.00000000000E+00 0. -1.
        -11    1    1    2    0    0  0.55237616084E+01  0.21456990431E+02  0.17206116364E+03  0.17348186768E+03  0.00000000000E+00 0. -1.
         11    1    1    2    0    0 -0.12468091534E+02  0.15120879779E+01 -0.49825751633E+03  0.49841578255E+03  0.00000000000E+00 0. -1.
        -15    1    1    2    0    0  0.14541926907E+02 -0.66821670663E+01  0.11284572668E+03  0.11398874836E+03  0.17770000000E+01 0. -1.
         15    1    1    2    0    0 -0.75975969817E+01 -0.16286911343E+02  0.21335062602E+03  0.21411360142E+03  0.17770000000E+01 0.  1.
</event>
<event>
 6    1  0.6394569E-004  0.5002994E+03  0.7546771E-02  0.9399140E-01
        -11   -1    0    0    0    0  0.00000000000E+00  0.00000000000E+00  0.50000000000E+03  0.50000000000E+03  0.00000000000E+00 0. -1.
         11   -1    0    0    0    0 -0.00000000000E+00 -0.00000000000E+00 -0.50000000000E+03  0.50000000000E+03  0.00000000000E+00 0.  1.
        -11    1    1    2    0    0  0.39742393045E+01 -0.59379052892E+01  0.49964951400E+03  0.49970060049E+03  0.00000000000E+00 0. -1.
         11    1    1    2    0    0 -0.50538889179E+01  0.45481827525E+01 -0.46406250003E+03  0.46411230505E+03  0.00000000000E+00 0.  1.
        -15    1    1    2    0    0  0.14195706832E+01 -0.17817885838E+01 -0.14254579360E+02  0.14544439254E+02  0.17770000000E+01 0. -1.
         15    1    1    2    0    0 -0.33992106989E+00  0.31715111205E+01 -0.21332434606E+02  0.21642655205E+02  0.17770000000E+01 0.  1.
</event>
<event>
 6    1  0.6394569E-004  0.5000800E+03  0.7546771E-02  0.9399631E-01
        -11   -1    0    0    0    0  0.00000000000E+00  0.00000000000E+00  0.50000000000E+03  0.50000000000E+03  0.00000000000E+00 0. -1.
         11   -1    0    0    0    0 -0.00000000000E+00 -0.00000000000E+00 -0.50000000000E+03  0.50000000000E+03  0.00000000000E+00 0.  1.
        -11    1    1    2    0    0 -0.23032077316E+01 -0.10066952690E+02  0.49981332241E+03  0.49991999916E+03  0.00000000000E+00 0. -1.
         11    1    1    2    0    0 -0.38084793012E+01  0.46731859078E+01 -0.16953950984E+03  0.16964665802E+03  0.00000000000E+00 0.  1.
        -15    1    1    2    0    0  0.51017479437E+01  0.54475341372E+01 -0.20619073715E+03  0.20633342259E+03  0.17770000000E+01 0.  1.
         15    1    1    2    0    0  0.10099390891E+01 -0.53767355171E-01 -0.12408307542E+03  0.12409992024E+03  0.17770000000E+01 0. -1.
</event>
<event>
 6    1  0.6394569E-004  0.5063728E+03  0.7546771E-02  0.9385662E-01
        -11   -1    0    0    0    0  0.00000000000E+00  0.00000000000E+00  0.50000000000E+03  0.50000000000E+03  0.00000000000E+00 0.  1.
         11   -1    0    0    0    0 -0.00000000000E+00 -0.00000000000E+00 -0.50000000000E+03  0.50000000000E+03  0.00000000000E+00 0. -1.
        -11    1    1    2    0    0 -0.12668737277E-01  0.29400472862E+02  0.49275088809E+03  0.49362721326E+03  0.00000000000E+00 0.  1.
         11    1    1    2    0    0 -0.83633614707E+01  0.18311739891E+02 -0.39045338725E+03  0.39097201083E+03  0.00000000000E+00 0. -1.
        -15    1    1    2    0    0  0.17949060302E+01 -0.42722724262E+02 -0.70260859812E+02  0.82269064700E+02  0.17770000000E+01 0.  1.
         15    1    1    2    0    0  0.65811241778E+01 -0.49894884908E+01 -0.32036641020E+02  0.33131711209E+02  0.17770000000E+01 0. -1.
</event>
<event>
 6    1  0.6394569E-004  0.5001779E+03  0.7546771E-02  0.9399412E-01
        -11   -1    0    0    0    0  0.00000000000E+00  0.00000000000E+00  0.50000000000E+03  0.50000000000E+03  0.00000000000E+00 0. -1.
         11   -1    0    0    0    0 -0.00000000000E+00 -0.00000000000E+00 -0.50000000000E+03  0.50000000000E+03  0.00000000000E+00 0.  1.
        -11    1    1    2    0    0 -0.46900939126E+01  0.57790542951E+01  0.49976671154E+03  0.49982212878E+03  0.00000000000E+00 0. -1.
         11    1    1    2    0    0  0.67837141594E+00 -0.56933085884E+01 -0.40495146856E+03  0.40499205651E+03  0.00000000000E+00 0.  1.
        -15    1    1    2    0    0  0.16788020656E+01  0.31735011375E+01 -0.44649195935E+02  0.44828539040E+02  0.17770000000E+01 0.  1.
         15    1    1    2    0    0  0.23329204311E+01 -0.32592468442E+01 -0.50166047047E+02  0.50357275672E+02  0.17770000000E+01 0. -1.
</event>
<event>
 6    1  0.6394569E-004  0.5008663E+03  0.7546771E-02  0.9397873E-01
        -11   -1    0    0    0    0  0.00000000000E+00  0.00000000000E+00  0.50000000000E+03  0.50000000000E+03  0.00000000000E+00 0.  1.
         11   -1    0    0    0    0 -0.00000000000E+00 -0.00000000000E+00 -0.50000000000E+03  0.50000000000E+03  0.00000000000E+00 0. -1.
        -11    1    1    2    0    0  0.15514911221E+02  0.51417378726E+01  0.11962966939E+03  0.12074107726E+03  0.00000000000E+00 0.  1.
         11    1    1    2    0    0  0.78440179281E+01 -0.14127621818E+02 -0.49887202647E+03  0.49913366658E+03  0.00000000000E+00 0. -1.
        -15    1    1    2    0    0 -0.64207496162E+01  0.37237702417E+01  0.14812698682E+03  0.14832347907E+03  0.17770000000E+01 0.  1.
         15    1    1    2    0    0 -0.16938179533E+02  0.52621137040E+01  0.23111537026E+03  0.23180177710E+03  0.17770000000E+01 0.  1.
</event>
<event>
 6    1  0.6394569E-004  0.5016281E+03  0.7546771E-02  0.9396174E-01
        -11   -1    0    0    0    0  0.00000000000E+00  0.00000000000E+00  0.50000000000E+03  0.50000000000E+03  0.00000000000E+00 0.  1.
         11   -1    0    0    0    0 -0.00000000000E+00 -0.00000000000E+00 -0.50000000000E+03  0.50000000000E+03  0.00000000000E+00 0. -1.
        -11    1    1    2    0    0  0.15012165079E+02 -0.70557880719E+01  0.45979145748E+03  0.46009057110E+03  0.00000000000E+00 0.  1.
         11    1    1    2    0    0 -0.79915698034E+01 -0.21263456337E+01 -0.49830332511E+03  0.49837193976E+03  0.00000000000E+00 0. -1.
        -15    1    1    2    0    0 -0.39697960310E+01  0.94412002686E+00  0.24523610153E+02  0.24924201634E+02  0.17770000000E+01 0.  1.
         15    1    1    2    0    0 -0.30507992450E+01  0.82380136788E+01  0.13988257471E+02  0.16613287498E+02  0.17770000000E+01 0. -1.
</event>
<event>
 6    1  0.7297078E-004  0.5001212E+03  0.7546771E-02  0.9399539E-01
        -11   -1    0    0    0    0  0.00000000000E+00  0.00000000000E+00  0.50000000000E+03  0.50000000000E+03  0.00000000000E+00 0. -1.
         11   -1    0    0    0    0 -0.00000000000E+00 -0.00000000000E+00 -0.50000000000E+03  0.50000000000E+03  0.00000000000E+00 0. -1.
        -11    1    1    2    0    0 -0.91755551465E+01  0.88117555415E+01  0.49971689558E+03  0.49987879889E+03  0.00000000000E+00 0. -1.
         11    1    1    2    0    0  0.32229897910E+01 -0.86413165764E+01 -0.14199407126E+03  0.14229327563E+03  0.00000000000E+00 0. -1.
        -15    1    1    2    0    0  0.64406317950E+01 -0.78972968642E+00 -0.27645328871E+03  0.27653514059E+03  0.17770000000E+01 0. -1.
         15    1    1    2    0    0 -0.48806643949E+00  0.61929072137E+00 -0.81269535605E+02  0.81292784897E+02  0.17770000000E+01 0. -1.
</event>
<event>
 6    1  0.6394569E-004  0.4789194E+03  0.7546771E-02  0.9448255E-01
        -11   -1    0    0    0    0  0.00000000000E+00  0.00000000000E+00  0.50000000000E+03  0.50000000000E+03  0.00000000000E+00 0. -1.
         11   -1    0    0    0    0 -0.00000000000E+00 -0.00000000000E+00 -0.50000000000E+03  0.50000000000E+03  0.00000000000E+00 0. -1.
        -11    1    1    2    0    0  0.24236864783E+02  0.29446195909E+02  0.48516012690E+03  0.48665681214E+03  0.00000000000E+00 0. -1.
         11    1    1    2    0    0 -0.58146622370E+01 -0.38235719991E+01 -0.47174423383E+03  0.47179556182E+03  0.00000000000E+00 0. -1.
        -15    1    1    2    0    0 -0.20882702594E+02 -0.10029918195E+02 -0.58888138052E+01  0.23969196559E+02  0.17770000000E+01 0.  1.
         15    1    1    2    0    0  0.24605000482E+01 -0.15592705715E+02 -0.75270792596E+01  0.17578429485E+02  0.17770000000E+01 0. -1.
</event>
<event>
 6    1  0.6394569E-004  0.5010039E+03  0.7546771E-02  0.9397566E-01
        -11   -1    0    0    0    0  0.00000000000E+00  0.00000000000E+00  0.50000000000E+03  0.50000000000E+03  0.00000000000E+00 0.  1.
         11   -1    0    0    0    0 -0.00000000000E+00 -0.00000000000E+00 -0.50000000000E+03  0.50000000000E+03  0.00000000000E+00 0.  1.
        -11    1    1    2    0    0 -0.36984950080E+01  0.23496664845E+02  0.49842887274E+03  0.49899610550E+03  0.00000000000E+00 0.  1.
         11    1    1    2    0    0 -0.90749883819E+01  0.65701416155E+01 -0.22905244313E+03  0.22932628257E+03  0.00000000000E+00 0.  1.
        -15    1    1    2    0    0  0.51387722107E+01 -0.24907848565E+02 -0.21377523622E+03  0.21529007699E+03  0.17770000000E+01 0.  1.
         15    1    1    2    0    0  0.76347111792E+01 -0.51589578948E+01 -0.55601193391E+02  0.56387534942E+02  0.17770000000E+01 0. -1.
</event>
<event>
 6    1  0.6394569E-004  0.5005119E+03  0.7546771E-02  0.9398665E-01
        -11   -1    0    0    0    0  0.00000000000E+00  0.00000000000E+00  0.50000000000E+03  0.50000000000E+03  0.00000000000E+00 0.  1.
         11   -1    0    0    0    0 -0.00000000000E+00 -0.00000000000E+00 -0.50000000000E+03  0.50000000000E+03  0.00000000000E+00 0. -1.
        -11    1    1    2    0    0 -0.89201127000E+01 -0.38829912509E+01  0.33338381360E+03  0.33352573094E+03  0.00000000000E+00 0.  1.
         11    1    1    2    0    0 -0.25608431246E+01 -0.86401261601E+01 -0.49940675357E+03  0.49948805312E+03  0.00000000000E+00 0. -1.
        -15    1    1    2    0    0  0.93772098412E+01  0.11520306985E+02  0.14158529727E+03  0.14237346547E+03  0.17770000000E+01 0. -1.
         15    1    1    2    0    0  0.21037459833E+01  0.10028104255E+01  0.24437642697E+02  0.24612750466E+02  0.17770000000E+01 0. -1.
</event>
<event>
 6    1  0.6394569E-004  0.5007538E+03  0.7546771E-02  0.9398124E-01
        -11   -1    0    0    0    0  0.00000000000E+00  0.00000000000E+00  0.50000000000E+03  0.50000000000E+03  0.00000000000E+00 0.  1.
         11   -1    0    0    0    0 -0.00000000000E+00 -0.00000000000E+00 -0.50000000000E+03  0.50000000000E+03  0.00000000000E+00 0. -1.
        -11    1    1    2    0    0  0.10600960303E+02  0.24519747460E+01  0.49912756520E+03  0.49924615060E+03  0.00000000000E+00 0.  1.
         11    1    1    2    0    0  0.35004444454E+01  0.84333394815E+01 -0.36188439975E+03  0.36199957612E+03  0.00000000000E+00 0. -1.
        -15    1    1    2    0    0 -0.48510072004E+01  0.99393822580E+00 -0.34933900113E+02  0.35327826004E+02  0.17770000000E+01 0.  1.
         15    1    1    2    0    0 -0.92503975485E+01 -0.11879252453E+02 -0.10230926534E+03  0.10342644728E+03  0.17770000000E+01 0. -1.
</event>
<event>
 6    1  0.6394569E-004  0.5035760E+03  0.7546771E-02  0.9391844E-01
        -11   -1    0    0    0    0  0.00000000000E+00  0.00000000000E+00  0.50000000000E+03  0.50000000000E+03  0.00000000000E+00 0.  1.
         11   -1    0    0    0    0 -0.00000000000E+00 -0.00000000000E+00 -0.50000000000E+03  0.50000000000E+03  0.00000000000E+00 0.  1.
        -11    1    1    2    0    0 -0.85474088687E+00  0.26648082126E+02  0.49570754103E+03  0.49642402953E+03  0.00000000000E+00 0.  1.
         11    1    1    2    0    0 -0.85007229906E+01 -0.31888435270E+01 -0.45087377847E+03  0.45096518173E+03  0.00000000000E+00 0.  1.
        -15    1    1    2    0    0  0.84300604887E+01 -0.23895534259E+02 -0.40336884197E+02  0.47668484695E+02  0.17770000000E+01 0.  1.
         15    1    1    2    0    0  0.92540338874E+00  0.43629566053E+00 -0.44968783584E+01  0.49423040483E+01  0.17770000000E+01 0. -1.
</event>
<event>
 6    1  0.6394569E-004  0.5036851E+03  0.7546771E-02  0.9391602E-01
        -11   -1    0    0    0    0  0.00000000000E+00  0.00000000000E+00  0.50000000000E+03  0.50000000000E+03  0.00000000000E+00 0. -1.
         11   -1    0    0    0    0 -0.00000000000E+00 -0.00000000000E+00 -0.50000000000E+03  0.50000000000E+03  0.00000000000E+00 0. -1.
        -11    1    1    2    0    0  0.16376421260E+01  0.18901815661E+02  0.49595214372E+03  0.49631490947E+03  0.00000000000E+00 0. -1.
         11    1    1    2    0    0  0.51380869259E+01 -0.40851692596E+01 -0.47534973905E+03  0.47539505988E+03  0.00000000000E+00 0. -1.
        -15    1    1    2    0    0 -0.44545688984E+01 -0.14662615507E+02 -0.20071127920E+02  0.25314884605E+02  0.17770000000E+01 0.  1.
         15    1    1    2    0    0 -0.23211601535E+01 -0.15403089422E+00 -0.53127674761E+00  0.29751460396E+01  0.17770000000E+01 0. -1.
</event>
<event>
 6    1  0.6394569E-004  0.4798628E+03  0.7546771E-02  0.9446031E-01
        -11   -1    0    0    0    0  0.00000000000E+00  0.00000000000E+00  0.50000000000E+03  0.50000000000E+03  0.00000000000E+00 0. -1.
         11   -1    0    0    0    0 -0.00000000000E+00 -0.00000000000E+00 -0.50000000000E+03  0.50000000000E+03  0.00000000000E+00 0. -1.
        -11    1    1    2    0    0  0.78584820468E+01  0.10825577721E+02  0.48205608638E+03  0.48224166068E+03  0.00000000000E+00 0. -1.
         11    1    1    2    0    0  0.24400077534E+02  0.13517989572E+01 -0.47748898071E+03  0.47811391722E+03  0.00000000000E+00 0. -1.
        -15    1    1    2    0    0 -0.12794411015E+01  0.37788311634E+01  0.46159848073E+00  0.43917350388E+01  0.17770000000E+01 0. -1.
         15    1    1    2    0    0 -0.30979118480E+02 -0.15956207842E+02 -0.50287041573E+01  0.35252687060E+02  0.17770000000E+01 0.  1.
</event>
<event>
 6    1  0.6394569E-004  0.5001415E+03  0.7546771E-02  0.9399493E-01
        -11   -1    0    0    0    0  0.00000000000E+00  0.00000000000E+00  0.50000000000E+03  0.50000000000E+03  0.00000000000E+00 0.  1.
         11   -1    0    0    0    0 -0.00000000000E+00 -0.00000000000E+00 -0.50000000000E+03  0.50000000000E+03  0.00000000000E+00 0.  1.
        -11    1    1    2    0    0 -0.19823194375E+01  0.95490345869E+01  0.49976334407E+03  0.49985849370E+03  0.00000000000E+00 0.  1.
         11    1    1    2    0    0 -0.37699351708E+01  0.10097389032E+01 -0.23255195292E+03  0.23258470025E+03  0.00000000000E+00 0.  1.
        -15    1    1    2    0    0  0.11515547255E+01 -0.28955640553E+00 -0.52363993788E+02  0.52407590057E+02  0.17770000000E+01 0.  1.
         15    1    1    2    0    0  0.46006998829E+01 -0.10269217085E+02 -0.21484739736E+03  0.21514921599E+03  0.17770000000E+01 0. -1.
</event>
<event>
 6    1  0.6394569E-004  0.5009577E+03  0.7546771E-02  0.9397669E-01
        -11   -1    0    0    0    0  0.00000000000E+00  0.00000000000E+00  0.50000000000E+03  0.50000000000E+03  0.00000000000E+00 0.  1.
         11   -1    0    0    0    0 -0.00000000000E+00 -0.00000000000E+00 -0.50000000000E+03  0.50000000000E+03  0.00000000000E+00 0.  1.
        -11    1    1    2    0    0  0.10711902377E+01  0.97955769108E+01  0.49894496352E+03  0.49904226013E+03  0.00000000000E+00 0.  1.
         11    1    1    2    0    0 -0.42029186764E+01 -0.67795279537E+01 -0.44942396138E+03  0.44949474255E+03  0.00000000000E+00 0.  1.
        -15    1    1    2    0    0  0.58074613350E+01 -0.66512004133E+01 -0.35573058915E+02  0.36695576350E+02  0.17770000000E+01 0. -1.
         15    1    1    2    0    0 -0.26757328963E+01  0.36351514561E+01 -0.13947943228E+02  0.14767420964E+02  0.17770000000E+01 0.  1.
</event>
<event>
 6    1  0.6394569E-004  0.5001012E+03  0.7546771E-02  0.9399583E-01
        -11   -1    0    0    0    0  0.00000000000E+00  0.00000000000E+00  0.50000000000E+03  0.50000000000E+03  0.00000000000E+00 0. -1.
         11   -1    0    0    0    0 -0.00000000000E+00 -0.00000000000E+00 -0.50000000000E+03  0.50000000000E+03  0.00000000000E+00 0. -1.
        -11    1    1    2    0    0  0.18527090954E+02  0.95601130134E+01  0.49946390474E+03  0.49989883077E+03  0.00000000000E+00 0. -1.
         11    1    1    2    0    0 -0.72516460157E+01  0.24235837990E+01 -0.12004206964E+03  0.12028532168E+03  0.00000000000E+00 0. -1.
        -15    1    1    2    0    0 -0.69891480091E+01 -0.54856491798E+01 -0.23348331140E+03  0.23365905711E+03  0.17770000000E+01 0. -1.
         15    1    1    2    0    0 -0.42862969287E+01 -0.64980476326E+01 -0.14593852370E+03  0.14615679044E+03  0.17770000000E+01 0. -1.
</event>
<event>
 6    1  0.6394569E-004  0.5007393E+03  0.7546771E-02  0.9398157E-01
        -11   -1    0    0    0    0  0.00000000000E+00  0.00000000000E+00  0.50000000000E+03  0.50000000000E+03  0.00000000000E+00 0.  1.
         11   -1    0    0    0    0 -0.00000000000E+00 -0.00000000000E+00 -0.50000000000E+03  0.50000000000E+03  0.00000000000E+00 0.  1.
        -11    1    1    2    0    0 -0.17746885765E+02  0.66700061192E+02  0.49446674384E+03  0.49926066426E+03  0.00000000000E+00 0.  1.
         11    1    1    2    0    0 -0.82596095058E+01 -0.13204634957E+02 -0.13516612192E+03  0.13606051613E+03  0.00000000000E+00 0.  1.
        -15    1    1    2    0    0  0.21458640877E+02 -0.50246041815E+02 -0.28833456274E+03  0.29347080908E+03  0.17770000000E+01 0.  1.
         15    1    1    2    0    0  0.45478543930E+01 -0.32493844192E+01 -0.70966059177E+02  0.71208010524E+02  0.17770000000E+01 0. -1.
</event>
<event>
 6    1  0.6394569E-004  0.5011554E+03  0.7546771E-02  0.9397228E-01
        -11   -1    0    0    0    0  0.00000000000E+00  0.00000000000E+00  0.50000000000E+03  0.50000000000E+03  0.00000000000E+00 0. -1.
         11   -1    0    0    0    0 -0.00000000000E+00 -0.00000000000E+00 -0.50000000000E+03  0.50000000000E+03  0.00000000000E+00 0. -1.
        -11    1    1    2    0    0 -0.49699517222E+01  0.12895416837E+02  0.21509376220E+03  0.21553727922E+03  0.00000000000E+00 0. -1.
         11    1    1    2    0    0 -0.46237617962E+01  0.48980152376E+01 -0.49879914509E+03  0.49884462197E+03  0.00000000000E+00 0. -1.
        -15    1    1    2    0    0  0.23802780567E+01 -0.43949681669E+01  0.87232255422E+01  0.10209498601E+02  0.17770000000E+01 0.  1.
         15    1    1    2    0    0  0.72134354617E+01 -0.13398463907E+02  0.27498215734E+03  0.27540860021E+03  0.17770000000E+01 0. -1.
</event>
<event>
 6    1  0.6394569E-004  0.5027931E+03  0.7546771E-02  0.9393581E-01
        -11   -1    0    0    0    0  0.00000000000E+00  0.00000000000E+00  0.50000000000E+03  0.50000000000E+03  0.00000000000E+00 0.  1.
         11   -1    0    0    0    0 -0.00000000000E+00 -0.00000000000E+00 -0.50000000000E+03  0.50000000000E+03  0.00000000000E+00 0. -1.
        -11    1    1    2    0    0  0.17082835903E+02  0.16701283849E+02  0.38099956581E+03  0.38174785567E+03  0.00000000000E+00 0.  1.
         11    1    1    2    0    0 -0.96902315138E+01  0.19529615066E+01 -0.49710860135E+03  0.49720687463E+03  0.00000000000E+00 0. -1.
        -15    1    1    2    0    0  0.78350718597E+01 -0.47501924627E+01  0.13774301522E+02  0.16638563366E+02  0.17770000000E+01 0. -1.
         15    1    1    2    0    0 -0.15227676248E+02 -0.13904052893E+02  0.10233473402E+03  0.10440670633E+03  0.17770000000E+01 0.  1.
</event>
<event>
 6    1  0.6394569E-004  0.5002095E+03  0.7546771E-02  0.9399341E-01
        -11   -1    0    0    0    0  0.00000000000E+00  0.00000000000E+00  0.50000000000E+03  0.50000000000E+03  0.00000000000E+00 0.  1.
         11   -1    0    0    0    0 -0.00000000000E+00 -0.00000000000E+00 -0.50000000000E+03  0.50000000000E+03  0.00000000000E+00 0.  1.
        -11    1    1    2    0    0 -0.19526639252E+02  0.80966460054E+01  0.29318815247E+03  0.29394921001E+03  0.00000000000E+00 0.  1.
         11    1    1    2    0    0  0.18996343033E+02 -0.12638777510E+02 -0.49926940143E+03  0.49979049106E+03  0.00000000000E+00 0.  1.
        -15    1    1    2    0    0 -0.77273635008E+00 -0.11783441213E+01  0.77252443460E+02  0.77285725499E+02  0.17770000000E+01 0.  1.
         15    1    1    2    0    0  0.13030325692E+01  0.57204756254E+01  0.12882880551E+03  0.12897457343E+03  0.17770000000E+01 0.  1.
</event>
<event>
 6    1  0.6394569E-004  0.5002504E+03  0.7546771E-02  0.9399250E-01
        -11   -1    0    0    0    0  0.00000000000E+00  0.00000000000E+00  0.50000000000E+03  0.50000000000E+03  0.00000000000E+00 0.  1.
         11   -1    0    0    0    0 -0.00000000000E+00 -0.00000000000E+00 -0.50000000000E+03  0.50000000000E+03  0.00000000000E+00 0. -1.
        -11    1    1    2    0    0 -0.11222342943E+02  0.48974997815E+01  0.49959961789E+03  0.49974964200E+03  0.00000000000E+00 0.  1.
         11    1    1    2    0    0  0.18449268367E+00  0.23231932252E+01 -0.17253625989E+03  0.17255199866E+03  0.00000000000E+00 0. -1.
        -15    1    1    2    0    0  0.89414552864E+01  0.29638551502E+01 -0.13006835603E+03  0.13042112186E+03  0.17770000000E+01 0. -1.
         15    1    1    2    0    0  0.20963949727E+01 -0.10184548157E+02 -0.19699500197E+03  0.19727723747E+03  0.17770000000E+01 0.  1.
</event>
<event>
 6    1  0.6394569E-004  0.5007664E+03  0.7546771E-02  0.9398096E-01
        -11   -1    0    0    0    0  0.00000000000E+00  0.00000000000E+00  0.50000000000E+03  0.50000000000E+03  0.00000000000E+00 0.  1.
         11   -1    0    0    0    0 -0.00000000000E+00 -0.00000000000E+00 -0.50000000000E+03  0.50000000000E+03  0.00000000000E+00 0.  1.
        -11    1    1    2    0    0  0.11986475476E+02  0.45621245042E+01  0.50021542041E+02  0.51639551146E+02  0.00000000000E+00 0.  1.
         11    1    1    2    0    0 -0.12632866794E+02 -0.17168090200E+02 -0.49877831912E+03  0.49923355684E+03  0.00000000000E+00 0.  1.
        -15    1    1    2    0    0 -0.39685276981E+01  0.69872221520E+00  0.62492101176E+02  0.62647089822E+02  0.17770000000E+01 0. -1.
         15    1    1    2    0    0  0.46149190160E+01  0.11907243480E+02  0.38626467590E+03  0.38647980220E+03  0.17770000000E+01 0.  1.
</event>
<event>
 6    1  0.6394569E-004  0.5005371E+03  0.7546771E-02  0.9398609E-01
        -11   -1    0    0    0    0  0.00000000000E+00  0.00000000000E+00  0.50000000000E+03  0.50000000000E+03  0.00000000000E+00 0.  1.
         11   -1    0    0    0    0 -0.00000000000E+00 -0.00000000000E+00 -0.50000000000E+03  0.50000000000E+03  0.00000000000E+00 0. -1.
        -11    1    1    2    0    0 -0.13181461468E+02 -0.13776226847E+01  0.34299597527E+03  0.34325193054E+03  0.00000000000E+00 0.  1.
         11    1    1    2    0    0  0.14121587609E+01  0.72817875380E+01 -0.49940784904E+03  0.49946292986E+03  0.00000000000E+00 0. -1.
        -15    1    1    2    0    0  0.17485520508E+01 -0.23993830240E+01  0.84634282473E+02  0.84704981978E+02  0.17770000000E+01 0.  1.
         15    1    1    2    0    0  0.10020750656E+02 -0.35047818293E+01  0.71777591292E+02  0.72580157620E+02  0.17770000000E+01 0. -1.
</event>
<event>
 6    1  0.6394569E-004  0.5028961E+03  0.7546771E-02  0.9393353E-01
        -11   -1    0    0    0    0  0.00000000000E+00  0.00000000000E+00  0.50000000000E+03  0.50000000000E+03  0.00000000000E+00 0.  1.
         11   -1    0    0    0    0 -0.00000000000E+00 -0.00000000000E+00 -0.50000000000E+03  0.50000000000E+03  0.00000000000E+00 0. -1.
        -11    1    1    2    0    0 -0.19824814074E+02  0.18456223898E+02  0.49636541892E+03  0.49710389714E+03  0.00000000000E+00 0.  1.
         11    1    1    2    0    0  0.10382481666E+02 -0.43533935304E+01 -0.45831828181E+03  0.45845653600E+03  0.00000000000E+00 0. -1.
        -15    1    1    2    0    0  0.16629196687E+01  0.31199589283E+01 -0.73620590411E+01  0.83580552680E+01  0.17770000000E+01 0.  1.
         15    1    1    2    0    0  0.77794127398E+01 -0.17222789296E+02 -0.30685078071E+02  0.36081511594E+02  0.17770000000E+01 0. -1.
</event>
<event>
 6    1  0.6394569E-004  0.5032730E+03  0.7546771E-02  0.9392516E-01
        -11   -1    0    0    0    0  0.00000000000E+00  0.00000000000E+00  0.50000000000E+03  0.50000000000E+03  0.00000000000E+00 0.  1.
         11   -1    0    0    0    0 -0.00000000000E+00 -0.00000000000E+00 -0.50000000000E+03  0.50000000000E+03  0.00000000000E+00 0. -1.
        -11    1    1    2    0    0 -0.11256226650E+02  0.13578459970E+02  0.46986611986E+03  0.47019703084E+03  0.00000000000E+00 0.  1.
         11    1    1    2    0    0 -0.33380140137E+00 -0.82210609149E+01 -0.49665888528E+03  0.49672703328E+03  0.00000000000E+00 0. -1.
        -15    1    1    2    0    0  0.61133191429E+01  0.46232876042E+01  0.11225547175E+02  0.13708322202E+02  0.17770000000E+01 0.  1.
         15    1    1    2    0    0  0.54767089089E+01 -0.99806866596E+01  0.15567218243E+02  0.19367613676E+02  0.17770000000E+01 0. -1.
</event>
<event>
 6    1  0.6394569E-004  0.5003365E+03  0.7546771E-02  0.9399057E-01
        -11   -1    0    0    0    0  0.00000000000E+00  0.00000000000E+00  0.50000000000E+03  0.50000000000E+03  0.00000000000E+00 0.  1.
         11   -1    0    0    0    0 -0.00000000000E+00 -0.00000000000E+00 -0.50000000000E+03  0.50000000000E+03  0.00000000000E+00 0. -1.
        -11    1    1    2    0    0  0.67365327980E+01  0.17686983351E+01  0.33041057487E+03  0.33048397413E+03  0.00000000000E+00 0.  1.
         11    1    1    2    0    0  0.39418735030E+01 -0.63284137076E+01 -0.49960787708E+03  0.49966350479E+03  0.00000000000E+00 0. -1.
        -15    1    1    2    0    0 -0.47541951685E+01  0.13685045290E+01  0.12501052401E+03  0.12512099751E+03  0.17770000000E+01 0. -1.
         15    1    1    2    0    0 -0.59242111325E+01  0.31912108435E+01  0.44186778192E+02  0.44731523562E+02  0.17770000000E+01 0.  1.
</event>
<event>
 6    1  0.6394569E-004  0.5014719E+03  0.7546771E-02  0.9396522E-01
        -11   -1    0    0    0    0  0.00000000000E+00  0.00000000000E+00  0.50000000000E+03  0.50000000000E+03  0.00000000000E+00 0.  1.
         11   -1    0    0    0    0 -0.00000000000E+00 -0.00000000000E+00 -0.50000000000E+03  0.50000000000E+03  0.00000000000E+00 0.  1.
        -11    1    1    2    0    0  0.14159477256E+02  0.89392436990E+01  0.31651564521E+03  0.31695828517E+03  0.00000000000E+00 0.  1.
         11    1    1    2    0    0  0.30618970088E+01  0.95516516779E+01 -0.49842714984E+03  0.49852806637E+03  0.00000000000E+00 0.  1.
        -15    1    1    2    0    0 -0.70255497093E+01 -0.99772642602E+01  0.13929373216E+03  0.13983849863E+03  0.17770000000E+01 0. -1.
         15    1    1    2    0    0 -0.10195824555E+02 -0.85136311167E+01  0.42617772464E+02  0.44675149825E+02  0.17770000000E+01 0.  1.
</event>
<event>
 6    1  0.6394569E-004  0.5002391E+03  0.7546771E-02  0.9399275E-01
        -11   -1    0    0    0    0  0.00000000000E+00  0.00000000000E+00  0.50000000000E+03  0.50000000000E+03  0.00000000000E+00 0. -1.
         11   -1    0    0    0    0 -0.00000000000E+00 -0.00000000000E+00 -0.50000000000E+03  0.50000000000E+03  0.00000000000E+00 0.  1.
        -11    1    1    2    0    0  0.24337231975E+01  0.78381510708E+01  0.49969351986E+03  0.49976091625E+03  0.00000000000E+00 0. -1.
         11    1    1    2    0    0  0.19712334101E+01 -0.83004717187E+01 -0.38300050594E+03  0.38309551177E+03  0.00000000000E+00 0.  1.
        -15    1    1    2    0    0 -0.54232665489E+01 -0.27741577298E+01 -0.65069482890E+02  0.65378154637E+02  0.17770000000E+01 0. -1.
         15    1    1    2    0    0  0.10183099412E+01  0.32364783777E+01 -0.51623531033E+02  0.51765417344E+02  0.17770000000E+01 0.  1.
</event>
<event>
 6    1  0.6394569E-004  0.5011634E+03  0.7546771E-02  0.9397210E-01
        -11   -1    0    0    0    0  0.00000000000E+00  0.00000000000E+00  0.50000000000E+03  0.50000000000E+03  0.00000000000E+00 0.  1.
         11   -1    0    0    0    0 -0.00000000000E+00 -0.00000000000E+00 -0.50000000000E+03  0.50000000000E+03  0.00000000000E+00 0.  1.
        -11    1    1    2    0    0  0.22227559604E+02  0.75820520542E+00  0.18089731543E+03  0.18225937016E+03  0.00000000000E+00 0.  1.
         11    1    1    2    0    0 -0.46457638673E+01 -0.10512588956E+02 -0.49870417975E+03  0.49883660306E+03  0.00000000000E+00 0.  1.
        -15    1    1    2    0    0 -0.11166215725E+02  0.61454487862E+01  0.28256038551E+03  0.28285328370E+03  0.17770000000E+01 0.  1.
         15    1    1    2    0    0 -0.64155800112E+01  0.36089349645E+01  0.35246478817E+02  0.36050743077E+02  0.17770000000E+01 0. -1.
</event>
<event>
 6    1  0.6394569E-004  0.5085273E+03  0.7546771E-02  0.9380929E-01
        -11   -1    0    0    0    0  0.00000000000E+00  0.00000000000E+00  0.50000000000E+03  0.50000000000E+03  0.00000000000E+00 0.  1.
         11   -1    0    0    0    0 -0.00000000000E+00 -0.00000000000E+00 -0.50000000000E+03  0.50000000000E+03  0.00000000000E+00 0.  1.
        -11    1    1    2    0    0 -0.42846443780E+01  0.21244526430E+02  0.47893756681E+03  0.47942765981E+03  0.00000000000E+00 0.  1.
         11    1    1    2    0    0  0.96908982669E+01 -0.69870015878E+01 -0.49132745020E+03  0.49147267983E+03  0.00000000000E+00 0.  1.
        -15    1    1    2    0    0 -0.71731256296E+01  0.36526777417E+01  0.37061094031E+01  0.90381835504E+01  0.17770000000E+01 0. -1.
         15    1    1    2    0    0  0.17668717406E+01 -0.17910202584E+02  0.86837739819E+01  0.20061476813E+02  0.17770000000E+01 0.  1.
</event>
<event>
 6    1  0.6394569E-004  0.5005180E+03  0.7546771E-02  0.9398651E-01
        -11   -1    0    0    0    0  0.00000000000E+00  0.00000000000E+00  0.50000000000E+03  0.50000000000E+03  0.00000000000E+00 0. -1.
         11   -1    0    0    0    0 -0.00000000000E+00 -0.00000000000E+00 -0.50000000000E+03  0.50000000000E+03  0.00000000000E+00 0.  1.
        -11    1    1    2    0    0 -0.71597718778E+02 -0.45814030559E+02  0.49219617014E+03  0.49948196027E+03  0.00000000000E+00 0. -1.
         11    1    1    2    0    0  0.42728922460E+01 -0.25588893987E+01 -0.26683282324E+02  0.27144116833E+02  0.00000000000E+00 0.  1.
        -15    1    1    2    0    0  0.29073346528E+02  0.14414767777E+02 -0.13115729150E+03  0.13512378714E+03  0.17770000000E+01 0. -1.
         15    1    1    2    0    0  0.38251480004E+02  0.33958152180E+02 -0.33435559631E+03  0.33825013575E+03  0.17770000000E+01 0.  1.
</event>
<event>
 6    1  0.6394569E-004  0.5018722E+03  0.7546771E-02  0.9395630E-01
        -11   -1    0    0    0    0  0.00000000000E+00  0.00000000000E+00  0.50000000000E+03  0.50000000000E+03  0.00000000000E+00 0. -1.
         11   -1    0    0    0    0 -0.00000000000E+00 -0.00000000000E+00 -0.50000000000E+03  0.50000000000E+03  0.00000000000E+00 0.  1.
        -11    1    1    2    0    0  0.73640939051E+01  0.17229125699E+01  0.49807037674E+03  0.49812779334E+03  0.00000000000E+00 0. -1.
         11    1    1    2    0    0  0.56728207576E+00 -0.91233875570E+01 -0.47797055350E+03  0.47805795467E+03  0.00000000000E+00 0.  1.
        -15    1    1    2    0    0 -0.47877183206E+01  0.50006522510E+01 -0.69553611701E+01  0.99731413135E+01  0.17770000000E+01 0.  1.
         15    1    1    2    0    0 -0.31436576602E+01  0.23998227361E+01 -0.13144462072E+02  0.13841110679E+02  0.17770000000E+01 0. -1.
</event>
<event>
 6    1  0.6394569E-004  0.5045589E+03  0.7546771E-02  0.9389666E-01
        -11   -1    0    0    0    0  0.00000000000E+00  0.00000000000E+00  0.50000000000E+03  0.50000000000E+03  0.00000000000E+00 0.  1.
         11   -1    0    0    0    0 -0.00000000000E+00 -0.00000000000E+00 -0.50000000000E+03  0.50000000000E+03  0.00000000000E+00 0.  1.
        -11    1    1    2    0    0  0.58334605957E+01 -0.15898155952E+02  0.49515160172E+03  0.49544110580E+03  0.00000000000E+00 0.  1.
         11    1    1    2    0    0 -0.67256042769E+01 -0.92538967810E+01 -0.43811656519E+03  0.43826589310E+03  0.00000000000E+00 0.  1.
        -15    1    1    2    0    0  0.37686687248E+01  0.31120383230E+01 -0.33389776155E+02  0.33792344210E+02  0.17770000000E+01 0. -1.
         15    1    1    2    0    0 -0.28765250436E+01  0.22040014410E+02 -0.23645260373E+02  0.32500656895E+02  0.17770000000E+01 0.  1.
</event>
<event>
 6    1  0.6394569E-004  0.5002249E+03  0.7546771E-02  0.9399307E-01
        -11   -1    0    0    0    0  0.00000000000E+00  0.00000000000E+00  0.50000000000E+03  0.50000000000E+03  0.00000000000E+00 0.  1.
         11   -1    0    0    0    0 -0.00000000000E+00 -0.00000000000E+00 -0.50000000000E+03  0.50000000000E+03  0.00000000000E+00 0. -1.
        -11    1    1    2    0    0  0.94052267564E+00 -0.67286119726E+01  0.49972893422E+03  0.49977511593E+03  0.00000000000E+00 0.  1.
         11    1    1    2    0    0  0.16057234542E+00  0.56308180002E+01 -0.35820794567E+03  0.35825223549E+03  0.00000000000E+00 0. -1.
        -15    1    1    2    0    0  0.17361422732E+01 -0.40460250064E+01 -0.81647925073E+02  0.81785853948E+02  0.17770000000E+01 0.  1.
         15    1    1    2    0    0 -0.28372372943E+01  0.51438189787E+01 -0.59873063481E+02  0.60186794637E+02  0.17770000000E+01 0. -1.
</event>
<event>
 6    1  0.6394569E-004  0.5077501E+03  0.7546771E-02  0.9382633E-01
        -11   -1    0    0    0    0  0.00000000000E+00  0.00000000000E+00  0.50000000000E+03  0.50000000000E+03  0.00000000000E+00 0.  1.
         11   -1    0    0    0    0 -0.00000000000E+00 -0.00000000000E+00 -0.50000000000E+03  0.50000000000E+03  0.00000000000E+00 0. -1.
        -11    1    1    2    0    0 -0.15272398517E+02  0.60186289486E+01  0.49197613054E+03  0.49224991932E+03  0.00000000000E+00 0.  1.
         11    1    1    2    0    0  0.85031355788E+01  0.83377415105E+00 -0.45636046152E+03  0.45644043350E+03  0.00000000000E+00 0. -1.
        -15    1    1    2    0    0  0.83390913426E+01  0.16600616452E+00 -0.41174176870E+02  0.42048050756E+02  0.17770000000E+01 0.  1.
         15    1    1    2    0    0 -0.15698284047E+01 -0.70184092642E+01  0.55585078492E+01  0.92615964245E+01  0.17770000000E+01 0. -1.
</event>
<event>
 6    1  0.6394569E-004  0.5106096E+03  0.7546771E-02  0.9376378E-01
        -11   -1    0    0    0    0  0.00000000000E+00  0.00000000000E+00  0.50000000000E+03  0.50000000000E+03  0.00000000000E+00 0. -1.
         11   -1    0    0    0    0 -0.00000000000E+00 -0.00000000000E+00 -0.50000000000E+03  0.50000000000E+03  0.00000000000E+00 0.  1.
        -11    1    1    2    0    0  0.34751890145E+01  0.22174801394E+02  0.48887538472E+03  0.48939037643E+03  0.00000000000E+00 0. -1.
         11    1    1    2    0    0 -0.22822604804E+02  0.46103687004E+01 -0.46496225528E+03  0.46554486961E+03  0.00000000000E+00 0.  1.
        -15    1    1    2    0    0  0.20194684526E+02 -0.17622831080E+02 -0.10809869111E+02  0.28955145615E+02  0.17770000000E+01 0. -1.
         15    1    1    2    0    0 -0.84726873690E+00 -0.91623390150E+01 -0.13103260332E+02  0.16109608340E+02  0.17770000000E+01 0.  1.
</event>
<event>
 6    1  0.6394569E-004  0.5008409E+03  0.7546771E-02  0.9397930E-01
        -11   -1    0    0    0    0  0.00000000000E+00  0.00000000000E+00  0.50000000000E+03  0.50000000000E+03  0.00000000000E+00 0.  1.
         11   -1    0    0    0    0 -0.00000000000E+00 -0.00000000000E+00 -0.50000000000E+03  0.50000000000E+03  0.00000000000E+00 0. -1.
        -11    1    1    2    0    0  0.21917436483E+02  0.11199800196E+02  0.16006385976E+03  0.16194520292E+03  0.00000000000E+00 0.  1.
         11    1    1    2    0    0 -0.11999316894E+02 -0.16547740699E+02 -0.49874038257E+03  0.49915907337E+03  0.00000000000E+00 0. -1.
        -15    1    1    2    0    0 -0.75006610608E+01  0.31923999161E+01  0.25760123505E+03  0.25773630974E+03  0.17770000000E+01 0.  1.
         15    1    1    2    0    0 -0.24174585282E+01  0.21555405866E+01  0.81075287761E+02  0.81159413968E+02  0.17770000000E+01 0.  1.
</event>
<event>
 6    1  0.6394569E-004  0.5013888E+03  0.7546771E-02  0.9396708E-01
        -11   -1    0    0    0    0  0.00000000000E+00  0.00000000000E+00  0.50000000000E+03  0.50000000000E+03  0.00000000000E+00 0.  1.
         11   -1    0    0    0    0 -0.00000000000E+00 -0.00000000000E+00 -0.50000000000E+03  0.50000000000E+03  0.00000000000E+00 0. -1.
        -11    1    1    2    0    0  0.44607659788E+01  0.12588264971E+02  0.41598278145E+03  0.41619711353E+03  0.00000000000E+00 0.  1.
         11    1    1    2    0    0 -0.43126725438E+01  0.67241362354E+01 -0.49854722040E+03  0.49861121540E+03  0.00000000000E+00 0. -1.
        -15    1    1    2    0    0  0.50790633057E+00 -0.55534084947E+01  0.13036146313E+02  0.14289756976E+02  0.17770000000E+01 0.  1.
         15    1    1    2    0    0 -0.65599976557E+00 -0.13758992712E+02  0.69528292638E+02  0.70901914094E+02  0.17770000000E+01 0. -1.
</event>
<event>
 6    1  0.6394569E-004  0.5011314E+03  0.7546771E-02  0.9397282E-01
        -11   -1    0    0    0    0  0.00000000000E+00  0.00000000000E+00  0.50000000000E+03  0.50000000000E+03  0.00000000000E+00 0. -1.
         11   -1    0    0    0    0 -0.00000000000E+00 -0.00000000000E+00 -0.50000000000E+03  0.50000000000E+03  0.00000000000E+00 0.  1.
        -11    1    1    2    0    0  0.21369739634E+02  0.36164079190E+02  0.20770558486E+03  0.21191063299E+03  0.00000000000E+00 0. -1.
         11    1    1    2    0    0 -0.21028252852E+02 -0.40429479107E+02 -0.49678279857E+03  0.49886859909E+03  0.00000000000E+00 0.  1.
        -15    1    1    2    0    0 -0.21837285153E+01  0.49656216023E+01  0.24312132431E+03  0.24318832647E+03  0.17770000000E+01 0. -1.
         15    1    1    2    0    0  0.18422417327E+01 -0.70022168584E+00  0.45955889407E+02  0.46032441442E+02  0.17770000000E+01 0.  1.
</event>
<event>
 6    1  0.6394569E-004  0.5005260E+03  0.7546771E-02  0.9398634E-01
        -11   -1    0    0    0    0  0.00000000000E+00  0.00000000000E+00  0.50000000000E+03  0.50000000000E+03  0.00000000000E+00 0.  1.
         11   -1    0    0    0    0 -0.00000000000E+00 -0.00000000000E+00 -0.50000000000E+03  0.50000000000E+03  0.00000000000E+00 0. -1.
        -11    1    1    2    0    0 -0.68206379711E+01 -0.21723564273E+02  0.49895477837E+03  0.49947402856E+03  0.00000000000E+00 0.  1.
         11    1    1    2    0    0  0.44267566858E-01  0.18795943357E+01 -0.88217381569E+02  0.88237414090E+02  0.00000000000E+00 0. -1.
        -15    1    1    2    0    0 -0.54037082546E+01  0.15274243800E+01 -0.24705504448E+03  0.24712524318E+03  0.17770000000E+01 0. -1.
         15    1    1    2    0    0  0.12180078659E+02  0.18316545557E+02 -0.16368235232E+03  0.16516331417E+03  0.17770000000E+01 0.  1.
</event>
<event>
 6    1  0.6394569E-004  0.5005692E+03  0.7546771E-02  0.9398537E-01
        -11   -1    0    0    0    0  0.00000000000E+00  0.00000000000E+00  0.50000000000E+03  0.50000000000E+03  0.00000000000E+00 0.  1.
         11   -1    0    0    0    0 -0.00000000000E+00 -0.00000000000E+00 -0.50000000000E+03  0.50000000000E+03  0.00000000000E+00 0. -1.
        -11    1    1    2    0    0 -0.10730280293E+02 -0.29983515244E+01  0.13590464586E+03  0.13636055805E+03  0.00000000000E+00 0.  1.
         11    1    1    2    0    0  0.22145087283E+01 -0.19228133540E+02 -0.49905564339E+03  0.49943083642E+03  0.00000000000E+00 0. -1.
        -15    1    1    2    0    0  0.32156514786E+01  0.12283718061E+02  0.27819437909E+03  0.27848967742E+03  0.17770000000E+01 0.  1.
         15    1    1    2    0    0  0.53001200864E+01  0.99427670034E+01  0.84956618441E+02  0.85718928100E+02  0.17770000000E+01 0. -1.
</event>
<event>
 6    1  0.6394569E-004  0.4885453E+03  0.7546771E-02  0.9425812E-01
        -11   -1    0    0    0    0  0.00000000000E+00  0.00000000000E+00  0.50000000000E+03  0.50000000000E+03  0.00000000000E+00 0.  1.
         11   -1    0    0    0    0 -0.00000000000E+00 -0.00000000000E+00 -0.50000000000E+03  0.50000000000E+03  0.00000000000E+00 0. -1.
        -11    1    1    2    0    0 -0.10493728403E+02 -0.99925048143E+01  0.48398677274E+03  0.48420363968E+03  0.00000000000E+00 0.  1.
         11    1    1    2    0    0  0.22580424973E+01 -0.64548614920E+01 -0.49305466446E+03  0.49310208491E+03  0.00000000000E+00 0. -1.
        -15    1    1    2    0    0  0.66993994583E+01  0.37291315191E+01  0.34314764331E+01  0.85861012398E+01  0.17770000000E+01 0.  1.
         15    1    1    2    0    0  0.15362864472E+01  0.12718234787E+02  0.56364152878E+01  0.14108174171E+02  0.17770000000E+01 0. -1.
</event>
<event>
 6    1  0.6394569E-004  0.4985083E+03  0.7546771E-02  0.9403154E-01
        -11   -1    0    0    0    0  0.00000000000E+00  0.00000000000E+00  0.50000000000E+03  0.50000000000E+03  0.00000000000E+00 0. -1.
         11   -1    0    0    0    0 -0.00000000000E+00 -0.00000000000E+00 -0.50000000000E+03  0.50000000000E+03  0.00000000000E+00 0. -1.
        -11    1    1    2    0    0 -0.68856771041E+02 -0.11286864591E+02  0.49249422563E+03  0.49741251544E+03  0.00000000000E+00 0. -1.
         11    1    1    2    0    0  0.74033779552E+00  0.23107637645E+00 -0.80370871894E+01  0.80744205262E+01  0.00000000000E+00 0. -1.
        -15    1    1    2    0    0 -0.24295390325E+01 -0.89879861555E+01 -0.21615131471E+03  0.21635904219E+03  0.17770000000E+01 0. -1.
         15    1    1    2    0    0  0.70545972278E+02  0.20043774370E+02 -0.26830582373E+03  0.27815402185E+03  0.17770000000E+01 0.  1.
</event>
<event>
 6    1  0.6394569E-004  0.4909464E+03  0.7546771E-02  0.9420299E-01
        -11   -1    0    0    0    0  0.00000000000E+00  0.00000000000E+00  0.50000000000E+03  0.50000000000E+03  0.00000000000E+00 0.  1.
         11   -1    0    0    0    0 -0.00000000000E+00 -0.00000000000E+00 -0.50000000000E+03  0.50000000000E+03  0.00000000000E+00 0.  1.
        -11    1    1    2    0    0 -0.77194730619E+01 -0.14312079353E+02 -0.81701477946E+01  0.18198274499E+02  0.00000000000E+00 0.  1.
         11    1    1    2    0    0 -0.28706026259E+01  0.10137596709E+02 -0.48656452504E+03  0.48667858824E+03  0.00000000000E+00 0.  1.
        -15    1    1    2    0    0  0.29239388460E+01  0.51087165376E+01  0.40297357154E+03  0.40302047776E+03  0.17770000000E+01 0.  1.
         15    1    1    2    0    0  0.76661368418E+01 -0.93423389389E+00  0.91761101295E+02  0.92102659500E+02  0.17770000000E+01 0. -1.
</event>
<event>
 6    1  0.6394569E-004  0.5005391E+03  0.7546771E-02  0.9398604E-01
        -11   -1    0    0    0    0  0.00000000000E+00  0.00000000000E+00  0.50000000000E+03  0.50000000000E+03  0.00000000000E+00 0.  1.
         11   -1    0    0    0    0 -0.00000000000E+00 -0.00000000000E+00 -0.50000000000E+03  0.50000000000E+03  0.00000000000E+00 0.  1.
        -11    1    1    2    0    0 -0.11783829794E+02  0.10790180572E+02  0.49920528687E+03  0.49946091446E+03  0.00000000000E+00 0.  1.
         11    1    1    2    0    0  0.17359642849E+02 -0.17673957907E+02 -0.37972344866E+03  0.38053071288E+03  0.00000000000E+00 0.  1.
        -15    1    1    2    0    0 -0.31953649272E+01  0.37592215392E+01 -0.32552135197E+02  0.32971826435E+02  0.17770000000E+01 0. -1.
         15    1    1    2    0    0 -0.23804481282E+01  0.31245557962E+01 -0.86929703013E+02  0.87036546216E+02  0.17770000000E+01 0.  1.
</event>
<event>
 6    1  0.6394569E-004  0.5017963E+03  0.7546771E-02  0.9395799E-01
        -11   -1    0    0    0    0  0.00000000000E+00  0.00000000000E+00  0.50000000000E+03  0.50000000000E+03  0.00000000000E+00 0.  1.
         11   -1    0    0    0    0 -0.00000000000E+00 -0.00000000000E+00 -0.50000000000E+03  0.50000000000E+03  0.00000000000E+00 0. -1.
        -11    1    1    2    0    0  0.57002314990E+01 -0.19903187712E+02  0.22231296721E+03  0.22327490882E+03  0.00000000000E+00 0.  1.
         11    1    1    2    0    0  0.70998579297E+01 -0.40509009360E+01 -0.49813661936E+03  0.49820368257E+03  0.00000000000E+00 0. -1.
        -15    1    1    2    0    0 -0.26426761691E+01  0.20635816600E+02  0.24425707756E+03  0.24514791113E+03  0.17770000000E+01 0.  1.
         15    1    1    2    0    0 -0.10157413260E+02  0.33182720482E+01  0.31566574595E+02  0.33373497482E+02  0.17770000000E+01 0. -1.
</event>
<event>
 6    1  0.6394569E-004  0.5024788E+03  0.7546771E-02  0.9394280E-01
        -11   -1    0    0    0    0  0.00000000000E+00  0.00000000000E+00  0.50000000000E+03  0.50000000000E+03  0.00000000000E+00 0. -1.
         11   -1    0    0    0    0 -0.00000000000E+00 -0.00000000000E+00 -0.50000000000E+03  0.50000000000E+03  0.00000000000E+00 0.  1.
        -11    1    1    2    0    0  0.37503291776E+01  0.22705223651E+02  0.49698865526E+03  0.49752117102E+03  0.00000000000E+00 0. -1.
         11    1    1    2    0    0  0.84686958370E+01  0.24229593979E+01 -0.41624739541E+03  0.41634058621E+03  0.00000000000E+00 0.  1.
        -15    1    1    2    0    0 -0.23581735512E+01 -0.45652726312E+01 -0.66133898000E+01  0.85613871739E+01  0.17770000000E+01 0. -1.
         15    1    1    2    0    0 -0.98608514635E+01 -0.20562910418E+02 -0.74127870058E+02  0.77576855600E+02  0.17770000000E+01 0.  1.
</event>
<event>
 6    1  0.6394569E-004  0.5051594E+03  0.7546771E-02  0.9388339E-01
        -11   -1    0    0    0    0  0.00000000000E+00  0.00000000000E+00  0.50000000000E+03  0.50000000000E+03  0.00000000000E+00 0.  1.
         11   -1    0    0    0    0 -0.00000000000E+00 -0.00000000000E+00 -0.50000000000E+03  0.50000000000E+03  0.00000000000E+00 0.  1.
        -11    1    1    2    0    0  0.28788423741E+02 -0.92645857912E+01  0.49391554870E+03  0.49484055527E+03  0.00000000000E+00 0.  1.
         11    1    1    2    0    0  0.11696482017E+02  0.33414320139E+02 -0.35573327728E+03  0.35749054400E+03  0.00000000000E+00 0.  1.
        -15    1    1    2    0    0 -0.19229398111E+02 -0.14177796449E+02 -0.99841096182E+02  0.10267512785E+03  0.17770000000E+01 0. -1.
         15    1    1    2    0    0 -0.21255507647E+02 -0.99719378982E+01 -0.38341175232E+02  0.44993772880E+02  0.17770000000E+01 0.  1.
</event>
<event>
 6    1  0.6394569E-004  0.5001519E+03  0.7546771E-02  0.9399470E-01
        -11   -1    0    0    0    0  0.00000000000E+00  0.00000000000E+00  0.50000000000E+03  0.50000000000E+03  0.00000000000E+00 0.  1.
         11   -1    0    0    0    0 -0.00000000000E+00 -0.00000000000E+00 -0.50000000000E+03  0.50000000000E+03  0.00000000000E+00 0.  1.
        -11    1    1    2    0    0 -0.88526717373E+00  0.11968514978E+02  0.49970397480E+03  0.49984806839E+03  0.00000000000E+00 0.  1.
         11    1    1    2    0    0  0.37380346263E+01  0.13160905568E+01 -0.20345161069E+03  0.20349020342E+03  0.00000000000E+00 0.  1.
        -15    1    1    2    0    0 -0.20801347547E+01 -0.11981215329E+02 -0.19764542000E+03  0.19802713515E+03  0.17770000000E+01 0.  1.
         15    1    1    2    0    0 -0.77263269787E+00 -0.13033902057E+01 -0.98606944110E+02  0.98634593034E+02  0.17770000000E+01 0. -1.
</event>
<event>
 6    1  0.6394569E-004  0.5013482E+03  0.7546771E-02  0.9396798E-01
        -11   -1    0    0    0    0  0.00000000000E+00  0.00000000000E+00  0.50000000000E+03  0.50000000000E+03  0.00000000000E+00 0.  1.
         11   -1    0    0    0    0 -0.00000000000E+00 -0.00000000000E+00 -0.50000000000E+03  0.50000000000E+03  0.00000000000E+00 0. -1.
        -11    1    1    2    0    0  0.16273104398E+02  0.23715336795E+00  0.37890248175E+03  0.37925184356E+03  0.00000000000E+00 0.  1.
         11    1    1    2    0    0  0.57518406284E+01  0.47178589150E+01 -0.49859627959E+03  0.49865177418E+03  0.00000000000E+00 0. -1.
        -15    1    1    2    0    0 -0.13561182915E+02 -0.11520714434E+01  0.53538442280E+02  0.55269842422E+02  0.17770000000E+01 0. -1.
         15    1    1    2    0    0 -0.84637621116E+01 -0.38029408396E+01  0.66155355567E+02  0.66826539842E+02  0.17770000000E+01 0.  1.
</event>
<event>
 6    1  0.6394569E-004  0.5006727E+03  0.7546771E-02  0.9398306E-01
        -11   -1    0    0    0    0  0.00000000000E+00  0.00000000000E+00  0.50000000000E+03  0.50000000000E+03  0.00000000000E+00 0.  1.
         11   -1    0    0    0    0 -0.00000000000E+00 -0.00000000000E+00 -0.50000000000E+03  0.50000000000E+03  0.00000000000E+00 0. -1.
        -11    1    1    2    0    0 -0.86855256033E+01 -0.40394182025E+01  0.49923543646E+03  0.49932732378E+03  0.00000000000E+00 0.  1.
         11    1    1    2    0    0 -0.10305972129E+01  0.61933174254E+01 -0.43961920657E+03  0.43966403776E+03  0.00000000000E+00 0. -1.
        -15    1    1    2    0    0  0.12281820361E+01 -0.35222140295E+01 -0.21628341562E+02  0.22019475709E+02  0.17770000000E+01 0. -1.
         15    1    1    2    0    0  0.84879407801E+01  0.13683148066E+01 -0.37987888323E+02  0.38989162755E+02  0.17770000000E+01 0. -1.
</event>
<event>
 6    1  0.6394569E-004  0.5004935E+03  0.7546771E-02  0.9398706E-01
        -11   -1    0    0    0    0  0.00000000000E+00  0.00000000000E+00  0.50000000000E+03  0.50000000000E+03  0.00000000000E+00 0.  1.
         11   -1    0    0    0    0 -0.00000000000E+00 -0.00000000000E+00 -0.50000000000E+03  0.50000000000E+03  0.00000000000E+00 0. -1.
        -11    1    1    2    0    0 -0.10567804354E+01 -0.63309504513E+01  0.19236398013E+02  0.20278972534E+02  0.00000000000E+00 0.  1.
         11    1    1    2    0    0  0.16673158682E+02  0.11355617150E+02 -0.49909901823E+03  0.49950653075E+03  0.00000000000E+00 0. -1.
        -15    1    1    2    0    0 -0.90893036089E+01  0.35966059079E+00  0.30153641310E+03  0.30167882085E+03  0.17770000000E+01 0.  1.
         15    1    1    2    0    0 -0.65270746378E+01 -0.53843272897E+01  0.17832620712E+03  0.17853567587E+03  0.17770000000E+01 0. -1.
</event>
<event>
 6    1  0.6394569E-004  0.5009592E+03  0.7546771E-02  0.9397666E-01
        -11   -1    0    0    0    0  0.00000000000E+00  0.00000000000E+00  0.50000000000E+03  0.50000000000E+03  0.00000000000E+00 0. -1.
         11   -1    0    0    0    0 -0.00000000000E+00 -0.00000000000E+00 -0.50000000000E+03  0.50000000000E+03  0.00000000000E+00 0.  1.
        -11    1    1    2    0    0  0.40842187854E+01  0.48372351880E+01  0.46736441790E+03  0.46740729434E+03  0.00000000000E+00 0. -1.
         11    1    1    2    0    0  0.38982865862E+01 -0.57069849457E+01 -0.49899297576E+03  0.49904083618E+03  0.00000000000E+00 0.  1.
        -15    1    1    2    0    0 -0.47979772326E+01 -0.21079821995E+01  0.23641240326E+02  0.24280241919E+02  0.17770000000E+01 0. -1.
         15    1    1    2    0    0 -0.31845281390E+01  0.29777319572E+01  0.79873175372E+01  0.92716275549E+01  0.17770000000E+01 0. -1.
</event>
<event>
 6    1  0.6394569E-004  0.5138306E+03  0.7546771E-02  0.9369384E-01
        -11   -1    0    0    0    0  0.00000000000E+00  0.00000000000E+00  0.50000000000E+03  0.50000000000E+03  0.00000000000E+00 0. -1.
         11   -1    0    0    0    0 -0.00000000000E+00 -0.00000000000E+00 -0.50000000000E+03  0.50000000000E+03  0.00000000000E+00 0.  1.
        -11    1    1    2    0    0  0.28910660509E+02 -0.10706359509E+02  0.48519096500E+03  0.48616944057E+03  0.00000000000E+00 0. -1.
         11    1    1    2    0    0 -0.46331311367E+01  0.45963234284E+01 -0.47065520263E+03  0.47070044812E+03  0.00000000000E+00 0.  1.
        -15    1    1    2    0    0  0.64027422261E+01 -0.36495953803E+01 -0.62837969537E+01  0.98467501039E+01  0.17770000000E+01 0. -1.
         15    1    1    2    0    0 -0.30680271598E+02  0.97596314613E+01 -0.82519654128E+01  0.33283361215E+02  0.17770000000E+01 0.  1.
</event>
<event>
 6    1  0.6394569E-004  0.5017421E+03  0.7546771E-02  0.9395920E-01
        -11   -1    0    0    0    0  0.00000000000E+00  0.00000000000E+00  0.50000000000E+03  0.50000000000E+03  0.00000000000E+00 0.  1.
         11   -1    0    0    0    0 -0.00000000000E+00 -0.00000000000E+00 -0.50000000000E+03  0.50000000000E+03  0.00000000000E+00 0. -1.
        -11    1    1    2    0    0  0.10958315970E+02  0.25722257840E+02  0.40179970773E+03  0.40277130529E+03  0.00000000000E+00 0.  1.
         11    1    1    2    0    0  0.10021983725E+01 -0.88963275478E+01 -0.49817750877E+03  0.49825794453E+03  0.00000000000E+00 0. -1.
        -15    1    1    2    0    0 -0.19369701294E+01 -0.36813189083E+01  0.38108246043E+02  0.38375775011E+02  0.17770000000E+01 0. -1.
         15    1    1    2    0    0 -0.10023544213E+02 -0.13144611384E+02  0.58269554998E+02  0.60594975169E+02  0.17770000000E+01 0.  1.
</event>
<event>
 6    1  0.6394569E-004  0.5097441E+03  0.7546771E-02  0.9378267E-01
        -11   -1    0    0    0    0  0.00000000000E+00  0.00000000000E+00  0.50000000000E+03  0.50000000000E+03  0.00000000000E+00 0.  1.
         11   -1    0    0    0    0 -0.00000000000E+00 -0.00000000000E+00 -0.50000000000E+03  0.50000000000E+03  0.00000000000E+00 0. -1.
        -11    1    1    2    0    0 -0.47757851680E+02  0.17420303588E+02  0.71629609189E+02  0.87835529751E+02  0.00000000000E+00 0.  1.
         11    1    1    2    0    0  0.21026996893E+02 -0.84511628127E+01 -0.48973182718E+03  0.49025587126E+03  0.00000000000E+00 0. -1.
        -15    1    1    2    0    0  0.52133387345E+01 -0.47680251542E+01  0.66341799356E+01  0.98530724675E+01  0.17770000000E+01 0. -1.
         15    1    1    2    0    0  0.21517516053E+02 -0.42011156212E+01  0.41146803805E+03  0.41205552652E+03  0.17770000000E+01 0.  1.
</event>
<event>
 6    1  0.6394569E-004  0.5008008E+03  0.7546771E-02  0.9398020E-01
        -11   -1    0    0    0    0  0.00000000000E+00  0.00000000000E+00  0.50000000000E+03  0.50000000000E+03  0.00000000000E+00 0.  1.
         11   -1    0    0    0    0 -0.00000000000E+00 -0.00000000000E+00 -0.50000000000E+03  0.50000000000E+03  0.00000000000E+00 0.  1.
        -11    1    1    2    0    0 -0.78570432419E+01  0.71873085781E+01  0.37761925484E+03  0.37776936371E+03  0.00000000000E+00 0.  1.
         11    1    1    2    0    0 -0.25374119778E+00  0.73639293314E+01 -0.49914479896E+03  0.49919918086E+03  0.00000000000E+00 0.  1.
        -15    1    1    2    0    0  0.37274377801E+01 -0.27886039632E+01  0.16290852467E+02  0.17035835981E+02  0.17770000000E+01 0.  1.
         15    1    1    2    0    0  0.43833466596E+01 -0.11762633946E+02  0.10523469166E+03  0.10599561945E+03  0.17770000000E+01 0. -1.
</event>
<event>
 6    1  0.6394569E-004  0.5029397E+03  0.7546771E-02  0.9393256E-01
        -11   -1    0    0    0    0  0.00000000000E+00  0.00000000000E+00  0.50000000000E+03  0.50000000000E+03  0.00000000000E+00 0. -1.
         11   -1    0    0    0    0 -0.00000000000E+00 -0.00000000000E+00 -0.50000000000E+03  0.50000000000E+03  0.00000000000E+00 0.  1.
        -11    1    1    2    0    0  0.20279275115E+02  0.10781656644E+02  0.45359273879E+03  0.45417382774E+03  0.00000000000E+00 0. -1.
         11    1    1    2    0    0 -0.18815961762E+02 -0.13827453286E+01 -0.49670214916E+03  0.49706033576E+03  0.00000000000E+00 0.  1.
        -15    1    1    2    0    0  0.23503379615E+01 -0.86665766932E+00 -0.13100898700E+01  0.33390490438E+01  0.17770000000E+01 0. -1.
         15    1    1    2    0    0 -0.38136513143E+01 -0.85322536464E+01  0.44419500236E+02  0.45426787459E+02  0.17770000000E+01 0.  1.
</event>
<event>
 6    1  0.6394569E-004  0.5161885E+03  0.7546771E-02  0.9364298E-01
        -11   -1    0    0    0    0  0.00000000000E+00  0.00000000000E+00  0.50000000000E+03  0.50000000000E+03  0.00000000000E+00 0.  1.
         11   -1    0    0    0    0 -0.00000000000E+00 -0.00000000000E+00 -0.50000000000E+03  0.50000000000E+03  0.00000000000E+00 0. -1.
        -11    1    1    2    0    0  0.31682829506E+02 -0.10835135108E+02  0.45945727333E+03  0.46067579474E+03  0.00000000000E+00 0.  1.
         11    1    1    2    0    0 -0.14760630137E+02  0.58608825018E+01 -0.48355080625E+03  0.48381154221E+03  0.00000000000E+00 0. -1.
        -15    1    1    2    0    0 -0.25481363596E+02  0.19229147515E+02  0.21651351424E+02  0.38613452997E+02  0.17770000000E+01 0.  1.
         15    1    1    2    0    0  0.85591642271E+01 -0.14254894909E+02  0.24421814927E+01  0.16899210058E+02  0.17770000000E+01 0. -1.
</event>
<event>
 6    1  0.6394569E-004  0.5000793E+03  0.7546771E-02  0.9399632E-01
        -11   -1    0    0    0    0  0.00000000000E+00  0.00000000000E+00  0.50000000000E+03  0.50000000000E+03  0.00000000000E+00 0. -1.
         11   -1    0    0    0    0 -0.00000000000E+00 -0.00000000000E+00 -0.50000000000E+03  0.50000000000E+03  0.00000000000E+00 0.  1.
        -11    1    1    2    0    0 -0.87055367117E+01 -0.46910507829E+01  0.33979458247E+03  0.33993845120E+03  0.00000000000E+00 0. -1.
         11    1    1    2    0    0  0.58676537042E+01  0.64212447209E+01 -0.49984506238E+03  0.49992074184E+03  0.00000000000E+00 0.  1.
        -15    1    1    2    0    0  0.10242383144E+01 -0.17326184022E+01  0.10114384485E+03  0.10117947475E+03  0.17770000000E+01 0. -1.
         15    1    1    2    0    0  0.18136446931E+01  0.24244642031E-02  0.58906635052E+02  0.58961332202E+02  0.17770000000E+01 0.  1.
</event>
<event>
 6    1  0.6394569E-004  0.5000820E+03  0.7546771E-02  0.9399626E-01
        -11   -1    0    0    0    0  0.00000000000E+00  0.00000000000E+00  0.50000000000E+03  0.50000000000E+03  0.00000000000E+00 0. -1.
         11   -1    0    0    0    0 -0.00000000000E+00 -0.00000000000E+00 -0.50000000000E+03  0.50000000000E+03  0.00000000000E+00 0.  1.
        -11    1    1    2    0    0 -0.95612264486E+00  0.79024027391E+01  0.49985463361E+03  0.49991801015E+03  0.00000000000E+00 0. -1.
         11    1    1    2    0    0  0.67252624519E+00  0.13468579710E+01 -0.70994847780E+02  0.71010807130E+02  0.00000000000E+00 0.  1.
        -15    1    1    2    0    0 -0.16370474825E+01 -0.10350124162E+02 -0.33841239788E+03  0.33857925772E+03  0.17770000000E+01 0.  1.
         15    1    1    2    0    0  0.19206438821E+01  0.11008634521E+01 -0.90447387947E+02  0.90491924992E+02  0.17770000000E+01 0. -1.
</event>
<event>
 6    1  0.6394569E-004  0.4596890E+03  0.7546771E-02  0.9494821E-01
        -11   -1    0    0    0    0  0.00000000000E+00  0.00000000000E+00  0.50000000000E+03  0.50000000000E+03  0.00000000000E+00 0.  1.
         11   -1    0    0    0    0 -0.00000000000E+00 -0.00000000000E+00 -0.50000000000E+03  0.50000000000E+03  0.00000000000E+00 0. -1.
        -11    1    1    2    0    0 -0.55349555896E+02  0.77656847707E+01  0.45989878098E+03  0.46328260052E+03  0.00000000000E+00 0.  1.
         11    1    1    2    0    0 -0.12413291685E+00  0.90882709956E+01 -0.45783374432E+03  0.45792395604E+03  0.00000000000E+00 0. -1.
        -15    1    1    2    0    0  0.17162498462E+02  0.75291843746E+01 -0.22181461363E+02  0.29093211029E+02  0.17770000000E+01 0. -1.
         15    1    1    2    0    0  0.38311190351E+02 -0.24383140141E+02  0.20116424699E+02  0.49700232403E+02  0.17770000000E+01 0.  1.
</event>
<event>
 6    1  0.6394569E-004  0.4918373E+03  0.7546771E-02  0.9418262E-01
        -11   -1    0    0    0    0  0.00000000000E+00  0.00000000000E+00  0.50000000000E+03  0.50000000000E+03  0.00000000000E+00 0. -1.
         11   -1    0    0    0    0 -0.00000000000E+00 -0.00000000000E+00 -0.50000000000E+03  0.50000000000E+03  0.00000000000E+00 0.  1.
        -11    1    1    2    0    0 -0.51999818470E+01 -0.84072197092E+01  0.48886605142E+03  0.48896598796E+03  0.00000000000E+00 0. -1.
         11    1    1    2    0    0  0.69332372891E+01 -0.30313929462E+01 -0.49473631119E+03  0.49479417613E+03  0.00000000000E+00 0.  1.
        -15    1    1    2    0    0 -0.38348687953E+01  0.12041893089E+01  0.70807384496E+00  0.44514478700E+01  0.17770000000E+01 0. -1.
         15    1    1    2    0    0  0.21016133532E+01  0.10234423346E+02  0.51621859276E+01  0.11788388035E+02  0.17770000000E+01 0.  1.
</event>
<event>
 6    1  0.6394569E-004  0.5022147E+03  0.7546771E-02  0.9394868E-01
        -11   -1    0    0    0    0  0.00000000000E+00  0.00000000000E+00  0.50000000000E+03  0.50000000000E+03  0.00000000000E+00 0. -1.
         11   -1    0    0    0    0 -0.00000000000E+00 -0.00000000000E+00 -0.50000000000E+03  0.50000000000E+03  0.00000000000E+00 0. -1.
        -11    1    1    2    0    0  0.40887772187E+01 -0.61260663767E+01  0.49773078731E+03  0.49778527843E+03  0.00000000000E+00 0. -1.
         11    1    1    2    0    0 -0.80789779231E+01 -0.99041777818E+00 -0.48573959545E+03  0.48580778648E+03  0.00000000000E+00 0. -1.
        -15    1    1    2    0    0  0.16476453026E+01 -0.59465342409E+00 -0.50120714357E+01  0.55988335227E+01  0.17770000000E+01 0. -1.
         15    1    1    2    0    0  0.23425554018E+01  0.77111375789E+01 -0.69791204232E+01  0.10808101566E+02  0.17770000000E+01 0.  1.
</event>
<event>
 6    1  0.6394569E-004  0.5006336E+03  0.7546771E-02  0.9398393E-01
        -11   -1    0    0    0    0  0.00000000000E+00  0.00000000000E+00  0.50000000000E+03  0.50000000000E+03  0.00000000000E+00 0. -1.
         11   -1    0    0    0    0 -0.00000000000E+00 -0.00000000000E+00 -0.50000000000E+03  0.50000000000E+03  0.00000000000E+00 0.  1.
        -11    1    1    2    0    0 -0.21292487138E+02  0.31993197752E+01  0.49890196756E+03  0.49936637741E+03  0.00000000000E+00 0. -1.
         11    1    1    2    0    0  0.69439153041E+01 -0.94634433617E+00 -0.33459527713E+03  0.33466866152E+03  0.00000000000E+00 0.  1.
        -15    1    1    2    0    0  0.30686443174E+01 -0.22625338558E+01 -0.64788104999E+01  0.77245292342E+01  0.17770000000E+01 0.  1.
         15    1    1    2    0    0  0.11279927516E+02  0.95584167251E-02 -0.15782787993E+03  0.15824043183E+03  0.17770000000E+01 0.  1.
</event>
<event>
 6    1  0.6394569E-004  0.5055852E+03  0.7546771E-02  0.9387398E-01
        -11   -1    0    0    0    0  0.00000000000E+00  0.00000000000E+00  0.50000000000E+03  0.50000000000E+03  0.00000000000E+00 0.  1.
         11   -1    0    0    0    0 -0.00000000000E+00 -0.00000000000E+00 -0.50000000000E+03  0.50000000000E+03  0.00000000000E+00 0. -1.
        -11    1    1    2    0    0  0.16945014613E+01 -0.12032834734E+02  0.49426545444E+03  0.49441480550E+03  0.00000000000E+00 0.  1.
         11    1    1    2    0    0  0.10145067868E+02 -0.43764864108E+00 -0.48150797849E+03  0.48161504055E+03  0.00000000000E+00 0. -1.
        -15    1    1    2    0    0 -0.23936250433E+01 -0.21736989687E+00 -0.59490213911E+01  0.66577229614E+01  0.17770000000E+01 0.  1.
         15    1    1    2    0    0 -0.94459442864E+01  0.12687853272E+02 -0.68084545632E+01  0.17312430986E+02  0.17770000000E+01 0. -1.
</event>
<event>
 6    1  0.6394569E-004  0.5024530E+03  0.7546771E-02  0.9394338E-01
        -11   -1    0    0    0    0  0.00000000000E+00  0.00000000000E+00  0.50000000000E+03  0.50000000000E+03  0.00000000000E+00 0. -1.
         11   -1    0    0    0    0 -0.00000000000E+00 -0.00000000000E+00 -0.50000000000E+03  0.50000000000E+03  0.00000000000E+00 0. -1.
        -11    1    1    2    0    0  0.22547250756E+02 -0.60528702079E+01  0.76673836497E+02  0.80149191871E+02  0.00000000000E+00 0. -1.
         11    1    1    2    0    0 -0.10740635033E+02 -0.11805301794E+02 -0.49729093980E+03  0.49754698793E+03  0.00000000000E+00 0. -1.
        -15    1    1    2    0    0  0.88664417975E+01 -0.13497372722E+01  0.81954004584E+02  0.82462428883E+02  0.17770000000E+01 0.  1.
         15    1    1    2    0    0 -0.20673057521E+02  0.19207909274E+02  0.33866309872E+03  0.33984139131E+03  0.17770000000E+01 0. -1.
</event>
<event>
 6    1  0.6394569E-004  0.4946545E+03  0.7546771E-02  0.9411851E-01
        -11   -1    0    0    0    0  0.00000000000E+00  0.00000000000E+00  0.50000000000E+03  0.50000000000E+03  0.00000000000E+00 0.  1.
         11   -1    0    0    0    0 -0.00000000000E+00 -0.00000000000E+00 -0.50000000000E+03  0.50000000000E+03  0.00000000000E+00 0.  1.
        -11    1    1    2    0    0  0.75146069032E+01  0.63263903645E+01 -0.59149463689E+01  0.11466434603E+02  0.00000000000E+00 0.  1.
         11    1    1    2    0    0 -0.58596980981E+01 -0.73188856887E+01 -0.49084421852E+03  0.49093375215E+03  0.00000000000E+00 0.  1.
        -15    1    1    2    0    0  0.12316967242E+02 -0.39922521520E+01  0.17126074441E+03  0.17175868556E+03  0.17770000000E+01 0. -1.
         15    1    1    2    0    0 -0.13971876048E+02  0.49847474762E+01  0.32549842048E+03  0.32584112768E+03  0.17770000000E+01 0.  1.
</event>
<event>
 6    1  0.6394569E-004  0.5005954E+03  0.7546771E-02  0.9398478E-01
        -11   -1    0    0    0    0  0.00000000000E+00  0.00000000000E+00  0.50000000000E+03  0.50000000000E+03  0.00000000000E+00 0. -1.
         11   -1    0    0    0    0 -0.00000000000E+00 -0.00000000000E+00 -0.50000000000E+03  0.50000000000E+03  0.00000000000E+00 0.  1.
        -11    1    1    2    0    0  0.25562848093E+02  0.97471639193E+01  0.49865467622E+03  0.49940459802E+03  0.00000000000E+00 0. -1.
         11    1    1    2    0    0  0.16428277686E+01  0.52158988208E-01 -0.75967259174E+02  0.75985038462E+02  0.00000000000E+00 0.  1.
        -15    1    1    2    0    0  0.86372309894E+00 -0.37529966197E+01 -0.20336910928E+03  0.20341333128E+03  0.17770000000E+01 0.  1.
         15    1    1    2    0    0 -0.28069398960E+02 -0.60463262877E+01 -0.21931830777E+03  0.22119703224E+03  0.17770000000E+01 0. -1.
</event>
<event>
 6    1  0.6394569E-004  0.5004500E+03  0.7546771E-02  0.9398803E-01
        -11   -1    0    0    0    0  0.00000000000E+00  0.00000000000E+00  0.50000000000E+03  0.50000000000E+03  0.00000000000E+00 0.  1.
         11   -1    0    0    0    0 -0.00000000000E+00 -0.00000000000E+00 -0.50000000000E+03  0.50000000000E+03  0.00000000000E+00 0. -1.
        -11    1    1    2    0    0  0.11720793939E+02  0.28210216376E+02  0.40460301236E+03  0.40575459446E+03  0.00000000000E+00 0.  1.
         11    1    1    2    0    0 -0.12144761864E+02 -0.24867782818E+02 -0.49878277649E+03  0.49954995745E+03  0.00000000000E+00 0. -1.
        -15    1    1    2    0    0  0.40907101061E+01 -0.19938426134E+01  0.67105076954E+02  0.67282675330E+02  0.17770000000E+01 0.  1.
         15    1    1    2    0    0 -0.36667421808E+01 -0.13485909444E+01  0.27074687175E+02  0.27412772760E+02  0.17770000000E+01 0. -1.
</event>
<event>
 6    1  0.6394569E-004  0.5028547E+03  0.7546771E-02  0.9393445E-01
        -11   -1    0    0    0    0  0.00000000000E+00  0.00000000000E+00  0.50000000000E+03  0.50000000000E+03  0.00000000000E+00 0.  1.
         11   -1    0    0    0    0 -0.00000000000E+00 -0.00000000000E+00 -0.50000000000E+03  0.50000000000E+03  0.00000000000E+00 0.  1.
        -11    1    1    2    0    0  0.14855257668E+02 -0.44658660790E+01  0.44112116222E+03  0.44139381781E+03  0.00000000000E+00 0.  1.
         11    1    1    2    0    0 -0.57673730118E+01 -0.62648383361E+01 -0.49707232132E+03  0.49714525384E+03  0.00000000000E+00 0.  1.
        -15    1    1    2    0    0 -0.54273815738E+01  0.15377198239E+02  0.50913368113E+02  0.53490592426E+02  0.17770000000E+01 0.  1.
         15    1    1    2    0    0 -0.36605030824E+01 -0.46464938243E+01  0.50377909910E+01  0.79703359242E+01  0.17770000000E+01 0. -1.
</event>
<event>
 6    1  0.6394569E-004  0.5155452E+03  0.7546771E-02  0.9365683E-01
        -11   -1    0    0    0    0  0.00000000000E+00  0.00000000000E+00  0.50000000000E+03  0.50000000000E+03  0.00000000000E+00 0. -1.
         11   -1    0    0    0    0 -0.00000000000E+00 -0.00000000000E+00 -0.50000000000E+03  0.50000000000E+03  0.00000000000E+00 0.  1.
        -11    1    1    2    0    0 -0.55049390015E+02  0.33279373485E+02  0.48016511665E+03  0.48445483926E+03  0.00000000000E+00 0. -1.
         11    1    1    2    0    0 -0.72344680050E+01  0.64030800298E+01 -0.40565430188E+03  0.40576933053E+03  0.00000000000E+00 0.  1.
        -15    1    1    2    0    0  0.88361779102E+01 -0.25388644768E+00 -0.25973429079E+02  0.27493985624E+02  0.17770000000E+01 0.  1.
         15    1    1    2    0    0  0.53447680110E+02 -0.39428567068E+02 -0.48537385688E+02  0.82281844587E+02  0.17770000000E+01 0. -1.
</event>
<event>
 6    1  0.6394569E-004  0.5021680E+03  0.7546771E-02  0.9394972E-01
        -11   -1    0    0    0    0  0.00000000000E+00  0.00000000000E+00  0.50000000000E+03  0.50000000000E+03  0.00000000000E+00 0.  1.
         11   -1    0    0    0    0 -0.00000000000E+00 -0.00000000000E+00 -0.50000000000E+03  0.50000000000E+03  0.00000000000E+00 0. -1.
        -11    1    1    2    0    0  0.12507822112E+02  0.11713319330E+02  0.45464937805E+03  0.45497220182E+03  0.00000000000E+00 0.  1.
         11    1    1    2    0    0  0.36337457689E+01 -0.57390130772E+01 -0.49778564849E+03  0.49783199197E+03  0.00000000000E+00 0. -1.
        -15    1    1    2    0    0 -0.71966676550E+01 -0.14745371435E+01  0.27686045848E+02  0.28699148921E+02  0.17770000000E+01 0.  1.
         15    1    1    2    0    0 -0.89449002255E+01 -0.44997691095E+01  0.15450224592E+02  0.18496657293E+02  0.17770000000E+01 0. -1.
</event>
<event>
 6    1  0.6394569E-004  0.5012956E+03  0.7546771E-02  0.9396915E-01
        -11   -1    0    0    0    0  0.00000000000E+00  0.00000000000E+00  0.50000000000E+03  0.50000000000E+03  0.00000000000E+00 0. -1.
         11   -1    0    0    0    0 -0.00000000000E+00 -0.00000000000E+00 -0.50000000000E+03  0.50000000000E+03  0.00000000000E+00 0. -1.
        -11    1    1    2    0    0 -0.78717277789E+01 -0.40985343208E+00  0.49864213604E+03  0.49870443342E+03  0.00000000000E+00 0. -1.
         11    1    1    2    0    0  0.19956551817E+01 -0.80678440054E+01 -0.45593365629E+03  0.45600939868E+03  0.00000000000E+00 0. -1.
        -15    1    1    2    0    0  0.51457858250E+01  0.12608983753E+01 -0.78448620706E+01  0.96316440121E+01  0.17770000000E+01 0.  1.
         15    1    1    2    0    0  0.73028677228E+00  0.72167990622E+01 -0.34863617675E+02  0.35654523890E+02  0.17770000000E+01 0. -1.
</event>
<event>
 6    1  0.6394569E-004  0.5090859E+03  0.7546771E-02  0.9379706E-01
        -11   -1    0    0    0    0  0.00000000000E+00  0.00000000000E+00  0.50000000000E+03  0.50000000000E+03  0.00000000000E+00 0.  1.
         11   -1    0    0    0    0 -0.00000000000E+00 -0.00000000000E+00 -0.50000000000E+03  0.50000000000E+03  0.00000000000E+00 0. -1.
        -11    1    1    2    0    0  0.12311234761E+02 -0.32541933834E+02  0.48967960249E+03  0.49091410354E+03  0.00000000000E+00 0.  1.
         11    1    1    2    0    0 -0.22582664353E+01 -0.80159439128E+01 -0.42884954885E+03  0.42893040306E+03  0.00000000000E+00 0. -1.
        -15    1    1    2    0    0 -0.15291818567E+02  0.51055482092E+01 -0.21243861876E+02  0.26727621182E+02  0.17770000000E+01 0.  1.
         15    1    1    2    0    0  0.52388502413E+01  0.35452329538E+02 -0.39586191770E+02  0.53427872214E+02  0.17770000000E+01 0. -1.
</event>
<event>
 6    1  0.6394569E-004  0.5020035E+03  0.7546771E-02  0.9395338E-01
        -11   -1    0    0    0    0  0.00000000000E+00  0.00000000000E+00  0.50000000000E+03  0.50000000000E+03  0.00000000000E+00 0. -1.
         11   -1    0    0    0    0 -0.00000000000E+00 -0.00000000000E+00 -0.50000000000E+03  0.50000000000E+03  0.00000000000E+00 0. -1.
        -11    1    1    2    0    0 -0.38434948668E-01 -0.91779252470E+01  0.49791188013E+03  0.49799646200E+03  0.00000000000E+00 0. -1.
         11    1    1    2    0    0 -0.12138476908E+01 -0.66578371650E+01 -0.43809590152E+03  0.43814817032E+03  0.00000000000E+00 0. -1.
        -15    1    1    2    0    0  0.15603545361E+01  0.10260730348E+02 -0.55719982880E+02  0.56706185859E+02  0.17770000000E+01 0. -1.
         15    1    1    2    0    0 -0.30807189667E+00  0.55750320643E+01 -0.40959957280E+01  0.71491818284E+01  0.17770000000E+01 0.  1.
</event>
<event>
 6    1  0.6394569E-004  0.5013679E+03  0.7546771E-02  0.9396754E-01
        -11   -1    0    0    0    0  0.00000000000E+00  0.00000000000E+00  0.50000000000E+03  0.50000000000E+03  0.00000000000E+00 0. -1.
         11   -1    0    0    0    0 -0.00000000000E+00 -0.00000000000E+00 -0.50000000000E+03  0.50000000000E+03  0.00000000000E+00 0.  1.
        -11    1    1    2    0    0  0.37159635607E+01  0.13913813986E+02  0.46016316201E+03  0.46038846453E+03  0.00000000000E+00 0. -1.
         11    1    1    2    0    0  0.83145373713E+01 -0.18336680614E+02 -0.49822546934E+03  0.49863211257E+03  0.00000000000E+00 0.  1.
        -15    1    1    2    0    0 -0.11165179739E+02  0.46112823547E+01  0.36389182728E+02  0.38383010723E+02  0.17770000000E+01 0. -1.
         15    1    1    2    0    0 -0.86532119301E+00 -0.18841572687E+00  0.16731245995E+01  0.25964121743E+01  0.17770000000E+01 0.  1.
</event>
<event>
 6    1  0.6394569E-004  0.5006384E+03  0.7546771E-02  0.9398382E-01
        -11   -1    0    0    0    0  0.00000000000E+00  0.00000000000E+00  0.50000000000E+03  0.50000000000E+03  0.00000000000E+00 0.  1.
         11   -1    0    0    0    0 -0.00000000000E+00 -0.00000000000E+00 -0.50000000000E+03  0.50000000000E+03  0.00000000000E+00 0. -1.
        -11    1    1    2    0    0  0.65335467453E+00  0.87215794657E+01  0.49928498941E+03  0.49936158590E+03  0.00000000000E+00 0.  1.
         11    1    1    2    0    0  0.74781953798E+01  0.17462177495E+01 -0.35154647143E+03  0.35163033751E+03  0.00000000000E+00 0. -1.
        -15    1    1    2    0    0 -0.69766744941E+01  0.11725219593E+01 -0.69194882459E+02  0.69578288871E+02  0.17770000000E+01 0. -1.
         15    1    1    2    0    0 -0.11548755603E+01 -0.11640319174E+02 -0.78543635522E+02  0.79429787725E+02  0.17770000000E+01 0.  1.
</event>
<event>
 6    1  0.6394569E-004  0.4499782E+03  0.7546771E-02  0.9519266E-01
        -11   -1    0    0    0    0  0.00000000000E+00  0.00000000000E+00  0.50000000000E+03  0.50000000000E+03  0.00000000000E+00 0.  1.
         11   -1    0    0    0    0 -0.00000000000E+00 -0.00000000000E+00 -0.50000000000E+03  0.50000000000E+03  0.00000000000E+00 0. -1.
        -11    1    1    2    0    0 -0.55831235947E+02 -0.27382937177E+02  0.44622633298E+03  0.45053844720E+03  0.00000000000E+00 0.  1.
         11    1    1    2    0    0  0.10088254123E+01 -0.43521098398E+02 -0.45179445372E+03  0.45388691560E+03  0.00000000000E+00 0. -1.
        -15    1    1    2    0    0  0.46589629919E+02  0.34397695359E+02  0.27854840423E+01  0.58006135127E+02  0.17770000000E+01 0.  1.
         15    1    1    2    0    0  0.82327806161E+01  0.36506340215E+02  0.27826366978E+01  0.37568502080E+02  0.17770000000E+01 0. -1.
</event>
<event>
 6    1  0.6394569E-004  0.5000612E+03  0.7546771E-02  0.9399673E-01
        -11   -1    0    0    0    0  0.00000000000E+00  0.00000000000E+00  0.50000000000E+03  0.50000000000E+03  0.00000000000E+00 0.  1.
         11   -1    0    0    0    0 -0.00000000000E+00 -0.00000000000E+00 -0.50000000000E+03  0.50000000000E+03  0.00000000000E+00 0. -1.
        -11    1    1    2    0    0 -0.57031956392E+01  0.31541806280E+00  0.17561943934E+03  0.17571230293E+03  0.00000000000E+00 0.  1.
         11    1    1    2    0    0  0.52415761631E+01 -0.44558914691E+01 -0.49989149428E+03  0.49993883140E+03  0.00000000000E+00 0. -1.
        -15    1    1    2    0    0 -0.18567700596E+00  0.44461069918E+01  0.27103329724E+03  0.27107565049E+03  0.17770000000E+01 0.  1.
         15    1    1    2    0    0  0.64729648213E+00 -0.30563358547E+00  0.53238757702E+02  0.53273215176E+02  0.17770000000E+01 0. -1.
</event>
<event>
 6    1  0.6394569E-004  0.5197079E+03  0.7546771E-02  0.9356760E-01
        -11   -1    0    0    0    0  0.00000000000E+00  0.00000000000E+00  0.50000000000E+03  0.50000000000E+03  0.00000000000E+00 0. -1.
         11   -1    0    0    0    0 -0.00000000000E+00 -0.00000000000E+00 -0.50000000000E+03  0.50000000000E+03  0.00000000000E+00 0. -1.
        -11    1    1    2    0    0 -0.39509178812E+02  0.25675159368E+02  0.45163057446E+03  0.45408189218E+03  0.00000000000E+00 0. -1.
         11    1    1    2    0    0  0.44707342068E+02  0.58543951695E+01 -0.47817097036E+03  0.48029209579E+03  0.00000000000E+00 0. -1.
        -15    1    1    2    0    0  0.14616011431E+02 -0.35983889339E+02  0.22239954452E+02  0.44791086001E+02  0.17770000000E+01 0.  1.
         15    1    1    2    0    0 -0.19814174687E+02  0.44543348012E+01  0.43004414503E+01  0.20834926031E+02  0.17770000000E+01 0. -1.
</event>
<event>
 6    1  0.6394569E-004  0.5006077E+03  0.7546771E-02  0.9398451E-01
        -11   -1    0    0    0    0  0.00000000000E+00  0.00000000000E+00  0.50000000000E+03  0.50000000000E+03  0.00000000000E+00 0. -1.
         11   -1    0    0    0    0 -0.00000000000E+00 -0.00000000000E+00 -0.50000000000E+03  0.50000000000E+03  0.00000000000E+00 0. -1.
        -11    1    1    2    0    0  0.63962783151E+01 -0.72157934756E+01  0.49929923178E+03  0.49939233365E+03  0.00000000000E+00 0. -1.
         11    1    1    2    0    0  0.61871216054E+01  0.32645643043E+00 -0.40108185764E+03  0.40112970917E+03  0.00000000000E+00 0. -1.
        -15    1    1    2    0    0 -0.73007707358E+01  0.16229368095E+01 -0.37620897980E+02  0.38398240468E+02  0.17770000000E+01 0.  1.
         15    1    1    2    0    0 -0.52826291846E+01  0.52664002357E+01 -0.60596476156E+02  0.61079716715E+02  0.17770000000E+01 0. -1.
</event>
<event>
 6    1  0.6394569E-004  0.5068106E+03  0.7546771E-02  0.9384698E-01
        -11   -1    0    0    0    0  0.00000000000E+00  0.00000000000E+00  0.50000000000E+03  0.50000000000E+03  0.00000000000E+00 0.  1.
         11   -1    0    0    0    0 -0.00000000000E+00 -0.00000000000E+00 -0.50000000000E+03  0.50000000000E+03  0.00000000000E+00 0. -1.
        -11    1    1    2    0    0 -0.10662553922E+02  0.19313165977E+02  0.46359616297E+03  0.46412077173E+03  0.00000000000E+00 0.  1.
         11    1    1    2    0    0 -0.16047951263E+02 -0.91119810037E+01 -0.49284406010E+03  0.49318944890E+03  0.00000000000E+00 0. -1.
        -15    1    1    2    0    0  0.18761459371E+02 -0.40768367598E+01  0.25186292829E+02  0.31719395189E+02  0.17770000000E+01 0.  1.
         15    1    1    2    0    0  0.79490458138E+01 -0.61243482138E+01  0.40616042994E+01  0.10970384172E+02  0.17770000000E+01 0. -1.
</event>
<event>
 6    1  0.6394569E-004  0.5041548E+03  0.7546771E-02  0.9390561E-01
        -11   -1    0    0    0    0  0.00000000000E+00  0.00000000000E+00  0.50000000000E+03  0.50000000000E+03  0.00000000000E+00 0.  1.
         11   -1    0    0    0    0 -0.00000000000E+00 -0.00000000000E+00 -0.50000000000E+03  0.50000000000E+03  0.00000000000E+00 0.  1.
        -11    1    1    2    0    0 -0.23393724744E+02 -0.25922568770E+02  0.23676670853E+03  0.23932764194E+03  0.00000000000E+00 0.  1.
         11    1    1    2    0    0  0.30082013211E+02  0.29208728555E+01 -0.49492320773E+03  0.49584517802E+03  0.00000000000E+00 0.  1.
        -15    1    1    2    0    0 -0.25224654752E+02  0.17107602626E+02  0.21848861670E+03  0.22061139280E+03  0.17770000000E+01 0.  1.
         15    1    1    2    0    0  0.18536366284E+02  0.58940932877E+01  0.39667882495E+02  0.44215787241E+02  0.17770000000E+01 0. -1.
</event>
<event>
 6    1  0.6394569E-004  0.5015033E+03  0.7546771E-02  0.9396452E-01
        -11   -1    0    0    0    0  0.00000000000E+00  0.00000000000E+00  0.50000000000E+03  0.50000000000E+03  0.00000000000E+00 0. -1.
         11   -1    0    0    0    0 -0.00000000000E+00 -0.00000000000E+00 -0.50000000000E+03  0.50000000000E+03  0.00000000000E+00 0. -1.
        -11    1    1    2    0    0 -0.44303810315E+01  0.25513134223E+02  0.43375743483E+03  0.43452970044E+03  0.00000000000E+00 0. -1.
         11    1    1    2    0    0 -0.91833878599E+01 -0.17600295877E+02 -0.49810127702E+03  0.49849672737E+03  0.00000000000E+00 0. -1.
        -15    1    1    2    0    0  0.87082194145E+01 -0.22279960264E+00  0.38395795434E+02  0.39411642456E+02  0.17770000000E+01 0. -1.
         15    1    1    2    0    0  0.49055494769E+01 -0.76900387430E+01  0.25948046755E+02  0.27561929739E+02  0.17770000000E+01 0.  1.
</event>
<event>
 6    1  0.6394569E-004  0.5036049E+03  0.7546771E-02  0.9391779E-01
        -11   -1    0    0    0    0  0.00000000000E+00  0.00000000000E+00  0.50000000000E+03  0.50000000000E+03  0.00000000000E+00 0. -1.
         11   -1    0    0    0    0 -0.00000000000E+00 -0.00000000000E+00 -0.50000000000E+03  0.50000000000E+03  0.00000000000E+00 0.  1.
        -11    1    1    2    0    0 -0.13760494301E+02 -0.42442774969E+01  0.49618615936E+03  0.49639507434E+03  0.00000000000E+00 0. -1.
         11    1    1    2    0    0  0.41983627727E+01  0.59068082663E+01 -0.48632962828E+03  0.48638361812E+03  0.00000000000E+00 0.  1.
        -15    1    1    2    0    0  0.94866824198E+01  0.97457927849E+00 -0.38739322334E+01  0.10445670302E+02  0.17770000000E+01 0.  1.
         15    1    1    2    0    0  0.75449108445E-01 -0.26371100480E+01 -0.59825988456E+01  0.67756372335E+01  0.17770000000E+01 0. -1.
</event>
<event>
 6    1  0.6394569E-004  0.4843376E+03  0.7546771E-02  0.9435554E-01
        -11   -1    0    0    0    0  0.00000000000E+00  0.00000000000E+00  0.50000000000E+03  0.50000000000E+03  0.00000000000E+00 0. -1.
         11   -1    0    0    0    0 -0.00000000000E+00 -0.00000000000E+00 -0.50000000000E+03  0.50000000000E+03  0.00000000000E+00 0. -1.
        -11    1    1    2    0    0 -0.17216462229E+02 -0.19722601447E+02  0.48494025284E+03  0.48564641088E+03  0.00000000000E+00 0. -1.
         11    1    1    2    0    0 -0.13341995323E+00  0.76885269931E+01 -0.48319929823E+03  0.48326048158E+03  0.00000000000E+00 0. -1.
        -15    1    1    2    0    0  0.22720925727E+02  0.99349198394E+01 -0.26032246104E+01  0.24997551990E+02  0.17770000000E+01 0. -1.
         15    1    1    2    0    0 -0.53710435452E+01  0.20991546145E+01  0.86226999884E+00  0.60955555457E+01  0.17770000000E+01 0. -1.
</event>
<event>
 6    1  0.6394569E-004  0.5016587E+03  0.7546771E-02  0.9396106E-01
        -11   -1    0    0    0    0  0.00000000000E+00  0.00000000000E+00  0.50000000000E+03  0.50000000000E+03  0.00000000000E+00 0. -1.
         11   -1    0    0    0    0 -0.00000000000E+00 -0.00000000000E+00 -0.50000000000E+03  0.50000000000E+03  0.00000000000E+00 0. -1.
        -11    1    1    2    0    0 -0.20320895461E+02  0.16864700660E+02  0.17198463049E+03  0.17400020128E+03  0.00000000000E+00 0. -1.
         11    1    1    2    0    0 -0.77708608654E+01 -0.74262713053E+01 -0.49822534605E+03  0.49834127988E+03  0.00000000000E+00 0. -1.
        -15    1    1    2    0    0  0.23841461636E+02 -0.80130824737E+01  0.29082219899E+03  0.29191323015E+03  0.17770000000E+01 0.  1.
         15    1    1    2    0    0  0.42502946911E+01 -0.14253468806E+01  0.35418516577E+02  0.35745288699E+02  0.17770000000E+01 0.  1.
</event>
<event>
 6    1  0.6394569E-004  0.5030263E+03  0.7546771E-02  0.9393064E-01
        -11   -1    0    0    0    0  0.00000000000E+00  0.00000000000E+00  0.50000000000E+03  0.50000000000E+03  0.00000000000E+00 0. -1.
         11   -1    0    0    0    0 -0.00000000000E+00 -0.00000000000E+00 -0.50000000000E+03  0.50000000000E+03  0.00000000000E+00 0.  1.
        -11    1    1    2    0    0  0.14735596212E+02 -0.43061391884E+01  0.49673656649E+03  0.49697373886E+03  0.00000000000E+00 0. -1.
         11    1    1    2    0    0 -0.11986137088E+01 -0.13122843425E+02 -0.43156020894E+03  0.43176134569E+03  0.00000000000E+00 0.  1.
        -15    1    1    2    0    0 -0.13558909163E+02  0.28049725371E+01 -0.28324066303E+02  0.31577244173E+02  0.17770000000E+01 0. -1.
         15    1    1    2    0    0  0.21926660128E-01  0.14624010076E+02 -0.36852291250E+02  0.39687671271E+02  0.17770000000E+01 0.  1.
</event>
<event>
 6    1  0.6394569E-004  0.5104960E+03  0.7546771E-02  0.9376626E-01
        -11   -1    0    0    0    0  0.00000000000E+00  0.00000000000E+00  0.50000000000E+03  0.50000000000E+03  0.00000000000E+00 0.  1.
         11   -1    0    0    0    0 -0.00000000000E+00 -0.00000000000E+00 -0.50000000000E+03  0.50000000000E+03  0.00000000000E+00 0. -1.
        -11    1    1    2    0    0 -0.54047810280E+01 -0.23390518811E+02  0.46454816168E+03  0.46516805839E+03  0.00000000000E+00 0.  1.
         11    1    1    2    0    0 -0.10953083600E+02 -0.18064036642E+01 -0.48937811649E+03  0.48950400819E+03  0.00000000000E+00 0. -1.
        -15    1    1    2    0    0 -0.10018829849E+00  0.19451230377E+02  0.82455519485E+01  0.21201586187E+02  0.17770000000E+01 0.  1.
         15    1    1    2    0    0  0.16458052926E+02  0.57456920973E+01  0.16584402856E+02  0.24126347235E+02  0.17770000000E+01 0. -1.
</event>
<event>
 6    1  0.6394569E-004  0.5048664E+03  0.7546771E-02  0.9388986E-01
        -11   -1    0    0    0    0  0.00000000000E+00  0.00000000000E+00  0.50000000000E+03  0.50000000000E+03  0.00000000000E+00 0. -1.
         11   -1    0    0    0    0 -0.00000000000E+00 -0.00000000000E+00 -0.50000000000E+03  0.50000000000E+03  0.00000000000E+00 0.  1.
        -11    1    1    2    0    0  0.33997550138E+02 -0.39436503453E+01  0.49394928584E+03  0.49513360093E+03  0.00000000000E+00 0. -1.
         11    1    1    2    0    0  0.26017922967E+00  0.62493988340E+01 -0.42977975886E+03  0.42982527125E+03  0.00000000000E+00 0.  1.
        -15    1    1    2    0    0 -0.67083215940E+01  0.62640035151E+01 -0.10327700774E+02  0.13930486385E+02  0.17770000000E+01 0.  1.
         15    1    1    2    0    0 -0.27549407774E+02 -0.85697520038E+01 -0.53841826204E+02  0.61110641430E+02  0.17770000000E+01 0. -1.
</event>
<event>
 6    1  0.6394569E-004  0.5093980E+03  0.7546771E-02  0.9379023E-01
        -11   -1    0    0    0    0  0.00000000000E+00  0.00000000000E+00  0.50000000000E+03  0.50000000000E+03  0.00000000000E+00 0. -1.
         11   -1    0    0    0    0 -0.00000000000E+00 -0.00000000000E+00 -0.50000000000E+03  0.50000000000E+03  0.00000000000E+00 0. -1.
        -11    1    1    2    0    0  0.41997540637E+02  0.24585565753E+02  0.31549047117E+03  0.31922167981E+03  0.00000000000E+00 0. -1.
         11    1    1    2    0    0  0.17818466335E+02  0.17810720074E+02 -0.48995465586E+03  0.49060196116E+03  0.00000000000E+00 0. -1.
        -15    1    1    2    0    0 -0.49325489291E+02 -0.26130425701E+02  0.12032727146E+03  0.13265599507E+03  0.17770000000E+01 0. -1.
         15    1    1    2    0    0 -0.10490517681E+02 -0.16265860126E+02  0.54136913230E+02  0.57520363959E+02  0.17770000000E+01 0.  1.
</event>
<event>
 6    1  0.6394569E-004  0.5008743E+03  0.7546771E-02  0.9397855E-01
        -11   -1    0    0    0    0  0.00000000000E+00  0.00000000000E+00  0.50000000000E+03  0.50000000000E+03  0.00000000000E+00 0.  1.
         11   -1    0    0    0    0 -0.00000000000E+00 -0.00000000000E+00 -0.50000000000E+03  0.50000000000E+03  0.00000000000E+00 0.  1.
        -11    1    1    2    0    0  0.10963745632E+02  0.12076087025E+02  0.23130501447E+03  0.23187937665E+03  0.00000000000E+00 0.  1.
         11    1    1    2    0    0 -0.36514732090E+00 -0.75238613850E+01 -0.49906881676E+03  0.49912566121E+03  0.00000000000E+00 0.  1.
        -15    1    1    2    0    0 -0.95987484159E+01 -0.13406714550E+02  0.17971688938E+03  0.18048045330E+03  0.17770000000E+01 0.  1.
         15    1    1    2    0    0 -0.99984989501E+00  0.88544889091E+01  0.88046912909E+02  0.88514508842E+02  0.17770000000E+01 0.  1.
</event>
<event>
 6    1  0.6394569E-004  0.5239581E+03  0.7546771E-02  0.9347742E-01
        -11   -1    0    0    0    0  0.00000000000E+00  0.00000000000E+00  0.50000000000E+03  0.50000000000E+03  0.00000000000E+00 0.  1.
         11   -1    0    0    0    0 -0.00000000000E+00 -0.00000000000E+00 -0.50000000000E+03  0.50000000000E+03  0.00000000000E+00 0.  1.
        -11    1    1    2    0    0 -0.59330240076E+02 -0.49361513064E+02  0.31616901098E+03  0.32545273062E+03  0.00000000000E+00 0.  1.
         11    1    1    2    0    0 -0.95157490045E+01 -0.23366045111E+02 -0.47537286395E+03  0.47604189031E+03  0.00000000000E+00 0.  1.
        -15    1    1    2    0    0  0.73147443698E+02  0.40732371430E+02  0.95143251105E+02  0.12674805940E+03  0.17770000000E+01 0.  1.
         15    1    1    2    0    0 -0.43014546173E+01  0.31995186746E+02  0.64060601865E+02  0.71757319675E+02  0.17770000000E+01 0. -1.
</event>
<event>
 6    1  0.6394569E-004  0.5128138E+03  0.7546771E-02  0.9371586E-01
        -11   -1    0    0    0    0  0.00000000000E+00  0.00000000000E+00  0.50000000000E+03  0.50000000000E+03  0.00000000000E+00 0. -1.
         11   -1    0    0    0    0 -0.00000000000E+00 -0.00000000000E+00 -0.50000000000E+03  0.50000000000E+03  0.00000000000E+00 0.  1.
        -11    1    1    2    0    0 -0.38798330320E+02 -0.78630043315E+02  0.21251480854E+03  0.22989244876E+03  0.00000000000E+00 0. -1.
         11    1    1    2    0    0 -0.28694636044E+02  0.43473208551E+02 -0.48439352088E+03  0.48718619138E+03  0.00000000000E+00 0.  1.
        -15    1    1    2    0    0  0.66724905333E+01 -0.17237055007E+01  0.23933184112E+02  0.24968947141E+02  0.17770000000E+01 0. -1.
         15    1    1    2    0    0  0.60820475831E+02  0.36880540264E+02  0.24794552823E+03  0.25795241272E+03  0.17770000000E+01 0.  1.
</event>
<event>
 6    1  0.6394569E-004  0.4891692E+03  0.7546771E-02  0.9424376E-01
        -11   -1    0    0    0    0  0.00000000000E+00  0.00000000000E+00  0.50000000000E+03  0.50000000000E+03  0.00000000000E+00 0.  1.
         11   -1    0    0    0    0 -0.00000000000E+00 -0.00000000000E+00 -0.50000000000E+03  0.50000000000E+03  0.00000000000E+00 0.  1.
        -11    1    1    2    0    0  0.12038737727E+02 -0.11003088154E+02  0.48939455839E+03  0.48966624647E+03  0.00000000000E+00 0.  1.
         11    1    1    2    0    0  0.69157978063E+01  0.52173243755E+01 -0.48879636541E+03  0.48887312830E+03  0.00000000000E+00 0.  1.
        -15    1    1    2    0    0 -0.18057677597E+02  0.60802211766E+01 -0.16179746807E+01  0.19204800983E+02  0.17770000000E+01 0.  1.
         15    1    1    2    0    0 -0.89685793616E+00 -0.29445739808E+00  0.10197817037E+01  0.22558242485E+01  0.17770000000E+01 0. -1.
</event>
<event>
 6    1  0.6394569E-004  0.5055507E+03  0.7546771E-02  0.9387474E-01
        -11   -1    0    0    0    0  0.00000000000E+00  0.00000000000E+00  0.50000000000E+03  0.50000000000E+03  0.00000000000E+00 0. -1.
         11   -1    0    0    0    0 -0.00000000000E+00 -0.00000000000E+00 -0.50000000000E+03  0.50000000000E+03  0.00000000000E+00 0. -1.
        -11    1    1    2    0    0 -0.53123290400E+00 -0.22226586904E+02 -0.16116913237E+02  0.27460121378E+02  0.00000000000E+00 0. -1.
         11    1    1    2    0    0  0.58447756855E+01  0.19493358975E+02 -0.47765727428E+03  0.47809060241E+03  0.00000000000E+00 0. -1.
        -15    1    1    2    0    0  0.18064475957E+01  0.11899192508E+02  0.15708661013E+03  0.15755702093E+03  0.17770000000E+01 0.  1.
         15    1    1    2    0    0 -0.71199903772E+01 -0.91659645791E+01  0.33668757739E+03  0.33689225528E+03  0.17770000000E+01 0. -1.
</event>
<event>
 6    1  0.6394569E-004  0.5017624E+03  0.7546771E-02  0.9395875E-01
        -11   -1    0    0    0    0  0.00000000000E+00  0.00000000000E+00  0.50000000000E+03  0.50000000000E+03  0.00000000000E+00 0. -1.
         11   -1    0    0    0    0 -0.00000000000E+00 -0.00000000000E+00 -0.50000000000E+03  0.50000000000E+03  0.00000000000E+00 0.  1.
        -11    1    1    2    0    0 -0.12167768958E+02 -0.75194749602E+01  0.49803223894E+03  0.49823760208E+03  0.00000000000E+00 0. -1.
         11    1    1    2    0    0  0.29566605596E+01 -0.58375240591E+01 -0.43501076792E+03  0.43505998061E+03  0.00000000000E+00 0.  1.
        -15    1    1    2    0    0  0.12396003955E+02  0.76176830352E+01 -0.36752920783E+02  0.39567978517E+02  0.17770000000E+01 0.  1.
         15    1    1    2    0    0 -0.31848955565E+01  0.57393159841E+01 -0.26268550239E+02  0.27134438788E+02  0.17770000000E+01 0. -1.
</event>
<event>
 6    1  0.6394569E-004  0.5042213E+03  0.7546771E-02  0.9390413E-01
        -11   -1    0    0    0    0  0.00000000000E+00  0.00000000000E+00  0.50000000000E+03  0.50000000000E+03  0.00000000000E+00 0. -1.
         11   -1    0    0    0    0 -0.00000000000E+00 -0.00000000000E+00 -0.50000000000E+03  0.50000000000E+03  0.00000000000E+00 0.  1.
        -11    1    1    2    0    0  0.33518622289E+01  0.10525848286E+02  0.49565560726E+03  0.49577869002E+03  0.00000000000E+00 0. -1.
         11    1    1    2    0    0 -0.36058156061E+00  0.85346588779E+01 -0.47111751079E+03  0.47119494840E+03  0.00000000000E+00 0.  1.
        -15    1    1    2    0    0  0.62433034537E+00 -0.12378802033E+02 -0.83325896600E+01  0.15040422454E+02  0.17770000000E+01 0. -1.
         15    1    1    2    0    0 -0.36156110136E+01 -0.66817051315E+01 -0.16205506810E+02  0.17985939132E+02  0.17770000000E+01 0.  1.
</event>
<event>
 6    1  0.6394569E-004  0.5057124E+03  0.7546771E-02  0.9387118E-01
        -11   -1    0    0    0    0  0.00000000000E+00  0.00000000000E+00  0.50000000000E+03  0.50000000000E+03  0.00000000000E+00 0.  1.
         11   -1    0    0    0    0 -0.00000000000E+00 -0.00000000000E+00 -0.50000000000E+03  0.50000000000E+03  0.00000000000E+00 0. -1.
        -11    1    1    2    0    0  0.35571781231E+02 -0.25535395048E+01  0.44741114702E+02  0.57215727984E+02  0.00000000000E+00 0.  1.
         11    1    1    2    0    0 -0.38063439884E+02  0.12128537456E+02 -0.49267054793E+03  0.49428756374E+03  0.00000000000E+00 0. -1.
        -15    1    1    2    0    0 -0.12415506872E+01 -0.14585823928E+02  0.37119092777E+03  0.37148371471E+03  0.17770000000E+01 0.  1.
         15    1    1    2    0    0  0.37332093402E+01  0.50108259766E+01  0.76738505459E+02  0.77012993567E+02  0.17770000000E+01 0. -1.
</event>
<event>
 6    1  0.6394569E-004  0.4849428E+03  0.7546771E-02  0.9434146E-01
        -11   -1    0    0    0    0  0.00000000000E+00  0.00000000000E+00  0.50000000000E+03  0.50000000000E+03  0.00000000000E+00 0. -1.
         11   -1    0    0    0    0 -0.00000000000E+00 -0.00000000000E+00 -0.50000000000E+03  0.50000000000E+03  0.00000000000E+00 0.  1.
        -11    1    1    2    0    0  0.11991845403E+02 -0.11295757841E+02  0.48170744723E+03  0.48198906961E+03  0.00000000000E+00 0. -1.
         11    1    1    2    0    0  0.57792878101E+01 -0.82586800639E+01 -0.48817391123E+03  0.48827796752E+03  0.00000000000E+00 0.  1.
        -15    1    1    2    0    0  0.10652359623E+01  0.34977607182E+01 -0.90447193234E-01  0.40663211127E+01  0.17770000000E+01 0.  1.
         15    1    1    2    0    0 -0.18836369175E+02  0.16056677187E+02  0.65569111883E+01  0.25666641762E+02  0.17770000000E+01 0. -1.
</event>
<event>
 6    1  0.6394569E-004  0.5004553E+03  0.7546771E-02  0.9398792E-01
        -11   -1    0    0    0    0  0.00000000000E+00  0.00000000000E+00  0.50000000000E+03  0.50000000000E+03  0.00000000000E+00 0. -1.
         11   -1    0    0    0    0 -0.00000000000E+00 -0.00000000000E+00 -0.50000000000E+03  0.50000000000E+03  0.00000000000E+00 0.  1.
        -11    1    1    2    0    0 -0.14313207826E+02  0.11498071158E+01  0.42708027804E+03  0.42732160473E+03  0.00000000000E+00 0. -1.
         11    1    1    2    0    0  0.74111555181E+01  0.12532375472E+01 -0.49948814826E+03  0.49954469879E+03  0.00000000000E+00 0.  1.
        -15    1    1    2    0    0  0.36584159306E+01 -0.27272268974E+01  0.59537220673E+02  0.59738263685E+02  0.17770000000E+01 0.  1.
         15    1    1    2    0    0  0.32436363777E+01  0.32418223440E+00  0.12870649546E+02  0.13395432797E+02  0.17770000000E+01 0. -1.
</event>
<event>
 6    1  0.6394569E-004  0.5007082E+03  0.7546771E-02  0.9398226E-01
        -11   -1    0    0    0    0  0.00000000000E+00  0.00000000000E+00  0.50000000000E+03  0.50000000000E+03  0.00000000000E+00 0. -1.
         11   -1    0    0    0    0 -0.00000000000E+00 -0.00000000000E+00 -0.50000000000E+03  0.50000000000E+03  0.00000000000E+00 0.  1.
        -11    1    1    2    0    0  0.86096187114E+01  0.10932698965E+02 -0.42029226510E+02  0.44273076718E+02  0.00000000000E+00 0. -1.
         11    1    1    2    0    0 -0.89423131840E+01 -0.69911419582E+01 -0.45629395121E+03  0.45643511143E+03  0.00000000000E+00 0.  1.
        -15    1    1    2    0    0 -0.59487055262E+01 -0.14130557338E+02  0.15763417340E+03  0.15838797335E+03  0.17770000000E+01 0.  1.
         15    1    1    2    0    0  0.62813999988E+01  0.10189000332E+02  0.34068900432E+03  0.34090383850E+03  0.17770000000E+01 0. -1.
</event>
<event>
 6    1  0.6394569E-004  0.5002133E+03  0.7546771E-02  0.9399333E-01
        -11   -1    0    0    0    0  0.00000000000E+00  0.00000000000E+00  0.50000000000E+03  0.50000000000E+03  0.00000000000E+00 0. -1.
         11   -1    0    0    0    0 -0.00000000000E+00 -0.00000000000E+00 -0.50000000000E+03  0.50000000000E+03  0.00000000000E+00 0. -1.
        -11    1    1    2    0    0  0.50072506729E+01  0.56958966333E+01  0.49972918638E+03  0.49978673004E+03  0.00000000000E+00 0. -1.
         11    1    1    2    0    0 -0.58822581686E+01 -0.91566699747E+00 -0.42341885813E+03  0.42346070518E+03  0.00000000000E+00 0. -1.
        -15    1    1    2    0    0  0.13935692049E+00 -0.23485874182E+01 -0.63646707800E+02  0.63714962340E+02  0.17770000000E+01 0. -1.
         15    1    1    2    0    0  0.73565057518E+00 -0.24316422177E+01 -0.12663620448E+02  0.13037602444E+02  0.17770000000E+01 0. -1.
</event>
<event>
 6    1  0.6394569E-004  0.5106042E+03  0.7546771E-02  0.9376390E-01
        -11   -1    0    0    0    0  0.00000000000E+00  0.00000000000E+00  0.50000000000E+03  0.50000000000E+03  0.00000000000E+00 0. -1.
         11   -1    0    0    0    0 -0.00000000000E+00 -0.00000000000E+00 -0.50000000000E+03  0.50000000000E+03  0.00000000000E+00 0. -1.
        -11    1    1    2    0    0  0.43103704123E+01  0.96882718318E+01  0.48928089130E+03  0.48939578308E+03  0.00000000000E+00 0. -1.
         11    1    1    2    0    0  0.15594773026E+02 -0.68366590113E+01 -0.45660449514E+03  0.45692187717E+03  0.00000000000E+00 0. -1.
        -15    1    1    2    0    0  0.19689416318E+00 -0.17229541477E+01 -0.33366345607E+02  0.33458602578E+02  0.17770000000E+01 0. -1.
         15    1    1    2    0    0 -0.20102037602E+02 -0.11286586728E+01  0.68994944213E+00  0.20223737176E+02  0.17770000000E+01 0.  1.
</event>
<event>
 6    1  0.6394569E-004  0.5042318E+03  0.7546771E-02  0.9390390E-01
        -11   -1    0    0    0    0  0.00000000000E+00  0.00000000000E+00  0.50000000000E+03  0.50000000000E+03  0.00000000000E+00 0.  1.
         11   -1    0    0    0    0 -0.00000000000E+00 -0.00000000000E+00 -0.50000000000E+03  0.50000000000E+03  0.00000000000E+00 0. -1.
        -11    1    1    2    0    0  0.78287313804E+01  0.21000647077E+02  0.49526130344E+03  0.49576816648E+03  0.00000000000E+00 0.  1.
         11    1    1    2    0    0  0.10562576148E+02 -0.35811824019E+01 -0.45193896046E+03  0.45207656084E+03  0.00000000000E+00 0. -1.
        -15    1    1    2    0    0 -0.17467848156E+02 -0.10435613540E+02 -0.24015337646E+02  0.31526527249E+02  0.17770000000E+01 0. -1.
         15    1    1    2    0    0 -0.92345937260E+00 -0.69838511354E+01 -0.19307005335E+02  0.20628745428E+02  0.17770000000E+01 0.  1.
</event>
<event>
 6    1  0.6394569E-004  0.5069516E+03  0.7546771E-02  0.9384388E-01
        -11   -1    0    0    0    0  0.00000000000E+00  0.00000000000E+00  0.50000000000E+03  0.50000000000E+03  0.00000000000E+00 0.  1.
         11   -1    0    0    0    0 -0.00000000000E+00 -0.00000000000E+00 -0.50000000000E+03  0.50000000000E+03  0.00000000000E+00 0. -1.
        -11    1    1    2    0    0 -0.12466403500E+02  0.58394296683E+01  0.49285619894E+03  0.49304841850E+03  0.00000000000E+00 0.  1.
         11    1    1    2    0    0 -0.56427628245E+01 -0.62322721468E+01 -0.47660913779E+03  0.47668328292E+03  0.00000000000E+00 0. -1.
        -15    1    1    2    0    0  0.15276342305E+02 -0.11918655272E+01 -0.20072523596E+01  0.15555512485E+02  0.17770000000E+01 0. -1.
         15    1    1    2    0    0  0.28328240199E+01  0.15847080057E+01 -0.14239808787E+02  0.14712786095E+02  0.17770000000E+01 0.  1.
</event>
<event>
 6    1  0.6394569E-004  0.5000583E+03  0.7546771E-02  0.9399679E-01
        -11   -1    0    0    0    0  0.00000000000E+00  0.00000000000E+00  0.50000000000E+03  0.50000000000E+03  0.00000000000E+00 0.  1.
         11   -1    0    0    0    0 -0.00000000000E+00 -0.00000000000E+00 -0.50000000000E+03  0.50000000000E+03  0.00000000000E+00 0.  1.
        -11    1    1    2    0    0 -0.67024108706E+01  0.77996295785E+01  0.49983595063E+03  0.49994173068E+03  0.00000000000E+00 0.  1.
         11    1    1    2    0    0  0.37760572479E+01 -0.38823530093E+01 -0.19792439783E+03  0.19799848113E+03  0.00000000000E+00 0.  1.
        -15    1    1    2    0    0 -0.18553459757E+01 -0.31129074360E+00 -0.14630917930E+03  0.14633206377E+03  0.17770000000E+01 0.  1.
         15    1    1    2    0    0  0.47816995984E+01 -0.36059858256E+01 -0.15560237349E+03  0.15572772441E+03  0.17770000000E+01 0.  1.
</event>
<event>
 6    1  0.6394569E-004  0.5004890E+03  0.7546771E-02  0.9398716E-01
        -11   -1    0    0    0    0  0.00000000000E+00  0.00000000000E+00  0.50000000000E+03  0.50000000000E+03  0.00000000000E+00 0.  1.
         11   -1    0    0    0    0 -0.00000000000E+00 -0.00000000000E+00 -0.50000000000E+03  0.50000000000E+03  0.00000000000E+00 0.  1.
        -11    1    1    2    0    0  0.79839257837E+01  0.30965157926E+01  0.49943755018E+03  0.49951095885E+03  0.00000000000E+00 0.  1.
         11    1    1    2    0    0 -0.61825484419E+01 -0.15725915362E+01 -0.39018418096E+03  0.39023632843E+03  0.00000000000E+00 0.  1.
        -15    1    1    2    0    0 -0.80059255079E+01 -0.60217619453E+00 -0.55618054709E+02  0.56222621764E+02  0.17770000000E+01 0. -1.
         15    1    1    2    0    0  0.62045481662E+01 -0.92174806183E+00 -0.53635314510E+02  0.54030090959E+02  0.17770000000E+01 0.  1.
</event>
<event>
 6    1  0.6394569E-004  0.5025679E+03  0.7546771E-02  0.9394082E-01
        -11   -1    0    0    0    0  0.00000000000E+00  0.00000000000E+00  0.50000000000E+03  0.50000000000E+03  0.00000000000E+00 0.  1.
         11   -1    0    0    0    0 -0.00000000000E+00 -0.00000000000E+00 -0.50000000000E+03  0.50000000000E+03  0.00000000000E+00 0.  1.
        -11    1    1    2    0    0  0.65005500444E+01  0.16275505196E+02  0.49712328408E+03  0.49743211476E+03  0.00000000000E+00 0.  1.
         11    1    1    2    0    0  0.65191185513E+01 -0.72847833843E+01 -0.45322237420E+03  0.45332779249E+03  0.00000000000E+00 0.  1.
        -15    1    1    2    0    0 -0.23809998661E+01 -0.26719133075E+01 -0.44326508256E+00  0.40202604416E+01  0.17770000000E+01 0. -1.
         15    1    1    2    0    0 -0.10638668730E+02 -0.63188085041E+01 -0.43457644799E+02  0.45219832305E+02  0.17770000000E+01 0.  1.
</event>
<event>
 6    1  0.6394569E-004  0.5045563E+03  0.7546771E-02  0.9389672E-01
        -11   -1    0    0    0    0  0.00000000000E+00  0.00000000000E+00  0.50000000000E+03  0.50000000000E+03  0.00000000000E+00 0. -1.
         11   -1    0    0    0    0 -0.00000000000E+00 -0.00000000000E+00 -0.50000000000E+03  0.50000000000E+03  0.00000000000E+00 0. -1.
        -11    1    1    2    0    0 -0.50956734407E+01  0.34930367028E+02  0.49418455742E+03  0.49544371347E+03  0.00000000000E+00 0. -1.
         11    1    1    2    0    0  0.85602693577E+01  0.21443603180E+01 -0.42798726835E+03  0.42807823860E+03  0.00000000000E+00 0. -1.
        -15    1    1    2    0    0  0.17705047991E+01 -0.65416928423E+01 -0.15966112343E+02  0.17435679075E+02  0.17770000000E+01 0. -1.
         15    1    1    2    0    0 -0.52351007161E+01 -0.30533034504E+02 -0.50231176728E+02  0.59042368855E+02  0.17770000000E+01 0.  1.
</event>
<event>
 6    1  0.6394569E-004  0.5056996E+03  0.7546771E-02  0.9387146E-01
        -11   -1    0    0    0    0  0.00000000000E+00  0.00000000000E+00  0.50000000000E+03  0.50000000000E+03  0.00000000000E+00 0. -1.
         11   -1    0    0    0    0 -0.00000000000E+00 -0.00000000000E+00 -0.50000000000E+03  0.50000000000E+03  0.00000000000E+00 0. -1.
        -11    1    1    2    0    0 -0.20685561345E+02  0.38551971871E+00  0.49386727050E+03  0.49430043692E+03  0.00000000000E+00 0. -1.
         11    1    1    2    0    0  0.27329304613E+01  0.74776853301E+01 -0.44689242718E+03  0.44696333872E+03  0.00000000000E+00 0. -1.
        -15    1    1    2    0    0  0.12872981197E+02  0.79437790638E+01 -0.35053511880E+02  0.38219415155E+02  0.17770000000E+01 0. -1.
         15    1    1    2    0    0  0.50796496866E+01 -0.15806984113E+02 -0.11921331438E+02  0.20516809204E+02  0.17770000000E+01 0.  1.
</event>
<event>
 6    1  0.6394569E-004  0.5037917E+03  0.7546771E-02  0.9391365E-01
        -11   -1    0    0    0    0  0.00000000000E+00  0.00000000000E+00  0.50000000000E+03  0.50000000000E+03  0.00000000000E+00 0. -1.
         11   -1    0    0    0    0 -0.00000000000E+00 -0.00000000000E+00 -0.50000000000E+03  0.50000000000E+03  0.00000000000E+00 0. -1.
        -11    1    1    2    0    0 -0.15997932907E+02  0.21304612790E+02  0.50732857879E+02  0.57303082395E+02  0.00000000000E+00 0. -1.
         11    1    1    2    0    0  0.10644474400E+02 -0.35233335994E-02 -0.49609416051E+03  0.49620834428E+03  0.00000000000E+00 0. -1.
        -15    1    1    2    0    0 -0.69403718658E+01 -0.51786535274E+01  0.67054281814E+02  0.67634470890E+02  0.17770000000E+01 0.  1.
         15    1    1    2    0    0  0.12293830372E+02 -0.16122435928E+02  0.37830702081E+03  0.37885410243E+03  0.17770000000E+01 0. -1.
</event>
<event>
 6    1  0.6394569E-004  0.5005668E+03  0.7546771E-02  0.9398542E-01
        -11   -1    0    0    0    0  0.00000000000E+00  0.00000000000E+00  0.50000000000E+03  0.50000000000E+03  0.00000000000E+00 0.  1.
         11   -1    0    0    0    0 -0.00000000000E+00 -0.00000000000E+00 -0.50000000000E+03  0.50000000000E+03  0.00000000000E+00 0.  1.
        -11    1    1    2    0    0 -0.30623183256E+01 -0.65823798443E+01  0.49938046822E+03  0.49943323634E+03  0.00000000000E+00 0.  1.
         11    1    1    2    0    0  0.62079476445E+01 -0.34974110758E+01 -0.41350868471E+03  0.41357007003E+03  0.00000000000E+00 0.  1.
        -15    1    1    2    0    0  0.26759721966E+01  0.41779844488E+01 -0.26114087878E+02  0.26640564858E+02  0.17770000000E+01 0. -1.
         15    1    1    2    0    0 -0.58216015154E+01  0.59018064713E+01 -0.59757695637E+02  0.60356128775E+02  0.17770000000E+01 0.  1.
</event>
<event>
 6    1  0.6394569E-004  0.5014947E+03  0.7546771E-02  0.9396471E-01
        -11   -1    0    0    0    0  0.00000000000E+00  0.00000000000E+00  0.50000000000E+03  0.50000000000E+03  0.00000000000E+00 0. -1.
         11   -1    0    0    0    0 -0.00000000000E+00 -0.00000000000E+00 -0.50000000000E+03  0.50000000000E+03  0.00000000000E+00 0.  1.
        -11    1    1    2    0    0  0.26064162501E+01 -0.67039169357E+01  0.47681415943E+03  0.47686840799E+03  0.00000000000E+00 0. -1.
         11    1    1    2    0    0 -0.77872344405E+01 -0.25665957195E+01 -0.49843783714E+03  0.49850527171E+03  0.00000000000E+00 0.  1.
        -15    1    1    2    0    0  0.50647093030E+01  0.73017764488E+01  0.15552682979E+02  0.18000302678E+02  0.17770000000E+01 0.  1.
         15    1    1    2    0    0  0.11610888740E+00  0.19687362064E+01  0.60709947296E+01  0.66260176223E+01  0.17770000000E+01 0.  1.
</event>
<event>
 6    1  0.6394569E-004  0.5001583E+03  0.7546771E-02  0.9399456E-01
        -11   -1    0    0    0    0  0.00000000000E+00  0.00000000000E+00  0.50000000000E+03  0.50000000000E+03  0.00000000000E+00 0.  1.
         11   -1    0    0    0    0 -0.00000000000E+00 -0.00000000000E+00 -0.50000000000E+03  0.50000000000E+03  0.00000000000E+00 0.  1.
        -11    1    1    2    0    0  0.15415327823E+02 -0.56629461924E+01  0.27889552727E+03  0.27937862557E+03  0.00000000000E+00 0.  1.
         11    1    1    2    0    0 -0.16969464014E+02  0.11752314910E+01 -0.49955214666E+03  0.49984166604E+03  0.00000000000E+00 0.  1.
        -15    1    1    2    0    0  0.22059494144E+01  0.12233225119E+01  0.60488333131E+02  0.60566978666E+02  0.17770000000E+01 0.  1.
         15    1    1    2    0    0 -0.65181322315E+00  0.32643921895E+01  0.16016828625E+03  0.16021272973E+03  0.17770000000E+01 0.  1.
</event>
<event>
 6    1  0.6394569E-004  0.5003654E+03  0.7546771E-02  0.9398993E-01
        -11   -1    0    0    0    0  0.00000000000E+00  0.00000000000E+00  0.50000000000E+03  0.50000000000E+03  0.00000000000E+00 0.  1.
         11   -1    0    0    0    0 -0.00000000000E+00 -0.00000000000E+00 -0.50000000000E+03  0.50000000000E+03  0.00000000000E+00 0. -1.
        -11    1    1    2    0    0  0.23068716983E+02 -0.33649392535E+02  0.36263983430E+03  0.36492752259E+03  0.00000000000E+00 0.  1.
         11    1    1    2    0    0 -0.27575975991E+02  0.31528339622E+02 -0.49787579096E+03  0.49963464039E+03  0.00000000000E+00 0. -1.
        -15    1    1    2    0    0  0.36467444426E+01 -0.52360655679E-01  0.55626765086E+02  0.55774512186E+02  0.17770000000E+01 0.  1.
         15    1    1    2    0    0  0.86051456582E+00  0.21734135685E+01  0.79609191578E+02  0.79663324840E+02  0.17770000000E+01 0.  1.
</event>
<event>
 6    1  0.6394569E-004  0.5043087E+03  0.7546771E-02  0.9390220E-01
        -11   -1    0    0    0    0  0.00000000000E+00  0.00000000000E+00  0.50000000000E+03  0.50000000000E+03  0.00000000000E+00 0.  1.
         11   -1    0    0    0    0 -0.00000000000E+00 -0.00000000000E+00 -0.50000000000E+03  0.50000000000E+03  0.00000000000E+00 0. -1.
        -11    1    1    2    0    0  0.14597651307E+02  0.47437874966E+02  0.49320013741E+03  0.49569125365E+03  0.00000000000E+00 0.  1.
         11    1    1    2    0    0 -0.47794209439E+01 -0.21853291306E+01 -0.29960333946E+03  0.29964942774E+03  0.00000000000E+00 0. -1.
        -15    1    1    2    0    0  0.12685870565E+02 -0.38021344306E+01 -0.87808737007E+02  0.88819589968E+02  0.17770000000E+01 0. -1.
         15    1    1    2    0    0 -0.22504100928E+02 -0.41450411405E+02 -0.10578806094E+03  0.11583972864E+03  0.17770000000E+01 0.  1.
</event>
<event>
 6    1  0.6394569E-004  0.5008524E+03  0.7546771E-02  0.9397904E-01
        -11   -1    0    0    0    0  0.00000000000E+00  0.00000000000E+00  0.50000000000E+03  0.50000000000E+03  0.00000000000E+00 0.  1.
         11   -1    0    0    0    0 -0.00000000000E+00 -0.00000000000E+00 -0.50000000000E+03  0.50000000000E+03  0.00000000000E+00 0.  1.
        -11    1    1    2    0    0 -0.32991565179E+02 -0.33375831804E+02  0.49693652059E+03  0.49914756838E+03  0.00000000000E+00 0.  1.
         11    1    1    2    0    0  0.84979828088E+01  0.12508202779E+01 -0.17668132138E+03  0.17688999290E+03  0.00000000000E+00 0.  1.
        -15    1    1    2    0    0  0.26444871318E+02  0.27514515735E+02 -0.20157462666E+03  0.20516302697E+03  0.17770000000E+01 0.  1.
         15    1    1    2    0    0 -0.19512889477E+01  0.46104957907E+01 -0.11868057256E+03  0.11879941175E+03  0.17770000000E+01 0. -1.
</event>
<event>
 6    1  0.6394569E-004  0.5004046E+03  0.7546771E-02  0.9398905E-01
        -11   -1    0    0    0    0  0.00000000000E+00  0.00000000000E+00  0.50000000000E+03  0.50000000000E+03  0.00000000000E+00 0. -1.
         11   -1    0    0    0    0 -0.00000000000E+00 -0.00000000000E+00 -0.50000000000E+03  0.50000000000E+03  0.00000000000E+00 0.  1.
        -11    1    1    2    0    0  0.25201922731E+02 -0.61010616600E+01  0.49892204335E+03  0.49959540150E+03  0.00000000000E+00 0. -1.
         11    1    1    2    0    0 -0.24027001471E+02 -0.33695462604E+01 -0.38878247226E+03  0.38953878033E+03  0.00000000000E+00 0.  1.
        -15    1    1    2    0    0 -0.31210498332E+01  0.97937379181E+00 -0.37441076891E+02  0.37625683952E+02  0.17770000000E+01 0. -1.
         15    1    1    2    0    0  0.19461285732E+01  0.84912341286E+01 -0.72698494191E+02  0.73240134217E+02  0.17770000000E+01 0.  1.
</event>
<event>
 6    1  0.6394569E-004  0.5005166E+03  0.7546771E-02  0.9398654E-01
        -11   -1    0    0    0    0  0.00000000000E+00  0.00000000000E+00  0.50000000000E+03  0.50000000000E+03  0.00000000000E+00 0.  1.
         11   -1    0    0    0    0 -0.00000000000E+00 -0.00000000000E+00 -0.50000000000E+03  0.50000000000E+03  0.00000000000E+00 0. -1.
        -11    1    1    2    0    0  0.95970589180E+01  0.13708165143E+02  0.49920299898E+03  0.49948338463E+03  0.00000000000E+00 0.  1.
         11    1    1    2    0    0 -0.12252853192E+02  0.19866590504E+01 -0.36187842361E+03  0.36209124913E+03  0.00000000000E+00 0. -1.
        -15    1    1    2    0    0  0.33639903132E+01 -0.63793351004E+01 -0.44584460248E+02  0.45198939941E+02  0.17770000000E+01 0. -1.
         15    1    1    2    0    0 -0.70819603943E+00 -0.93154890926E+01 -0.92740115119E+02  0.93226426296E+02  0.17770000000E+01 0.  1.
</event>
<event>
 6    1  0.1366227E-003  0.5000296E+03  0.7546771E-02  0.9399743E-01
        -11   -1    0    0    0    0  0.00000000000E+00  0.00000000000E+00  0.50000000000E+03  0.50000000000E+03  0.00000000000E+00 0.  1.
         11   -1    0    0    0    0 -0.00000000000E+00 -0.00000000000E+00 -0.50000000000E+03  0.50000000000E+03  0.00000000000E+00 0.  1.
        -11    1    1    2    0    0  0.28305210680E+01  0.72588830530E+01  0.49990969210E+03  0.49997040261E+03  0.00000000000E+00 0.  1.
         11    1    1    2    0    0 -0.29908868995E+01 -0.14877642676E+01 -0.13242204717E+03  0.13246417411E+03  0.00000000000E+00 0.  1.
        -15    1    1    2    0    0  0.16747072591E+01 -0.37328354029E+01 -0.22022015486E+03  0.22026532419E+03  0.17770000000E+01 0. -1.
         15    1    1    2    0    0 -0.15143414276E+01 -0.20382833825E+01 -0.14726749007E+03  0.14730009909E+03  0.17770000000E+01 0.  1.
</event>
<event>
 6    1  0.6394569E-004  0.5006457E+03  0.7546771E-02  0.9398366E-01
        -11   -1    0    0    0    0  0.00000000000E+00  0.00000000000E+00  0.50000000000E+03  0.50000000000E+03  0.00000000000E+00 0.  1.
         11   -1    0    0    0    0 -0.00000000000E+00 -0.00000000000E+00 -0.50000000000E+03  0.50000000000E+03  0.00000000000E+00 0. -1.
        -11    1    1    2    0    0 -0.60928642323E+01  0.92309632085E+01  0.49923179918E+03  0.49935430606E+03  0.00000000000E+00 0.  1.
         11    1    1    2    0    0  0.81329589391E+01  0.28509899719E+01 -0.41692440111E+03  0.41701346429E+03  0.00000000000E+00 0. -1.
        -15    1    1    2    0    0 -0.34587712098E+01 -0.32525529419E+01 -0.42095147588E+02  0.42399308702E+02  0.17770000000E+01 0. -1.
         15    1    1    2    0    0  0.14186765031E+01 -0.88294002385E+01 -0.40212250481E+02  0.41232920941E+02  0.17770000000E+01 0.  1.
</event>
<event>
 6    1  0.6394569E-004  0.5010882E+03  0.7546771E-02  0.9397378E-01
        -11   -1    0    0    0    0  0.00000000000E+00  0.00000000000E+00  0.50000000000E+03  0.50000000000E+03  0.00000000000E+00 0. -1.
         11   -1    0    0    0    0 -0.00000000000E+00 -0.00000000000E+00 -0.50000000000E+03  0.50000000000E+03  0.00000000000E+00 0.  1.
        -11    1    1    2    0    0 -0.11647336915E+02 -0.15808354657E+00  0.49877583229E+03  0.49891183221E+03  0.00000000000E+00 0. -1.
         11    1    1    2    0    0 -0.28246820833E+01  0.79837171044E+01 -0.40680623712E+03  0.40689437589E+03  0.00000000000E+00 0.  1.
        -15    1    1    2    0    0  0.10851399671E+02 -0.88946228250E+01 -0.84154007770E+02  0.85334178046E+02  0.17770000000E+01 0. -1.
         15    1    1    2    0    0  0.36206193271E+01  0.10689892672E+01 -0.78155873915E+01  0.88596138539E+01  0.17770000000E+01 0.  1.
</event>
<event>
 6    1  0.6394569E-004  0.5011079E+03  0.7546771E-02  0.9397334E-01
        -11   -1    0    0    0    0  0.00000000000E+00  0.00000000000E+00  0.50000000000E+03  0.50000000000E+03  0.00000000000E+00 0. -1.
         11   -1    0    0    0    0 -0.00000000000E+00 -0.00000000000E+00 -0.50000000000E+03  0.50000000000E+03  0.00000000000E+00 0. -1.
        -11    1    1    2    0    0  0.14086644901E+02 -0.16661292311E+02  0.35891115552E+03  0.35957370563E+03  0.00000000000E+00 0. -1.
         11    1    1    2    0    0 -0.10683475313E+02 -0.36696902573E+01 -0.49876414747E+03  0.49889205052E+03  0.00000000000E+00 0. -1.
        -15    1    1    2    0    0 -0.29505822153E+01  0.18569863771E+02  0.11369811163E+03  0.11525608050E+03  0.17770000000E+01 0. -1.
         15    1    1    2    0    0 -0.45258737205E+00  0.17611187966E+01  0.26154880331E+02  0.26278163347E+02  0.17770000000E+01 0. -1.
</event>
<event>
 6    1  0.6394569E-004  0.5029311E+03  0.7546771E-02  0.9393275E-01
        -11   -1    0    0    0    0  0.00000000000E+00  0.00000000000E+00  0.50000000000E+03  0.50000000000E+03  0.00000000000E+00 0. -1.
         11   -1    0    0    0    0 -0.00000000000E+00 -0.00000000000E+00 -0.50000000000E+03  0.50000000000E+03  0.00000000000E+00 0.  1.
        -11    1    1    2    0    0  0.18420079463E+00  0.88621377585E+01  0.47882803690E+03  0.47891007542E+03  0.00000000000E+00 0. -1.
         11    1    1    2    0    0 -0.51344571475E+01  0.47680971110E+01 -0.49701951014E+03  0.49706889951E+03  0.00000000000E+00 0.  1.
        -15    1    1    2    0    0  0.72827003241E+00 -0.75228914135E+01  0.68769291651E+01  0.10371796190E+02  0.17770000000E+01 0. -1.
         15    1    1    2    0    0  0.42219863204E+01 -0.61073434561E+01  0.11314544068E+02  0.13649228881E+02  0.17770000000E+01 0.  1.
</event>
<event>
 6    1  0.6394569E-004  0.5033839E+03  0.7546771E-02  0.9392270E-01
        -11   -1    0    0    0    0  0.00000000000E+00  0.00000000000E+00  0.50000000000E+03  0.50000000000E+03  0.00000000000E+00 0.  1.
         11   -1    0    0    0    0 -0.00000000000E+00 -0.00000000000E+00 -0.50000000000E+03  0.50000000000E+03  0.00000000000E+00 0. -1.
        -11    1    1    2    0    0  0.30555825018E+02  0.21864995188E+02  0.11698482760E+03  0.12287060814E+03  0.00000000000E+00 0.  1.
         11    1    1    2    0    0 -0.13522649936E+02 -0.57186274671E+01 -0.49639903589E+03  0.49661611693E+03  0.00000000000E+00 0. -1.
        -15    1    1    2    0    0 -0.13653447370E+01  0.15182225665E+01  0.10614108279E+02  0.10953820775E+02  0.17770000000E+01 0. -1.
         15    1    1    2    0    0 -0.15667830345E+02 -0.17664590287E+02  0.36880010001E+03  0.36955945416E+03  0.17770000000E+01 0.  1.
</event>
<event>
 6    1  0.6394569E-004  0.5033719E+03  0.7546771E-02  0.9392296E-01
        -11   -1    0    0    0    0  0.00000000000E+00  0.00000000000E+00  0.50000000000E+03  0.50000000000E+03  0.00000000000E+00 0. -1.
         11   -1    0    0    0    0 -0.00000000000E+00 -0.00000000000E+00 -0.50000000000E+03  0.50000000000E+03  0.00000000000E+00 0. -1.
        -11    1    1    2    0    0  0.81363293612E+01 -0.94827054921E+01  0.49647085526E+03  0.49662806171E+03  0.00000000000E+00 0. -1.
         11    1    1    2    0    0 -0.66794598290E+01  0.77201368069E+01 -0.49469979414E+03  0.49480511519E+03  0.00000000000E+00 0. -1.
        -15    1    1    2    0    0  0.14937061035E+01 -0.97049411128E+00  0.16386974173E+01  0.30026779663E+01  0.17770000000E+01 0. -1.
         15    1    1    2    0    0 -0.29505756358E+01  0.27330627965E+01 -0.34097585332E+01  0.55641451353E+01  0.17770000000E+01 0.  1.
</event>
<event>
 6    1  0.6394569E-004  0.5002016E+03  0.7546771E-02  0.9399359E-01
        -11   -1    0    0    0    0  0.00000000000E+00  0.00000000000E+00  0.50000000000E+03  0.50000000000E+03  0.00000000000E+00 0.  1.
         11   -1    0    0    0    0 -0.00000000000E+00 -0.00000000000E+00 -0.50000000000E+03  0.50000000000E+03  0.00000000000E+00 0. -1.
        -11    1    1    2    0    0  0.37942974472E+01 -0.31538407622E+01  0.35518168156E+02  0.35859220207E+02  0.00000000000E+00 0.  1.
         11    1    1    2    0    0 -0.68282760688E+01 -0.32806129893E+01 -0.49974103409E+03  0.49979844830E+03  0.00000000000E+00 0. -1.
        -15    1    1    2    0    0  0.25062412003E+01  0.71624780014E+01  0.42258872549E+03  0.42266058602E+03  0.17770000000E+01 0.  1.
         15    1    1    2    0    0  0.52773742129E+00 -0.72802424983E+00  0.41634140440E+02  0.41681745469E+02  0.17770000000E+01 0.  1.
</event>
<event>
 6    1  0.6394569E-004  0.5002711E+03  0.7546771E-02  0.9399203E-01
        -11   -1    0    0    0    0  0.00000000000E+00  0.00000000000E+00  0.50000000000E+03  0.50000000000E+03  0.00000000000E+00 0.  1.
         11   -1    0    0    0    0 -0.00000000000E+00 -0.00000000000E+00 -0.50000000000E+03  0.50000000000E+03  0.00000000000E+00 0. -1.
        -11    1    1    2    0    0  0.35528966083E+01 -0.15890842561E+02  0.15061364284E+03  0.15149129137E+03  0.00000000000E+00 0.  1.
         11    1    1    2    0    0 -0.72914910736E+01  0.18696354307E+02 -0.49932578830E+03  0.49972888886E+03  0.00000000000E+00 0. -1.
        -15    1    1    2    0    0  0.40408045365E+01 -0.16201342292E+01  0.24793255938E+03  0.24797714545E+03  0.17770000000E+01 0.  1.
         15    1    1    2    0    0 -0.30221007119E+00 -0.11853775176E+01  0.10077958607E+03  0.10080267432E+03  0.17770000000E+01 0. -1.
</event>
<event>
 6    1  0.6394569E-004  0.5033811E+03  0.7546771E-02  0.9392276E-01
        -11   -1    0    0    0    0  0.00000000000E+00  0.00000000000E+00  0.50000000000E+03  0.50000000000E+03  0.00000000000E+00 0.  1.
         11   -1    0    0    0    0 -0.00000000000E+00 -0.00000000000E+00 -0.50000000000E+03  0.50000000000E+03  0.00000000000E+00 0. -1.
        -11    1    1    2    0    0  0.10143842351E+02 -0.98682837079E+01  0.49641724971E+03  0.49661893477E+03  0.00000000000E+00 0.  1.
         11    1    1    2    0    0 -0.83788223874E+01 -0.24346337188E+01 -0.47605706380E+03  0.47613701820E+03  0.00000000000E+00 0. -1.
        -15    1    1    2    0    0  0.47551657740E+01  0.21249470326E+01 -0.38986471152E+01  0.67441960053E+01  0.17770000000E+01 0. -1.
         15    1    1    2    0    0 -0.65201857374E+01  0.10177970394E+02 -0.16461538802E+02  0.20499851027E+02  0.17770000000E+01 0.  1.
</event>
<event>
 6    1  0.6394569E-004  0.5010850E+03  0.7546771E-02  0.9397385E-01
        -11   -1    0    0    0    0  0.00000000000E+00  0.00000000000E+00  0.50000000000E+03  0.50000000000E+03  0.00000000000E+00 0.  1.
         11   -1    0    0    0    0 -0.00000000000E+00 -0.00000000000E+00 -0.50000000000E+03  0.50000000000E+03  0.00000000000E+00 0.  1.
        -11    1    1    2    0    0 -0.16003386466E+02 -0.42420121056E-02  0.34611890956E+03  0.34648868373E+03  0.00000000000E+00 0.  1.
         11    1    1    2    0    0 -0.15737453665E+01  0.92373408056E+01 -0.49882698836E+03  0.49891499222E+03  0.00000000000E+00 0.  1.
        -15    1    1    2    0    0 -0.99508555808E+00  0.11368927492E+00  0.46876903790E+01  0.51122686362E+01  0.17770000000E+01 0.  1.
         15    1    1    2    0    0  0.18572217391E+02 -0.93467880684E+01  0.14802038842E+03  0.14948405542E+03  0.17770000000E+01 0.  1.
</event>
<event>
 6    1  0.6394569E-004  0.5098349E+03  0.7546771E-02  0.9378068E-01
        -11   -1    0    0    0    0  0.00000000000E+00  0.00000000000E+00  0.50000000000E+03  0.50000000000E+03  0.00000000000E+00 0.  1.
         11   -1    0    0    0    0 -0.00000000000E+00 -0.00000000000E+00 -0.50000000000E+03  0.50000000000E+03  0.00000000000E+00 0. -1.
        -11    1    1    2    0    0  0.19457217102E+02  0.39141440404E+02  0.43178818631E+03  0.43399501551E+03  0.00000000000E+00 0.  1.
         11    1    1    2    0    0  0.47546851268E+01 -0.61371937227E+01 -0.49010364486E+03  0.49016513022E+03  0.00000000000E+00 0. -1.
        -15    1    1    2    0    0 -0.14493504642E+02 -0.20866418513E+02  0.53843801158E+02  0.59563258394E+02  0.17770000000E+01 0. -1.
         15    1    1    2    0    0 -0.97183975866E+01 -0.12137828168E+02  0.44716574004E+01  0.16276595872E+02  0.17770000000E+01 0.  1.
</event>
<event>
 6    1  0.6394569E-004  0.4925335E+03  0.7546771E-02  0.9416673E-01
        -11   -1    0    0    0    0  0.00000000000E+00  0.00000000000E+00  0.50000000000E+03  0.50000000000E+03  0.00000000000E+00 0. -1.
         11   -1    0    0    0    0 -0.00000000000E+00 -0.00000000000E+00 -0.50000000000E+03  0.50000000000E+03  0.00000000000E+00 0.  1.
        -11    1    1    2    0    0  0.14655380431E+02 -0.31346179885E+01  0.48948040335E+03  0.48970978270E+03  0.00000000000E+00 0. -1.
         11    1    1    2    0    0 -0.62443090313E+01 -0.48701174408E+01 -0.49537996667E+03  0.49544325691E+03  0.00000000000E+00 0.  1.
        -15    1    1    2    0    0 -0.13113103599E+01  0.54300844360E+01  0.23593023250E+01  0.63189705097E+01  0.17770000000E+01 0.  1.
         15    1    1    2    0    0 -0.70997610397E+01  0.25746509933E+01  0.35402609923E+01  0.85279898834E+01  0.17770000000E+01 0. -1.
</event>
<event>
 6    1  0.8049494E-004  0.5000209E+03  0.7546771E-02  0.9399763E-01
        -11   -1    0    0    0    0  0.00000000000E+00  0.00000000000E+00  0.50000000000E+03  0.50000000000E+03  0.00000000000E+00 0. -1.
         11   -1    0    0    0    0 -0.00000000000E+00 -0.00000000000E+00 -0.50000000000E+03  0.50000000000E+03  0.00000000000E+00 0. -1.
        -11    1    1    2    0    0  0.16524585657E+01 -0.10379962258E+02  0.49986864489E+03  0.49997913595E+03  0.00000000000E+00 0. -1.
         11    1    1    2    0    0 -0.22225392615E+01  0.25067250091E+01 -0.15495812319E+03  0.15499433310E+03  0.00000000000E+00 0. -1.
        -15    1    1    2    0    0  0.12652589927E+01  0.53468700256E+01 -0.22860982104E+03  0.22868274510E+03  0.17770000000E+01 0. -1.
         15    1    1    2    0    0 -0.69517829695E+00  0.25263672238E+01 -0.11630070066E+03  0.11634378585E+03  0.17770000000E+01 0. -1.
</event>
<event>
 6    1  0.6394569E-004  0.5001185E+03  0.7546771E-02  0.9399545E-01
        -11   -1    0    0    0    0  0.00000000000E+00  0.00000000000E+00  0.50000000000E+03  0.50000000000E+03  0.00000000000E+00 0. -1.
         11   -1    0    0    0    0 -0.00000000000E+00 -0.00000000000E+00 -0.50000000000E+03  0.50000000000E+03  0.00000000000E+00 0. -1.
        -11    1    1    2    0    0 -0.48339173735E+01  0.14475075039E+02  0.30282292265E+03  0.30320721798E+03  0.00000000000E+00 0. -1.
         11    1    1    2    0    0  0.90086713718E+01 -0.16394112384E+02 -0.49953137514E+03  0.49988150379E+03  0.00000000000E+00 0. -1.
        -15    1    1    2    0    0 -0.20859352244E+01  0.10503881009E+01  0.17355395835E+03  0.17357876780E+03  0.17770000000E+01 0. -1.
         15    1    1    2    0    0 -0.20888187739E+01  0.86864924459E+00  0.23154494139E+02  0.23332510435E+02  0.17770000000E+01 0. -1.
</event>
<event>
 6    1  0.6394569E-004  0.5003940E+03  0.7546771E-02  0.9398928E-01
        -11   -1    0    0    0    0  0.00000000000E+00  0.00000000000E+00  0.50000000000E+03  0.50000000000E+03  0.00000000000E+00 0. -1.
         11   -1    0    0    0    0 -0.00000000000E+00 -0.00000000000E+00 -0.50000000000E+03  0.50000000000E+03  0.00000000000E+00 0.  1.
        -11    1    1    2    0    0  0.53972749500E+01 -0.11888867492E+02  0.48741267918E+03  0.48758752607E+03  0.00000000000E+00 0. -1.
         11    1    1    2    0    0 -0.49376923563E+01  0.10324052181E+02 -0.49947488819E+03  0.49960597554E+03  0.00000000000E+00 0.  1.
        -15    1    1    2    0    0  0.16132131638E-02  0.98330692492E+00  0.86803591543E+01  0.89147775721E+01  0.17770000000E+01 0. -1.
         15    1    1    2    0    0 -0.46119580683E+00  0.58150838689E+00  0.33818498525E+01  0.38917208277E+01  0.17770000000E+01 0. -1.
</event>
<event>
 6    1  0.6394569E-004  0.5012055E+03  0.7546771E-02  0.9397116E-01
        -11   -1    0    0    0    0  0.00000000000E+00  0.00000000000E+00  0.50000000000E+03  0.50000000000E+03  0.00000000000E+00 0. -1.
         11   -1    0    0    0    0 -0.00000000000E+00 -0.00000000000E+00 -0.50000000000E+03  0.50000000000E+03  0.00000000000E+00 0. -1.
        -11    1    1    2    0    0 -0.92761582126E+00  0.13668178750E+02  0.38612846103E+03  0.38637141199E+03  0.00000000000E+00 0. -1.
         11    1    1    2    0    0  0.62064080922E+01  0.51536466578E+01 -0.49872921601E+03  0.49879445714E+03  0.00000000000E+00 0. -1.
        -15    1    1    2    0    0 -0.29990887869E+01 -0.99840294006E-01  0.21928667425E+02  0.22204249271E+02  0.17770000000E+01 0. -1.
         15    1    1    2    0    0 -0.22797034841E+01 -0.18721985114E+02  0.90672087552E+02  0.92629881596E+02  0.17770000000E+01 0.  1.
</event>
<event>
 6    1  0.6394569E-004  0.5004969E+03  0.7546771E-02  0.9398698E-01
        -11   -1    0    0    0    0  0.00000000000E+00  0.00000000000E+00  0.50000000000E+03  0.50000000000E+03  0.00000000000E+00 0.  1.
         11   -1    0    0    0    0 -0.00000000000E+00 -0.00000000000E+00 -0.50000000000E+03  0.50000000000E+03  0.00000000000E+00 0. -1.
        -11    1    1    2    0    0 -0.58235778430E+01 -0.11177211913E+02  0.35840663221E+03  0.35862816138E+03  0.00000000000E+00 0.  1.
         11    1    1    2    0    0 -0.56017834906E+01  0.72524289052E+01 -0.49941899608E+03  0.49950306440E+03  0.00000000000E+00 0. -1.
        -15    1    1    2    0    0  0.78192141729E+01  0.26322995574E+01  0.12575273332E+03  0.12603561710E+03  0.17770000000E+01 0.  1.
         15    1    1    2    0    0  0.36061471607E+01  0.12924834504E+01  0.15259630548E+02  0.15833157116E+02  0.17770000000E+01 0. -1.
</event>
<event>
 6    1  0.6394569E-004  0.5011454E+03  0.7546771E-02  0.9397251E-01
        -11   -1    0    0    0    0  0.00000000000E+00  0.00000000000E+00  0.50000000000E+03  0.50000000000E+03  0.00000000000E+00 0.  1.
         11   -1    0    0    0    0 -0.00000000000E+00 -0.00000000000E+00 -0.50000000000E+03  0.50000000000E+03  0.00000000000E+00 0.  1.
        -11    1    1    2    0    0 -0.90793256021E+01  0.12304888843E+02  0.43544956803E+03  0.43571799452E+03  0.00000000000E+00 0.  1.
         11    1    1    2    0    0 -0.50191400414E+01 -0.86161007807E+01 -0.49875497104E+03  0.49885463825E+03  0.00000000000E+00 0.  1.
        -15    1    1    2    0    0  0.15865572624E+01 -0.24195570966E+00  0.37563201976E+01  0.44545905468E+01  0.17770000000E+01 0. -1.
         15    1    1    2    0    0  0.12511908381E+02 -0.34468323526E+01  0.59549082812E+02  0.60972776691E+02  0.17770000000E+01 0.  1.
</event>
<event>
 6    1  0.6394569E-004  0.4903403E+03  0.7546771E-02  0.9421687E-01
        -11   -1    0    0    0    0  0.00000000000E+00  0.00000000000E+00  0.50000000000E+03  0.50000000000E+03  0.00000000000E+00 0. -1.
         11   -1    0    0    0    0 -0.00000000000E+00 -0.00000000000E+00 -0.50000000000E+03  0.50000000000E+03  0.00000000000E+00 0. -1.
        -11    1    1    2    0    0 -0.16137361926E+00  0.13360010279E+02  0.49138035645E+03  0.49156197027E+03  0.00000000000E+00 0. -1.
         11    1    1    2    0    0 -0.92819554493E+01  0.14600615902E+01 -0.48918832483E+03  0.48927855423E+03  0.00000000000E+00 0. -1.
        -15    1    1    2    0    0  0.91256541898E+01 -0.90064156205E+01 -0.16222488011E+01  0.13045401753E+02  0.17770000000E+01 0.  1.
         15    1    1    2    0    0  0.31767487873E+00 -0.58136562486E+01 -0.56978280909E+00  0.61140737446E+01  0.17770000000E+01 0. -1.
</event>
<event>
 6    1  0.6394569E-004  0.5037786E+03  0.7546771E-02  0.9391394E-01
        -11   -1    0    0    0    0  0.00000000000E+00  0.00000000000E+00  0.50000000000E+03  0.50000000000E+03  0.00000000000E+00 0.  1.
         11   -1    0    0    0    0 -0.00000000000E+00 -0.00000000000E+00 -0.50000000000E+03  0.50000000000E+03  0.00000000000E+00 0. -1.
        -11    1    1    2    0    0 -0.12073568383E+02  0.13168317354E+02  0.49589965734E+03  0.49622136773E+03  0.00000000000E+00 0.  1.
         11    1    1    2    0    0 -0.20493543443E+00 -0.90028785358E+01 -0.47285086097E+03  0.47293660309E+03  0.00000000000E+00 0. -1.
        -15    1    1    2    0    0  0.17116935899E+01 -0.38168866685E+01 -0.18747428784E+02  0.19290472618E+02  0.17770000000E+01 0.  1.
         15    1    1    2    0    0  0.10566810227E+02 -0.34855215003E+00 -0.43013675828E+01  0.11551556565E+02  0.17770000000E+01 0. -1.
</event>
<event>
 6    1  0.6394569E-004  0.5012041E+03  0.7546771E-02  0.9397120E-01
        -11   -1    0    0    0    0  0.00000000000E+00  0.00000000000E+00  0.50000000000E+03  0.50000000000E+03  0.00000000000E+00 0. -1.
         11   -1    0    0    0    0 -0.00000000000E+00 -0.00000000000E+00 -0.50000000000E+03  0.50000000000E+03  0.00000000000E+00 0.  1.
        -11    1    1    2    0    0  0.49352151956E+01 -0.10647526510E+02  0.48652485161E+03  0.48666637176E+03  0.00000000000E+00 0. -1.
         11    1    1    2    0    0 -0.50387057378E+01  0.68437362607E+01 -0.49872351188E+03  0.49879591677E+03  0.00000000000E+00 0.  1.
        -15    1    1    2    0    0  0.60971430383E+00 -0.13559781557E+01  0.48032746444E+01  0.53328795786E+01  0.17770000000E+01 0.  1.
         15    1    1    2    0    0 -0.50622376172E+00  0.51597684050E+01  0.73953856346E+01  0.92048318928E+01  0.17770000000E+01 0. -1.
</event>
<event>
 6    1  0.6394569E-004  0.4657216E+03  0.7546771E-02  0.9479956E-01
        -11   -1    0    0    0    0  0.00000000000E+00  0.00000000000E+00  0.50000000000E+03  0.50000000000E+03  0.00000000000E+00 0.  1.
         11   -1    0    0    0    0 -0.00000000000E+00 -0.00000000000E+00 -0.50000000000E+03  0.50000000000E+03  0.00000000000E+00 0. -1.
        -11    1    1    2    0    0  0.27053202913E+02  0.29675577765E+02  0.45708019266E+03  0.45884073297E+03  0.00000000000E+00 0.  1.
         11    1    1    2    0    0 -0.18503712879E+00  0.77106467357E+01 -0.47382725343E+03  0.47389002353E+03  0.00000000000E+00 0. -1.
        -15    1    1    2    0    0 -0.29681492386E+01 -0.19694440503E+02  0.28861322729E+02  0.35111459316E+02  0.17770000000E+01 0. -1.
         15    1    1    2    0    0 -0.23900016546E+02 -0.17691783998E+02 -0.12114261964E+02  0.32157784188E+02  0.17770000000E+01 0.  1.
</event>
<event>
 6    1  0.6394569E-004  0.5004151E+03  0.7546771E-02  0.9398881E-01
        -11   -1    0    0    0    0  0.00000000000E+00  0.00000000000E+00  0.50000000000E+03  0.50000000000E+03  0.00000000000E+00 0. -1.
         11   -1    0    0    0    0 -0.00000000000E+00 -0.00000000000E+00 -0.50000000000E+03  0.50000000000E+03  0.00000000000E+00 0. -1.
        -11    1    1    2    0    0  0.79705431029E+01  0.17931013970E+02  0.14147730031E+03  0.14283163978E+03  0.00000000000E+00 0. -1.
         11    1    1    2    0    0 -0.13724398064E+02 -0.20582126701E+02 -0.49897199214E+03  0.49958485964E+03  0.00000000000E+00 0. -1.
        -15    1    1    2    0    0  0.10534540622E+01  0.10982318018E+01  0.16638547891E+03  0.16640192667E+03  0.17770000000E+01 0. -1.
         15    1    1    2    0    0  0.47004008986E+01  0.15528809296E+01  0.19110921293E+03  0.19118157391E+03  0.17770000000E+01 0. -1.
</event>
<event>
 6    1  0.6394569E-004  0.5000213E+03  0.7546771E-02  0.9399762E-01
        -11   -1    0    0    0    0  0.00000000000E+00  0.00000000000E+00  0.50000000000E+03  0.50000000000E+03  0.00000000000E+00 0.  1.
         11   -1    0    0    0    0 -0.00000000000E+00 -0.00000000000E+00 -0.50000000000E+03  0.50000000000E+03  0.00000000000E+00 0. -1.
        -11    1    1    2    0    0  0.18392898091E+01  0.69891417608E+00  0.10433458339E+03  0.10435313488E+03  0.00000000000E+00 0.  1.
         11    1    1    2    0    0 -0.62700800169E+01  0.40448812947E+01 -0.49992298407E+03  0.49997866451E+03  0.00000000000E+00 0. -1.
        -15    1    1    2    0    0  0.31825521323E+01 -0.23370459790E+01  0.28307004401E+03  0.28310315782E+03  0.17770000000E+01 0. -1.
         15    1    1    2    0    0  0.12482380754E+01 -0.24067494917E+01  0.11251835667E+03  0.11256504278E+03  0.17770000000E+01 0.  1.
</event>
<event>
 6    1  0.6394569E-004  0.5000881E+03  0.7546771E-02  0.9399613E-01
        -11   -1    0    0    0    0  0.00000000000E+00  0.00000000000E+00  0.50000000000E+03  0.50000000000E+03  0.00000000000E+00 0. -1.
         11   -1    0    0    0    0 -0.00000000000E+00 -0.00000000000E+00 -0.50000000000E+03  0.50000000000E+03  0.00000000000E+00 0. -1.
        -11    1    1    2    0    0  0.62698363743E+01  0.86965553653E+01  0.33134334809E+03  0.33151674957E+03  0.00000000000E+00 0. -1.
         11    1    1    2    0    0 -0.92043853181E+01 -0.58448606366E+01 -0.49979301452E+03  0.49991193271E+03  0.00000000000E+00 0. -1.
        -15    1    1    2    0    0  0.53174152851E+00 -0.26474574837E+01  0.10681519582E+03  0.10686409859E+03  0.17770000000E+01 0.  1.
         15    1    1    2    0    0  0.24028074153E+01 -0.20423724496E+00  0.61634470602E+02  0.61707219122E+02  0.17770000000E+01 0.  1.
</event>
<event>
 6    1  0.6394569E-004  0.5091590E+03  0.7546771E-02  0.9379546E-01
        -11   -1    0    0    0    0  0.00000000000E+00  0.00000000000E+00  0.50000000000E+03  0.50000000000E+03  0.00000000000E+00 0.  1.
         11   -1    0    0    0    0 -0.00000000000E+00 -0.00000000000E+00 -0.50000000000E+03  0.50000000000E+03  0.00000000000E+00 0. -1.
        -11    1    1    2    0    0 -0.28769010544E+03  0.21365187641E+02  0.31133033509E+03  0.42443921303E+03  0.00000000000E+00 0.  1.
         11    1    1    2    0    0  0.29104926916E+03 -0.22040268855E+02 -0.39462574310E+03  0.49084104112E+03  0.00000000000E+00 0. -1.
        -15    1    1    2    0    0  0.34545793020E+01  0.22758508185E+01  0.88936723613E+01  0.99683876416E+01  0.17770000000E+01 0.  1.
         15    1    1    2    0    0 -0.68137430177E+01 -0.16007696044E+01  0.74401735651E+02  0.74751358209E+02  0.17770000000E+01 0. -1.
</event>
<event>
 6    1  0.6394569E-004  0.5008431E+03  0.7546771E-02  0.9397925E-01
        -11   -1    0    0    0    0  0.00000000000E+00  0.00000000000E+00  0.50000000000E+03  0.50000000000E+03  0.00000000000E+00 0.  1.
         11   -1    0    0    0    0 -0.00000000000E+00 -0.00000000000E+00 -0.50000000000E+03  0.50000000000E+03  0.00000000000E+00 0.  1.
        -11    1    1    2    0    0  0.99508432085E+01 -0.70332264830E+01  0.44882810082E+03  0.44899348508E+03  0.00000000000E+00 0.  1.
         11    1    1    2    0    0 -0.74213114917E+01 -0.45782544705E+01 -0.49908077635E+03  0.49915694686E+03  0.00000000000E+00 0.  1.
        -15    1    1    2    0    0  0.44404960571E+00  0.44367196425E+01  0.18476536420E+02  0.19089834685E+02  0.17770000000E+01 0.  1.
         15    1    1    2    0    0 -0.29735813225E+01  0.71747613110E+01  0.31776139103E+02  0.32759733379E+02  0.17770000000E+01 0. -1.
</event>
<event>
 6    1  0.6394569E-004  0.4748998E+03  0.7546771E-02  0.9457794E-01
        -11   -1    0    0    0    0  0.00000000000E+00  0.00000000000E+00  0.50000000000E+03  0.50000000000E+03  0.00000000000E+00 0. -1.
         11   -1    0    0    0    0 -0.00000000000E+00 -0.00000000000E+00 -0.50000000000E+03  0.50000000000E+03  0.00000000000E+00 0. -1.
        -11    1    1    2    0    0 -0.34762643443E+01 -0.34423330328E+02  0.47231975432E+03  0.47358526202E+03  0.00000000000E+00 0. -1.
         11    1    1    2    0    0 -0.66515928482E+01  0.40736687032E+01 -0.47669926497E+03  0.47676307291E+03  0.00000000000E+00 0. -1.
        -15    1    1    2    0    0  0.52693628252E+01  0.29045501548E+02  0.18277123917E+02  0.34765188515E+02  0.17770000000E+01 0.  1.
         15    1    1    2    0    0  0.48584943673E+01  0.13041600763E+01 -0.13897613263E+02  0.14886476562E+02  0.17770000000E+01 0. -1.
</event>
<event>
 6    1  0.6394569E-004  0.5086201E+03  0.7546771E-02  0.9380726E-01
        -11   -1    0    0    0    0  0.00000000000E+00  0.00000000000E+00  0.50000000000E+03  0.50000000000E+03  0.00000000000E+00 0.  1.
         11   -1    0    0    0    0 -0.00000000000E+00 -0.00000000000E+00 -0.50000000000E+03  0.50000000000E+03  0.00000000000E+00 0. -1.
        -11    1    1    2    0    0 -0.19687797982E+02  0.96425813113E+01  0.49089065563E+03  0.49137991874E+03  0.00000000000E+00 0.  1.
         11    1    1    2    0    0 -0.61353084944E+01  0.17926760061E+02 -0.45574351928E+03  0.45613722289E+03  0.00000000000E+00 0. -1.
        -15    1    1    2    0    0  0.19735399732E+02 -0.16845821704E+02 -0.19637996326E+02  0.32589512734E+02  0.17770000000E+01 0.  1.
         15    1    1    2    0    0  0.60877067438E+01 -0.10723519668E+02 -0.15509140020E+02  0.19893345637E+02  0.17770000000E+01 0. -1.
</event>
<event>
 6    1  0.6394569E-004  0.5011273E+03  0.7546771E-02  0.9397291E-01
        -11   -1    0    0    0    0  0.00000000000E+00  0.00000000000E+00  0.50000000000E+03  0.50000000000E+03  0.00000000000E+00 0. -1.
         11   -1    0    0    0    0 -0.00000000000E+00 -0.00000000000E+00 -0.50000000000E+03  0.50000000000E+03  0.00000000000E+00 0.  1.
        -11    1    1    2    0    0  0.38831152862E+01 -0.11739018328E+02  0.35196513202E+03  0.35218225011E+03  0.00000000000E+00 0. -1.
         11    1    1    2    0    0  0.30354609074E+01 -0.10455579227E+02 -0.49875390868E+03  0.49887272383E+03  0.00000000000E+00 0.  1.
        -15    1    1    2    0    0 -0.41919825759E+01  0.28305864596E+01  0.23610745588E+02  0.24211773455E+02  0.17770000000E+01 0. -1.
         15    1    1    2    0    0 -0.27265936177E+01  0.19364011096E+02  0.12317803107E+03  0.12473325261E+03  0.17770000000E+01 0.  1.
</event>
<event>
 6    1  0.6394569E-004  0.5026148E+03  0.7546771E-02  0.9393978E-01
        -11   -1    0    0    0    0  0.00000000000E+00  0.00000000000E+00  0.50000000000E+03  0.50000000000E+03  0.00000000000E+00 0. -1.
         11   -1    0    0    0    0 -0.00000000000E+00 -0.00000000000E+00 -0.50000000000E+03  0.50000000000E+03  0.00000000000E+00 0. -1.
        -11    1    1    2    0    0 -0.41039853944E+01 -0.14797500912E+02  0.43069391551E+03  0.43096758299E+03  0.00000000000E+00 0. -1.
         11    1    1    2    0    0 -0.13165881103E+02  0.22931992398E+01 -0.49720567519E+03  0.49738524569E+03  0.00000000000E+00 0. -1.
        -15    1    1    2    0    0  0.70886208865E+00  0.82650940942E+01  0.31817922880E+02  0.32929503659E+02  0.17770000000E+01 0. -1.
         15    1    1    2    0    0  0.16561004409E+02  0.42392075779E+01  0.34693836798E+02  0.38717667656E+02  0.17770000000E+01 0.  1.
</event>
<event>
 6    1  0.6394569E-004  0.3752741E+03  0.7546771E-02  0.9732418E-01
        -11   -1    0    0    0    0  0.00000000000E+00  0.00000000000E+00  0.50000000000E+03  0.50000000000E+03  0.00000000000E+00 0. -1.
         11   -1    0    0    0    0 -0.00000000000E+00 -0.00000000000E+00 -0.50000000000E+03  0.50000000000E+03  0.00000000000E+00 0.  1.
        -11    1    1    2    0    0  0.28049205147E+02 -0.18010277402E+03  0.29779377004E+03  0.34914881726E+03  0.00000000000E+00 0. -1.
         11    1    1    2    0    0  0.49119150456E+02  0.29037958764E+02 -0.42737193433E+03  0.43116431235E+03  0.00000000000E+00 0.  1.
        -15    1    1    2    0    0 -0.26750180556E+02  0.12163963869E+02  0.17884517022E+02  0.34446303937E+02  0.17770000000E+01 0. -1.
         15    1    1    2    0    0 -0.50418175047E+02  0.13890085138E+03  0.11169364727E+03  0.18524056645E+03  0.17770000000E+01 0.  1.
</event>
<event>
 6    1  0.6394569E-004  0.4357637E+03  0.7546771E-02  0.9556260E-01
        -11   -1    0    0    0    0  0.00000000000E+00  0.00000000000E+00  0.50000000000E+03  0.50000000000E+03  0.00000000000E+00 0. -1.
         11   -1    0    0    0    0 -0.00000000000E+00 -0.00000000000E+00 -0.50000000000E+03  0.50000000000E+03  0.00000000000E+00 0. -1.
        -11    1    1    2    0    0 -0.60999905610E+01  0.97407552923E+02  0.40994581216E+03  0.42140361906E+03  0.00000000000E+00 0. -1.
         11    1    1    2    0    0 -0.43993319640E+00  0.64915942291E+01 -0.45756384353E+03  0.45761010177E+03  0.00000000000E+00 0. -1.
        -15    1    1    2    0    0 -0.48677531380E+01  0.13382297157E+01  0.22022778746E+01  0.57873686785E+01  0.17770000000E+01 0. -1.
         15    1    1    2    0    0  0.11407676895E+02 -0.10523737687E+03  0.45415753501E+02  0.11519891049E+03  0.17770000000E+01 0.  1.
</event>
<event>
 6    1  0.6394569E-004  0.5004915E+03  0.7546771E-02  0.9398711E-01
        -11   -1    0    0    0    0  0.00000000000E+00  0.00000000000E+00  0.50000000000E+03  0.50000000000E+03  0.00000000000E+00 0.  1.
         11   -1    0    0    0    0 -0.00000000000E+00 -0.00000000000E+00 -0.50000000000E+03  0.50000000000E+03  0.00000000000E+00 0. -1.
        -11    1    1    2    0    0  0.99247513508E+01  0.97164857974E+01  0.49931535823E+03  0.49950849617E+03  0.00000000000E+00 0.  1.
         11    1    1    2    0    0 -0.55363648496E+00  0.47018301452E+01 -0.29135151452E+03  0.29138997707E+03  0.00000000000E+00 0. -1.
        -15    1    1    2    0    0 -0.43941032623E+01 -0.76055668293E+01 -0.16699148981E+03  0.16723177984E+03  0.17770000000E+01 0. -1.
         15    1    1    2    0    0 -0.49770116035E+01 -0.68127491133E+01 -0.40972353893E+02  0.41869746924E+02  0.17770000000E+01 0.  1.
</event>
<event>
 6    1  0.6394569E-004  0.5062411E+03  0.7546771E-02  0.9385952E-01
        -11   -1    0    0    0    0  0.00000000000E+00  0.00000000000E+00  0.50000000000E+03  0.50000000000E+03  0.00000000000E+00 0. -1.
         11   -1    0    0    0    0 -0.00000000000E+00 -0.00000000000E+00 -0.50000000000E+03  0.50000000000E+03  0.00000000000E+00 0. -1.
        -11    1    1    2    0    0 -0.18412398875E+02 -0.36103954920E+02  0.49209278690E+03  0.49375887122E+03  0.00000000000E+00 0. -1.
         11    1    1    2    0    0 -0.28492047625E+01 -0.11650257262E+02 -0.38232816930E+03  0.38251624214E+03  0.00000000000E+00 0. -1.
        -15    1    1    2    0    0  0.11094365936E+02  0.45018138228E+02 -0.90344795133E+02  0.10156307135E+03  0.17770000000E+01 0.  1.
         15    1    1    2    0    0  0.10167237701E+02  0.27360739539E+01 -0.19419822466E+02  0.22161815285E+02  0.17770000000E+01 0. -1.
</event>
<event>
 6    1  0.6394569E-004  0.5003928E+03  0.7546771E-02  0.9398931E-01
        -11   -1    0    0    0    0  0.00000000000E+00  0.00000000000E+00  0.50000000000E+03  0.50000000000E+03  0.00000000000E+00 0. -1.
         11   -1    0    0    0    0 -0.00000000000E+00 -0.00000000000E+00 -0.50000000000E+03  0.50000000000E+03  0.00000000000E+00 0. -1.
        -11    1    1    2    0    0  0.72530701627E+01 -0.14526490766E+02  0.49934330497E+03  0.49960720789E+03  0.00000000000E+00 0. -1.
         11    1    1    2    0    0  0.16375474877E+01 -0.23769975557E+01 -0.18074878966E+03  0.18077183586E+03  0.00000000000E+00 0. -1.
        -15    1    1    2    0    0  0.26066350460E+01 -0.14387395568E+01 -0.27602359814E+02  0.27819283134E+02  0.17770000000E+01 0.  1.
         15    1    1    2    0    0 -0.11497252696E+02  0.18342227879E+02 -0.29099215549E+03  0.29180167311E+03  0.17770000000E+01 0. -1.
</event>
<event>
 6    1  0.6394569E-004  0.5118771E+03  0.7546771E-02  0.9373619E-01
        -11   -1    0    0    0    0  0.00000000000E+00  0.00000000000E+00  0.50000000000E+03  0.50000000000E+03  0.00000000000E+00 0.  1.
         11   -1    0    0    0    0 -0.00000000000E+00 -0.00000000000E+00 -0.50000000000E+03  0.50000000000E+03  0.00000000000E+00 0.  1.
        -11    1    1    2    0    0  0.13078848851E+02 -0.42155109248E+02  0.48612331222E+03  0.48812291916E+03  0.00000000000E+00 0.  1.
         11    1    1    2    0    0  0.39115020684E+01 -0.11189277196E+02 -0.43464544800E+03  0.43480704369E+03  0.00000000000E+00 0.  1.
        -15    1    1    2    0    0 -0.15150063387E+02  0.50148417629E+02 -0.43551504299E+02  0.68148950593E+02  0.17770000000E+01 0. -1.
         15    1    1    2    0    0 -0.18402875321E+01  0.31959688156E+01 -0.79263599206E+01  0.89210865628E+01  0.17770000000E+01 0.  1.
</event>
<event>
 6    1  0.6394569E-004  0.5015740E+03  0.7546771E-02  0.9396295E-01
        -11   -1    0    0    0    0  0.00000000000E+00  0.00000000000E+00  0.50000000000E+03  0.50000000000E+03  0.00000000000E+00 0.  1.
         11   -1    0    0    0    0 -0.00000000000E+00 -0.00000000000E+00 -0.50000000000E+03  0.50000000000E+03  0.00000000000E+00 0. -1.
        -11    1    1    2    0    0 -0.78719176103E+01 -0.23690251907E+02  0.12265941318E+03  0.12517398597E+03  0.00000000000E+00 0.  1.
         11    1    1    2    0    0  0.25848735301E+01  0.70451203296E+01 -0.49836953744E+03  0.49842603377E+03  0.00000000000E+00 0. -1.
        -15    1    1    2    0    0 -0.31722735997E+01 -0.36324107503E+00  0.52178090791E+02  0.52305890217E+02  0.17770000000E+01 0. -1.
         15    1    1    2    0    0  0.84593176799E+01  0.17008372653E+02  0.32353203346E+03  0.32409409004E+03  0.17770000000E+01 0.  1.
</event>
<event>
 6    1  0.6394569E-004  0.4769751E+03  0.7546771E-02  0.9452857E-01
        -11   -1    0    0    0    0  0.00000000000E+00  0.00000000000E+00  0.50000000000E+03  0.50000000000E+03  0.00000000000E+00 0. -1.
         11   -1    0    0    0    0 -0.00000000000E+00 -0.00000000000E+00 -0.50000000000E+03  0.50000000000E+03  0.00000000000E+00 0.  1.
        -11    1    1    2    0    0  0.18656329832E+02 -0.32446427328E+02  0.47149439617E+03  0.47297758394E+03  0.00000000000E+00 0. -1.
         11    1    1    2    0    0  0.11499694488E+02  0.73754310413E+01 -0.48163851461E+03  0.48183223087E+03  0.00000000000E+00 0.  1.
        -15    1    1    2    0    0 -0.48222705473E+01 -0.42419270352E+00 -0.39984432813E+01  0.65252977215E+01  0.17770000000E+01 0. -1.
         15    1    1    2    0    0 -0.25333753772E+02  0.25495188990E+02  0.14142561714E+02  0.38664887465E+02  0.17770000000E+01 0.  1.
</event>
<event>
 6    1  0.6394569E-004  0.4835702E+03  0.7546771E-02  0.9437342E-01
        -11   -1    0    0    0    0  0.00000000000E+00  0.00000000000E+00  0.50000000000E+03  0.50000000000E+03  0.00000000000E+00 0. -1.
         11   -1    0    0    0    0 -0.00000000000E+00 -0.00000000000E+00 -0.50000000000E+03  0.50000000000E+03  0.00000000000E+00 0.  1.
        -11    1    1    2    0    0 -0.19342722909E+01  0.24697244964E+02  0.48409626967E+03  0.48472971193E+03  0.00000000000E+00 0. -1.
         11    1    1    2    0    0 -0.46578652024E+01  0.54450799619E+01 -0.48285041485E+03  0.48290358015E+03  0.00000000000E+00 0.  1.
        -15    1    1    2    0    0  0.31547062433E+01 -0.27097618572E+02 -0.23113500900E+00  0.27339426771E+02  0.17770000000E+01 0. -1.
         15    1    1    2    0    0  0.34374312500E+01 -0.30447063539E+01 -0.10147198132E+01  0.50272811419E+01  0.17770000000E+01 0.  1.
</event>
<event>
 6    1  0.6394569E-004  0.5005558E+03  0.7546771E-02  0.9398567E-01
        -11   -1    0    0    0    0  0.00000000000E+00  0.00000000000E+00  0.50000000000E+03  0.50000000000E+03  0.00000000000E+00 0.  1.
         11   -1    0    0    0    0 -0.00000000000E+00 -0.00000000000E+00 -0.50000000000E+03  0.50000000000E+03  0.00000000000E+00 0.  1.
        -11    1    1    2    0    0  0.16493711861E+02  0.10266859753E+02  0.24472080010E+03  0.24549077567E+03  0.00000000000E+00 0.  1.
         11    1    1    2    0    0 -0.79968986844E+01 -0.74211551713E+01 -0.49932507557E+03  0.49944424616E+03  0.00000000000E+00 0.  1.
        -15    1    1    2    0    0  0.26730102083E+01 -0.23513413733E+01  0.60213635178E+02  0.60344953229E+02  0.17770000000E+01 0. -1.
         15    1    1    2    0    0 -0.11169823385E+02 -0.49436320804E+00  0.19439064029E+03  0.19472002494E+03  0.17770000000E+01 0.  1.
</event>
<event>
 6    1  0.6394569E-004  0.5021619E+03  0.7546771E-02  0.9394985E-01
        -11   -1    0    0    0    0  0.00000000000E+00  0.00000000000E+00  0.50000000000E+03  0.50000000000E+03  0.00000000000E+00 0.  1.
         11   -1    0    0    0    0 -0.00000000000E+00 -0.00000000000E+00 -0.50000000000E+03  0.50000000000E+03  0.00000000000E+00 0.  1.
        -11    1    1    2    0    0  0.18999346260E+02  0.10386997604E+01  0.29891028745E+03  0.29951529844E+03  0.00000000000E+00 0.  1.
         11    1    1    2    0    0  0.12837082741E+01  0.16357315317E+02 -0.49756769121E+03  0.49783814338E+03  0.00000000000E+00 0.  1.
        -15    1    1    2    0    0 -0.25312214355E+02 -0.41704069702E+01  0.13180936526E+03  0.13429432970E+03  0.17770000000E+01 0.  1.
         15    1    1    2    0    0  0.50291598213E+01 -0.13225608107E+02  0.66848038498E+02  0.68352228481E+02  0.17770000000E+01 0. -1.
</event>
<event>
 6    1  0.6394569E-004  0.5040603E+03  0.7546771E-02  0.9390770E-01
        -11   -1    0    0    0    0  0.00000000000E+00  0.00000000000E+00  0.50000000000E+03  0.50000000000E+03  0.00000000000E+00 0.  1.
         11   -1    0    0    0    0 -0.00000000000E+00 -0.00000000000E+00 -0.50000000000E+03  0.50000000000E+03  0.00000000000E+00 0. -1.
        -11    1    1    2    0    0  0.12420463697E+02  0.32976581560E+02 -0.80526064713E+02  0.87898634506E+02  0.00000000000E+00 0.  1.
         11    1    1    2    0    0 -0.15244623786E+02 -0.24267779568E+02 -0.41517373846E+03  0.41616169548E+03  0.00000000000E+00 0. -1.
        -15    1    1    2    0    0  0.36399199234E+01 -0.29603908112E+01  0.63722812073E+02  0.63920008122E+02  0.17770000000E+01 0. -1.
         15    1    1    2    0    0 -0.81575983415E+00 -0.57484111801E+01  0.43197699110E+03  0.43201966189E+03  0.17770000000E+01 0.  1.
</event>
<event>
 6    1  0.6394569E-004  0.5004626E+03  0.7546771E-02  0.9398775E-01
        -11   -1    0    0    0    0  0.00000000000E+00  0.00000000000E+00  0.50000000000E+03  0.50000000000E+03  0.00000000000E+00 0. -1.
         11   -1    0    0    0    0 -0.00000000000E+00 -0.00000000000E+00 -0.50000000000E+03  0.50000000000E+03  0.00000000000E+00 0. -1.
        -11    1    1    2    0    0 -0.87128604118E+01  0.10556688602E+02  0.49934987505E+03  0.49953744136E+03  0.00000000000E+00 0. -1.
         11    1    1    2    0    0 -0.25225471342E+01 -0.46451884149E+01 -0.38868626192E+03  0.38872220315E+03  0.00000000000E+00 0. -1.
        -15    1    1    2    0    0  0.11360504263E+02 -0.66423484480E+01 -0.10228153062E+03  0.10313995872E+03  0.17770000000E+01 0. -1.
         15    1    1    2    0    0 -0.12509671707E+00  0.73084826061E+00 -0.83820825096E+01  0.86003967679E+01  0.17770000000E+01 0. -1.
</event>
<event>
 6    1  0.6394569E-004  0.5013346E+03  0.7546771E-02  0.9396828E-01
        -11   -1    0    0    0    0  0.00000000000E+00  0.00000000000E+00  0.50000000000E+03  0.50000000000E+03  0.00000000000E+00 0.  1.
         11   -1    0    0    0    0 -0.00000000000E+00 -0.00000000000E+00 -0.50000000000E+03  0.50000000000E+03  0.00000000000E+00 0.  1.
        -11    1    1    2    0    0 -0.99715843240E+01  0.37035285190E+01  0.49855189413E+03  0.49866535849E+03  0.00000000000E+00 0.  1.
         11    1    1    2    0    0  0.13197311791E+02 -0.29323207140E+01 -0.32575987781E+03  0.32604028207E+03  0.00000000000E+00 0.  1.
        -15    1    1    2    0    0 -0.11835331495E+02  0.17282539511E+01 -0.15318861732E+03  0.15366512987E+03  0.17770000000E+01 0. -1.
         15    1    1    2    0    0  0.86096040276E+01 -0.24994617562E+01 -0.19603398994E+02  0.21629229568E+02  0.17770000000E+01 0.  1.
</event>
<event>
 6    1  0.6394569E-004  0.4745956E+03  0.7546771E-02  0.9458520E-01
        -11   -1    0    0    0    0  0.00000000000E+00  0.00000000000E+00  0.50000000000E+03  0.50000000000E+03  0.00000000000E+00 0. -1.
         11   -1    0    0    0    0 -0.00000000000E+00 -0.00000000000E+00 -0.50000000000E+03  0.50000000000E+03  0.00000000000E+00 0.  1.
        -11    1    1    2    0    0  0.42341804022E+02  0.26295417668E+02 -0.21989722231E+01  0.49891009581E+02  0.00000000000E+00 0. -1.
         11    1    1    2    0    0 -0.35535234996E+02 -0.24888572190E+02 -0.47274014764E+03  0.47472670153E+03  0.00000000000E+00 0.  1.
        -15    1    1    2    0    0 -0.10101878872E+02  0.43466344502E+01  0.16930767508E+03  0.16967376862E+03  0.17770000000E+01 0.  1.
         15    1    1    2    0    0  0.32953098467E+01 -0.57534799281E+01  0.30563144478E+03  0.30570852027E+03  0.17770000000E+01 0. -1.
</event>
<event>
 6    1  0.6394569E-004  0.5010507E+03  0.7546771E-02  0.9397462E-01
        -11   -1    0    0    0    0  0.00000000000E+00  0.00000000000E+00  0.50000000000E+03  0.50000000000E+03  0.00000000000E+00 0. -1.
         11   -1    0    0    0    0 -0.00000000000E+00 -0.00000000000E+00 -0.50000000000E+03  0.50000000000E+03  0.00000000000E+00 0.  1.
        -11    1    1    2    0    0 -0.12025452422E+02 -0.64805800574E+01  0.38973844056E+03  0.38997777049E+03  0.00000000000E+00 0. -1.
         11    1    1    2    0    0  0.64805016592E+01  0.89819563417E+01 -0.49882633863E+03  0.49894928455E+03  0.00000000000E+00 0.  1.
        -15    1    1    2    0    0  0.11760548780E+02  0.23643155837E+01  0.50868681007E+02  0.52294176848E+02  0.17770000000E+01 0. -1.
         15    1    1    2    0    0 -0.62155980175E+01 -0.48656918679E+01  0.58219217065E+02  0.58778768112E+02  0.17770000000E+01 0.  1.
</event>
<event>
 6    1  0.6394569E-004  0.5005405E+03  0.7546771E-02  0.9398601E-01
        -11   -1    0    0    0    0  0.00000000000E+00  0.00000000000E+00  0.50000000000E+03  0.50000000000E+03  0.00000000000E+00 0. -1.
         11   -1    0    0    0    0 -0.00000000000E+00 -0.00000000000E+00 -0.50000000000E+03  0.50000000000E+03  0.00000000000E+00 0.  1.
        -11    1    1    2    0    0 -0.35734506053E+01 -0.80742956914E+01  0.49938146149E+03  0.49945951576E+03  0.00000000000E+00 0. -1.
         11    1    1    2    0    0  0.29427023969E+01  0.90390576652E+01 -0.47355971103E+03  0.47365511078E+03  0.00000000000E+00 0.  1.
        -15    1    1    2    0    0  0.18850789203E+01  0.23664213901E+01 -0.12002812213E+02  0.12505147050E+02  0.17770000000E+01 0. -1.
         15    1    1    2    0    0 -0.12543307120E+01 -0.33311833638E+01 -0.13818938252E+02  0.14380226408E+02  0.17770000000E+01 0. -1.
</event>
<event>
 6    1  0.6394569E-004  0.5023576E+03  0.7546771E-02  0.9394550E-01
        -11   -1    0    0    0    0  0.00000000000E+00  0.00000000000E+00  0.50000000000E+03  0.50000000000E+03  0.00000000000E+00 0. -1.
         11   -1    0    0    0    0 -0.00000000000E+00 -0.00000000000E+00 -0.50000000000E+03  0.50000000000E+03  0.00000000000E+00 0.  1.
        -11    1    1    2    0    0 -0.11704244997E+02  0.17858808606E+02  0.32851265345E+03  0.32920584726E+03  0.00000000000E+00 0. -1.
         11    1    1    2    0    0 -0.23824686276E+02 -0.10423181459E+02 -0.49696248690E+03  0.49764241356E+03  0.00000000000E+00 0.  1.
        -15    1    1    2    0    0 -0.11995106074E+00  0.16394099257E+01  0.22382614729E+02  0.22513134483E+02  0.17770000000E+01 0.  1.
         15    1    1    2    0    0  0.35648882334E+02 -0.90750370719E+01  0.14606721872E+03  0.15063860469E+03  0.17770000000E+01 0. -1.
</event>
<event>
 6    1  0.6394569E-004  0.5041814E+03  0.7546771E-02  0.9390502E-01
        -11   -1    0    0    0    0  0.00000000000E+00  0.00000000000E+00  0.50000000000E+03  0.50000000000E+03  0.00000000000E+00 0.  1.
         11   -1    0    0    0    0 -0.00000000000E+00 -0.00000000000E+00 -0.50000000000E+03  0.50000000000E+03  0.00000000000E+00 0.  1.
        -11    1    1    2    0    0  0.10906645987E+02 -0.10624950554E+02  0.45007490969E+03  0.45033239816E+03  0.00000000000E+00 0.  1.
         11    1    1    2    0    0 -0.10459923948E+02  0.24140353801E+02 -0.49512011702E+03  0.49581861297E+03  0.00000000000E+00 0.  1.
        -15    1    1    2    0    0 -0.88533913000E+01 -0.25158873371E+01  0.34736482871E+01  0.99968088921E+01  0.17770000000E+01 0. -1.
         15    1    1    2    0    0  0.84066692613E+01 -0.10999515910E+02  0.41571559046E+02  0.43852179978E+02  0.17770000000E+01 0.  1.
</event>
<event>
 6    1  0.1155967E-003  0.5001748E+03  0.7546771E-02  0.9399419E-01
        -11   -1    0    0    0    0  0.00000000000E+00  0.00000000000E+00  0.50000000000E+03  0.50000000000E+03  0.00000000000E+00 0.  1.
         11   -1    0    0    0    0 -0.00000000000E+00 -0.00000000000E+00 -0.50000000000E+03  0.50000000000E+03  0.00000000000E+00 0. -1.
        -11    1    1    2    0    0  0.32106874907E+02  0.60118784519E+02  0.49515663065E+03  0.49982517799E+03  0.00000000000E+00 0.  1.
         11    1    1    2    0    0 -0.27114588263E+02 -0.55127981215E+02 -0.41280456307E+03  0.41735105427E+03  0.00000000000E+00 0. -1.
        -15    1    1    2    0    0 -0.38104368449E+01 -0.17200022412E+01 -0.32051367021E+02  0.32371680425E+02  0.17770000000E+01 0.  1.
         15    1    1    2    0    0 -0.11818497991E+01 -0.32708010622E+01 -0.50300700565E+02  0.50452087319E+02  0.17770000000E+01 0.  1.
</event>
<event>
 6    1  0.6394569E-004  0.5003567E+03  0.7546771E-02  0.9399012E-01
        -11   -1    0    0    0    0  0.00000000000E+00  0.00000000000E+00  0.50000000000E+03  0.50000000000E+03  0.00000000000E+00 0. -1.
         11   -1    0    0    0    0 -0.00000000000E+00 -0.00000000000E+00 -0.50000000000E+03  0.50000000000E+03  0.00000000000E+00 0. -1.
        -11    1    1    2    0    0  0.74464060286E+01  0.48535765558E+01  0.49956422425E+03  0.49964329307E+03  0.00000000000E+00 0. -1.
         11    1    1    2    0    0  0.17634444430E+01  0.51354992379E+01 -0.36159994156E+03  0.36164070682E+03  0.00000000000E+00 0. -1.
        -15    1    1    2    0    0 -0.33755137702E+01 -0.22611327729E+01 -0.52375725110E+02  0.52563115627E+02  0.17770000000E+01 0.  1.
         15    1    1    2    0    0 -0.58343367013E+01 -0.77279430208E+01 -0.85588557573E+02  0.86152884481E+02  0.17770000000E+01 0. -1.
</event>
<event>
 6    1  0.6394569E-004  0.5006255E+03  0.7546771E-02  0.9398411E-01
        -11   -1    0    0    0    0  0.00000000000E+00  0.00000000000E+00  0.50000000000E+03  0.50000000000E+03  0.00000000000E+00 0. -1.
         11   -1    0    0    0    0 -0.00000000000E+00 -0.00000000000E+00 -0.50000000000E+03  0.50000000000E+03  0.00000000000E+00 0.  1.
        -11    1    1    2    0    0  0.17141136763E+02 -0.10109375924E+02  0.34395524986E+03  0.34453045143E+03  0.00000000000E+00 0. -1.
         11    1    1    2    0    0 -0.11749639476E+02  0.80620983554E+01 -0.49917115235E+03  0.49937449955E+03  0.00000000000E+00 0.  1.
        -15    1    1    2    0    0  0.34416139733E+01 -0.32217637000E+01  0.27837882042E+02  0.28290102044E+02  0.17770000000E+01 0.  1.
         15    1    1    2    0    0 -0.88331112607E+01  0.52690412686E+01  0.12737802045E+03  0.12780494698E+03  0.17770000000E+01 0. -1.
</event>
<event>
 6    1  0.6394569E-004  0.5000348E+03  0.7546771E-02  0.9399732E-01
        -11   -1    0    0    0    0  0.00000000000E+00  0.00000000000E+00  0.50000000000E+03  0.50000000000E+03  0.00000000000E+00 0.  1.
         11   -1    0    0    0    0 -0.00000000000E+00 -0.00000000000E+00 -0.50000000000E+03  0.50000000000E+03  0.00000000000E+00 0. -1.
        -11    1    1    2    0    0 -0.59863101963E+00 -0.16338433206E+01  0.72863079249E+02  0.72883853636E+02  0.00000000000E+00 0.  1.
         11    1    1    2    0    0 -0.68009537363E+01 -0.16034668693E+01 -0.49991635346E+03  0.49996518332E+03  0.00000000000E+00 0. -1.
        -15    1    1    2    0    0  0.30276273942E+01  0.25901317346E+01  0.21349873415E+03  0.21354330362E+03  0.17770000000E+01 0. -1.
         15    1    1    2    0    0  0.43719573617E+01  0.64717845520E+00  0.21355454007E+03  0.21360765942E+03  0.17770000000E+01 0.  1.
</event>
<event>
 6    1  0.6394569E-004  0.5008622E+03  0.7546771E-02  0.9397882E-01
        -11   -1    0    0    0    0  0.00000000000E+00  0.00000000000E+00  0.50000000000E+03  0.50000000000E+03  0.00000000000E+00 0.  1.
         11   -1    0    0    0    0 -0.00000000000E+00 -0.00000000000E+00 -0.50000000000E+03  0.50000000000E+03  0.00000000000E+00 0. -1.
        -11    1    1    2    0    0 -0.75074553036E+01  0.10421123805E+02  0.49897249338E+03  0.49913776741E+03  0.00000000000E+00 0.  1.
         11    1    1    2    0    0  0.76212130044E+01  0.57677274230E+01 -0.40710037629E+03  0.40721255622E+03  0.00000000000E+00 0. -1.
        -15    1    1    2    0    0  0.10913382318E+01 -0.10016336552E+02 -0.36956563798E+02  0.38346621152E+02  0.17770000000E+01 0.  1.
         15    1    1    2    0    0 -0.12050959326E+01 -0.61725146760E+01 -0.54915553292E+02  0.55303055214E+02  0.17770000000E+01 0. -1.
</event>
<event>
 6    1  0.6394569E-004  0.5002588E+03  0.7546771E-02  0.9399231E-01
        -11   -1    0    0    0    0  0.00000000000E+00  0.00000000000E+00  0.50000000000E+03  0.50000000000E+03  0.00000000000E+00 0.  1.
         11   -1    0    0    0    0 -0.00000000000E+00 -0.00000000000E+00 -0.50000000000E+03  0.50000000000E+03  0.00000000000E+00 0.  1.
        -11    1    1    2    0    0  0.40501707316E+02  0.45649922107E+01  0.49807635082E+03  0.49974121173E+03  0.00000000000E+00 0.  1.
         11    1    1    2    0    0 -0.37399888994E+02 -0.17434084470E+01 -0.38734485010E+03  0.38915013050E+03  0.00000000000E+00 0.  1.
        -15    1    1    2    0    0 -0.74400441915E+00  0.77113530631E+00 -0.77735681100E+01  0.80457617661E+01  0.17770000000E+01 0.  1.
         15    1    1    2    0    0 -0.23578139033E+01 -0.35927190700E+01 -0.10295793261E+03  0.10306289601E+03  0.17770000000E+01 0.  1.
</event>
<event>
 6    1  0.6394569E-004  0.5080609E+03  0.7546771E-02  0.9381951E-01
        -11   -1    0    0    0    0  0.00000000000E+00  0.00000000000E+00  0.50000000000E+03  0.50000000000E+03  0.00000000000E+00 0.  1.
         11   -1    0    0    0    0 -0.00000000000E+00 -0.00000000000E+00 -0.50000000000E+03  0.50000000000E+03  0.00000000000E+00 0.  1.
        -11    1    1    2    0    0 -0.73921638119E+01 -0.21908272718E+02  0.49139538298E+03  0.49193906016E+03  0.00000000000E+00 0.  1.
         11    1    1    2    0    0  0.74151300729E+01 -0.19698068706E+01 -0.46686211013E+03  0.46692514835E+03  0.00000000000E+00 0.  1.
        -15    1    1    2    0    0  0.34589763847E+01  0.27317252714E+02 -0.18785500189E+02  0.33380376868E+02  0.17770000000E+01 0.  1.
         15    1    1    2    0    0 -0.34819426457E+01 -0.34391731259E+01 -0.57477726586E+01  0.77554146190E+01  0.17770000000E+01 0. -1.
</event>
<event>
 6    1  0.6394569E-004  0.5050690E+03  0.7546771E-02  0.9388538E-01
        -11   -1    0    0    0    0  0.00000000000E+00  0.00000000000E+00  0.50000000000E+03  0.50000000000E+03  0.00000000000E+00 0. -1.
         11   -1    0    0    0    0 -0.00000000000E+00 -0.00000000000E+00 -0.50000000000E+03  0.50000000000E+03  0.00000000000E+00 0. -1.
        -11    1    1    2    0    0 -0.10619670762E+02  0.27380383918E+02  0.49405891957E+03  0.49493098391E+03  0.00000000000E+00 0. -1.
         11    1    1    2    0    0 -0.90511068078E+01 -0.30198250799E+01 -0.42833286983E+03  0.42843913133E+03  0.00000000000E+00 0. -1.
        -15    1    1    2    0    0  0.81707903144E+01 -0.30694808524E-01 -0.40001630394E+01  0.92694007290E+01  0.17770000000E+01 0.  1.
         15    1    1    2    0    0  0.11499987256E+02 -0.24329864029E+02 -0.61725886702E+02  0.67360484030E+02  0.17770000000E+01 0. -1.
</event>
<event>
 6    1  0.6394569E-004  0.5032945E+03  0.7546771E-02  0.9392468E-01
        -11   -1    0    0    0    0  0.00000000000E+00  0.00000000000E+00  0.50000000000E+03  0.50000000000E+03  0.00000000000E+00 0. -1.
         11   -1    0    0    0    0 -0.00000000000E+00 -0.00000000000E+00 -0.50000000000E+03  0.50000000000E+03  0.00000000000E+00 0.  1.
        -11    1    1    2    0    0  0.23928258629E+00  0.10106385889E+02  0.49660258776E+03  0.49670547256E+03  0.00000000000E+00 0. -1.
         11    1    1    2    0    0 -0.48115092532E+01  0.63640343236E+01 -0.47451354108E+03  0.47458060666E+03  0.00000000000E+00 0.  1.
        -15    1    1    2    0    0  0.33705402631E+01 -0.98723893982E+01 -0.89663373650E+01  0.13870023390E+02  0.17770000000E+01 0. -1.
         15    1    1    2    0    0  0.12016864038E+01 -0.65980308147E+01 -0.13122709324E+02  0.14843897394E+02  0.17770000000E+01 0.  1.
</event>
<event>
 6    1  0.6394569E-004  0.5001511E+03  0.7546771E-02  0.9399472E-01
        -11   -1    0    0    0    0  0.00000000000E+00  0.00000000000E+00  0.50000000000E+03  0.50000000000E+03  0.00000000000E+00 0.  1.
         11   -1    0    0    0    0 -0.00000000000E+00 -0.00000000000E+00 -0.50000000000E+03  0.50000000000E+03  0.00000000000E+00 0.  1.
        -11    1    1    2    0    0  0.33207158711E+01  0.86165683239E+01  0.21814058839E+03  0.21833595377E+03  0.00000000000E+00 0.  1.
         11    1    1    2    0    0 -0.19877112600E+01 -0.91936923106E+01 -0.49976034732E+03  0.49984885689E+03  0.00000000000E+00 0.  1.
        -15    1    1    2    0    0  0.30427580531E+01 -0.83348224065E+00  0.45451417170E+02  0.45595417763E+02  0.17770000000E+01 0. -1.
         15    1    1    2    0    0 -0.43757626643E+01  0.14106062274E+01  0.23616834176E+03  0.23621977158E+03  0.17770000000E+01 0.  1.
</event>
<event>
 6    1  0.6394569E-004  0.4923224E+03  0.7546771E-02  0.9417155E-01
        -11   -1    0    0    0    0  0.00000000000E+00  0.00000000000E+00  0.50000000000E+03  0.50000000000E+03  0.00000000000E+00 0.  1.
         11   -1    0    0    0    0 -0.00000000000E+00 -0.00000000000E+00 -0.50000000000E+03  0.50000000000E+03  0.00000000000E+00 0. -1.
        -11    1    1    2    0    0  0.58833258224E+01 -0.53212110539E+01  0.48896789171E+03  0.48903223609E+03  0.00000000000E+00 0.  1.
         11    1    1    2    0    0 -0.31460111048E+01 -0.60637816166E+01 -0.49565777430E+03  0.49570484772E+03  0.00000000000E+00 0. -1.
        -15    1    1    2    0    0 -0.20639015759E+01  0.97633875840E+01  0.75302582963E+01  0.12627190734E+02  0.17770000000E+01 0. -1.
         15    1    1    2    0    0 -0.67341314169E+00  0.16216050866E+01 -0.84037571332E+00  0.26357254515E+01  0.17770000000E+01 0.  1.
</event>
<event>
 6    1  0.6394569E-004  0.5148392E+03  0.7546771E-02  0.9367205E-01
        -11   -1    0    0    0    0  0.00000000000E+00  0.00000000000E+00  0.50000000000E+03  0.50000000000E+03  0.00000000000E+00 0. -1.
         11   -1    0    0    0    0 -0.00000000000E+00 -0.00000000000E+00 -0.50000000000E+03  0.50000000000E+03  0.00000000000E+00 0. -1.
        -11    1    1    2    0    0  0.10171816100E+02 -0.32599868971E+02  0.48395746072E+03  0.48516084043E+03  0.00000000000E+00 0. -1.
         11    1    1    2    0    0 -0.79452683569E+01 -0.30693109592E+01 -0.40757071646E+03  0.40765970720E+03  0.00000000000E+00 0. -1.
        -15    1    1    2    0    0 -0.16522780281E+01  0.29470237016E+02  0.93733665262E+00  0.29584814035E+02  0.17770000000E+01 0.  1.
         15    1    1    2    0    0 -0.57426971507E+00  0.61989429138E+01 -0.77324080921E+02  0.77594638334E+02  0.17770000000E+01 0. -1.
</event>
<event>
 6    1  0.6394569E-004  0.5020455E+03  0.7546771E-02  0.9395244E-01
        -11   -1    0    0    0    0  0.00000000000E+00  0.00000000000E+00  0.50000000000E+03  0.50000000000E+03  0.00000000000E+00 0.  1.
         11   -1    0    0    0    0 -0.00000000000E+00 -0.00000000000E+00 -0.50000000000E+03  0.50000000000E+03  0.00000000000E+00 0.  1.
        -11    1    1    2    0    0  0.94828577846E+01  0.20952025167E+01  0.49785983909E+03  0.49795454998E+03  0.00000000000E+00 0.  1.
         11    1    1    2    0    0  0.78641879459E+00  0.12143926129E+02 -0.35887558594E+03  0.35908185638E+03  0.00000000000E+00 0.  1.
        -15    1    1    2    0    0 -0.14057347827E+02 -0.15743274955E+01 -0.11156598891E+03  0.11247317522E+03  0.17770000000E+01 0. -1.
         15    1    1    2    0    0  0.37880712475E+01 -0.12664801150E+02 -0.27418264250E+02  0.30490418420E+02  0.17770000000E+01 0.  1.
</event>
<event>
 6    1  0.6394569E-004  0.4846020E+03  0.7546771E-02  0.9434939E-01
        -11   -1    0    0    0    0  0.00000000000E+00  0.00000000000E+00  0.50000000000E+03  0.50000000000E+03  0.00000000000E+00 0. -1.
         11   -1    0    0    0    0 -0.00000000000E+00 -0.00000000000E+00 -0.50000000000E+03  0.50000000000E+03  0.00000000000E+00 0.  1.
        -11    1    1    2    0    0  0.17084362674E+02  0.61502300957E+02  0.49436858510E+03  0.49847237276E+03  0.00000000000E+00 0. -1.
         11    1    1    2    0    0  0.46586516755E+00  0.11874505109E+01 -0.32700076621E+02  0.32724945838E+02  0.00000000000E+00 0.  1.
        -15    1    1    2    0    0  0.96974026335E+01 -0.48879667730E+01 -0.16291642397E+03  0.16328763200E+03  0.17770000000E+01 0. -1.
         15    1    1    2    0    0 -0.27247630475E+02 -0.57801784695E+02 -0.29875208451E+03  0.30551504940E+03  0.17770000000E+01 0.  1.
</event>
<event>
 6    1  0.6394569E-004  0.4869932E+03  0.7546771E-02  0.9429393E-01
        -11   -1    0    0    0    0  0.00000000000E+00  0.00000000000E+00  0.50000000000E+03  0.50000000000E+03  0.00000000000E+00 0. -1.
         11   -1    0    0    0    0 -0.00000000000E+00 -0.00000000000E+00 -0.50000000000E+03  0.50000000000E+03  0.00000000000E+00 0. -1.
        -11    1    1    2    0    0 -0.16560295327E+02 -0.15155742308E+02  0.48607597678E+03  0.48659407632E+03  0.00000000000E+00 0. -1.
         11    1    1    2    0    0 -0.47841152683E+01  0.71308213831E+01 -0.48758476392E+03  0.48766037196E+03  0.00000000000E+00 0. -1.
        -15    1    1    2    0    0  0.20948085349E+00 -0.16086760310E+01  0.10244812368E+00  0.24083075839E+01  0.17770000000E+01 0. -1.
         15    1    1    2    0    0  0.21134929742E+02  0.96335969555E+01  0.14063390107E+01  0.23337244137E+02  0.17770000000E+01 0.  1.
</event>
<event>
 6    1  0.6394569E-004  0.5023873E+03  0.7546771E-02  0.9394484E-01
        -11   -1    0    0    0    0  0.00000000000E+00  0.00000000000E+00  0.50000000000E+03  0.50000000000E+03  0.00000000000E+00 0. -1.
         11   -1    0    0    0    0 -0.00000000000E+00 -0.00000000000E+00 -0.50000000000E+03  0.50000000000E+03  0.00000000000E+00 0.  1.
        -11    1    1    2    0    0  0.54519380630E+02  0.11008324039E+03  0.48221125231E+03  0.49761267521E+03  0.00000000000E+00 0. -1.
         11    1    1    2    0    0  0.24587853472E+01  0.14975972586E+01 -0.74767302580E+02  0.74822710176E+02  0.00000000000E+00 0.  1.
        -15    1    1    2    0    0 -0.73423196681E+01 -0.66447590469E+01 -0.13292316059E+02  0.16670509174E+02  0.17770000000E+01 0. -1.
         15    1    1    2    0    0 -0.49635846309E+02 -0.10493607860E+03 -0.39415163367E+03  0.41089410544E+03  0.17770000000E+01 0.  1.
</event>
<event>
 6    1  0.6394569E-004  0.5065311E+03  0.7546771E-02  0.9385313E-01
        -11   -1    0    0    0    0  0.00000000000E+00  0.00000000000E+00  0.50000000000E+03  0.50000000000E+03  0.00000000000E+00 0.  1.
         11   -1    0    0    0    0 -0.00000000000E+00 -0.00000000000E+00 -0.50000000000E+03  0.50000000000E+03  0.00000000000E+00 0. -1.
        -11    1    1    2    0    0  0.11479811527E+02  0.82404438469E+01  0.49326651495E+03  0.49346889036E+03  0.00000000000E+00 0.  1.
         11    1    1    2    0    0 -0.37965347456E+01  0.12149417942E+02 -0.47816903494E+03  0.47833842414E+03  0.00000000000E+00 0. -1.
        -15    1    1    2    0    0 -0.75466102201E+01 -0.17079962260E+02 -0.84867347361E+01  0.20587832137E+02  0.17770000000E+01 0. -1.
         15    1    1    2    0    0 -0.13666656139E+00 -0.33098995290E+01 -0.66107452697E+01  0.76048533623E+01  0.17770000000E+01 0.  1.
</event>
<event>
 6    1  0.6394569E-004  0.5005840E+03  0.7546771E-02  0.9398504E-01
        -11   -1    0    0    0    0  0.00000000000E+00  0.00000000000E+00  0.50000000000E+03  0.50000000000E+03  0.00000000000E+00 0.  1.
         11   -1    0    0    0    0 -0.00000000000E+00 -0.00000000000E+00 -0.50000000000E+03  0.50000000000E+03  0.00000000000E+00 0. -1.
        -11    1    1    2    0    0  0.62531696454E+00  0.12485207005E+02  0.48426089647E+03  0.48442222004E+03  0.00000000000E+00 0.  1.
         11    1    1    2    0    0  0.34203606506E+01 -0.13261752789E+02 -0.49922815122E+03  0.49941597884E+03  0.00000000000E+00 0. -1.
        -15    1    1    2    0    0 -0.33258635983E+01  0.60662961992E+00  0.12252301415E+02  0.12833783041E+02  0.17770000000E+01 0. -1.
         15    1    1    2    0    0 -0.71981401685E+00  0.16991616453E+00  0.27149533315E+01  0.33280180759E+01  0.17770000000E+01 0. -1.
</event>
<event>
 6    1  0.6394569E-004  0.5043316E+03  0.7546771E-02  0.9390169E-01
        -11   -1    0    0    0    0  0.00000000000E+00  0.00000000000E+00  0.50000000000E+03  0.50000000000E+03  0.00000000000E+00 0.  1.
         11   -1    0    0    0    0 -0.00000000000E+00 -0.00000000000E+00 -0.50000000000E+03  0.50000000000E+03  0.00000000000E+00 0.  1.
        -11    1    1    2    0    0  0.12733059355E+01 -0.89340059651E+01  0.49558624034E+03  0.49566839659E+03  0.00000000000E+00 0.  1.
         11    1    1    2    0    0  0.53801306376E+01 -0.39677667231E+01 -0.48491606238E+03  0.48496213927E+03  0.00000000000E+00 0.  1.
        -15    1    1    2    0    0 -0.20555852950E+01  0.14414778928E+01 -0.19955311420E+00  0.30823432427E+01  0.17770000000E+01 0.  1.
         15    1    1    2    0    0 -0.45978512781E+01  0.11460294795E+02 -0.10470624847E+02  0.16287120889E+02  0.17770000000E+01 0. -1.
</event>
<event>
 6    1  0.6394569E-004  0.4913503E+03  0.7546771E-02  0.9419375E-01
        -11   -1    0    0    0    0  0.00000000000E+00  0.00000000000E+00  0.50000000000E+03  0.50000000000E+03  0.00000000000E+00 0. -1.
         11   -1    0    0    0    0 -0.00000000000E+00 -0.00000000000E+00 -0.50000000000E+03  0.50000000000E+03  0.00000000000E+00 0.  1.
        -11    1    1    2    0    0  0.60572523056E+01  0.15698165441E+02 -0.35142016484E+01  0.17189308216E+02  0.00000000000E+00 0. -1.
         11    1    1    2    0    0 -0.23779810148E+02 -0.17697371467E+02 -0.48901798341E+03  0.48991556867E+03  0.00000000000E+00 0.  1.
        -15    1    1    2    0    0  0.42795505603E+01 -0.11823603861E+01  0.15981195135E+03  0.15988348899E+03  0.17770000000E+01 0. -1.
         15    1    1    2    0    0  0.13443007282E+02  0.31815664121E+01  0.33272023371E+03  0.33301163412E+03  0.17770000000E+01 0. -1.
</event>
<event>
 6    1  0.6394569E-004  0.5001429E+03  0.7546771E-02  0.9399490E-01
        -11   -1    0    0    0    0  0.00000000000E+00  0.00000000000E+00  0.50000000000E+03  0.50000000000E+03  0.00000000000E+00 0. -1.
         11   -1    0    0    0    0 -0.00000000000E+00 -0.00000000000E+00 -0.50000000000E+03  0.50000000000E+03  0.00000000000E+00 0. -1.
        -11    1    1    2    0    0 -0.13601878703E+02 -0.25161295539E+00  0.20757358086E+03  0.20801890751E+03  0.00000000000E+00 0. -1.
         11    1    1    2    0    0  0.14224858134E+02  0.32172795647E+01 -0.49964430069E+03  0.49985710427E+03  0.00000000000E+00 0. -1.
        -15    1    1    2    0    0  0.84129288197E+00 -0.22889801349E+01  0.19636479252E+03  0.19638797487E+03  0.17770000000E+01 0. -1.
         15    1    1    2    0    0 -0.14642723126E+01 -0.67668647436E+00  0.95705927314E+02  0.95736013339E+02  0.17770000000E+01 0. -1.
</event>
<event>
 6    1  0.6394569E-004  0.5003783E+03  0.7546771E-02  0.9398964E-01
        -11   -1    0    0    0    0  0.00000000000E+00  0.00000000000E+00  0.50000000000E+03  0.50000000000E+03  0.00000000000E+00 0.  1.
         11   -1    0    0    0    0 -0.00000000000E+00 -0.00000000000E+00 -0.50000000000E+03  0.50000000000E+03  0.00000000000E+00 0. -1.
        -11    1    1    2    0    0  0.86394518550E+00  0.91814118352E+01  0.49953661267E+03  0.49962172903E+03  0.00000000000E+00 0.  1.
         11    1    1    2    0    0 -0.45117911542E+01  0.33642896148E+01 -0.34372944533E+03  0.34377551730E+03  0.00000000000E+00 0. -1.
        -15    1    1    2    0    0 -0.24804138723E+01 -0.52562297186E+01 -0.59723654458E+02  0.60032100035E+02  0.17770000000E+01 0.  1.
         15    1    1    2    0    0  0.61282598411E+01 -0.72894717313E+01 -0.96083512878E+02  0.96570653632E+02  0.17770000000E+01 0. -1.
</event>
<event>
 6    1  0.6394569E-004  0.5008085E+03  0.7546771E-02  0.9398003E-01
        -11   -1    0    0    0    0  0.00000000000E+00  0.00000000000E+00  0.50000000000E+03  0.50000000000E+03  0.00000000000E+00 0. -1.
         11   -1    0    0    0    0 -0.00000000000E+00 -0.00000000000E+00 -0.50000000000E+03  0.50000000000E+03  0.00000000000E+00 0.  1.
        -11    1    1    2    0    0 -0.70302121608E+01  0.28212866825E+01  0.37535447272E+03  0.37543090407E+03  0.00000000000E+00 0. -1.
         11    1    1    2    0    0  0.83268388338E+01 -0.24159412909E+01 -0.49911624388E+03  0.49919154432E+03  0.00000000000E+00 0.  1.
        -15    1    1    2    0    0  0.75277919799E+01 -0.53094089712E+01  0.46340858205E+02  0.47280972324E+02  0.17770000000E+01 0.  1.
         15    1    1    2    0    0 -0.88244186529E+01  0.49040635796E+01  0.77420912957E+02  0.78096579286E+02  0.17770000000E+01 0.  1.
</event>
<event>
 6    1  0.6394569E-004  0.5050586E+03  0.7546771E-02  0.9388561E-01
        -11   -1    0    0    0    0  0.00000000000E+00  0.00000000000E+00  0.50000000000E+03  0.50000000000E+03  0.00000000000E+00 0. -1.
         11   -1    0    0    0    0 -0.00000000000E+00 -0.00000000000E+00 -0.50000000000E+03  0.50000000000E+03  0.00000000000E+00 0.  1.
        -11    1    1    2    0    0  0.23816009951E+02  0.12140750485E+02  0.43055193868E+03  0.43138100567E+03  0.00000000000E+00 0. -1.
         11    1    1    2    0    0  0.77073804733E+01  0.16869387621E+01 -0.49487848583E+03  0.49494137553E+03  0.00000000000E+00 0.  1.
        -15    1    1    2    0    0 -0.27583652905E+02 -0.14949483088E+02  0.55225023086E+02  0.63539797419E+02  0.17770000000E+01 0. -1.
         15    1    1    2    0    0 -0.39397375197E+01  0.11217938404E+01  0.91015240652E+01  0.10137821386E+02  0.17770000000E+01 0.  1.
</event>
<event>
 6    1  0.6394569E-004  0.5018570E+03  0.7546771E-02  0.9395664E-01
        -11   -1    0    0    0    0  0.00000000000E+00  0.00000000000E+00  0.50000000000E+03  0.50000000000E+03  0.00000000000E+00 0. -1.
         11   -1    0    0    0    0 -0.00000000000E+00 -0.00000000000E+00 -0.50000000000E+03  0.50000000000E+03  0.00000000000E+00 0.  1.
        -11    1    1    2    0    0  0.30206027324E+01  0.14580008943E+02  0.43204265815E+03  0.43229915471E+03  0.00000000000E+00 0. -1.
         11    1    1    2    0    0  0.97864000278E+01  0.19692498291E+01 -0.49804293756E+03  0.49814297066E+03  0.00000000000E+00 0.  1.
        -15    1    1    2    0    0 -0.96325302428E+01 -0.10023981224E+02  0.35758271702E+02  0.38406738504E+02  0.17770000000E+01 0. -1.
         15    1    1    2    0    0 -0.31744725174E+01 -0.65252775488E+01  0.30242007707E+02  0.31151136127E+02  0.17770000000E+01 0.  1.
</event>
<event>
 6    1  0.6394569E-004  0.4938655E+03  0.7546771E-02  0.9413642E-01
        -11   -1    0    0    0    0  0.00000000000E+00  0.00000000000E+00  0.50000000000E+03  0.50000000000E+03  0.00000000000E+00 0. -1.
         11   -1    0    0    0    0 -0.00000000000E+00 -0.00000000000E+00 -0.50000000000E+03  0.50000000000E+03  0.00000000000E+00 0.  1.
        -11    1    1    2    0    0  0.12887434970E+02  0.10293132859E+01 -0.31582042671E+01  0.13308633293E+02  0.00000000000E+00 0. -1.
         11    1    1    2    0    0 -0.83566855920E+01 -0.48611419903E+01 -0.49113834999E+03  0.49123349207E+03  0.00000000000E+00 0.  1.
        -15    1    1    2    0    0 -0.70844555618E+01 -0.80841626854E+01  0.42047262584E+03  0.42061375394E+03  0.17770000000E+01 0.  1.
         15    1    1    2    0    0  0.25537061842E+01  0.11915991390E+02  0.73823928420E+02  0.74844120694E+02  0.17770000000E+01 0. -1.
</event>
<event>
 6    1  0.6394569E-004  0.5037664E+03  0.7546771E-02  0.9391421E-01
        -11   -1    0    0    0    0  0.00000000000E+00  0.00000000000E+00  0.50000000000E+03  0.50000000000E+03  0.00000000000E+00 0. -1.
         11   -1    0    0    0    0 -0.00000000000E+00 -0.00000000000E+00 -0.50000000000E+03  0.50000000000E+03  0.00000000000E+00 0.  1.
        -11    1    1    2    0    0  0.17216239696E+02  0.23746169863E+02  0.49536604574E+03  0.49623361310E+03  0.00000000000E+00 0. -1.
         11    1    1    2    0    0  0.67304539653E+01  0.27573099953E+01 -0.33742423887E+03  0.33750262036E+03  0.00000000000E+00 0.  1.
        -15    1    1    2    0    0 -0.65450141373E+01 -0.38483327019E+00 -0.10094332204E+03  0.10117162300E+03  0.17770000000E+01 0. -1.
         15    1    1    2    0    0 -0.17401679524E+02 -0.26118646588E+02 -0.56998484830E+02  0.65092143548E+02  0.17770000000E+01 0.  1.
</event>
<event>
 6    1  0.6394569E-004  0.5005078E+03  0.7546771E-02  0.9398674E-01
        -11   -1    0    0    0    0  0.00000000000E+00  0.00000000000E+00  0.50000000000E+03  0.50000000000E+03  0.00000000000E+00 0. -1.
         11   -1    0    0    0    0 -0.00000000000E+00 -0.00000000000E+00 -0.50000000000E+03  0.50000000000E+03  0.00000000000E+00 0. -1.
        -11    1    1    2    0    0  0.45841772228E+00  0.10334270615E+02  0.44649751390E+03  0.44661732749E+03  0.00000000000E+00 0. -1.
         11    1    1    2    0    0 -0.36153011309E+01 -0.97586217341E+01 -0.49938372737E+03  0.49949215035E+03  0.00000000000E+00 0. -1.
        -15    1    1    2    0    0 -0.16785041640E+01 -0.26675685516E+01  0.97915338713E+01  0.10438637974E+02  0.17770000000E+01 0.  1.
         15    1    1    2    0    0  0.48353875726E+01  0.20919196707E+01  0.43094679593E+02  0.43451884184E+02  0.17770000000E+01 0.  1.
</event>
<event>
 6    1  0.6394569E-004  0.4848823E+03  0.7546771E-02  0.9434287E-01
        -11   -1    0    0    0    0  0.00000000000E+00  0.00000000000E+00  0.50000000000E+03  0.50000000000E+03  0.00000000000E+00 0.  1.
         11   -1    0    0    0    0 -0.00000000000E+00 -0.00000000000E+00 -0.50000000000E+03  0.50000000000E+03  0.00000000000E+00 0. -1.
        -11    1    1    2    0    0  0.10986541155E+02 -0.76553423736E+01  0.49035193025E+03  0.49053473257E+03  0.00000000000E+00 0.  1.
         11    1    1    2    0    0  0.11963014921E+02  0.25314546140E+00 -0.47944174398E+03  0.47959103794E+03  0.00000000000E+00 0. -1.
        -15    1    1    2    0    0 -0.21465992504E+02  0.79460801526E+01 -0.49900970403E+01  0.23494421071E+02  0.17770000000E+01 0.  1.
         15    1    1    2    0    0 -0.14835635719E+01 -0.54388324038E+00 -0.59200892378E+01  0.63798084168E+01  0.17770000000E+01 0. -1.
</event>
<event>
 6    1  0.6394569E-004  0.5020854E+03  0.7546771E-02  0.9395155E-01
        -11   -1    0    0    0    0  0.00000000000E+00  0.00000000000E+00  0.50000000000E+03  0.50000000000E+03  0.00000000000E+00 0.  1.
         11   -1    0    0    0    0 -0.00000000000E+00 -0.00000000000E+00 -0.50000000000E+03  0.50000000000E+03  0.00000000000E+00 0. -1.
        -11    1    1    2    0    0  0.36122816189E+02 -0.12405785449E+02  0.49644753609E+03  0.49791456843E+03  0.00000000000E+00 0.  1.
         11    1    1    2    0    0 -0.55159623562E+01 -0.42309449035E+00 -0.30662720338E+03  0.30667710496E+03  0.00000000000E+00 0. -1.
        -15    1    1    2    0    0 -0.21530972030E+02  0.77237406847E+01 -0.48067035501E+02  0.53261961639E+02  0.17770000000E+01 0. -1.
         15    1    1    2    0    0 -0.90758818031E+01  0.51051392547E+01 -0.14175329721E+03  0.14214636498E+03  0.17770000000E+01 0.  1.
</event>
<event>
 6    1  0.6394569E-004  0.5012598E+03  0.7546771E-02  0.9396995E-01
        -11   -1    0    0    0    0  0.00000000000E+00  0.00000000000E+00  0.50000000000E+03  0.50000000000E+03  0.00000000000E+00 0.  1.
         11   -1    0    0    0    0 -0.00000000000E+00 -0.00000000000E+00 -0.50000000000E+03  0.50000000000E+03  0.00000000000E+00 0.  1.
        -11    1    1    2    0    0 -0.74996671431E+01 -0.95634454591E+01  0.29628418820E+02  0.32024173651E+02  0.00000000000E+00 0.  1.
         11    1    1    2    0    0  0.54539074925E+01  0.94655079583E+01 -0.49862057819E+03  0.49874023494E+03  0.00000000000E+00 0.  1.
        -15    1    1    2    0    0  0.51174229646E+01  0.33679028975E+01  0.40897905670E+03  0.40902879768E+03  0.17770000000E+01 0.  1.
         15    1    1    2    0    0 -0.30716633140E+01 -0.32699653967E+01  0.60013102674E+02  0.60206793726E+02  0.17770000000E+01 0. -1.
</event>
<event>
 6    1  0.6394569E-004  0.3551460E+03  0.7546771E-02  0.9799083E-01
        -11   -1    0    0    0    0  0.00000000000E+00  0.00000000000E+00  0.50000000000E+03  0.50000000000E+03  0.00000000000E+00 0. -1.
         11   -1    0    0    0    0 -0.00000000000E+00 -0.00000000000E+00 -0.50000000000E+03  0.50000000000E+03  0.00000000000E+00 0.  1.
        -11    1    1    2    0    0 -0.19209259394E+03 -0.28626052074E+02  0.32822044666E+03  0.38137603112E+03  0.00000000000E+00 0. -1.
         11    1    1    2    0    0  0.33730803839E+02  0.13680303554E+02 -0.34478133256E+03  0.34669739704E+03  0.00000000000E+00 0.  1.
        -15    1    1    2    0    0  0.13720410029E+03  0.26702106746E+02  0.10842546154E+03  0.17691016387E+03  0.17770000000E+01 0. -1.
         15    1    1    2    0    0  0.21157689816E+02 -0.11756358226E+02 -0.91864575645E+02  0.95016407976E+02  0.17770000000E+01 0.  1.
</event>
<event>
 6    1  0.6394569E-004  0.5005366E+03  0.7546771E-02  0.9398610E-01
        -11   -1    0    0    0    0  0.00000000000E+00  0.00000000000E+00  0.50000000000E+03  0.50000000000E+03  0.00000000000E+00 0. -1.
         11   -1    0    0    0    0 -0.00000000000E+00 -0.00000000000E+00 -0.50000000000E+03  0.50000000000E+03  0.00000000000E+00 0.  1.
        -11    1    1    2    0    0 -0.57231750235E+01  0.13346042368E+02  0.91857519005E+02  0.92998254698E+02  0.00000000000E+00 0. -1.
         11    1    1    2    0    0  0.25518387356E+02 -0.15214908778E+02 -0.49857903052E+03  0.49946344332E+03  0.00000000000E+00 0.  1.
        -15    1    1    2    0    0 -0.96798833942E+01  0.64580343586E+01  0.29887494307E+03  0.29910666271E+03  0.17770000000E+01 0.  1.
         15    1    1    2    0    0 -0.10115328938E+02 -0.45891679489E+01  0.10784656844E+03  0.10843163927E+03  0.17770000000E+01 0. -1.
</event>
<event>
 6    1  0.6394569E-004  0.5025432E+03  0.7546771E-02  0.9394137E-01
        -11   -1    0    0    0    0  0.00000000000E+00  0.00000000000E+00  0.50000000000E+03  0.50000000000E+03  0.00000000000E+00 0. -1.
         11   -1    0    0    0    0 -0.00000000000E+00 -0.00000000000E+00 -0.50000000000E+03  0.50000000000E+03  0.00000000000E+00 0.  1.
        -11    1    1    2    0    0  0.55906462103E+01 -0.40311086352E+01  0.46840063149E+03  0.46845133871E+03  0.00000000000E+00 0. -1.
         11    1    1    2    0    0  0.37316109852E+01 -0.73540986267E+01 -0.49738841986E+03  0.49745677993E+03  0.00000000000E+00 0.  1.
        -15    1    1    2    0    0 -0.49820388520E+01  0.54215974679E+01  0.53685248870E+01  0.92840303042E+01  0.17770000000E+01 0.  1.
         15    1    1    2    0    0 -0.43402183435E+01  0.59636097940E+01  0.23619263486E+02  0.24807851048E+02  0.17770000000E+01 0. -1.
</event>
<event>
 6    1  0.6394569E-004  0.5024759E+03  0.7546771E-02  0.9394287E-01
        -11   -1    0    0    0    0  0.00000000000E+00  0.00000000000E+00  0.50000000000E+03  0.50000000000E+03  0.00000000000E+00 0.  1.
         11   -1    0    0    0    0 -0.00000000000E+00 -0.00000000000E+00 -0.50000000000E+03  0.50000000000E+03  0.00000000000E+00 0.  1.
        -11    1    1    2    0    0  0.37766340815E+02 -0.38126383051E+01  0.49607395031E+03  0.49752406664E+03  0.00000000000E+00 0.  1.
         11    1    1    2    0    0  0.25940611263E+01  0.36047269141E+01 -0.29424267290E+03  0.29427618620E+03  0.00000000000E+00 0.  1.
        -15    1    1    2    0    0 -0.51194922873E+01  0.79637211549E+01 -0.14442861729E+02  0.17360415889E+02  0.17770000000E+01 0.  1.
         15    1    1    2    0    0 -0.35240909654E+02 -0.77558097640E+01 -0.18738841568E+03  0.19083933127E+03  0.17770000000E+01 0. -1.
</event>
<event>
 6    1  0.6394569E-004  0.4806112E+03  0.7546771E-02  0.9444270E-01
        -11   -1    0    0    0    0  0.00000000000E+00  0.00000000000E+00  0.50000000000E+03  0.50000000000E+03  0.00000000000E+00 0.  1.
         11   -1    0    0    0    0 -0.00000000000E+00 -0.00000000000E+00 -0.50000000000E+03  0.50000000000E+03  0.00000000000E+00 0.  1.
        -11    1    1    2    0    0 -0.31448519498E+02  0.91716938784E+01  0.48840283276E+03  0.48950021083E+03  0.00000000000E+00 0.  1.
         11    1    1    2    0    0  0.53747068629E+01  0.38254648255E+01 -0.47225312642E+03  0.47229920291E+03  0.00000000000E+00 0.  1.
        -15    1    1    2    0    0  0.13122148153E+02 -0.11177795346E+02  0.18547825067E-01  0.17328934011E+02  0.17770000000E+01 0. -1.
         15    1    1    2    0    0  0.12951664481E+02 -0.18193633582E+01 -0.16168254167E+02  0.20871652251E+02  0.17770000000E+01 0.  1.
</event>
<event>
 6    1  0.6394569E-004  0.5095293E+03  0.7546771E-02  0.9378736E-01
        -11   -1    0    0    0    0  0.00000000000E+00  0.00000000000E+00  0.50000000000E+03  0.50000000000E+03  0.00000000000E+00 0. -1.
         11   -1    0    0    0    0 -0.00000000000E+00 -0.00000000000E+00 -0.50000000000E+03  0.50000000000E+03  0.00000000000E+00 0.  1.
        -11    1    1    2    0    0  0.34432346180E+02 -0.42975532347E+02  0.80233942673E+02  0.97313762649E+02  0.00000000000E+00 0. -1.
         11    1    1    2    0    0 -0.63349264402E+01  0.12790502833E+02 -0.49026294510E+03  0.49047067557E+03  0.00000000000E+00 0.  1.
        -15    1    1    2    0    0 -0.24949377136E+01  0.14980129303E+01  0.19662732280E+02  0.19956190184E+02  0.17770000000E+01 0. -1.
         15    1    1    2    0    0 -0.25602482026E+02  0.28687016584E+02  0.39036627015E+03  0.39225937160E+03  0.17770000000E+01 0.  1.
</event>
<event>
 6    1  0.6394569E-004  0.5002331E+03  0.7546771E-02  0.9399288E-01
        -11   -1    0    0    0    0  0.00000000000E+00  0.00000000000E+00  0.50000000000E+03  0.50000000000E+03  0.00000000000E+00 0. -1.
         11   -1    0    0    0    0 -0.00000000000E+00 -0.00000000000E+00 -0.50000000000E+03  0.50000000000E+03  0.00000000000E+00 0.  1.
        -11    1    1    2    0    0  0.12856226392E+02  0.87115843542E+01  0.25086168991E+03  0.25134192194E+03  0.00000000000E+00 0. -1.
         11    1    1    2    0    0 -0.97321083696E+01 -0.48970458313E+01 -0.49964813465E+03  0.49976689912E+03  0.00000000000E+00 0.  1.
        -15    1    1    2    0    0 -0.30998280016E+01 -0.10727854253E+01  0.16267129381E+03  0.16271406626E+03  0.17770000000E+01 0.  1.
         15    1    1    2    0    0 -0.24290020633E-01 -0.27417530976E+01  0.86115150938E+02  0.86177112682E+02  0.17770000000E+01 0. -1.
</event>
<event>
 6    1  0.6394569E-004  0.4930951E+03  0.7546771E-02  0.9415394E-01
        -11   -1    0    0    0    0  0.00000000000E+00  0.00000000000E+00  0.50000000000E+03  0.50000000000E+03  0.00000000000E+00 0.  1.
         11   -1    0    0    0    0 -0.00000000000E+00 -0.00000000000E+00 -0.50000000000E+03  0.50000000000E+03  0.00000000000E+00 0. -1.
        -11    1    1    2    0    0  0.64040661604E+01 -0.10264798617E+02 -0.68667722257E+01  0.13911531721E+02  0.00000000000E+00 0.  1.
         11    1    1    2    0    0 -0.54670964034E+01  0.14846452427E+02 -0.48937278418E+03  0.48962845934E+03  0.00000000000E+00 0. -1.
        -15    1    1    2    0    0 -0.13776706884E+01  0.23769363582E+01  0.32429182246E+02  0.32593824463E+02  0.17770000000E+01 0. -1.
         15    1    1    2    0    0  0.44070093148E+00 -0.69585901679E+01  0.46381037416E+03  0.46386618448E+03  0.17770000000E+01 0.  1.
</event>
<event>
 6    1  0.6394569E-004  0.4724975E+03  0.7546771E-02  0.9463543E-01
        -11   -1    0    0    0    0  0.00000000000E+00  0.00000000000E+00  0.50000000000E+03  0.50000000000E+03  0.00000000000E+00 0. -1.
         11   -1    0    0    0    0 -0.00000000000E+00 -0.00000000000E+00 -0.50000000000E+03  0.50000000000E+03  0.00000000000E+00 0.  1.
        -11    1    1    2    0    0  0.15044102337E+02 -0.19698636496E+02  0.47004316049E+03  0.47069622265E+03  0.00000000000E+00 0. -1.
         11    1    1    2    0    0  0.13440952086E+02 -0.59992836895E+01 -0.47486144471E+03  0.47508950975E+03  0.00000000000E+00 0.  1.
        -15    1    1    2    0    0 -0.73335427556E+01 -0.95417942124E+01 -0.25283658752E+01  0.12424856101E+02  0.17770000000E+01 0. -1.
         15    1    1    2    0    0 -0.21151511667E+02  0.35239714398E+02  0.73466500938E+01  0.41789411497E+02  0.17770000000E+01 0.  1.
</event>
<event>
 6    1  0.6394569E-004  0.5003805E+03  0.7546771E-02  0.9398959E-01
        -11   -1    0    0    0    0  0.00000000000E+00  0.00000000000E+00  0.50000000000E+03  0.50000000000E+03  0.00000000000E+00 0.  1.
         11   -1    0    0    0    0 -0.00000000000E+00 -0.00000000000E+00 -0.50000000000E+03  0.50000000000E+03  0.00000000000E+00 0.  1.
        -11    1    1    2    0    0  0.56060504767E+01 -0.32804438428E+01  0.27648906219E+02  0.28401604336E+02  0.00000000000E+00 0.  1.
         11    1    1    2    0    0 -0.90607664910E+01 -0.39005918712E+01 -0.49952213391E+03  0.49961952961E+03  0.00000000000E+00 0.  1.
        -15    1    1    2    0    0  0.17153125450E+01  0.51528074223E+01  0.39136699362E+03  0.39140870601E+03  0.17770000000E+01 0.  1.
         15    1    1    2    0    0  0.17394034693E+01  0.20282282917E+01  0.80506234074E+02  0.80570160035E+02  0.17770000000E+01 0. -1.
</event>
<event>
 6    1  0.6394569E-004  0.4880122E+03  0.7546771E-02  0.9427040E-01
        -11   -1    0    0    0    0  0.00000000000E+00  0.00000000000E+00  0.50000000000E+03  0.50000000000E+03  0.00000000000E+00 0.  1.
         11   -1    0    0    0    0 -0.00000000000E+00 -0.00000000000E+00 -0.50000000000E+03  0.50000000000E+03  0.00000000000E+00 0.  1.
        -11    1    1    2    0    0 -0.14375965998E+02  0.39645850368E+01  0.48937488803E+03  0.48960205000E+03  0.00000000000E+00 0.  1.
         11    1    1    2    0    0 -0.19389806914E+01 -0.16277661879E+02 -0.48636486700E+03  0.48664104407E+03  0.00000000000E+00 0.  1.
        -15    1    1    2    0    0  0.85692803610E+01  0.12678401363E+02 -0.49502116193E+00  0.15413539567E+02  0.17770000000E+01 0. -1.
         15    1    1    2    0    0  0.77456663288E+01 -0.36532452142E+00 -0.25149998737E+01  0.83433663618E+01  0.17770000000E+01 0.  1.
</event>
<event>
 6    1  0.6394569E-004  0.5026729E+03  0.7546771E-02  0.9393849E-01
        -11   -1    0    0    0    0  0.00000000000E+00  0.00000000000E+00  0.50000000000E+03  0.50000000000E+03  0.00000000000E+00 0. -1.
         11   -1    0    0    0    0 -0.00000000000E+00 -0.00000000000E+00 -0.50000000000E+03  0.50000000000E+03  0.00000000000E+00 0. -1.
        -11    1    1    2    0    0 -0.28076674554E+02 -0.44972888345E+02  0.49449305707E+03  0.49732709943E+03  0.00000000000E+00 0. -1.
         11    1    1    2    0    0 -0.18135794001E+01  0.53198250408E+01 -0.33039818196E+03  0.33044598387E+03  0.00000000000E+00 0. -1.
        -15    1    1    2    0    0  0.30141534202E+02  0.32054591870E+02 -0.14655371395E+03  0.15302665698E+03  0.17770000000E+01 0. -1.
         15    1    1    2    0    0 -0.25128024824E+00  0.75984714334E+01 -0.17541161153E+02  0.19200259725E+02  0.17770000000E+01 0.  1.
</event>
<event>
 6    1  0.6394569E-004  0.5001663E+03  0.7546771E-02  0.9399438E-01
        -11   -1    0    0    0    0  0.00000000000E+00  0.00000000000E+00  0.50000000000E+03  0.50000000000E+03  0.00000000000E+00 0.  1.
         11   -1    0    0    0    0 -0.00000000000E+00 -0.00000000000E+00 -0.50000000000E+03  0.50000000000E+03  0.00000000000E+00 0. -1.
        -11    1    1    2    0    0  0.11302655036E+02 -0.70591147991E+01  0.49965607812E+03  0.49983374987E+03  0.00000000000E+00 0.  1.
         11    1    1    2    0    0 -0.30399176614E+01  0.34735894475E+01 -0.26768421780E+02  0.27163492552E+02  0.00000000000E+00 0. -1.
        -15    1    1    2    0    0 -0.31593761387E+01  0.23137869679E-02 -0.11731140858E+03  0.11736739741E+03  0.17770000000E+01 0. -1.
         15    1    1    2    0    0 -0.51033612363E+01  0.35832115646E+01 -0.35557624776E+03  0.35563536017E+03  0.17770000000E+01 0. -1.
</event>
<event>
 6    1  0.6394569E-004  0.5000859E+03  0.7546771E-02  0.9399618E-01
        -11   -1    0    0    0    0  0.00000000000E+00  0.00000000000E+00  0.50000000000E+03  0.50000000000E+03  0.00000000000E+00 0. -1.
         11   -1    0    0    0    0 -0.00000000000E+00 -0.00000000000E+00 -0.50000000000E+03  0.50000000000E+03  0.00000000000E+00 0.  1.
        -11    1    1    2    0    0 -0.49981531770E+01 -0.85323961563E+01  0.26084813581E+03  0.26103550194E+03  0.00000000000E+00 0. -1.
         11    1    1    2    0    0  0.56143019926E+01  0.79294629172E+01 -0.49981970915E+03  0.49991413105E+03  0.00000000000E+00 0.  1.
        -15    1    1    2    0    0  0.13892151416E+01 -0.12130897921E+01  0.14600733918E+03  0.14602979946E+03  0.17770000000E+01 0.  1.
         15    1    1    2    0    0 -0.20053639572E+01  0.18160230312E+01  0.92964234161E+02  0.93020567545E+02  0.17770000000E+01 0. -1.
</event>
<event>
 6    1  0.6394569E-004  0.5016347E+03  0.7546771E-02  0.9396159E-01
        -11   -1    0    0    0    0  0.00000000000E+00  0.00000000000E+00  0.50000000000E+03  0.50000000000E+03  0.00000000000E+00 0. -1.
         11   -1    0    0    0    0 -0.00000000000E+00 -0.00000000000E+00 -0.50000000000E+03  0.50000000000E+03  0.00000000000E+00 0.  1.
        -11    1    1    2    0    0  0.32641871005E+01  0.26517795028E+02  0.49764858810E+03  0.49836529335E+03  0.00000000000E+00 0. -1.
         11    1    1    2    0    0  0.12370178613E+02 -0.80054240755E+01 -0.34230569085E+03  0.34262267018E+03  0.00000000000E+00 0.  1.
        -15    1    1    2    0    0 -0.57521008898E+01 -0.16031415051E+02 -0.13603355892E+03  0.13710718367E+03  0.17770000000E+01 0. -1.
         15    1    1    2    0    0 -0.98822648234E+01 -0.24809559023E+01 -0.19309338335E+02  0.21904852800E+02  0.17770000000E+01 0.  1.
</event>
<event>
 6    1  0.6394569E-004  0.5104395E+03  0.7546771E-02  0.9376749E-01
        -11   -1    0    0    0    0  0.00000000000E+00  0.00000000000E+00  0.50000000000E+03  0.50000000000E+03  0.00000000000E+00 0. -1.
         11   -1    0    0    0    0 -0.00000000000E+00 -0.00000000000E+00 -0.50000000000E+03  0.50000000000E+03  0.00000000000E+00 0. -1.
        -11    1    1    2    0    0  0.24725565210E+02  0.17296869423E+02  0.48862963465E+03  0.48956047137E+03  0.00000000000E+00 0. -1.
         11    1    1    2    0    0  0.52774065387E+01 -0.34280133689E+01 -0.45116325248E+03  0.45120713944E+03  0.00000000000E+00 0. -1.
        -15    1    1    2    0    0 -0.57633737580E+01 -0.15833040883E+02 -0.28685923670E+02  0.33315786145E+02  0.17770000000E+01 0.  1.
         15    1    1    2    0    0 -0.24239597991E+02  0.19641848281E+01 -0.87804585084E+01  0.25916603046E+02  0.17770000000E+01 0. -1.
</event>
<event>
 6    1  0.6394569E-004  0.5089424E+03  0.7546771E-02  0.9380020E-01
        -11   -1    0    0    0    0  0.00000000000E+00  0.00000000000E+00  0.50000000000E+03  0.50000000000E+03  0.00000000000E+00 0. -1.
         11   -1    0    0    0    0 -0.00000000000E+00 -0.00000000000E+00 -0.50000000000E+03  0.50000000000E+03  0.00000000000E+00 0.  1.
        -11    1    1    2    0    0  0.85948637108E+01 -0.26045565108E+02  0.46664902613E+03  0.46745433653E+03  0.00000000000E+00 0. -1.
         11    1    1    2    0    0 -0.11531412398E+02  0.24635729888E+01 -0.49091602153E+03  0.49105761663E+03  0.00000000000E+00 0.  1.
        -15    1    1    2    0    0  0.10791672388E+02  0.20697895333E+02  0.23040004127E+02  0.32846043647E+02  0.17770000000E+01 0.  1.
         15    1    1    2    0    0 -0.78551237002E+01  0.28840967870E+01  0.12269912642E+01  0.86420031928E+01  0.17770000000E+01 0. -1.
</event>
<event>
 6    1  0.6394569E-004  0.5002752E+03  0.7546771E-02  0.9399194E-01
        -11   -1    0    0    0    0  0.00000000000E+00  0.00000000000E+00  0.50000000000E+03  0.50000000000E+03  0.00000000000E+00 0.  1.
         11   -1    0    0    0    0 -0.00000000000E+00 -0.00000000000E+00 -0.50000000000E+03  0.50000000000E+03  0.00000000000E+00 0. -1.
        -11    1    1    2    0    0  0.57021134999E+01  0.60917600629E+00  0.10658434593E+03  0.10673850285E+03  0.00000000000E+00 0.  1.
         11    1    1    2    0    0  0.81855783600E+00  0.15464116524E+02 -0.49948480540E+03  0.49972480403E+03  0.00000000000E+00 0. -1.
        -15    1    1    2    0    0 -0.97627511175E+00 -0.85929895964E+01  0.78770864911E+02  0.79264112126E+02  0.17770000000E+01 0. -1.
         15    1    1    2    0    0 -0.55443962241E+01 -0.74803029337E+01  0.31412959455E+03  0.31427258100E+03  0.17770000000E+01 0.  1.
</event>
<event>
 6    1  0.6394569E-004  0.4730727E+03  0.7546771E-02  0.9462163E-01
        -11   -1    0    0    0    0  0.00000000000E+00  0.00000000000E+00  0.50000000000E+03  0.50000000000E+03  0.00000000000E+00 0. -1.
         11   -1    0    0    0    0 -0.00000000000E+00 -0.00000000000E+00 -0.50000000000E+03  0.50000000000E+03  0.00000000000E+00 0.  1.
        -11    1    1    2    0    0 -0.27736248066E+02  0.19378214552E+02  0.48408911237E+03  0.48527011382E+03  0.00000000000E+00 0. -1.
         11    1    1    2    0    0 -0.86038491037E+01  0.48017099653E+01 -0.46203342325E+03  0.46213847150E+03  0.00000000000E+00 0.  1.
        -15    1    1    2    0    0  0.37084571482E+02 -0.18062917131E+02 -0.19828742039E+02  0.45802523480E+02  0.17770000000E+01 0.  1.
         15    1    1    2    0    0 -0.74447431226E+00 -0.61170073862E+01 -0.22269470784E+01  0.67888911948E+01  0.17770000000E+01 0. -1.
</event>
<event>
 6    1  0.6394569E-004  0.5400879E+03  0.7546771E-02  0.9314323E-01
        -11   -1    0    0    0    0  0.00000000000E+00  0.00000000000E+00  0.50000000000E+03  0.50000000000E+03  0.00000000000E+00 0.  1.
         11   -1    0    0    0    0 -0.00000000000E+00 -0.00000000000E+00 -0.50000000000E+03  0.50000000000E+03  0.00000000000E+00 0. -1.
        -11    1    1    2    0    0 -0.10577970687E+03  0.58756924420E+01  0.33509141804E+03  0.35144007824E+03  0.00000000000E+00 0.  1.
         11    1    1    2    0    0 -0.54158125168E+00 -0.39026772089E+02 -0.45825292346E+03  0.45991208302E+03  0.00000000000E+00 0. -1.
        -15    1    1    2    0    0 -0.50929597762E+01  0.24619524344E+02  0.44208962365E+01  0.25588303397E+02  0.17770000000E+01 0. -1.
         15    1    1    2    0    0  0.11141424790E+03  0.85315553033E+01  0.11874060918E+03  0.16305953535E+03  0.17770000000E+01 0.  1.
</event>
<event>
 6    1  0.6394569E-004  0.5010209E+03  0.7546771E-02  0.9397528E-01
        -11   -1    0    0    0    0  0.00000000000E+00  0.00000000000E+00  0.50000000000E+03  0.50000000000E+03  0.00000000000E+00 0. -1.
         11   -1    0    0    0    0 -0.00000000000E+00 -0.00000000000E+00 -0.50000000000E+03  0.50000000000E+03  0.00000000000E+00 0. -1.
        -11    1    1    2    0    0 -0.31804126173E+01  0.54808606031E+01  0.41893212062E+03  0.41898004313E+03  0.00000000000E+00 0. -1.
         11    1    1    2    0    0  0.87317936334E+01  0.39401089657E+01 -0.49888710166E+03  0.49897906658E+03  0.00000000000E+00 0. -1.
        -15    1    1    2    0    0 -0.58983421669E+01 -0.35863538989E+01  0.13154541901E+02  0.14961686944E+02  0.17770000000E+01 0. -1.
         15    1    1    2    0    0  0.34696115076E+00 -0.58346156699E+01  0.66800439146E+02  0.67079203343E+02  0.17770000000E+01 0.  1.
</event>
<event>
 6    1  0.6394569E-004  0.5108862E+03  0.7546771E-02  0.9375775E-01
        -11   -1    0    0    0    0  0.00000000000E+00  0.00000000000E+00  0.50000000000E+03  0.50000000000E+03  0.00000000000E+00 0. -1.
         11   -1    0    0    0    0 -0.00000000000E+00 -0.00000000000E+00 -0.50000000000E+03  0.50000000000E+03  0.00000000000E+00 0. -1.
        -11    1    1    2    0    0 -0.12706450038E+02  0.24548964426E+02  0.43288191166E+03  0.43376359341E+03  0.00000000000E+00 0. -1.
         11    1    1    2    0    0  0.25913076289E-01  0.82530880219E+01 -0.48904418748E+03  0.48911382258E+03  0.00000000000E+00 0. -1.
        -15    1    1    2    0    0 -0.25294895461E+01  0.75242700239E+01  0.17065693292E+02  0.18905252532E+02  0.17770000000E+01 0.  1.
         15    1    1    2    0    0  0.15210026508E+02 -0.40326322472E+02  0.39096582529E+02  0.58217331483E+02  0.17770000000E+01 0. -1.
</event>
<event>
 6    1  0.6394569E-004  0.5054352E+03  0.7546771E-02  0.9387729E-01
        -11   -1    0    0    0    0  0.00000000000E+00  0.00000000000E+00  0.50000000000E+03  0.50000000000E+03  0.00000000000E+00 0. -1.
         11   -1    0    0    0    0 -0.00000000000E+00 -0.00000000000E+00 -0.50000000000E+03  0.50000000000E+03  0.00000000000E+00 0. -1.
        -11    1    1    2    0    0  0.70204435479E+02  0.10806465782E+02  0.17072393403E+03  0.18491107082E+03  0.00000000000E+00 0. -1.
         11    1    1    2    0    0 -0.61445651943E+02 -0.39610758601E+02 -0.48913161576E+03  0.49456477622E+03  0.00000000000E+00 0. -1.
        -15    1    1    2    0    0 -0.25872297663E+01  0.23536207147E+02  0.28876607471E+03  0.28974066065E+03  0.17770000000E+01 0. -1.
         15    1    1    2    0    0 -0.61715537705E+01  0.52680856714E+01  0.29641607022E+02  0.30783492304E+02  0.17770000000E+01 0.  1.
</event>
<event>
 6    1  0.6394569E-004  0.5093571E+03  0.7546771E-02  0.9379113E-01
        -11   -1    0    0    0    0  0.00000000000E+00  0.00000000000E+00  0.50000000000E+03  0.50000000000E+03  0.00000000000E+00 0.  1.
         11   -1    0    0    0    0 -0.00000000000E+00 -0.00000000000E+00 -0.50000000000E+03  0.50000000000E+03  0.00000000000E+00 0.  1.
        -11    1    1    2    0    0 -0.19811570682E+02  0.45012123360E+01  0.45780767259E+03  0.45825825069E+03  0.00000000000E+00 0.  1.
         11    1    1    2    0    0 -0.20822265964E+01 -0.67363886072E+01 -0.49059225382E+03  0.49064291915E+03  0.00000000000E+00 0.  1.
        -15    1    1    2    0    0  0.25074187848E+02 -0.50465941923E+01  0.34293364369E+02  0.42817935236E+02  0.17770000000E+01 0.  1.
         15    1    1    2    0    0 -0.31803905694E+01  0.72817704635E+01 -0.15087831334E+01  0.82808949276E+01  0.17770000000E+01 0. -1.
</event>
<event>
 6    1  0.6394569E-004  0.4882532E+03  0.7546771E-02  0.9426485E-01
        -11   -1    0    0    0    0  0.00000000000E+00  0.00000000000E+00  0.50000000000E+03  0.50000000000E+03  0.00000000000E+00 0. -1.
         11   -1    0    0    0    0 -0.00000000000E+00 -0.00000000000E+00 -0.50000000000E+03  0.50000000000E+03  0.00000000000E+00 0. -1.
        -11    1    1    2    0    0  0.28128388883E+01  0.10676751101E+02  0.48612776661E+03  0.48625313423E+03  0.00000000000E+00 0. -1.
         11    1    1    2    0    0  0.13959630198E+02  0.13082340463E+01 -0.49027914517E+03  0.49047958463E+03  0.00000000000E+00 0. -1.
        -15    1    1    2    0    0 -0.66888360929E+01 -0.10222176464E+02  0.88540605368E+00  0.12376392561E+02  0.17770000000E+01 0. -1.
         15    1    1    2    0    0 -0.10083632993E+02 -0.17628086835E+01  0.32659725025E+01  0.10890888586E+02  0.17770000000E+01 0.  1.
</event>
<event>
 6    1  0.6394569E-004  0.5089190E+03  0.7546771E-02  0.9380071E-01
        -11   -1    0    0    0    0  0.00000000000E+00  0.00000000000E+00  0.50000000000E+03  0.50000000000E+03  0.00000000000E+00 0.  1.
         11   -1    0    0    0    0 -0.00000000000E+00 -0.00000000000E+00 -0.50000000000E+03  0.50000000000E+03  0.00000000000E+00 0. -1.
        -11    1    1    2    0    0  0.24075694564E+02  0.69497446621E+01  0.49044126314E+03  0.49108102245E+03  0.00000000000E+00 0.  1.
         11    1    1    2    0    0  0.32117784164E+01  0.85421788960E+01 -0.46638519155E+03  0.46647447008E+03  0.00000000000E+00 0. -1.
        -15    1    1    2    0    0 -0.15253821652E+02 -0.23665552719E+01 -0.17458633631E+02  0.23371805153E+02  0.17770000000E+01 0.  1.
         15    1    1    2    0    0 -0.12033651328E+02 -0.13125368286E+02 -0.65974379614E+01  0.19072702315E+02  0.17770000000E+01 0. -1.
</event>
<event>
 6    1  0.6394569E-004  0.5005053E+03  0.7546771E-02  0.9398680E-01
        -11   -1    0    0    0    0  0.00000000000E+00  0.00000000000E+00  0.50000000000E+03  0.50000000000E+03  0.00000000000E+00 0. -1.
         11   -1    0    0    0    0 -0.00000000000E+00 -0.00000000000E+00 -0.50000000000E+03  0.50000000000E+03  0.00000000000E+00 0. -1.
        -11    1    1    2    0    0  0.59389539951E+01 -0.60109298836E+01  0.49942317106E+03  0.49949465086E+03  0.00000000000E+00 0. -1.
         11    1    1    2    0    0  0.56674253200E+01  0.13669136068E+01 -0.40604890372E+03  0.40609075387E+03  0.00000000000E+00 0. -1.
        -15    1    1    2    0    0 -0.26482154202E+01  0.35173489146E+01 -0.34636731764E+02  0.34960630781E+02  0.17770000000E+01 0.  1.
         15    1    1    2    0    0 -0.89581638948E+01  0.11266673622E+01 -0.58737535572E+02  0.59453964492E+02  0.17770000000E+01 0. -1.
</event>
<event>
 6    1  0.6394569E-004  0.5002838E+03  0.7546771E-02  0.9399175E-01
        -11   -1    0    0    0    0  0.00000000000E+00  0.00000000000E+00  0.50000000000E+03  0.50000000000E+03  0.00000000000E+00 0.  1.
         11   -1    0    0    0    0 -0.00000000000E+00 -0.00000000000E+00 -0.50000000000E+03  0.50000000000E+03  0.00000000000E+00 0. -1.
        -11    1    1    2    0    0 -0.15838584609E+02  0.14352579778E+02  0.25048699091E+03  0.25139727509E+03  0.00000000000E+00 0.  1.
         11    1    1    2    0    0  0.19017374430E+02 -0.96368453490E+01 -0.49926120300E+03  0.49971619759E+03  0.00000000000E+00 0. -1.
        -15    1    1    2    0    0 -0.33250589852E+01 -0.21145241971E+01  0.14342459756E+03  0.14348972139E+03  0.17770000000E+01 0.  1.
         15    1    1    2    0    0  0.14626916388E+00 -0.26012102315E+01  0.10534961453E+03  0.10539680593E+03  0.17770000000E+01 0.  1.
</event>
<event>
 6    1  0.6394569E-004  0.5009508E+03  0.7546771E-02  0.9397685E-01
        -11   -1    0    0    0    0  0.00000000000E+00  0.00000000000E+00  0.50000000000E+03  0.50000000000E+03  0.00000000000E+00 0.  1.
         11   -1    0    0    0    0 -0.00000000000E+00 -0.00000000000E+00 -0.50000000000E+03  0.50000000000E+03  0.00000000000E+00 0.  1.
        -11    1    1    2    0    0  0.13729001987E+02 -0.12061382885E+02  0.49871449658E+03  0.49904920754E+03  0.00000000000E+00 0.  1.
         11    1    1    2    0    0 -0.36095528251E+01 -0.27366893946E+01 -0.27172599836E+03  0.27176375131E+03  0.00000000000E+00 0.  1.
        -15    1    1    2    0    0 -0.44081576695E+00  0.36419342925E+01 -0.17663700065E+03  0.17668402795E+03  0.17770000000E+01 0. -1.
         15    1    1    2    0    0 -0.96786333954E+01  0.11156137987E+02 -0.50351497564E+02  0.52503013201E+02  0.17770000000E+01 0.  1.
</event>
<event>
 6    1  0.6394569E-004  0.5002980E+03  0.7546771E-02  0.9399143E-01
        -11   -1    0    0    0    0  0.00000000000E+00  0.00000000000E+00  0.50000000000E+03  0.50000000000E+03  0.00000000000E+00 0.  1.
         11   -1    0    0    0    0 -0.00000000000E+00 -0.00000000000E+00 -0.50000000000E+03  0.50000000000E+03  0.00000000000E+00 0.  1.
        -11    1    1    2    0    0 -0.10811415544E+01  0.12234262947E+02  0.12170784721E+03  0.12232598306E+03  0.00000000000E+00 0.  1.
         11    1    1    2    0    0  0.13117834335E+02 -0.16157478592E+02 -0.49926842491E+03  0.49970201301E+03  0.00000000000E+00 0.  1.
        -15    1    1    2    0    0 -0.46270449853E+01  0.97428195689E+00  0.28678027910E+03  0.28682476354E+03  0.17770000000E+01 0.  1.
         15    1    1    2    0    0 -0.74096477950E+01  0.29489336881E+01  0.90780298596E+02  0.91147240400E+02  0.17770000000E+01 0. -1.
</event>
<event>
 6    1  0.6394569E-004  0.5010431E+03  0.7546771E-02  0.9397479E-01
        -11   -1    0    0    0    0  0.00000000000E+00  0.00000000000E+00  0.50000000000E+03  0.50000000000E+03  0.00000000000E+00 0.  1.
         11   -1    0    0    0    0 -0.00000000000E+00 -0.00000000000E+00 -0.50000000000E+03  0.50000000000E+03  0.00000000000E+00 0.  1.
        -11    1    1    2    0    0  0.67577162941E+01  0.49715510658E+01  0.41577477415E+03  0.41585940637E+03  0.00000000000E+00 0.  1.
         11    1    1    2    0    0 -0.59738426586E+01  0.94476425203E+01 -0.49883169686E+03  0.49895691851E+03  0.00000000000E+00 0.  1.
        -15    1    1    2    0    0 -0.52158515407E+01 -0.66881944840E+01  0.55363451437E+02  0.56037545778E+02  0.17770000000E+01 0. -1.
         15    1    1    2    0    0  0.44319779051E+01 -0.77309991020E+01  0.27693471268E+02  0.29146129334E+02  0.17770000000E+01 0.  1.
</event>
<event>
 6    1  0.6394569E-004  0.5012258E+03  0.7546771E-02  0.9397071E-01
        -11   -1    0    0    0    0  0.00000000000E+00  0.00000000000E+00  0.50000000000E+03  0.50000000000E+03  0.00000000000E+00 0. -1.
         11   -1    0    0    0    0 -0.00000000000E+00 -0.00000000000E+00 -0.50000000000E+03  0.50000000000E+03  0.00000000000E+00 0. -1.
        -11    1    1    2    0    0  0.13619406315E+02  0.61654346578E+01  0.49855012740E+03  0.49877422782E+03  0.00000000000E+00 0. -1.
         11    1    1    2    0    0  0.20880993830E+01  0.63672657894E+01 -0.40441388626E+03  0.40446939765E+03  0.00000000000E+00 0. -1.
        -15    1    1    2    0    0 -0.89088457546E+01 -0.12353524794E+02 -0.64949334729E+02  0.66734930271E+02  0.17770000000E+01 0. -1.
         15    1    1    2    0    0 -0.67986599432E+01 -0.17917565290E+00 -0.29186906407E+02  0.30021444261E+02  0.17770000000E+01 0.  1.
</event>
<event>
 6    1  0.6394569E-004  0.5016518E+03  0.7546771E-02  0.9396121E-01
        -11   -1    0    0    0    0  0.00000000000E+00  0.00000000000E+00  0.50000000000E+03  0.50000000000E+03  0.00000000000E+00 0.  1.
         11   -1    0    0    0    0 -0.00000000000E+00 -0.00000000000E+00 -0.50000000000E+03  0.50000000000E+03  0.00000000000E+00 0. -1.
        -11    1    1    2    0    0  0.10147442673E+02  0.19375157481E+01  0.14554764997E+02  0.17848410131E+02  0.00000000000E+00 0.  1.
         11    1    1    2    0    0 -0.67679305636E+01  0.28914305226E+01 -0.49829383077E+03  0.49834817852E+03  0.00000000000E+00 0. -1.
        -15    1    1    2    0    0  0.57997256214E+00 -0.13841742062E+01  0.12659014294E+03  0.12661150945E+03  0.17770000000E+01 0.  1.
         15    1    1    2    0    0 -0.39594846712E+01 -0.34447720645E+01  0.35714892284E+03  0.35719190190E+03  0.17770000000E+01 0.  1.
</event>
<event>
 6    1  0.6394569E-004  0.5004146E+03  0.7546771E-02  0.9398882E-01
        -11   -1    0    0    0    0  0.00000000000E+00  0.00000000000E+00  0.50000000000E+03  0.50000000000E+03  0.00000000000E+00 0. -1.
         11   -1    0    0    0    0 -0.00000000000E+00 -0.00000000000E+00 -0.50000000000E+03  0.50000000000E+03  0.00000000000E+00 0. -1.
        -11    1    1    2    0    0  0.65378432594E+01 -0.46065205041E+01  0.36756203967E+03  0.36764903976E+03  0.00000000000E+00 0. -1.
         11    1    1    2    0    0 -0.32587071092E+01 -0.72138073282E+01 -0.49952264735E+03  0.49958536148E+03  0.00000000000E+00 0. -1.
        -15    1    1    2    0    0  0.98513012002E+00  0.71841570929E+01  0.88576464234E+02  0.88890552590E+02  0.17770000000E+01 0. -1.
         15    1    1    2    0    0 -0.42642662702E+01  0.46361707394E+01  0.43384143440E+02  0.43875046176E+02  0.17770000000E+01 0.  1.
</event>
<event>
 6    1  0.6394569E-004  0.5040045E+03  0.7546771E-02  0.9390894E-01
        -11   -1    0    0    0    0  0.00000000000E+00  0.00000000000E+00  0.50000000000E+03  0.50000000000E+03  0.00000000000E+00 0. -1.
         11   -1    0    0    0    0 -0.00000000000E+00 -0.00000000000E+00 -0.50000000000E+03  0.50000000000E+03  0.00000000000E+00 0.  1.
        -11    1    1    2    0    0  0.10692963771E+02  0.41224405812E+01  0.48921101474E+03  0.48934522674E+03  0.00000000000E+00 0. -1.
         11    1    1    2    0    0 -0.88447376928E+01 -0.29334123043E+01 -0.49590799538E+03  0.49599553846E+03  0.00000000000E+00 0.  1.
        -15    1    1    2    0    0  0.47854629998E+01  0.16218597794E+01  0.13820303544E+01  0.55316202117E+01  0.17770000000E+01 0.  1.
         15    1    1    2    0    0 -0.66336890785E+01 -0.28108880562E+01  0.53149502839E+01  0.91276145830E+01  0.17770000000E+01 0. -1.
</event>
<event>
 6    1  0.9987454E-004  0.5000989E+03  0.7546771E-02  0.9399588E-01
        -11   -1    0    0    0    0  0.00000000000E+00  0.00000000000E+00  0.50000000000E+03  0.50000000000E+03  0.00000000000E+00 0.  1.
         11   -1    0    0    0    0 -0.00000000000E+00 -0.00000000000E+00 -0.50000000000E+03  0.50000000000E+03  0.00000000000E+00 0.  1.
        -11    1    1    2    0    0 -0.95380111067E+01 -0.28758573466E+01  0.49980180674E+03  0.49990108045E+03  0.00000000000E+00 0.  1.
         11    1    1    2    0    0  0.16873765915E+01 -0.24631917862E+01 -0.13296483991E+03  0.13299835791E+03  0.00000000000E+00 0.  1.
        -15    1    1    2    0    0  0.80319264535E+01  0.29978590955E+01 -0.15769686411E+03  0.15793972800E+03  0.17770000000E+01 0. -1.
         15    1    1    2    0    0 -0.18129193823E+00  0.23411900373E+01 -0.20914010272E+03  0.20916083365E+03  0.17770000000E+01 0.  1.
</event>
<event>
 6    1  0.6394569E-004  0.5052693E+03  0.7546771E-02  0.9388096E-01
        -11   -1    0    0    0    0  0.00000000000E+00  0.00000000000E+00  0.50000000000E+03  0.50000000000E+03  0.00000000000E+00 0.  1.
         11   -1    0    0    0    0 -0.00000000000E+00 -0.00000000000E+00 -0.50000000000E+03  0.50000000000E+03  0.00000000000E+00 0. -1.
        -11    1    1    2    0    0 -0.25180966157E+02  0.33766846475E+02  0.40392585266E+03  0.40611620926E+03  0.00000000000E+00 0.  1.
         11    1    1    2    0    0  0.55962649539E+01 -0.43156800994E+01 -0.49468017494E+03  0.49473065273E+03  0.00000000000E+00 0. -1.
        -15    1    1    2    0    0 -0.18433901784E+01 -0.24708925650E+01  0.23733086849E+01  0.42771159128E+01  0.17770000000E+01 0. -1.
         15    1    1    2    0    0  0.21428091382E+02 -0.26980273811E+02  0.88381013592E+02  0.94876022091E+02  0.17770000000E+01 0.  1.
</event>
<event>
 6    1  0.6394569E-004  0.5027404E+03  0.7546771E-02  0.9393699E-01
        -11   -1    0    0    0    0  0.00000000000E+00  0.00000000000E+00  0.50000000000E+03  0.50000000000E+03  0.00000000000E+00 0.  1.
         11   -1    0    0    0    0 -0.00000000000E+00 -0.00000000000E+00 -0.50000000000E+03  0.50000000000E+03  0.00000000000E+00 0.  1.
        -11    1    1    2    0    0  0.11078892678E+02  0.33510359123E+01  0.46961425120E+03  0.46975686928E+03  0.00000000000E+00 0.  1.
         11    1    1    2    0    0 -0.83087418066E+01 -0.83204008996E+01 -0.49712059521E+03  0.49725964087E+03  0.00000000000E+00 0.  1.
        -15    1    1    2    0    0  0.65418736574E+01  0.54080980473E+01  0.14226327006E+02  0.16661024714E+02  0.17770000000E+01 0.  1.
         15    1    1    2    0    0 -0.93120245293E+01 -0.43873305992E+00  0.13280017002E+02  0.16322465135E+02  0.17770000000E+01 0. -1.
</event>
<event>
 6    1  0.6394569E-004  0.4881853E+03  0.7546771E-02  0.9426641E-01
        -11   -1    0    0    0    0  0.00000000000E+00  0.00000000000E+00  0.50000000000E+03  0.50000000000E+03  0.00000000000E+00 0.  1.
         11   -1    0    0    0    0 -0.00000000000E+00 -0.00000000000E+00 -0.50000000000E+03  0.50000000000E+03  0.00000000000E+00 0.  1.
        -11    1    1    2    0    0  0.84443059815E+01  0.26638829064E+02  0.48417528167E+03  0.48498106859E+03  0.00000000000E+00 0.  1.
         11    1    1    2    0    0 -0.75464646915E+01 -0.13846247208E+02 -0.49124630497E+03  0.49149933859E+03  0.00000000000E+00 0.  1.
        -15    1    1    2    0    0  0.17899353144E+01  0.40071200038E+01 -0.59948942173E+00  0.47726298538E+01  0.17770000000E+01 0. -1.
         15    1    1    2    0    0 -0.26877766044E+01 -0.16799701860E+02  0.76705127270E+01  0.18746962958E+02  0.17770000000E+01 0.  1.
</event>
<event>
 6    1  0.6394569E-004  0.5008425E+03  0.7546771E-02  0.9397927E-01
        -11   -1    0    0    0    0  0.00000000000E+00  0.00000000000E+00  0.50000000000E+03  0.50000000000E+03  0.00000000000E+00 0.  1.
         11   -1    0    0    0    0 -0.00000000000E+00 -0.00000000000E+00 -0.50000000000E+03  0.50000000000E+03  0.00000000000E+00 0.  1.
        -11    1    1    2    0    0 -0.18634936223E+01  0.85822551375E+01  0.49908023478E+03  0.49915749865E+03  0.00000000000E+00 0.  1.
         11    1    1    2    0    0  0.50488939312E+01  0.38735337473E+01 -0.42921399158E+03  0.42926116311E+03  0.00000000000E+00 0.  1.
        -15    1    1    2    0    0  0.17440516909E+01 -0.26619700156E+01 -0.29157629752E+02  0.29384569121E+02  0.17770000000E+01 0. -1.
         15    1    1    2    0    0 -0.49294519998E+01 -0.97938188691E+01 -0.40708613454E+02  0.42196769111E+02  0.17770000000E+01 0.  1.
</event>
<event>
 6    1  0.6394569E-004  0.5004448E+03  0.7546771E-02  0.9398815E-01
        -11   -1    0    0    0    0  0.00000000000E+00  0.00000000000E+00  0.50000000000E+03  0.50000000000E+03  0.00000000000E+00 0. -1.
         11   -1    0    0    0    0 -0.00000000000E+00 -0.00000000000E+00 -0.50000000000E+03  0.50000000000E+03  0.00000000000E+00 0. -1.
        -11    1    1    2    0    0 -0.28242139278E+01 -0.10007505946E+02  0.71020798246E+02  0.71777992052E+02  0.00000000000E+00 0. -1.
         11    1    1    2    0    0 -0.66063023211E+00  0.67121245150E+01 -0.49950965147E+03  0.49955518310E+03  0.00000000000E+00 0. -1.
        -15    1    1    2    0    0  0.28092010427E+01  0.55437047851E+01  0.39385598842E+03  0.39390902708E+03  0.17770000000E+01 0. -1.
         15    1    1    2    0    0  0.67564311717E+00 -0.22483233541E+01  0.34632864807E+02  0.34757797762E+02  0.17770000000E+01 0. -1.
</event>
<event>
 6    1  0.6394569E-004  0.5158014E+03  0.7546771E-02  0.9365131E-01
        -11   -1    0    0    0    0  0.00000000000E+00  0.00000000000E+00  0.50000000000E+03  0.50000000000E+03  0.00000000000E+00 0. -1.
         11   -1    0    0    0    0 -0.00000000000E+00 -0.00000000000E+00 -0.50000000000E+03  0.50000000000E+03  0.00000000000E+00 0.  1.
        -11    1    1    2    0    0  0.21731607143E+02 -0.28210106209E+02  0.41361195296E+03  0.41514204855E+03  0.00000000000E+00 0. -1.
         11    1    1    2    0    0  0.47270864543E+01 -0.88164650105E+01 -0.48409521367E+03  0.48419856599E+03  0.00000000000E+00 0.  1.
        -15    1    1    2    0    0 -0.20212420872E+02  0.12324284584E+02  0.71255396215E+02  0.75106052797E+02  0.17770000000E+01 0. -1.
         15    1    1    2    0    0 -0.62462727256E+01  0.24702286636E+02 -0.77213550533E+00  0.25553332664E+02  0.17770000000E+01 0.  1.
</event>
<event>
 6    1  0.6394569E-004  0.5044989E+03  0.7546771E-02  0.9389799E-01
        -11   -1    0    0    0    0  0.00000000000E+00  0.00000000000E+00  0.50000000000E+03  0.50000000000E+03  0.00000000000E+00 0. -1.
         11   -1    0    0    0    0 -0.00000000000E+00 -0.00000000000E+00 -0.50000000000E+03  0.50000000000E+03  0.00000000000E+00 0.  1.
        -11    1    1    2    0    0 -0.14355341432E+02 -0.20865749143E+02  0.45938437248E+03  0.46008201117E+03  0.00000000000E+00 0. -1.
         11    1    1    2    0    0  0.19230225513E+02 -0.19283841691E+01 -0.49512401153E+03  0.49550106664E+03  0.00000000000E+00 0.  1.
        -15    1    1    2    0    0  0.39517250329E+00  0.19216632504E+02  0.29929912353E+02  0.35614498572E+02  0.17770000000E+01 0.  1.
         15    1    1    2    0    0 -0.52700565837E+01  0.35775008077E+01  0.58097266973E+01  0.88024236277E+01  0.17770000000E+01 0. -1.
</event>
<event>
 6    1  0.6394569E-004  0.5128319E+03  0.7546771E-02  0.9371546E-01
        -11   -1    0    0    0    0  0.00000000000E+00  0.00000000000E+00  0.50000000000E+03  0.50000000000E+03  0.00000000000E+00 0.  1.
         11   -1    0    0    0    0 -0.00000000000E+00 -0.00000000000E+00 -0.50000000000E+03  0.50000000000E+03  0.00000000000E+00 0. -1.
        -11    1    1    2    0    0 -0.45664089334E+02 -0.32517570708E+01  0.43727105873E+03  0.43966096231E+03  0.00000000000E+00 0.  1.
         11    1    1    2    0    0 -0.56577507003E+01  0.39685725167E+01 -0.48711910485E+03  0.48716812500E+03  0.00000000000E+00 0. -1.
        -15    1    1    2    0    0  0.45866106948E+02 -0.77298945082E+00  0.36524441449E+02  0.58664212528E+02  0.17770000000E+01 0. -1.
         15    1    1    2    0    0  0.54557330858E+01  0.56174004945E-01  0.13323604672E+02  0.14506700158E+02  0.17770000000E+01 0.  1.
</event>
<event>
 6    1  0.6394569E-004  0.5001013E+03  0.7546771E-02  0.9399583E-01
        -11   -1    0    0    0    0  0.00000000000E+00  0.00000000000E+00  0.50000000000E+03  0.50000000000E+03  0.00000000000E+00 0. -1.
         11   -1    0    0    0    0 -0.00000000000E+00 -0.00000000000E+00 -0.50000000000E+03  0.50000000000E+03  0.00000000000E+00 0. -1.
        -11    1    1    2    0    0  0.24994178974E+01  0.13144349942E+01  0.10103783712E+03  0.10107729399E+03  0.00000000000E+00 0. -1.
         11    1    1    2    0    0 -0.30921312354E+01  0.61347949130E+01 -0.49985148017E+03  0.49989868895E+03  0.00000000000E+00 0. -1.
        -15    1    1    2    0    0  0.35250562991E+01 -0.19486877191E+00  0.69242371815E+02  0.69355084740E+02  0.17770000000E+01 0.  1.
         15    1    1    2    0    0 -0.29323429611E+01 -0.72543611353E+01  0.32957127123E+03  0.32966893232E+03  0.17770000000E+01 0. -1.
</event>
<event>
 6    1  0.6394569E-004  0.5006222E+03  0.7546771E-02  0.9398419E-01
        -11   -1    0    0    0    0  0.00000000000E+00  0.00000000000E+00  0.50000000000E+03  0.50000000000E+03  0.00000000000E+00 0.  1.
         11   -1    0    0    0    0 -0.00000000000E+00 -0.00000000000E+00 -0.50000000000E+03  0.50000000000E+03  0.00000000000E+00 0.  1.
        -11    1    1    2    0    0  0.13419951733E+02 -0.13211715496E+02  0.49902263370E+03  0.49937784640E+03  0.00000000000E+00 0.  1.
         11    1    1    2    0    0  0.45468431098E+01  0.76215422909E+00 -0.14090087302E+03  0.14097627700E+03  0.00000000000E+00 0.  1.
        -15    1    1    2    0    0 -0.50842900874E+00  0.10317266873E+02 -0.23796211474E+03  0.23819284262E+03  0.17770000000E+01 0.  1.
         15    1    1    2    0    0 -0.17458365834E+02  0.21322943941E+01 -0.12015964595E+03  0.12145303397E+03  0.17770000000E+01 0. -1.
</event>
<event>
 6    1  0.6394569E-004  0.5002425E+03  0.7546771E-02  0.9399267E-01
        -11   -1    0    0    0    0  0.00000000000E+00  0.00000000000E+00  0.50000000000E+03  0.50000000000E+03  0.00000000000E+00 0. -1.
         11   -1    0    0    0    0 -0.00000000000E+00 -0.00000000000E+00 -0.50000000000E+03  0.50000000000E+03  0.00000000000E+00 0. -1.
        -11    1    1    2    0    0 -0.82783272041E+01  0.13980871869E+02  0.49949332227E+03  0.49975751567E+03  0.00000000000E+00 0. -1.
         11    1    1    2    0    0 -0.23991139842E+01 -0.84736439090E+01 -0.37144829030E+03  0.37155267561E+03  0.00000000000E+00 0. -1.
        -15    1    1    2    0    0  0.73736728237E+01 -0.40957976280E+01 -0.75046164471E+02  0.75539599813E+02  0.17770000000E+01 0. -1.
         15    1    1    2    0    0  0.33037683646E+01 -0.14114303323E+01 -0.52998867503E+02  0.53150208904E+02  0.17770000000E+01 0. -1.
</event>
<event>
 6    1  0.6394569E-004  0.5017047E+03  0.7546771E-02  0.9396003E-01
        -11   -1    0    0    0    0  0.00000000000E+00  0.00000000000E+00  0.50000000000E+03  0.50000000000E+03  0.00000000000E+00 0. -1.
         11   -1    0    0    0    0 -0.00000000000E+00 -0.00000000000E+00 -0.50000000000E+03  0.50000000000E+03  0.00000000000E+00 0.  1.
        -11    1    1    2    0    0  0.97627320341E+01 -0.19273846000E+02  0.27643749365E+03  0.27728050774E+03  0.00000000000E+00 0. -1.
         11    1    1    2    0    0 -0.46459038002E+01 -0.11712434321E+02 -0.49813599375E+03  0.49829532790E+03  0.00000000000E+00 0.  1.
        -15    1    1    2    0    0  0.27868912807E+01  0.14964829086E+02  0.13630424157E+03  0.13716310317E+03  0.17770000000E+01 0. -1.
         15    1    1    2    0    0 -0.79037195145E+01  0.16021451235E+02  0.85394258526E+02  0.87261061190E+02  0.17770000000E+01 0.  1.
</event>
<event>
 6    1  0.6394569E-004  0.4916269E+03  0.7546771E-02  0.9418743E-01
        -11   -1    0    0    0    0  0.00000000000E+00  0.00000000000E+00  0.50000000000E+03  0.50000000000E+03  0.00000000000E+00 0.  1.
         11   -1    0    0    0    0 -0.00000000000E+00 -0.00000000000E+00 -0.50000000000E+03  0.50000000000E+03  0.00000000000E+00 0.  1.
        -11    1    1    2    0    0 -0.32493169642E+01 -0.63454551154E+01  0.16030316805E+02  0.17544056492E+02  0.00000000000E+00 0.  1.
         11    1    1    2    0    0  0.58321151981E+01 -0.95596870036E+01 -0.49856079411E+03  0.49868654143E+03  0.00000000000E+00 0.  1.
        -15    1    1    2    0    0 -0.13714800290E+02  0.18277217823E+02  0.34237415513E+03  0.34314045560E+03  0.17770000000E+01 0.  1.
         15    1    1    2    0    0  0.11132002056E+02 -0.23720757036E+01  0.14015632217E+03  0.14062894647E+03  0.17770000000E+01 0. -1.
</event>
<event>
 6    1  0.6394569E-004  0.5092641E+03  0.7546771E-02  0.9379316E-01
        -11   -1    0    0    0    0  0.00000000000E+00  0.00000000000E+00  0.50000000000E+03  0.50000000000E+03  0.00000000000E+00 0. -1.
         11   -1    0    0    0    0 -0.00000000000E+00 -0.00000000000E+00 -0.50000000000E+03  0.50000000000E+03  0.00000000000E+00 0. -1.
        -11    1    1    2    0    0 -0.57901412102E+00 -0.82754685722E+01  0.47331123038E+03  0.47338392394E+03  0.00000000000E+00 0. -1.
         11    1    1    2    0    0  0.35831819876E+01  0.15275651928E+02 -0.49048502154E+03  0.49073591787E+03  0.00000000000E+00 0. -1.
        -15    1    1    2    0    0  0.49106193652E+01  0.10588034158E+02  0.90555981490E+01  0.14878919205E+02  0.17770000000E+01 0. -1.
         15    1    1    2    0    0 -0.79147872318E+01 -0.17588217513E+02  0.81181930105E+01  0.21001238987E+02  0.17770000000E+01 0. -1.
</event>
<event>
 6    1  0.6394569E-004  0.5076436E+03  0.7546771E-02  0.9382867E-01
        -11   -1    0    0    0    0  0.00000000000E+00  0.00000000000E+00  0.50000000000E+03  0.50000000000E+03  0.00000000000E+00 0. -1.
         11   -1    0    0    0    0 -0.00000000000E+00 -0.00000000000E+00 -0.50000000000E+03  0.50000000000E+03  0.00000000000E+00 0.  1.
        -11    1    1    2    0    0 -0.13801217108E+02 -0.41007168871E+01  0.49214584462E+03  0.49235639718E+03  0.00000000000E+00 0. -1.
         11    1    1    2    0    0  0.61032801234E+01  0.54765821938E+01 -0.48178988180E+03  0.48185966129E+03  0.00000000000E+00 0.  1.
        -15    1    1    2    0    0  0.11107551915E+02  0.74988234834E+01 -0.36129060951E+01  0.13993601489E+02  0.17770000000E+01 0.  1.
         15    1    1    2    0    0 -0.34096149304E+01 -0.88746887901E+01 -0.67430567250E+01  0.11790340033E+02  0.17770000000E+01 0. -1.
</event>
<event>
 6    1  0.6394569E-004  0.5005269E+03  0.7546771E-02  0.9398631E-01
        -11   -1    0    0    0    0  0.00000000000E+00  0.00000000000E+00  0.50000000000E+03  0.50000000000E+03  0.00000000000E+00 0. -1.
         11   -1    0    0    0    0 -0.00000000000E+00 -0.00000000000E+00 -0.50000000000E+03  0.50000000000E+03  0.00000000000E+00 0.  1.
        -11    1    1    2    0    0 -0.80678287572E+01  0.11805186423E+02  0.20668084982E+03  0.20717486809E+03  0.00000000000E+00 0. -1.
         11    1    1    2    0    0  0.81821687620E+01  0.11861474920E+01 -0.49940464687E+03  0.49947307851E+03  0.00000000000E+00 0.  1.
        -15    1    1    2    0    0 -0.62690893988E+01 -0.29465777689E+01  0.12637740925E+03  0.12657958406E+03  0.17770000000E+01 0.  1.
         15    1    1    2    0    0  0.61547493941E+01 -0.10044756146E+02  0.16634638780E+03  0.16677246934E+03  0.17770000000E+01 0. -1.
</event>
<event>
 6    1  0.6394569E-004  0.5006682E+03  0.7546771E-02  0.9398316E-01
        -11   -1    0    0    0    0  0.00000000000E+00  0.00000000000E+00  0.50000000000E+03  0.50000000000E+03  0.00000000000E+00 0. -1.
         11   -1    0    0    0    0 -0.00000000000E+00 -0.00000000000E+00 -0.50000000000E+03  0.50000000000E+03  0.00000000000E+00 0.  1.
        -11    1    1    2    0    0  0.24628916258E+02 -0.63523388403E+01  0.29999778553E+03  0.30107408896E+03  0.00000000000E+00 0. -1.
         11    1    1    2    0    0 -0.14079888874E+02  0.81561477419E+01 -0.49906664692E+03  0.49933183764E+03  0.00000000000E+00 0.  1.
        -15    1    1    2    0    0  0.44471794323E+00  0.19693471156E+01  0.32942738222E+02  0.33052349881E+02  0.17770000000E+01 0.  1.
         15    1    1    2    0    0 -0.10993745327E+02 -0.37731560172E+01  0.16612612317E+03  0.16654172351E+03  0.17770000000E+01 0. -1.
</event>
<event>
 6    1  0.6394569E-004  0.5003228E+03  0.7546771E-02  0.9399088E-01
        -11   -1    0    0    0    0  0.00000000000E+00  0.00000000000E+00  0.50000000000E+03  0.50000000000E+03  0.00000000000E+00 0.  1.
         11   -1    0    0    0    0 -0.00000000000E+00 -0.00000000000E+00 -0.50000000000E+03  0.50000000000E+03  0.00000000000E+00 0.  1.
        -11    1    1    2    0    0  0.19574482004E+02  0.33838254631E+01  0.23512297351E+03  0.23596063928E+03  0.00000000000E+00 0.  1.
         11    1    1    2    0    0 -0.15900529221E+02 -0.47536957419E+01 -0.49940148891E+03  0.49967716735E+03  0.00000000000E+00 0.  1.
        -15    1    1    2    0    0  0.74582406194E-01 -0.79081355615E+00  0.88984879973E+02  0.89006165750E+02  0.17770000000E+01 0.  1.
         15    1    1    2    0    0 -0.37485351895E+01  0.21606838349E+01  0.17529363543E+03  0.17535602761E+03  0.17770000000E+01 0. -1.
</event>
<event>
 6    1  0.6394569E-004  0.5015539E+03  0.7546771E-02  0.9396339E-01
        -11   -1    0    0    0    0  0.00000000000E+00  0.00000000000E+00  0.50000000000E+03  0.50000000000E+03  0.00000000000E+00 0. -1.
         11   -1    0    0    0    0 -0.00000000000E+00 -0.00000000000E+00 -0.50000000000E+03  0.50000000000E+03  0.00000000000E+00 0. -1.
        -11    1    1    2    0    0  0.95856072396E+01  0.12227903784E+02  0.40696111806E+03  0.40725760534E+03  0.00000000000E+00 0. -1.
         11    1    1    2    0    0 -0.49656308777E+01  0.57367352586E+01 -0.49838836265E+03  0.49844611308E+03  0.00000000000E+00 0. -1.
        -15    1    1    2    0    0  0.21462267504E+00  0.47472952033E+00  0.27536379017E+02  0.27598574770E+02  0.17770000000E+01 0. -1.
         15    1    1    2    0    0 -0.48345990369E+01 -0.18439368563E+02  0.63890865572E+02  0.66697706807E+02  0.17770000000E+01 0.  1.
</event>
<event>
 6    1  0.6394569E-004  0.5006685E+03  0.7546771E-02  0.9398315E-01
        -11   -1    0    0    0    0  0.00000000000E+00  0.00000000000E+00  0.50000000000E+03  0.50000000000E+03  0.00000000000E+00 0. -1.
         11   -1    0    0    0    0 -0.00000000000E+00 -0.00000000000E+00 -0.50000000000E+03  0.50000000000E+03  0.00000000000E+00 0. -1.
        -11    1    1    2    0    0 -0.15891803591E+02 -0.34785508349E+01  0.49906640789E+03  0.49933148231E+03  0.00000000000E+00 0. -1.
         11    1    1    2    0    0  0.59997053677E+01 -0.63957065916E+00 -0.39265482685E+03  0.39270118228E+03  0.00000000000E+00 0. -1.
        -15    1    1    2    0    0  0.11148499537E+02  0.14876054463E+01 -0.43579352291E+02  0.45042420972E+02  0.17770000000E+01 0.  1.
         15    1    1    2    0    0 -0.12564013143E+01  0.26305160478E+01 -0.62832228746E+02  0.62924914439E+02  0.17770000000E+01 0. -1.
</event>
<event>
 6    1  0.6394569E-004  0.5023969E+03  0.7546771E-02  0.9394462E-01
        -11   -1    0    0    0    0  0.00000000000E+00  0.00000000000E+00  0.50000000000E+03  0.50000000000E+03  0.00000000000E+00 0. -1.
         11   -1    0    0    0    0 -0.00000000000E+00 -0.00000000000E+00 -0.50000000000E+03  0.50000000000E+03  0.00000000000E+00 0.  1.
        -11    1    1    2    0    0 -0.20529127382E+02 -0.47125195709E+01  0.49715710398E+03  0.49760309379E+03  0.00000000000E+00 0. -1.
         11    1    1    2    0    0  0.17806499966E+02 -0.26187989878E+01 -0.42392649356E+03  0.42430838018E+03  0.00000000000E+00 0.  1.
        -15    1    1    2    0    0  0.12863828945E+02  0.97351092076E+01 -0.38408400249E+02  0.41696683143E+02  0.17770000000E+01 0. -1.
         15    1    1    2    0    0 -0.10141201529E+02 -0.24037906490E+01 -0.34822210178E+02  0.36391842886E+02  0.17770000000E+01 0.  1.
</event>
<event>
 6    1  0.6394569E-004  0.5039979E+03  0.7546771E-02  0.9390908E-01
        -11   -1    0    0    0    0  0.00000000000E+00  0.00000000000E+00  0.50000000000E+03  0.50000000000E+03  0.00000000000E+00 0.  1.
         11   -1    0    0    0    0 -0.00000000000E+00 -0.00000000000E+00 -0.50000000000E+03  0.50000000000E+03  0.00000000000E+00 0.  1.
        -11    1    1    2    0    0  0.27863897463E+02  0.16867438660E+02  0.21594165379E+03  0.21838430601E+03  0.00000000000E+00 0.  1.
         11    1    1    2    0    0  0.11009784859E+02 -0.14815797311E+01 -0.49587768270E+03  0.49600210346E+03  0.00000000000E+00 0.  1.
        -15    1    1    2    0    0 -0.52819689371E+01 -0.55528517233E+01  0.17095717851E+03  0.17113809620E+03  0.17770000000E+01 0. -1.
         15    1    1    2    0    0 -0.33591713384E+02 -0.98330072051E+01  0.10897885039E+03  0.11447549432E+03  0.17770000000E+01 0.  1.
</event>
<event>
 6    1  0.6394569E-004  0.5013064E+03  0.7546771E-02  0.9396891E-01
        -11   -1    0    0    0    0  0.00000000000E+00  0.00000000000E+00  0.50000000000E+03  0.50000000000E+03  0.00000000000E+00 0. -1.
         11   -1    0    0    0    0 -0.00000000000E+00 -0.00000000000E+00 -0.50000000000E+03  0.50000000000E+03  0.00000000000E+00 0. -1.
        -11    1    1    2    0    0 -0.89230908927E+01  0.85968737257E+01  0.13304435623E+03  0.13362009023E+03  0.00000000000E+00 0. -1.
         11    1    1    2    0    0 -0.11470534913E+02  0.16761928450E+01 -0.49855887095E+03  0.49869362398E+03  0.00000000000E+00 0. -1.
        -15    1    1    2    0    0  0.40825644861E+01 -0.26187213303E+01  0.69217255859E+01  0.86367267107E+01  0.17770000000E+01 0.  1.
         15    1    1    2    0    0  0.16311061320E+02 -0.76543452403E+01  0.35859278914E+03  0.35904955908E+03  0.17770000000E+01 0. -1.
</event>
<event>
 6    1  0.6394569E-004  0.4913564E+03  0.7546771E-02  0.9419361E-01
        -11   -1    0    0    0    0  0.00000000000E+00  0.00000000000E+00  0.50000000000E+03  0.50000000000E+03  0.00000000000E+00 0.  1.
         11   -1    0    0    0    0 -0.00000000000E+00 -0.00000000000E+00 -0.50000000000E+03  0.50000000000E+03  0.00000000000E+00 0. -1.
        -11    1    1    2    0    0  0.75876811457E+01  0.15675174656E+02  0.13990950566E+01  0.17471161170E+02  0.00000000000E+00 0.  1.
         11    1    1    2    0    0 -0.14102165822E+02 -0.66534018351E+01 -0.49160736542E+03  0.49185459291E+03  0.00000000000E+00 0. -1.
        -15    1    1    2    0    0 -0.57863679277E+01 -0.56745311071E+01  0.22674445437E+03  0.22689620462E+03  0.17770000000E+01 0. -1.
         15    1    1    2    0    0  0.12300852604E+02 -0.33472417134E+01  0.26346381599E+03  0.26377804129E+03  0.17770000000E+01 0.  1.
</event>
<event>
 6    1  0.6394569E-004  0.4863489E+03  0.7546771E-02  0.9430884E-01
        -11   -1    0    0    0    0  0.00000000000E+00  0.00000000000E+00  0.50000000000E+03  0.50000000000E+03  0.00000000000E+00 0.  1.
         11   -1    0    0    0    0 -0.00000000000E+00 -0.00000000000E+00 -0.50000000000E+03  0.50000000000E+03  0.00000000000E+00 0. -1.
        -11    1    1    2    0    0  0.22466707190E+01  0.15049099142E+02  0.48687406675E+03  0.48711177340E+03  0.00000000000E+00 0.  1.
         11    1    1    2    0    0 -0.54374926749E+01  0.69128686376E+01 -0.48576013453E+03  0.48583974969E+03  0.00000000000E+00 0. -1.
        -15    1    1    2    0    0 -0.27392614513E+01 -0.10614968152E+02 -0.66966058503E+01  0.12968552775E+02  0.17770000000E+01 0.  1.
         15    1    1    2    0    0  0.59300834072E+01 -0.11346999627E+02  0.55826736354E+01  0.14079924136E+02  0.17770000000E+01 0. -1.
</event>
<event>
 6    1  0.6394569E-004  0.4874771E+03  0.7546771E-02  0.9428275E-01
        -11   -1    0    0    0    0  0.00000000000E+00  0.00000000000E+00  0.50000000000E+03  0.50000000000E+03  0.00000000000E+00 0. -1.
         11   -1    0    0    0    0 -0.00000000000E+00 -0.00000000000E+00 -0.50000000000E+03  0.50000000000E+03  0.00000000000E+00 0.  1.
        -11    1    1    2    0    0  0.19992065201E+02 -0.12913273709E+02  0.48399992135E+03  0.48458472859E+03  0.00000000000E+00 0. -1.
         11    1    1    2    0    0 -0.13940513932E+02  0.21048279209E+00 -0.49029311089E+03  0.49049130147E+03  0.00000000000E+00 0.  1.
        -15    1    1    2    0    0 -0.94518708124E+01  0.55069162091E+01 -0.40086095253E+01  0.11785188472E+02  0.17770000000E+01 0.  1.
         15    1    1    2    0    0  0.34003195427E+01  0.71958747076E+01  0.10301799057E+02  0.13138781474E+02  0.17770000000E+01 0. -1.
</event>
<event>
 6    1  0.6394569E-004  0.5002109E+03  0.7546771E-02  0.9399338E-01
        -11   -1    0    0    0    0  0.00000000000E+00  0.00000000000E+00  0.50000000000E+03  0.50000000000E+03  0.00000000000E+00 0. -1.
         11   -1    0    0    0    0 -0.00000000000E+00 -0.00000000000E+00 -0.50000000000E+03  0.50000000000E+03  0.00000000000E+00 0. -1.
        -11    1    1    2    0    0 -0.67699600783E+01  0.13442594211E+02  0.18907880779E+03  0.18967691281E+03  0.00000000000E+00 0. -1.
         11    1    1    2    0    0 -0.92608024012E+00 -0.19598883694E+02 -0.49940381943E+03  0.49978910425E+03  0.00000000000E+00 0. -1.
        -15    1    1    2    0    0  0.75320259746E+01  0.47153862807E+01  0.25680382166E+03  0.25696366831E+03  0.17770000000E+01 0.  1.
         15    1    1    2    0    0  0.16401434385E+00  0.14409032023E+01  0.53521189979E+02  0.53570314620E+02  0.17770000000E+01 0. -1.
</event>
<event>
 6    1  0.6394569E-004  0.5010305E+03  0.7546771E-02  0.9397507E-01
        -11   -1    0    0    0    0  0.00000000000E+00  0.00000000000E+00  0.50000000000E+03  0.50000000000E+03  0.00000000000E+00 0.  1.
         11   -1    0    0    0    0 -0.00000000000E+00 -0.00000000000E+00 -0.50000000000E+03  0.50000000000E+03  0.00000000000E+00 0. -1.
        -11    1    1    2    0    0 -0.59787417796E+01  0.10741319807E+02  0.26479257727E+03  0.26507778157E+03  0.00000000000E+00 0.  1.
         11    1    1    2    0    0 -0.89830430757E+01  0.16862073106E+01 -0.49888579880E+03  0.49896951670E+03  0.00000000000E+00 0. -1.
        -15    1    1    2    0    0  0.48148146455E+01 -0.83588806303E+00  0.95438526305E+01  0.10868486599E+02  0.17770000000E+01 0. -1.
         15    1    1    2    0    0  0.10146970210E+02 -0.11591639055E+02  0.22454936889E+03  0.22508421513E+03  0.17770000000E+01 0.  1.
</event>
<event>
 6    1  0.6394569E-004  0.5008906E+03  0.7546771E-02  0.9397819E-01
        -11   -1    0    0    0    0  0.00000000000E+00  0.00000000000E+00  0.50000000000E+03  0.50000000000E+03  0.00000000000E+00 0.  1.
         11   -1    0    0    0    0 -0.00000000000E+00 -0.00000000000E+00 -0.50000000000E+03  0.50000000000E+03  0.00000000000E+00 0. -1.
        -11    1    1    2    0    0 -0.14052090110E+02  0.18874318083E+01  0.49890794916E+03  0.49910937216E+03  0.00000000000E+00 0.  1.
         11    1    1    2    0    0 -0.24635123999E+01  0.61953151664E+01 -0.39568835259E+03  0.39574451759E+03  0.00000000000E+00 0. -1.
        -15    1    1    2    0    0  0.12281999248E+02 -0.69552971242E+01 -0.89759011386E+02  0.90879378946E+02  0.17770000000E+01 0. -1.
         15    1    1    2    0    0  0.42336032622E+01 -0.11274498505E+01 -0.13460585187E+02  0.14266731312E+02  0.17770000000E+01 0.  1.
</event>
<event>
 6    1  0.6394569E-004  0.5076741E+03  0.7546771E-02  0.9382800E-01
        -11   -1    0    0    0    0  0.00000000000E+00  0.00000000000E+00  0.50000000000E+03  0.50000000000E+03  0.00000000000E+00 0.  1.
         11   -1    0    0    0    0 -0.00000000000E+00 -0.00000000000E+00 -0.50000000000E+03  0.50000000000E+03  0.00000000000E+00 0. -1.
        -11    1    1    2    0    0  0.21260644638E+02 -0.43165971121E+02  0.35924827458E+03  0.36245639581E+03  0.00000000000E+00 0.  1.
         11    1    1    2    0    0  0.74674496518E+01  0.13259155581E+01 -0.49226747667E+03  0.49232589760E+03  0.00000000000E+00 0. -1.
        -15    1    1    2    0    0 -0.24576702440E+02  0.44292037608E+02  0.12928614079E+03  0.13886634880E+03  0.17770000000E+01 0.  1.
         15    1    1    2    0    0 -0.41513918493E+01 -0.24519820446E+01  0.37330612934E+01  0.63513577961E+01  0.17770000000E+01 0. -1.
</event>
<event>
 6    1  0.6394569E-004  0.5013329E+03  0.7546771E-02  0.9396832E-01
        -11   -1    0    0    0    0  0.00000000000E+00  0.00000000000E+00  0.50000000000E+03  0.50000000000E+03  0.00000000000E+00 0. -1.
         11   -1    0    0    0    0 -0.00000000000E+00 -0.00000000000E+00 -0.50000000000E+03  0.50000000000E+03  0.00000000000E+00 0.  1.
        -11    1    1    2    0    0  0.13228741084E+01  0.12283224562E+02  0.49851399178E+03  0.49866705084E+03  0.00000000000E+00 0. -1.
         11    1    1    2    0    0 -0.70937565217E+01 -0.15733107262E+01 -0.43806768444E+03  0.43812794117E+03  0.00000000000E+00 0.  1.
        -15    1    1    2    0    0 -0.39821657299E+01 -0.54118076901E+01 -0.17987718739E+02  0.19283699355E+02  0.17770000000E+01 0.  1.
         15    1    1    2    0    0  0.97530481432E+01 -0.52981061453E+01 -0.42458588600E+02  0.43921308630E+02  0.17770000000E+01 0. -1.
</event>
<event>
 6    1  0.6394569E-004  0.5000454E+03  0.7546771E-02  0.9399708E-01
        -11   -1    0    0    0    0  0.00000000000E+00  0.00000000000E+00  0.50000000000E+03  0.50000000000E+03  0.00000000000E+00 0. -1.
         11   -1    0    0    0    0 -0.00000000000E+00 -0.00000000000E+00 -0.50000000000E+03  0.50000000000E+03  0.00000000000E+00 0. -1.
        -11    1    1    2    0    0  0.23195722047E+01 -0.29218020844E-01  0.85275526395E+02  0.85307072806E+02  0.00000000000E+00 0. -1.
         11    1    1    2    0    0 -0.71992938150E+01  0.76539449936E+01 -0.49984412677E+03  0.49995456171E+03  0.00000000000E+00 0. -1.
        -15    1    1    2    0    0  0.57516368191E+01 -0.60688602464E+01  0.36998485326E+03  0.37008358753E+03  0.17770000000E+01 0. -1.
         15    1    1    2    0    0 -0.87191520876E+00 -0.15558667264E+01  0.44583747122E+02  0.44654777951E+02  0.17770000000E+01 0.  1.
</event>
<event>
 6    1  0.6394569E-004  0.5001421E+03  0.7546771E-02  0.9399492E-01
        -11   -1    0    0    0    0  0.00000000000E+00  0.00000000000E+00  0.50000000000E+03  0.50000000000E+03  0.00000000000E+00 0.  1.
         11   -1    0    0    0    0 -0.00000000000E+00 -0.00000000000E+00 -0.50000000000E+03  0.50000000000E+03  0.00000000000E+00 0.  1.
        -11    1    1    2    0    0 -0.12857308120E+02  0.36305246682E+01  0.49967929347E+03  0.49985786720E+03  0.00000000000E+00 0.  1.
         11    1    1    2    0    0  0.65191143918E+01  0.75026162716E+00 -0.38205625918E+03  0.38211261026E+03  0.00000000000E+00 0.  1.
        -15    1    1    2    0    0  0.52218710753E+01 -0.24107788489E+01 -0.52696488052E+02  0.53039206010E+02  0.17770000000E+01 0. -1.
         15    1    1    2    0    0  0.11163226526E+01 -0.19700074465E+01 -0.64926546245E+02  0.64990316524E+02  0.17770000000E+01 0.  1.
</event>
