<event>
 7    1  0.4268661E-005  0.1935247E+03  0.7546771E-02  0.1060003E+00
        -11   -1    0    0    0    0  0.00000000000E+00  0.00000000000E+00  0.18250000000E+03  0.18250000000E+03  0.00000000000E+00 0.  1.
         11   -1    0    0    0    0 -0.00000000000E+00 -0.00000000000E+00 -0.18250000000E+03  0.18250000000E+03  0.00000000000E+00 0. -1.
         23    2    1    2    0    0  0.69106212977E+01 -0.12752119187E+02  0.16996928122E+03  0.19352470876E+03  0.91388637776E+02 0.  0.
        -11    1    3    3    0    0 -0.10307925929E+02 -0.26206563388E+02  0.68947951505E+01  0.28992680141E+02  0.00000000000E+00 0. -1.
         11    1    3    3    0    0  0.17218547227E+02  0.13454444201E+02  0.16307448607E+03  0.16453202862E+03  0.00000000000E+00 0.  1.
        -15    1    1    2    0    0 -0.10398845254E+02  0.14545710997E+02 -0.12245827094E+03  0.12376954205E+03  0.17770000000E+01 0. -1.
         15    1    1    2    0    0  0.34882239564E+01 -0.17935918101E+01 -0.47511010281E+02  0.47705749181E+02  0.17770000000E+01 0.  1.
</event>
<event>
 7    1  0.4268661E-005  0.1936781E+03  0.7546771E-02  0.1059890E+00
        -11   -1    0    0    0    0  0.00000000000E+00  0.00000000000E+00  0.18250000000E+03  0.18250000000E+03  0.00000000000E+00 0.  1.
         11   -1    0    0    0    0 -0.00000000000E+00 -0.00000000000E+00 -0.18250000000E+03  0.18250000000E+03  0.00000000000E+00 0. -1.
         23    2    1    2    0    0  0.55685324775E+01  0.85819251024E+01  0.17077718303E+03  0.19367812356E+03  0.90783871425E+02 0.  0.
        -11    1    3    3    0    0  0.40436478440E+02  0.23204089318E+01  0.14310275034E+03  0.14872420866E+03  0.00000000000E+00 0.  1.
         11    1    3    3    0    0 -0.34867945963E+02  0.62615161706E+01  0.27674432686E+02  0.44953914901E+02  0.00000000000E+00 0. -1.
        -15    1    1    2    0    0  0.10474460979E+00 -0.65515877813E+01 -0.11309750400E+03  0.11330109185E+03  0.17770000000E+01 0. -1.
         15    1    1    2    0    0 -0.56732770873E+01 -0.20303373211E+01 -0.57679679025E+02  0.58020784586E+02  0.17770000000E+01 0. -1.
</event>
<event>
 7    1  0.4268661E-005  0.1930066E+03  0.7546771E-02  0.1060386E+00
        -11   -1    0    0    0    0  0.00000000000E+00  0.00000000000E+00  0.18250000000E+03  0.18250000000E+03  0.00000000000E+00 0.  1.
         11   -1    0    0    0    0 -0.00000000000E+00 -0.00000000000E+00 -0.18250000000E+03  0.18250000000E+03  0.00000000000E+00 0. -1.
         23    2    1    2    0    0 -0.60192905362E+02  0.23331225940E+02 -0.15760282545E+03  0.19300657174E+03  0.90803932646E+02 0.  0.
        -11    1    3    3    0    0  0.11321733879E+02 -0.11159069633E+02  0.69616374225E+00  0.15911980928E+02  0.00000000000E+00 0.  1.
         11    1    3    3    0    0 -0.71514639241E+02  0.34490295573E+02 -0.15829898919E+03  0.17709459081E+03  0.00000000000E+00 0. -1.
        -15    1    1    2    0    0  0.19186211441E+02 -0.34825382625E+01  0.76374406129E+02  0.78844444464E+02  0.17770000000E+01 0. -1.
         15    1    1    2    0    0  0.41006693922E+02 -0.19848687677E+02  0.81228419320E+02  0.93148983801E+02  0.17770000000E+01 0.  1.
</event>
<event>
 7    1  0.4268661E-005  0.1910268E+03  0.7546771E-02  0.1061863E+00
        -11   -1    0    0    0    0  0.00000000000E+00  0.00000000000E+00  0.18250000000E+03  0.18250000000E+03  0.00000000000E+00 0.  1.
         11   -1    0    0    0    0 -0.00000000000E+00 -0.00000000000E+00 -0.18250000000E+03  0.18250000000E+03  0.00000000000E+00 0. -1.
         23    2    1    2    0    0 -0.90758360045E+02 -0.42339524178E+02  0.13419565649E+03  0.19102682648E+03  0.91940518754E+02 0.  0.
        -11    1    3    3    0    0  0.15295395789E+02 -0.13257802492E+02  0.45315721913E+02  0.49630969281E+02  0.00000000000E+00 0. -1.
         11    1    3    3    0    0 -0.10605375583E+03 -0.29081721685E+02  0.88879934573E+02  0.14139585720E+03  0.00000000000E+00 0.  1.
        -15    1    1    2    0    0  0.17295033872E+02  0.25657755944E+02 -0.19107204930E+02  0.36409911370E+02  0.17770000000E+01 0.  1.
         15    1    1    2    0    0  0.73463326173E+02  0.16681768234E+02 -0.11508845156E+03  0.13756326215E+03  0.17770000000E+01 0. -1.
</event>
<event>
 7    1  0.4268661E-005  0.1927191E+03  0.7546771E-02  0.1060599E+00
        -11   -1    0    0    0    0  0.00000000000E+00  0.00000000000E+00  0.18250000000E+03  0.18250000000E+03  0.00000000000E+00 0.  1.
         11   -1    0    0    0    0 -0.00000000000E+00 -0.00000000000E+00 -0.18250000000E+03  0.18250000000E+03  0.00000000000E+00 0. -1.
         23    2    1    2    0    0  0.64091127112E+01  0.15242686416E-01  0.17168785401E+03  0.19271911384E+03  0.87308995324E+02 0.  0.
        -11    1    3    3    0    0 -0.31182826970E+02 -0.13817975070E+02  0.29820680404E+02  0.45305387237E+02  0.00000000000E+00 0. -1.
         11    1    3    3    0    0  0.37591939681E+02  0.13833217756E+02  0.14186717361E+03  0.14741372660E+03  0.00000000000E+00 0.  1.
        -15    1    1    2    0    0  0.16925774332E+01 -0.15439113814E+01 -0.11122556198E+02  0.11494236212E+02  0.17770000000E+01 0.  1.
         15    1    1    2    0    0 -0.81016901444E+01  0.15286686950E+01 -0.16056529782E+03  0.16078664995E+03  0.17770000000E+01 0. -1.
</event>
<event>
 7    1  0.4268661E-005  0.1934897E+03  0.7546771E-02  0.1060029E+00
        -11   -1    0    0    0    0  0.00000000000E+00  0.00000000000E+00  0.18250000000E+03  0.18250000000E+03  0.00000000000E+00 0. -1.
         11   -1    0    0    0    0 -0.00000000000E+00 -0.00000000000E+00 -0.18250000000E+03  0.18250000000E+03  0.00000000000E+00 0.  1.
         23    2    1    2    0    0  0.61830439873E+01  0.81553261922E+01  0.17097540459E+03  0.19348966693E+03  0.90005126833E+02 0.  0.
        -11    1    3    3    0    0 -0.21731162096E+02 -0.76581795749E+01  0.39084873974E+01  0.23370224521E+02  0.00000000000E+00 0.  1.
         11    1    3    3    0    0  0.27914206083E+02  0.15813505767E+02  0.16706691719E+03  0.17011944241E+03  0.00000000000E+00 0. -1.
        -15    1    1    2    0    0  0.93549457030E+00 -0.36629925906E+01 -0.32407681045E+02  0.32675804267E+02  0.17770000000E+01 0. -1.
         15    1    1    2    0    0 -0.71185385576E+01 -0.44923336015E+01 -0.13856772354E+03  0.13883452881E+03  0.17770000000E+01 0.  1.
</event>
<event>
 7    1  0.4268661E-005  0.1926859E+03  0.7546771E-02  0.1060624E+00
        -11   -1    0    0    0    0  0.00000000000E+00  0.00000000000E+00  0.18250000000E+03  0.18250000000E+03  0.00000000000E+00 0. -1.
         11   -1    0    0    0    0 -0.00000000000E+00 -0.00000000000E+00 -0.18250000000E+03  0.18250000000E+03  0.00000000000E+00 0.  1.
         23    2    1    2    0    0  0.75150923316E+01  0.54647405688E+01  0.16993107103E+03  0.19268588221E+03  0.90360059192E+02 0.  0.
        -11    1    3    3    0    0  0.74806361630E+01 -0.35259565175E+02  0.13269878276E+03  0.13750695910E+03  0.00000000000E+00 0. -1.
         11    1    3    3    0    0  0.34456168582E-01  0.40724305744E+02  0.37232288268E+02  0.55178923107E+02  0.00000000000E+00 0.  1.
        -15    1    1    2    0    0 -0.60937490295E+01  0.20794493690E+01 -0.90905096828E+01  0.11280646356E+02  0.17770000000E+01 0. -1.
         15    1    1    2    0    0 -0.14213433021E+01 -0.75441899378E+01 -0.16084056135E+03  0.16103347144E+03  0.17770000000E+01 0.  1.
</event>
<event>
 7    1  0.4268661E-005  0.1860128E+03  0.7546771E-02  0.1065692E+00
        -11   -1    0    0    0    0  0.00000000000E+00  0.00000000000E+00  0.18250000000E+03  0.18250000000E+03  0.00000000000E+00 0.  1.
         11   -1    0    0    0    0 -0.00000000000E+00 -0.00000000000E+00 -0.18250000000E+03  0.18250000000E+03  0.00000000000E+00 0. -1.
         23    2    1    2    0    0 -0.55215444405E+02 -0.33801220809E+02  0.14819145171E+03  0.18601282454E+03  0.91917336242E+02 0.  0.
        -11    1    3    3    0    0 -0.25443596550E+02 -0.21463347658E+02  0.15008310672E+03  0.15373025343E+03  0.00000000000E+00 0.  1.
         11    1    3    3    0    0 -0.29771847855E+02 -0.12337873150E+02 -0.18916550026E+01  0.32282571106E+02  0.00000000000E+00 0. -1.
        -15    1    1    2    0    0  0.89845706984E+01  0.48837614103E+02 -0.92806398169E+02  0.10527117522E+03  0.17770000000E+01 0. -1.
         15    1    1    2    0    0  0.46230873706E+02 -0.15036393295E+02 -0.55385053544E+02  0.73716000245E+02  0.17770000000E+01 0.  1.
</event>
<event>
 7    1  0.4268661E-005  0.1927810E+03  0.7546771E-02  0.1060553E+00
        -11   -1    0    0    0    0  0.00000000000E+00  0.00000000000E+00  0.18250000000E+03  0.18250000000E+03  0.00000000000E+00 0.  1.
         11   -1    0    0    0    0 -0.00000000000E+00 -0.00000000000E+00 -0.18250000000E+03  0.18250000000E+03  0.00000000000E+00 0. -1.
         23    2    1    2    0    0  0.45220293669E+02  0.10460465092E+03  0.12662412067E+03  0.19278103678E+03  0.90243294783E+02 0.  0.
        -11    1    3    3    0    0  0.26644250203E+02  0.78977405040E+02  0.13622827790E+03  0.15970438402E+03  0.00000000000E+00 0.  1.
         11    1    3    3    0    0  0.18576043466E+02  0.25627245876E+02 -0.96041572230E+01  0.33076652764E+02  0.00000000000E+00 0. -1.
        -15    1    1    2    0    0 -0.19588343147E+02 -0.18982629378E+02 -0.29510865529E+02  0.40225518252E+02  0.17770000000E+01 0.  1.
         15    1    1    2    0    0 -0.25631950523E+02 -0.85622021539E+02 -0.97113255146E+02  0.13199344497E+03  0.17770000000E+01 0. -1.
</event>
<event>
 7    1  0.4268661E-005  0.1918434E+03  0.7546771E-02  0.1061251E+00
        -11   -1    0    0    0    0  0.00000000000E+00  0.00000000000E+00  0.18250000000E+03  0.18250000000E+03  0.00000000000E+00 0. -1.
         11   -1    0    0    0    0 -0.00000000000E+00 -0.00000000000E+00 -0.18250000000E+03  0.18250000000E+03  0.00000000000E+00 0.  1.
         23    2    1    2    0    0  0.83637975441E+01  0.19622058024E+02  0.17045290197E+03  0.19184344750E+03  0.85409240063E+02 0.  0.
        -11    1    3    3    0    0  0.36964020229E+02  0.15728493920E+02  0.34783917754E+02  0.53137983090E+02  0.00000000000E+00 0.  1.
         11    1    3    3    0    0 -0.28600222685E+02  0.38935641035E+01  0.13566898422E+03  0.13870546441E+03  0.00000000000E+00 0. -1.
        -15    1    1    2    0    0 -0.10344820326E+02  0.91954724768E-01 -0.52708284839E+02  0.53743323148E+02  0.17770000000E+01 0.  1.
         15    1    1    2    0    0  0.19810227824E+01 -0.19714012749E+02 -0.11774461714E+03  0.11941322935E+03  0.17770000000E+01 0. -1.
</event>
<event>
 7    1  0.4268661E-005  0.1935361E+03  0.7546771E-02  0.1059994E+00
        -11   -1    0    0    0    0  0.00000000000E+00  0.00000000000E+00  0.18250000000E+03  0.18250000000E+03  0.00000000000E+00 0. -1.
         11   -1    0    0    0    0 -0.00000000000E+00 -0.00000000000E+00 -0.18250000000E+03  0.18250000000E+03  0.00000000000E+00 0.  1.
         23    2    1    2    0    0  0.44783655538E+02 -0.26685483677E+02  0.16293511697E+03  0.19353612537E+03  0.90502423401E+02 0.  0.
        -11    1    3    3    0    0  0.54182257041E+01  0.84773697100E+01 -0.91122029002E+01  0.13574063823E+02  0.00000000000E+00 0.  1.
         11    1    3    3    0    0  0.39365429834E+02 -0.35162853387E+02  0.17204731987E+03  0.17996206155E+03  0.00000000000E+00 0. -1.
        -15    1    1    2    0    0 -0.52722887691E+01  0.16036140517E+01 -0.29112154128E+02  0.29682382887E+02  0.17770000000E+01 0. -1.
         15    1    1    2    0    0 -0.39511366769E+02  0.25081869625E+02 -0.13382296284E+03  0.14178149174E+03  0.17770000000E+01 0.  1.
</event>
<event>
 7    1  0.4268661E-005  0.1883353E+03  0.7546771E-02  0.1063903E+00
        -11   -1    0    0    0    0  0.00000000000E+00  0.00000000000E+00  0.18250000000E+03  0.18250000000E+03  0.00000000000E+00 0.  1.
         11   -1    0    0    0    0 -0.00000000000E+00 -0.00000000000E+00 -0.18250000000E+03  0.18250000000E+03  0.00000000000E+00 0. -1.
         23    2    1    2    0    0  0.14540473030E+03  0.69712070057E+02 -0.36138110535E+02  0.18833527529E+03  0.90343259737E+02 0.  0.
        -11    1    3    3    0    0  0.92638759021E+02  0.54344757018E+02  0.20582179099E+02  0.10935683968E+03  0.00000000000E+00 0.  1.
         11    1    3    3    0    0  0.52765971282E+02  0.15367313039E+02 -0.56720289635E+02  0.78978435611E+02  0.00000000000E+00 0. -1.
        -15    1    1    2    0    0 -0.81252871324E+02 -0.65684216936E+02  0.40831399273E+02  0.11219093702E+03  0.17770000000E+01 0. -1.
         15    1    1    2    0    0 -0.64151858979E+02 -0.40278531211E+01 -0.46932887371E+01  0.64473787692E+02  0.17770000000E+01 0.  1.
</event>
<event>
 7    1  0.4268661E-005  0.1935551E+03  0.7546771E-02  0.1059980E+00
        -11   -1    0    0    0    0  0.00000000000E+00  0.00000000000E+00  0.18250000000E+03  0.18250000000E+03  0.00000000000E+00 0.  1.
         11   -1    0    0    0    0 -0.00000000000E+00 -0.00000000000E+00 -0.18250000000E+03  0.18250000000E+03  0.00000000000E+00 0. -1.
         23    2    1    2    0    0 -0.64541748159E+02  0.15995459764E+02  0.15692125443E+03  0.19355513147E+03  0.91748661239E+02 0.  0.
        -11    1    3    3    0    0 -0.68793369735E+02 -0.12786320734E+02  0.14702121241E+03  0.16282277057E+03  0.00000000000E+00 0.  1.
         11    1    3    3    0    0  0.42516215754E+01  0.28781780498E+02  0.99000420181E+01  0.30732360902E+02  0.00000000000E+00 0. -1.
        -15    1    1    2    0    0  0.44301888524E+02 -0.15113500221E+02 -0.12609474632E+03  0.13451437839E+03  0.17770000000E+01 0. -1.
         15    1    1    2    0    0  0.20239859635E+02 -0.88195954285E+00 -0.30826508106E+02  0.36930490136E+02  0.17770000000E+01 0.  1.
</event>
<event>
 7    1  0.4268661E-005  0.1936714E+03  0.7546771E-02  0.1059895E+00
        -11   -1    0    0    0    0  0.00000000000E+00  0.00000000000E+00  0.18250000000E+03  0.18250000000E+03  0.00000000000E+00 0.  1.
         11   -1    0    0    0    0 -0.00000000000E+00 -0.00000000000E+00 -0.18250000000E+03  0.18250000000E+03  0.00000000000E+00 0. -1.
         23    2    1    2    0    0 -0.48812021428E+01 -0.28522546874E+02  0.16782820011E+03  0.19367135571E+03  0.92222163579E+02 0.  0.
        -11    1    3    3    0    0 -0.23140893169E+02 -0.24715290990E+02  0.10798963268E+02  0.35538206947E+02  0.00000000000E+00 0. -1.
         11    1    3    3    0    0  0.18259691026E+02 -0.38072558842E+01  0.15702923685E+03  0.15813314876E+03  0.00000000000E+00 0.  1.
        -15    1    1    2    0    0  0.18445802158E+01  0.30222743809E+02 -0.14169930129E+03  0.14490916615E+03  0.17770000000E+01 0. -1.
         15    1    1    2    0    0  0.30366219270E+01 -0.17001969350E+01 -0.26128898820E+02  0.26419478134E+02  0.17770000000E+01 0.  1.
</event>
<event>
 7    1  0.4268661E-005  0.1911173E+03  0.7546771E-02  0.1061795E+00
        -11   -1    0    0    0    0  0.00000000000E+00  0.00000000000E+00  0.18250000000E+03  0.18250000000E+03  0.00000000000E+00 0.  1.
         11   -1    0    0    0    0 -0.00000000000E+00 -0.00000000000E+00 -0.18250000000E+03  0.18250000000E+03  0.00000000000E+00 0. -1.
         23    2    1    2    0    0 -0.83602038499E+01  0.16337152914E+02  0.17186227989E+03  0.19111725484E+03  0.81562039425E+02 0.  0.
        -11    1    3    3    0    0 -0.17481897476E+02  0.32823228150E+02  0.16776265369E+03  0.17183506341E+03  0.00000000000E+00 0.  1.
         11    1    3    3    0    0  0.91216936258E+01 -0.16486075236E+02  0.40996262018E+01  0.19282191428E+02  0.00000000000E+00 0. -1.
        -15    1    1    2    0    0  0.50461030778E+01 -0.70217458974E+01 -0.14390296673E+03  0.14417347063E+03  0.17770000000E+01 0. -1.
         15    1    1    2    0    0  0.33141007721E+01 -0.93154070169E+01 -0.27959313157E+02  0.29709274529E+02  0.17770000000E+01 0.  1.
</event>
<event>
 7    1  0.4268661E-005  0.1875843E+03  0.7546771E-02  0.1064478E+00
        -11   -1    0    0    0    0  0.00000000000E+00  0.00000000000E+00  0.18250000000E+03  0.18250000000E+03  0.00000000000E+00 0. -1.
         11   -1    0    0    0    0 -0.00000000000E+00 -0.00000000000E+00 -0.18250000000E+03  0.18250000000E+03  0.00000000000E+00 0.  1.
         23    2    1    2    0    0 -0.12974894648E+03  0.12263175150E+02 -0.99724042460E+02  0.18758426902E+03  0.90872431253E+02 0.  0.
        -11    1    3    3    0    0 -0.12852791268E+03 -0.12390004657E+01 -0.11109374285E+03  0.16989049167E+03  0.00000000000E+00 0.  1.
         11    1    3    3    0    0 -0.12210338009E+01  0.13502175616E+02  0.11369700391E+02  0.17693777349E+02  0.00000000000E+00 0. -1.
        -15    1    1    2    0    0  0.61609303155E+02 -0.13270909080E+02  0.86255989109E+01  0.63634754251E+02  0.17770000000E+01 0.  1.
         15    1    1    2    0    0  0.68139643323E+02  0.10077339293E+01  0.91098443549E+02  0.11378097673E+03  0.17770000000E+01 0. -1.
</event>
<event>
 7    1  0.4268661E-005  0.1938733E+03  0.7546771E-02  0.1059746E+00
        -11   -1    0    0    0    0  0.00000000000E+00  0.00000000000E+00  0.18250000000E+03  0.18250000000E+03  0.00000000000E+00 0. -1.
         11   -1    0    0    0    0 -0.00000000000E+00 -0.00000000000E+00 -0.18250000000E+03  0.18250000000E+03  0.00000000000E+00 0.  1.
         23    2    1    2    0    0  0.30286908471E+02  0.16653898907E+02 -0.16724113322E+03  0.19387325514E+03  0.91774687397E+02 0.  0.
        -11    1    3    3    0    0  0.12401164237E+02  0.13606699882E+02 -0.17365600152E+03  0.17462914425E+03  0.00000000000E+00 0.  1.
         11    1    3    3    0    0  0.17885744235E+02  0.30471990248E+01  0.64148683068E+01  0.19244110894E+02  0.00000000000E+00 0. -1.
        -15    1    1    2    0    0 -0.22558469201E+02 -0.14714639640E+02  0.14362604604E+03  0.14614035714E+03  0.17770000000E+01 0. -1.
         15    1    1    2    0    0 -0.77284392707E+01 -0.19392592676E+01  0.23615087174E+02  0.24986387720E+02  0.17770000000E+01 0.  1.
</event>
<event>
 7    1  0.4268661E-005  0.1919320E+03  0.7546771E-02  0.1061185E+00
        -11   -1    0    0    0    0  0.00000000000E+00  0.00000000000E+00  0.18250000000E+03  0.18250000000E+03  0.00000000000E+00 0. -1.
         11   -1    0    0    0    0 -0.00000000000E+00 -0.00000000000E+00 -0.18250000000E+03  0.18250000000E+03  0.00000000000E+00 0.  1.
         23    2    1    2    0    0  0.30452173621E+02 -0.36229337154E+02 -0.16385614571E+03  0.19193202892E+03  0.88029355844E+02 0.  0.
        -11    1    3    3    0    0  0.23978843740E+02  0.26965200060E+02 -0.67063107389E+02  0.76154890415E+02  0.00000000000E+00 0.  1.
         11    1    3    3    0    0  0.64733298806E+01 -0.63194537215E+02 -0.96793038317E+02  0.11577713850E+03  0.00000000000E+00 0. -1.
        -15    1    1    2    0    0 -0.22571787998E+02  0.87303275694E+01  0.48863113402E+02  0.54556996007E+02  0.17770000000E+01 0. -1.
         15    1    1    2    0    0 -0.78803856231E+01  0.27499009585E+02  0.11499303230E+03  0.11851097507E+03  0.17770000000E+01 0.  1.
</event>
<event>
 7    1  0.4268661E-005  0.2619395E+03  0.7546771E-02  0.1018465E+00
        -11   -1    0    0    0    0  0.00000000000E+00  0.00000000000E+00  0.18250000000E+03  0.18250000000E+03  0.00000000000E+00 0.  1.
         11   -1    0    0    0    0 -0.00000000000E+00 -0.00000000000E+00 -0.18250000000E+03  0.18250000000E+03  0.00000000000E+00 0. -1.
         23    2    1    2    0    0  0.53173692519E+02  0.20730919206E+02 -0.75159339132E+00  0.10306048205E+03  0.85811919224E+02 0.  0.
        -11    1    3    3    0    0 -0.59696315071E+00  0.33707438073E+02 -0.25688910701E+02  0.42384759991E+02  0.00000000000E+00 0. -1.
         11    1    3    3    0    0  0.53770655669E+02 -0.12976518867E+02  0.24937317310E+02  0.60675722061E+02  0.00000000000E+00 0.  1.
        -15    1    1    2    0    0 -0.68852701461E+01 -0.73886452821E+02  0.10952800911E+03  0.13231083615E+03  0.17770000000E+01 0.  1.
         15    1    1    2    0    0 -0.46288422373E+02  0.53155533615E+02 -0.10877641571E+03  0.12962868180E+03  0.17770000000E+01 0. -1.
</event>
<event>
 7    1  0.4268661E-005  0.1928248E+03  0.7546771E-02  0.1060521E+00
        -11   -1    0    0    0    0  0.00000000000E+00  0.00000000000E+00  0.18250000000E+03  0.18250000000E+03  0.00000000000E+00 0.  1.
         11   -1    0    0    0    0 -0.00000000000E+00 -0.00000000000E+00 -0.18250000000E+03  0.18250000000E+03  0.00000000000E+00 0. -1.
         23    2    1    2    0    0  0.61244528310E+02 -0.33328314313E+02  0.15516347044E+03  0.19282482221E+03  0.90796699936E+02 0.  0.
        -11    1    3    3    0    0  0.83610316082E+01 -0.55493598068E+02  0.89599143492E+02  0.10572347322E+03  0.00000000000E+00 0.  1.
         11    1    3    3    0    0  0.52883496702E+02  0.22165283755E+02  0.65564326948E+02  0.87101348988E+02  0.00000000000E+00 0. -1.
        -15    1    1    2    0    0 -0.62240948158E+02  0.33821324246E+02 -0.15450393016E+03  0.16997776256E+03  0.17770000000E+01 0. -1.
         15    1    1    2    0    0  0.99641984819E+00 -0.49300993350E+00 -0.65954028341E+00  0.21974152302E+01  0.17770000000E+01 0.  1.
</event>
<event>
 7    1  0.4268661E-005  0.1903006E+03  0.7546771E-02  0.1062410E+00
        -11   -1    0    0    0    0  0.00000000000E+00  0.00000000000E+00  0.18250000000E+03  0.18250000000E+03  0.00000000000E+00 0.  1.
         11   -1    0    0    0    0 -0.00000000000E+00 -0.00000000000E+00 -0.18250000000E+03  0.18250000000E+03  0.00000000000E+00 0. -1.
         23    2    1    2    0    0  0.54252367218E+02 -0.15572104507E+03  0.23817445860E+02  0.19030064590E+03  0.91949452826E+02 0.  0.
        -11    1    3    3    0    0  0.67369476309E+02 -0.16085402573E+03  0.24956817531E+02  0.17616897193E+03  0.00000000000E+00 0.  1.
         11    1    3    3    0    0 -0.13117109090E+02  0.51329806539E+01 -0.11393716711E+01  0.14131673966E+02  0.00000000000E+00 0. -1.
        -15    1    1    2    0    0 -0.91022349612E+01  0.55334230157E+00  0.49796619358E+01  0.10540950194E+02  0.17770000000E+01 0.  1.
         15    1    1    2    0    0 -0.45150132257E+02  0.15516770277E+03 -0.28797107796E+02  0.16415840391E+03  0.17770000000E+01 0. -1.
</event>
<event>
 7    1  0.4268661E-005  0.1869103E+03  0.7546771E-02  0.1064997E+00
        -11   -1    0    0    0    0  0.00000000000E+00  0.00000000000E+00  0.18250000000E+03  0.18250000000E+03  0.00000000000E+00 0.  1.
         11   -1    0    0    0    0 -0.00000000000E+00 -0.00000000000E+00 -0.18250000000E+03  0.18250000000E+03  0.00000000000E+00 0. -1.
         23    2    1    2    0    0  0.90309346724E+02 -0.55657502792E+02  0.12351875599E+03  0.18691028207E+03  0.91787987983E+02 0.  0.
        -11    1    3    3    0    0  0.83114481997E+02 -0.52181738714E+01  0.10180179550E+03  0.13152510035E+03  0.00000000000E+00 0.  1.
         11    1    3    3    0    0  0.71948647268E+01 -0.50439328921E+02  0.21716960491E+02  0.55385181713E+02  0.00000000000E+00 0. -1.
        -15    1    1    2    0    0 -0.10155559084E+03  0.49999705088E+02 -0.11983057888E+03  0.16485155111E+03  0.17770000000E+01 0. -1.
         15    1    1    2    0    0  0.11246244112E+02  0.56577977036E+01 -0.36881771063E+01  0.13238166824E+02  0.17770000000E+01 0.  1.
</event>
<event>
 7    1  0.4268661E-005  0.1896169E+03  0.7546771E-02  0.1062927E+00
        -11   -1    0    0    0    0  0.00000000000E+00  0.00000000000E+00  0.18250000000E+03  0.18250000000E+03  0.00000000000E+00 0.  1.
         11   -1    0    0    0    0 -0.00000000000E+00 -0.00000000000E+00 -0.18250000000E+03  0.18250000000E+03  0.00000000000E+00 0. -1.
         23    2    1    2    0    0 -0.12392462431E+02  0.95057161207E+01  0.16910231265E+03  0.18961694508E+03  0.84350826636E+02 0.  0.
        -11    1    3    3    0    0 -0.17164981542E+02 -0.20478690721E+02  0.15287104994E+03  0.15518882458E+03  0.00000000000E+00 0.  1.
         11    1    3    3    0    0  0.47725191111E+01  0.29984406842E+02  0.16231262719E+02  0.34428120509E+02  0.00000000000E+00 0. -1.
        -15    1    1    2    0    0  0.16136302623E+02  0.90263140797E-01 -0.16184713210E+03  0.16265927673E+03  0.17770000000E+01 0. -1.
         15    1    1    2    0    0 -0.37438401914E+01 -0.95959792615E+01 -0.72551805575E+01  0.12723778185E+02  0.17770000000E+01 0.  1.
</event>
<event>
 7    1  0.4268661E-005  0.1917968E+03  0.7546771E-02  0.1061286E+00
        -11   -1    0    0    0    0  0.00000000000E+00  0.00000000000E+00  0.18250000000E+03  0.18250000000E+03  0.00000000000E+00 0.  1.
         11   -1    0    0    0    0 -0.00000000000E+00 -0.00000000000E+00 -0.18250000000E+03  0.18250000000E+03  0.00000000000E+00 0. -1.
         23    2    1    2    0    0 -0.30076058084E+02 -0.76759967506E+02 -0.15019859273E+03  0.19179680489E+03  0.86195911893E+02 0.  0.
        -11    1    3    3    0    0 -0.13757866945E+02 -0.48780900949E+02 -0.15122862097E+02  0.52891929047E+02  0.00000000000E+00 0.  1.
         11    1    3    3    0    0 -0.16318191139E+02 -0.27979066557E+02 -0.13507573063E+03  0.13890487584E+03  0.00000000000E+00 0. -1.
        -15    1    1    2    0    0  0.30400934833E+02  0.65277113151E+02  0.14116941566E+03  0.15848432095E+03  0.17770000000E+01 0.  1.
         15    1    1    2    0    0 -0.32487674861E+00  0.11482854355E+02  0.90291770703E+01  0.14718874162E+02  0.17770000000E+01 0. -1.
</event>
<event>
 7    1  0.4268661E-005  0.1911009E+03  0.7546771E-02  0.1061807E+00
        -11   -1    0    0    0    0  0.00000000000E+00  0.00000000000E+00  0.18250000000E+03  0.18250000000E+03  0.00000000000E+00 0. -1.
         11   -1    0    0    0    0 -0.00000000000E+00 -0.00000000000E+00 -0.18250000000E+03  0.18250000000E+03  0.00000000000E+00 0.  1.
         23    2    1    2    0    0 -0.18054447451E+02  0.37249503048E+02  0.16257303680E+03  0.19110087000E+03  0.91520826419E+02 0.  0.
        -11    1    3    3    0    0  0.32103253316E+02  0.16446611935E+02  0.26997044836E+02  0.45054970286E+02  0.00000000000E+00 0.  1.
         11    1    3    3    0    0 -0.50157700766E+02  0.20802891113E+02  0.13557599197E+03  0.14604589971E+03  0.00000000000E+00 0. -1.
        -15    1    1    2    0    0  0.83291683809E+01  0.42124422084E+01 -0.51495769226E+01  0.10807200690E+02  0.17770000000E+01 0. -1.
         15    1    1    2    0    0  0.97252790697E+01 -0.41461945256E+02 -0.15742345988E+03  0.16309192931E+03  0.17770000000E+01 0.  1.
</event>
<event>
 7    1  0.4268661E-005  0.1927886E+03  0.7546771E-02  0.1060548E+00
        -11   -1    0    0    0    0  0.00000000000E+00  0.00000000000E+00  0.18250000000E+03  0.18250000000E+03  0.00000000000E+00 0.  1.
         11   -1    0    0    0    0 -0.00000000000E+00 -0.00000000000E+00 -0.18250000000E+03  0.18250000000E+03  0.00000000000E+00 0. -1.
         23    2    1    2    0    0  0.16459481648E+02 -0.71595155275E+02  0.15336017311E+03  0.19278855151E+03  0.90836678177E+02 0.  0.
        -11    1    3    3    0    0 -0.16162264071E+02 -0.78124262758E+02  0.83915458697E+02  0.11578611065E+03  0.00000000000E+00 0.  1.
         11    1    3    3    0    0  0.32621745718E+02  0.65291074836E+01  0.69444714418E+02  0.77002440863E+02  0.00000000000E+00 0. -1.
        -15    1    1    2    0    0 -0.11143383575E+02  0.71601790261E+02 -0.14551906173E+03  0.16257289572E+03  0.17770000000E+01 0. -1.
         15    1    1    2    0    0 -0.53160980732E+01 -0.66349857702E-02 -0.78411113824E+01  0.96385527678E+01  0.17770000000E+01 0.  1.
</event>
<event>
 7    1  0.4268661E-005  0.1971335E+03  0.7546771E-02  0.1057369E+00
        -11   -1    0    0    0    0  0.00000000000E+00  0.00000000000E+00  0.18250000000E+03  0.18250000000E+03  0.00000000000E+00 0. -1.
         11   -1    0    0    0    0 -0.00000000000E+00 -0.00000000000E+00 -0.18250000000E+03  0.18250000000E+03  0.00000000000E+00 0. -1.
         23    2    1    2    0    0  0.11453305478E+02  0.42281741611E+01  0.16484296602E+03  0.19713350059E+03  0.10742140357E+03 0.  0.
        -11    1    3    3    0    0  0.13639859934E+02  0.32324537757E+02  0.57362999247E+01  0.35550339760E+02  0.00000000000E+00 0. -1.
         11    1    3    3    0    0 -0.21865544568E+01 -0.28096363596E+02  0.15910666610E+03  0.16158316083E+03  0.00000000000E+00 0. -1.
        -15    1    1    2    0    0 -0.17387597184E+01 -0.13988818251E+02 -0.44208219297E+02  0.46435274349E+02  0.17770000000E+01 0. -1.
         15    1    1    2    0    0 -0.97145457592E+01  0.97606440902E+01 -0.12063474673E+03  0.12143122506E+03  0.17770000000E+01 0.  1.
</event>
<event>
 7    1  0.4268661E-005  0.1916512E+03  0.7546771E-02  0.1061395E+00
        -11   -1    0    0    0    0  0.00000000000E+00  0.00000000000E+00  0.18250000000E+03  0.18250000000E+03  0.00000000000E+00 0. -1.
         11   -1    0    0    0    0 -0.00000000000E+00 -0.00000000000E+00 -0.18250000000E+03  0.18250000000E+03  0.00000000000E+00 0. -1.
         23    2    1    2    0    0  0.84241839356E+01 -0.89110721589E+01  0.17280714567E+03  0.19165118181E+03  0.81960306312E+02 0.  0.
        -11    1    3    3    0    0  0.14026710428E+02 -0.97393011439E+01  0.18093817771E+03  0.18174219859E+03  0.00000000000E+00 0. -1.
         11    1    3    3    0    0 -0.56025264920E+01  0.82822898500E+00 -0.81310320442E+01  0.99089832197E+01  0.00000000000E+00 0. -1.
        -15    1    1    2    0    0 -0.24847595155E+01  0.23567721561E+01 -0.28505811448E+02  0.28765733437E+02  0.17770000000E+01 0. -1.
         15    1    1    2    0    0 -0.59394244201E+01  0.65543000028E+01 -0.14430133422E+03  0.14458308476E+03  0.17770000000E+01 0. -1.
</event>
<event>
 7    1  0.4268661E-005  0.1942501E+03  0.7546771E-02  0.1059468E+00
        -11   -1    0    0    0    0  0.00000000000E+00  0.00000000000E+00  0.18250000000E+03  0.18250000000E+03  0.00000000000E+00 0. -1.
         11   -1    0    0    0    0 -0.00000000000E+00 -0.00000000000E+00 -0.18250000000E+03  0.18250000000E+03  0.00000000000E+00 0.  1.
         23    2    1    2    0    0  0.56136395906E+00  0.12303535940E+01  0.17067804526E+03  0.19425010589E+03  0.92737692471E+02 0.  0.
        -11    1    3    3    0    0 -0.18428125044E+02 -0.92441851154E+01 -0.15379068878E+01  0.20674039486E+02  0.00000000000E+00 0.  1.
         11    1    3    3    0    0  0.18989489003E+02  0.10474538709E+02  0.17221595215E+03  0.17357606641E+03  0.00000000000E+00 0. -1.
        -15    1    1    2    0    0  0.22539395058E+00 -0.94215926516E+00 -0.13677466008E+03  0.13678963351E+03  0.17770000000E+01 0.  1.
         15    1    1    2    0    0 -0.78675790964E+00 -0.28819432885E+00 -0.33903385182E+02  0.33960260596E+02  0.17770000000E+01 0.  1.
</event>
<event>
 7    1  0.4268661E-005  0.1825874E+03  0.7546771E-02  0.1068385E+00
        -11   -1    0    0    0    0  0.00000000000E+00  0.00000000000E+00  0.18250000000E+03  0.18250000000E+03  0.00000000000E+00 0.  1.
         11   -1    0    0    0    0 -0.00000000000E+00 -0.00000000000E+00 -0.18250000000E+03  0.18250000000E+03  0.00000000000E+00 0. -1.
         23    2    1    2    0    0 -0.24579155202E+02  0.19758088862E+02  0.15556618180E+03  0.18258740987E+03  0.90237510928E+02 0.  0.
        -11    1    3    3    0    0 -0.24780485764E+02  0.47542171779E+02  0.49594710510E+02  0.73034004976E+02  0.00000000000E+00 0. -1.
         11    1    3    3    0    0  0.20133056183E+00 -0.27784082916E+02  0.10597147129E+03  0.10955340489E+03  0.00000000000E+00 0.  1.
        -15    1    1    2    0    0  0.43935317581E+02 -0.20662821742E+02 -0.34001205989E+02  0.59300118643E+02  0.17770000000E+01 0.  1.
         15    1    1    2    0    0 -0.19356162379E+02  0.90473287974E+00 -0.12156497581E+03  0.12311247149E+03  0.17770000000E+01 0. -1.
</event>
<event>
 7    1  0.4268661E-005  0.1885645E+03  0.7546771E-02  0.1063727E+00
        -11   -1    0    0    0    0  0.00000000000E+00  0.00000000000E+00  0.18250000000E+03  0.18250000000E+03  0.00000000000E+00 0.  1.
         11   -1    0    0    0    0 -0.00000000000E+00 -0.00000000000E+00 -0.18250000000E+03  0.18250000000E+03  0.00000000000E+00 0.  1.
         23    2    1    2    0    0 -0.19669922215E+02  0.13270259106E+02 -0.16336539752E+03  0.18856446326E+03  0.91133408154E+02 0.  0.
        -11    1    3    3    0    0  0.19364074307E+02  0.12012321738E+02 -0.23819575060E+01  0.22911502982E+02  0.00000000000E+00 0.  1.
         11    1    3    3    0    0 -0.39033996522E+02  0.12579373677E+01 -0.16098344002E+03  0.16565296028E+03  0.00000000000E+00 0.  1.
        -15    1    1    2    0    0  0.13778447243E+02 -0.37648607618E+02  0.82337257997E+02  0.91596097338E+02  0.17770000000E+01 0. -1.
         15    1    1    2    0    0  0.58914749721E+01  0.24378348512E+02  0.81028139525E+02  0.84839439398E+02  0.17770000000E+01 0.  1.
</event>
<event>
 7    1  0.4268661E-005  0.1923948E+03  0.7546771E-02  0.1060840E+00
        -11   -1    0    0    0    0  0.00000000000E+00  0.00000000000E+00  0.18250000000E+03  0.18250000000E+03  0.00000000000E+00 0. -1.
         11   -1    0    0    0    0 -0.00000000000E+00 -0.00000000000E+00 -0.18250000000E+03  0.18250000000E+03  0.00000000000E+00 0.  1.
         23    2    1    2    0    0  0.66945802735E+02  0.64423183537E+02  0.14336893814E+03  0.19239478325E+03  0.88481710638E+02 0.  0.
        -11    1    3    3    0    0 -0.11602057865E+02  0.35127832913E+02  0.16919439731E+02  0.40679722623E+02  0.00000000000E+00 0. -1.
         11    1    3    3    0    0  0.78547860600E+02  0.29295350624E+02  0.12644949841E+03  0.15171506062E+03  0.00000000000E+00 0.  1.
        -15    1    1    2    0    0  0.18386359257E+00 -0.49700128980E+01 -0.31322211926E+01  0.61403072094E+01  0.17770000000E+01 0.  1.
         15    1    1    2    0    0 -0.67129666328E+02 -0.59453170639E+02 -0.14023671695E+03  0.16646490954E+03  0.17770000000E+01 0. -1.
</event>
<event>
 7    1  0.4268661E-005  0.1927772E+03  0.7546771E-02  0.1060556E+00
        -11   -1    0    0    0    0  0.00000000000E+00  0.00000000000E+00  0.18250000000E+03  0.18250000000E+03  0.00000000000E+00 0. -1.
         11   -1    0    0    0    0 -0.00000000000E+00 -0.00000000000E+00 -0.18250000000E+03  0.18250000000E+03  0.00000000000E+00 0.  1.
         23    2    1    2    0    0 -0.47634057062E+02  0.51059453043E+02 -0.15627945201E+03  0.19277718125E+03  0.88677524519E+02 0.  0.
        -11    1    3    3    0    0 -0.67905145809E+02  0.59385961666E+02 -0.13391780724E+03  0.16146758302E+03  0.00000000000E+00 0.  1.
         11    1    3    3    0    0  0.20271088747E+02 -0.83265086223E+01 -0.22361644767E+02  0.31309598233E+02  0.00000000000E+00 0. -1.
        -15    1    1    2    0    0  0.37026736767E+02 -0.41155597388E+02  0.13874646705E+03  0.14939378260E+03  0.17770000000E+01 0. -1.
         15    1    1    2    0    0  0.10607320295E+02 -0.99038556557E+01  0.17532984961E+02  0.22829036146E+02  0.17770000000E+01 0.  1.
</event>
<event>
 7    1  0.4268661E-005  0.1839096E+03  0.7546771E-02  0.1067338E+00
        -11   -1    0    0    0    0  0.00000000000E+00  0.00000000000E+00  0.18250000000E+03  0.18250000000E+03  0.00000000000E+00 0.  1.
         11   -1    0    0    0    0 -0.00000000000E+00 -0.00000000000E+00 -0.18250000000E+03  0.18250000000E+03  0.00000000000E+00 0. -1.
         23    2    1    2    0    0 -0.31987804941E+02 -0.23028762733E+02  0.15504933768E+03  0.18390963654E+03  0.90713360214E+02 0.  0.
        -11    1    3    3    0    0 -0.39232653990E+02  0.20746367823E+02  0.11811798894E+03  0.12618031633E+03  0.00000000000E+00 0.  1.
         11    1    3    3    0    0  0.72448490496E+01 -0.43775130556E+02  0.36931348731E+02  0.57729320211E+02  0.00000000000E+00 0. -1.
        -15    1    1    2    0    0 -0.13368874170E+02  0.11441358978E+02 -0.12315100034E+03  0.12441446100E+03  0.17770000000E+01 0. -1.
         15    1    1    2    0    0  0.45356679111E+02  0.11587403755E+02 -0.31898337334E+02  0.56675902458E+02  0.17770000000E+01 0.  1.
</event>
<event>
 7    1  0.4268661E-005  0.1943429E+03  0.7546771E-02  0.1059400E+00
        -11   -1    0    0    0    0  0.00000000000E+00  0.00000000000E+00  0.18250000000E+03  0.18250000000E+03  0.00000000000E+00 0. -1.
         11   -1    0    0    0    0 -0.00000000000E+00 -0.00000000000E+00 -0.18250000000E+03  0.18250000000E+03  0.00000000000E+00 0.  1.
         23    2    1    2    0    0  0.18289865416E+02  0.21791472745E+02 -0.16807202150E+03  0.19434293192E+03  0.93335862971E+02 0.  0.
        -11    1    3    3    0    0 -0.15317461068E+02 -0.58435348661E+01  0.39833642478E+01  0.16871238959E+02  0.00000000000E+00 0. -1.
         11    1    3    3    0    0  0.33607326484E+02  0.27635007612E+02 -0.17205538575E+03  0.17747169296E+03  0.00000000000E+00 0.  1.
        -15    1    1    2    0    0 -0.14132917379E+02 -0.11617324432E+02  0.98610002001E+02  0.10030848321E+03  0.17770000000E+01 0.  1.
         15    1    1    2    0    0 -0.41569480373E+01 -0.10174148314E+02  0.69462019497E+02  0.70348584865E+02  0.17770000000E+01 0. -1.
</event>
<event>
 7    1  0.4268661E-005  0.2449518E+03  0.7546771E-02  0.1027377E+00
        -11   -1    0    0    0    0  0.00000000000E+00  0.00000000000E+00  0.18250000000E+03  0.18250000000E+03  0.00000000000E+00 0. -1.
         11   -1    0    0    0    0 -0.00000000000E+00 -0.00000000000E+00 -0.18250000000E+03  0.18250000000E+03  0.00000000000E+00 0. -1.
         23    2    1    2    0    0 -0.14160059203E+02 -0.13474134144E+02  0.77228960908E+02  0.12004819579E+03  0.89806443773E+02 0.  0.
        -11    1    3    3    0    0 -0.34973155452E+02 -0.43130796665E+02  0.50054253813E+02  0.74758381122E+02  0.00000000000E+00 0. -1.
         11    1    3    3    0    0  0.20813096249E+02  0.29656662521E+02  0.27174707094E+02  0.45289814672E+02  0.00000000000E+00 0. -1.
        -15    1    1    2    0    0 -0.98576971706E+02 -0.41177715536E+02 -0.29208928547E+02  0.11076706570E+03  0.17770000000E+01 0.  1.
         15    1    1    2    0    0  0.11273703091E+03  0.54651849679E+02 -0.48020032361E+02  0.13418473851E+03  0.17770000000E+01 0. -1.
</event>
<event>
 7    1  0.4268661E-005  0.1859490E+03  0.7546771E-02  0.1065742E+00
        -11   -1    0    0    0    0  0.00000000000E+00  0.00000000000E+00  0.18250000000E+03  0.18250000000E+03  0.00000000000E+00 0. -1.
         11   -1    0    0    0    0 -0.00000000000E+00 -0.00000000000E+00 -0.18250000000E+03  0.18250000000E+03  0.00000000000E+00 0.  1.
         23    2    1    2    0    0  0.16636347161E+02 -0.97906775473E+01  0.16154051557E+03  0.18594900422E+03  0.90050366942E+02 0.  0.
        -11    1    3    3    0    0  0.46638562307E+02  0.86803345067E+01  0.49770877414E+02  0.68757864566E+02  0.00000000000E+00 0.  1.
         11    1    3    3    0    0 -0.30002215146E+02 -0.18471012054E+02  0.11176963815E+03  0.11719113965E+03  0.00000000000E+00 0. -1.
        -15    1    1    2    0    0 -0.95007307317E+01  0.39324401420E+02 -0.12553807753E+03  0.13190769147E+03  0.17770000000E+01 0.  1.
         15    1    1    2    0    0 -0.71356164289E+01 -0.29533723872E+02 -0.36002438041E+02  0.47143304312E+02  0.17770000000E+01 0. -1.
</event>
<event>
 7    1  0.4268661E-005  0.1919078E+03  0.7546771E-02  0.1061203E+00
        -11   -1    0    0    0    0  0.00000000000E+00  0.00000000000E+00  0.18250000000E+03  0.18250000000E+03  0.00000000000E+00 0. -1.
         11   -1    0    0    0    0 -0.00000000000E+00 -0.00000000000E+00 -0.18250000000E+03  0.18250000000E+03  0.00000000000E+00 0.  1.
         23    2    1    2    0    0 -0.58851421781E+02  0.28686134378E+02 -0.15550703159E+03  0.19190775925E+03  0.91431761637E+02 0.  0.
        -11    1    3    3    0    0 -0.55614309931E+01  0.24338582205E+02 -0.13052693627E+03  0.13289310438E+03  0.00000000000E+00 0.  1.
         11    1    3    3    0    0 -0.53289990788E+02  0.43475521734E+01 -0.24980095321E+02  0.59014654878E+02  0.00000000000E+00 0. -1.
        -15    1    1    2    0    0  0.19260536397E+02  0.88285296436E+01  0.38358206337E+02  0.43856822963E+02  0.17770000000E+01 0.  1.
         15    1    1    2    0    0  0.39590885384E+02 -0.37514664022E+02  0.11714882525E+03  0.12923541778E+03  0.17770000000E+01 0. -1.
</event>
<event>
 7    1  0.4268661E-005  0.1933261E+03  0.7546771E-02  0.1060150E+00
        -11   -1    0    0    0    0  0.00000000000E+00  0.00000000000E+00  0.18250000000E+03  0.18250000000E+03  0.00000000000E+00 0. -1.
         11   -1    0    0    0    0 -0.00000000000E+00 -0.00000000000E+00 -0.18250000000E+03  0.18250000000E+03  0.00000000000E+00 0.  1.
         23    2    1    2    0    0  0.31974619448E+01 -0.17130780645E+01  0.17158539025E+03  0.19332609140E+03  0.88995916037E+02 0.  0.
        -11    1    3    3    0    0  0.17437846199E+02 -0.15942314385E+02  0.17157587566E+03  0.17319502585E+03  0.00000000000E+00 0. -1.
         11    1    3    3    0    0 -0.14240384254E+02  0.14229236321E+02  0.95145851900E-02  0.20131065558E+02  0.00000000000E+00 0.  1.
        -15    1    1    2    0    0 -0.27181515578E+01  0.12390610950E+01 -0.91556786085E+02  0.91622739685E+02  0.17770000000E+01 0.  1.
         15    1    1    2    0    0 -0.47931038698E+00  0.47401696947E+00 -0.80028604164E+02  0.80051168911E+02  0.17770000000E+01 0. -1.
</event>
<event>
 7    1  0.4268661E-005  0.1851519E+03  0.7546771E-02  0.1066363E+00
        -11   -1    0    0    0    0  0.00000000000E+00  0.00000000000E+00  0.18250000000E+03  0.18250000000E+03  0.00000000000E+00 0.  1.
         11   -1    0    0    0    0 -0.00000000000E+00 -0.00000000000E+00 -0.18250000000E+03  0.18250000000E+03  0.00000000000E+00 0. -1.
         23    2    1    2    0    0 -0.18006140073E+02 -0.13220542824E+03 -0.89959991349E+02  0.18515185618E+03  0.91574633312E+02 0.  0.
        -11    1    3    3    0    0 -0.41529203666E+02 -0.12831976946E+03 -0.88395385700E+02  0.16125874303E+03  0.00000000000E+00 0. -1.
         11    1    3    3    0    0  0.23523063593E+02 -0.38856587799E+01 -0.15646056493E+01  0.23893113146E+02  0.00000000000E+00 0.  1.
        -15    1    1    2    0    0 -0.19361024787E+02  0.36740833427E+02 -0.26919490873E+01  0.41655040998E+02  0.17770000000E+01 0. -1.
         15    1    1    2    0    0  0.37367164860E+02  0.95464594812E+02  0.92651940437E+02  0.13819310282E+03  0.17770000000E+01 0.  1.
</event>
<event>
 7    1  0.4268661E-005  0.1944254E+03  0.7546771E-02  0.1059340E+00
        -11   -1    0    0    0    0  0.00000000000E+00  0.00000000000E+00  0.18250000000E+03  0.18250000000E+03  0.00000000000E+00 0.  1.
         11   -1    0    0    0    0 -0.00000000000E+00 -0.00000000000E+00 -0.18250000000E+03  0.18250000000E+03  0.00000000000E+00 0. -1.
         23    2    1    2    0    0  0.52717215520E+01 -0.21459572995E+01  0.16971550676E+03  0.19442543996E+03  0.94686336339E+02 0.  0.
        -11    1    3    3    0    0 -0.38290119615E+02 -0.21787196808E+02  0.57321017315E+02  0.72294634869E+02  0.00000000000E+00 0. -1.
         11    1    3    3    0    0  0.43561841167E+02  0.19641239508E+02  0.11239448945E+03  0.12213080509E+03  0.00000000000E+00 0.  1.
        -15    1    1    2    0    0 -0.59621473271E+00 -0.30267965191E+01 -0.13828905182E+03  0.13833487106E+03  0.17770000000E+01 0. -1.
         15    1    1    2    0    0 -0.46755068193E+01  0.51727538186E+01 -0.31426454940E+02  0.32239688975E+02  0.17770000000E+01 0.  1.
</event>
<event>
 7    1  0.4268661E-005  0.2042563E+03  0.7546771E-02  0.1052346E+00
        -11   -1    0    0    0    0  0.00000000000E+00  0.00000000000E+00  0.18250000000E+03  0.18250000000E+03  0.00000000000E+00 0. -1.
         11   -1    0    0    0    0 -0.00000000000E+00 -0.00000000000E+00 -0.18250000000E+03  0.18250000000E+03  0.00000000000E+00 0.  1.
         23    2    1    2    0    0 -0.13729089128E+02 -0.48786430508E+02  0.15141465787E+03  0.20425626522E+03  0.12737982404E+03 0.  0.
        -11    1    3    3    0    0 -0.13178705711E+02 -0.19381392925E+02  0.16858120258E+03  0.17020263964E+03  0.00000000000E+00 0. -1.
         11    1    3    3    0    0 -0.55038341692E+00 -0.29405037583E+02 -0.17166544720E+02  0.34053625575E+02  0.00000000000E+00 0.  1.
        -15    1    1    2    0    0  0.66799174827E+01  0.41589768915E+02 -0.13473423059E+03  0.14117648812E+03  0.17770000000E+01 0.  1.
         15    1    1    2    0    0  0.70491716450E+01  0.71966615930E+01 -0.16680427275E+02  0.19567246665E+02  0.17770000000E+01 0. -1.
</event>
<event>
 7    1  0.4268661E-005  0.1918120E+03  0.7546771E-02  0.1061275E+00
        -11   -1    0    0    0    0  0.00000000000E+00  0.00000000000E+00  0.18250000000E+03  0.18250000000E+03  0.00000000000E+00 0.  1.
         11   -1    0    0    0    0 -0.00000000000E+00 -0.00000000000E+00 -0.18250000000E+03  0.18250000000E+03  0.00000000000E+00 0. -1.
         23    2    1    2    0    0  0.10344000788E+02  0.16347714647E+02  0.16874338736E+03  0.19181199044E+03  0.89124983991E+02 0.  0.
        -11    1    3    3    0    0  0.35645078970E+02  0.25975812953E+02  0.37763248545E+02  0.58063563911E+02  0.00000000000E+00 0.  1.
         11    1    3    3    0    0 -0.25301078182E+02 -0.96280983065E+01  0.13098013882E+03  0.13374842653E+03  0.00000000000E+00 0. -1.
        -15    1    1    2    0    0  0.10091116084E+02 -0.48495995252E+01 -0.23947268391E+02  0.26494879350E+02  0.17770000000E+01 0.  1.
         15    1    1    2    0    0 -0.20435116872E+02 -0.11498115122E+02 -0.14479611897E+03  0.14669313021E+03  0.17770000000E+01 0. -1.
</event>
<event>
 7    1  0.4268661E-005  0.1933814E+03  0.7546771E-02  0.1060109E+00
        -11   -1    0    0    0    0  0.00000000000E+00  0.00000000000E+00  0.18250000000E+03  0.18250000000E+03  0.00000000000E+00 0. -1.
         11   -1    0    0    0    0 -0.00000000000E+00 -0.00000000000E+00 -0.18250000000E+03  0.18250000000E+03  0.00000000000E+00 0.  1.
         23    2    1    2    0    0  0.90518622184E+00  0.54381436685E-01  0.17155404546E+03  0.19338141469E+03  0.89245496889E+02 0.  0.
        -11    1    3    3    0    0  0.13837210239E+02 -0.33889703621E+02  0.14173429756E+03  0.14638507951E+03  0.00000000000E+00 0. -1.
         11    1    3    3    0    0 -0.12932024017E+02  0.33944085057E+02  0.29819747899E+02  0.46996335179E+02  0.00000000000E+00 0.  1.
        -15    1    1    2    0    0 -0.85660633051E-01 -0.13074504483E+01 -0.10689845306E+03  0.10692125027E+03  0.17770000000E+01 0.  1.
         15    1    1    2    0    0 -0.81952558879E+00  0.12530690116E+01 -0.64655592394E+02  0.64697335038E+02  0.17770000000E+01 0.  1.
</event>
<event>
 7    1  0.4268661E-005  0.1930736E+03  0.7546771E-02  0.1060336E+00
        -11   -1    0    0    0    0  0.00000000000E+00  0.00000000000E+00  0.18250000000E+03  0.18250000000E+03  0.00000000000E+00 0.  1.
         11   -1    0    0    0    0 -0.00000000000E+00 -0.00000000000E+00 -0.18250000000E+03  0.18250000000E+03  0.00000000000E+00 0. -1.
         23    2    1    2    0    0 -0.25198241976E+02  0.22299000301E+02 -0.16557403169E+03  0.19307359314E+03  0.93436906965E+02 0.  0.
        -11    1    3    3    0    0 -0.27780050586E+02 -0.85692121240E+01 -0.49501038599E+01  0.29490102326E+02  0.00000000000E+00 0.  1.
         11    1    3    3    0    0  0.25818086094E+01  0.30868212425E+02 -0.16062392783E+03  0.16358349081E+03  0.00000000000E+00 0. -1.
        -15    1    1    2    0    0  0.79137421064E+01  0.57945162305E+01  0.72132710971E+02  0.72818194523E+02  0.17770000000E+01 0. -1.
         15    1    1    2    0    0  0.17284499870E+02 -0.28093516532E+02  0.93441320719E+02  0.99108212342E+02  0.17770000000E+01 0.  1.
</event>
<event>
 7    1  0.4268661E-005  0.1938811E+03  0.7546771E-02  0.1059740E+00
        -11   -1    0    0    0    0  0.00000000000E+00  0.00000000000E+00  0.18250000000E+03  0.18250000000E+03  0.00000000000E+00 0.  1.
         11   -1    0    0    0    0 -0.00000000000E+00 -0.00000000000E+00 -0.18250000000E+03  0.18250000000E+03  0.00000000000E+00 0. -1.
         23    2    1    2    0    0 -0.80650321581E-02  0.17353125228E+01  0.17102442996E+03  0.19388107706E+03  0.91309939336E+02 0.  0.
        -11    1    3    3    0    0 -0.75841786667E+01  0.32403195648E+02  0.15486073114E+03  0.15839612655E+03  0.00000000000E+00 0.  1.
         11    1    3    3    0    0  0.75761136346E+01 -0.30667883125E+02  0.16163698818E+02  0.35484950510E+02  0.00000000000E+00 0. -1.
        -15    1    1    2    0    0  0.16158467176E+01  0.35026615522E+00 -0.60057448841E+02  0.60106476666E+02  0.17770000000E+01 0. -1.
         15    1    1    2    0    0 -0.16077816855E+01 -0.20855786780E+01 -0.11096698112E+03  0.11101244628E+03  0.17770000000E+01 0. -1.
</event>
<event>
 7    1  0.4268661E-005  0.1911548E+03  0.7546771E-02  0.1061767E+00
        -11   -1    0    0    0    0  0.00000000000E+00  0.00000000000E+00  0.18250000000E+03  0.18250000000E+03  0.00000000000E+00 0.  1.
         11   -1    0    0    0    0 -0.00000000000E+00 -0.00000000000E+00 -0.18250000000E+03  0.18250000000E+03  0.00000000000E+00 0. -1.
         23    2    1    2    0    0 -0.12127494685E+03  0.24344871481E+02  0.11516833912E+03  0.19115478544E+03  0.89309126968E+02 0.  0.
        -11    1    3    3    0    0 -0.11238899082E+03 -0.13526947506E+02  0.79025054338E+02  0.13805514398E+03  0.00000000000E+00 0.  1.
         11    1    3    3    0    0 -0.88859560267E+01  0.37871818987E+02  0.36143284784E+02  0.53099641457E+02  0.00000000000E+00 0. -1.
        -15    1    1    2    0    0  0.79853052322E+01 -0.14155014957E+01 -0.27601645312E+02  0.28823207612E+02  0.17770000000E+01 0.  1.
         15    1    1    2    0    0  0.11328964162E+03 -0.22929369986E+02 -0.87566693809E+02  0.14502200695E+03  0.17770000000E+01 0. -1.
</event>
<event>
 7    1  0.4268661E-005  0.1919416E+03  0.7546771E-02  0.1061178E+00
        -11   -1    0    0    0    0  0.00000000000E+00  0.00000000000E+00  0.18250000000E+03  0.18250000000E+03  0.00000000000E+00 0. -1.
         11   -1    0    0    0    0 -0.00000000000E+00 -0.00000000000E+00 -0.18250000000E+03  0.18250000000E+03  0.00000000000E+00 0. -1.
         23    2    1    2    0    0  0.16311323829E+02  0.10631089442E+02  0.17187483791E+03  0.19194159210E+03  0.83195766275E+02 0.  0.
        -11    1    3    3    0    0  0.20385842709E+02 -0.26537100076E+02  0.13624079577E+03  0.14029025161E+03  0.00000000000E+00 0. -1.
         11    1    3    3    0    0 -0.40745188801E+01  0.37168189519E+02  0.35634042133E+02  0.51651340495E+02  0.00000000000E+00 0. -1.
        -15    1    1    2    0    0 -0.48097975705E+01 -0.47105390274E+01 -0.71392398296E+02  0.71731134064E+02  0.17770000000E+01 0. -1.
         15    1    1    2    0    0 -0.11501526258E+02 -0.59205504150E+01 -0.10048243961E+03  0.10132727383E+03  0.17770000000E+01 0. -1.
</event>
<event>
 7    1  0.4268661E-005  0.1935955E+03  0.7546771E-02  0.1059951E+00
        -11   -1    0    0    0    0  0.00000000000E+00  0.00000000000E+00  0.18250000000E+03  0.18250000000E+03  0.00000000000E+00 0.  1.
         11   -1    0    0    0    0 -0.00000000000E+00 -0.00000000000E+00 -0.18250000000E+03  0.18250000000E+03  0.00000000000E+00 0. -1.
         23    2    1    2    0    0  0.77571445588E+01  0.14183580638E+01  0.17086671070E+03  0.19359548994E+03  0.90673016227E+02 0.  0.
        -11    1    3    3    0    0  0.45929065584E+02 -0.91355325433E+01  0.12210524440E+03  0.13077701530E+03  0.00000000000E+00 0.  1.
         11    1    3    3    0    0 -0.38171921025E+02  0.10553890607E+02  0.48761466298E+02  0.62818474649E+02  0.00000000000E+00 0. -1.
        -15    1    1    2    0    0 -0.99519052655E+01 -0.19383989896E+01 -0.11343938504E+03  0.11390544155E+03  0.17770000000E+01 0. -1.
         15    1    1    2    0    0  0.21947607067E+01  0.52004092579E+00 -0.57427325661E+02  0.57499068503E+02  0.17770000000E+01 0.  1.
</event>
<event>
 7    1  0.4268661E-005  0.1947840E+03  0.7546771E-02  0.1059077E+00
        -11   -1    0    0    0    0  0.00000000000E+00  0.00000000000E+00  0.18250000000E+03  0.18250000000E+03  0.00000000000E+00 0. -1.
         11   -1    0    0    0    0 -0.00000000000E+00 -0.00000000000E+00 -0.18250000000E+03  0.18250000000E+03  0.00000000000E+00 0. -1.
         23    2    1    2    0    0  0.83699813627E+01 -0.10637797976E+02  0.16958838103E+03  0.19478396097E+03  0.94854378585E+02 0.  0.
        -11    1    3    3    0    0 -0.17572949171E+02 -0.46077968872E+02  0.11184926631E+03  0.12223848057E+03  0.00000000000E+00 0. -1.
         11    1    3    3    0    0  0.25942930534E+02  0.35440170896E+02  0.57739114728E+02  0.72545480407E+02  0.00000000000E+00 0. -1.
        -15    1    1    2    0    0 -0.77952896108E+01  0.91611629890E+01 -0.14722803412E+03  0.14772929705E+03  0.17770000000E+01 0. -1.
         15    1    1    2    0    0 -0.57469175189E+00  0.14766349868E+01 -0.22360346919E+02  0.22486741980E+02  0.17770000000E+01 0. -1.
</event>
<event>
 7    1  0.4268661E-005  0.1936945E+03  0.7546771E-02  0.1059877E+00
        -11   -1    0    0    0    0  0.00000000000E+00  0.00000000000E+00  0.18250000000E+03  0.18250000000E+03  0.00000000000E+00 0.  1.
         11   -1    0    0    0    0 -0.00000000000E+00 -0.00000000000E+00 -0.18250000000E+03  0.18250000000E+03  0.00000000000E+00 0. -1.
         23    2    1    2    0    0 -0.22632998972E+02 -0.14441542002E+02 -0.16889456171E+03  0.19369451847E+03  0.90947142522E+02 0.  0.
        -11    1    3    3    0    0  0.13460714718E+02  0.24650148837E+02 -0.17187252574E+02  0.32927531481E+02  0.00000000000E+00 0.  1.
         11    1    3    3    0    0 -0.36093713690E+02 -0.39091690839E+02 -0.15170730913E+03  0.16076698699E+03  0.00000000000E+00 0. -1.
        -15    1    1    2    0    0  0.10304885988E+01  0.29218558260E+01  0.12651778887E+02  0.13146268909E+02  0.17770000000E+01 0. -1.
         15    1    1    2    0    0  0.21602510373E+02  0.11519686176E+02  0.15624278282E+03  0.15815921262E+03  0.17770000000E+01 0.  1.
</event>
<event>
 7    1  0.4268661E-005  0.1890464E+03  0.7546771E-02  0.1063360E+00
        -11   -1    0    0    0    0  0.00000000000E+00  0.00000000000E+00  0.18250000000E+03  0.18250000000E+03  0.00000000000E+00 0.  1.
         11   -1    0    0    0    0 -0.00000000000E+00 -0.00000000000E+00 -0.18250000000E+03  0.18250000000E+03  0.00000000000E+00 0. -1.
         23    2    1    2    0    0 -0.41629608028E+02  0.10843519849E+03  0.11851345362E+03  0.18904638135E+03  0.90564226253E+02 0.  0.
        -11    1    3    3    0    0 -0.17798812360E+02  0.97464724484E+02  0.12736112959E+03  0.16135993174E+03  0.00000000000E+00 0.  1.
         11    1    3    3    0    0 -0.23830795668E+02  0.10970474006E+02 -0.88476759701E+01  0.27686449612E+02  0.00000000000E+00 0. -1.
        -15    1    1    2    0    0  0.54399030792E+02 -0.70640976088E+02 -0.71733120631E+02  0.11444736947E+03  0.17770000000E+01 0. -1.
         15    1    1    2    0    0 -0.12769422764E+02 -0.37794222402E+02 -0.46780332989E+02  0.61506249180E+02  0.17770000000E+01 0.  1.
</event>
<event>
 7    1  0.4268661E-005  0.1873854E+03  0.7546771E-02  0.1064631E+00
        -11   -1    0    0    0    0  0.00000000000E+00  0.00000000000E+00  0.18250000000E+03  0.18250000000E+03  0.00000000000E+00 0. -1.
         11   -1    0    0    0    0 -0.00000000000E+00 -0.00000000000E+00 -0.18250000000E+03  0.18250000000E+03  0.00000000000E+00 0.  1.
         23    2    1    2    0    0 -0.20924059928E+02  0.13903517169E+02  0.16173721588E+03  0.18738537735E+03  0.91231730064E+02 0.  0.
        -11    1    3    3    0    0  0.37931719431E+01  0.86196230797E+01 -0.10035987991E+02  0.13762525582E+02  0.00000000000E+00 0.  1.
         11    1    3    3    0    0 -0.24717231872E+02  0.52838940896E+01  0.17177320387E+03  0.17362285177E+03  0.00000000000E+00 0. -1.
        -15    1    1    2    0    0 -0.77582980410E+00  0.25563060099E+02 -0.37257129426E+02  0.45225251526E+02  0.17770000000E+01 0.  1.
         15    1    1    2    0    0  0.21699889733E+02 -0.39466577268E+02 -0.12448008645E+03  0.13238937113E+03  0.17770000000E+01 0. -1.
</event>
<event>
 7    1  0.4268661E-005  0.1935234E+03  0.7546771E-02  0.1060004E+00
        -11   -1    0    0    0    0  0.00000000000E+00  0.00000000000E+00  0.18250000000E+03  0.18250000000E+03  0.00000000000E+00 0. -1.
         11   -1    0    0    0    0 -0.00000000000E+00 -0.00000000000E+00 -0.18250000000E+03  0.18250000000E+03  0.00000000000E+00 0.  1.
         23    2    1    2    0    0 -0.44177135313E+01 -0.11094114431E+01  0.17135008868E+03  0.19352342082E+03  0.89831589821E+02 0.  0.
        -11    1    3    3    0    0 -0.20630079077E+02 -0.13466287286E+02  0.17137705022E+03  0.17313877209E+03  0.00000000000E+00 0. -1.
         11    1    3    3    0    0  0.16212365546E+02  0.12356875843E+02 -0.26961544463E-01  0.20384648736E+02  0.00000000000E+00 0.  1.
        -15    1    1    2    0    0  0.83105526751E+00 -0.81092455127E+00 -0.48951893583E+02  0.48997896545E+02  0.17770000000E+01 0.  1.
         15    1    1    2    0    0  0.35866582638E+01  0.19203359944E+01 -0.12239819510E+03  0.12247868263E+03  0.17770000000E+01 0.  1.
</event>
<event>
 7    1  0.4268661E-005  0.1886434E+03  0.7546771E-02  0.1063667E+00
        -11   -1    0    0    0    0  0.00000000000E+00  0.00000000000E+00  0.18250000000E+03  0.18250000000E+03  0.00000000000E+00 0.  1.
         11   -1    0    0    0    0 -0.00000000000E+00 -0.00000000000E+00 -0.18250000000E+03  0.18250000000E+03  0.00000000000E+00 0. -1.
         23    2    1    2    0    0 -0.88918914658E+02  0.13008215546E+03  0.49250481554E+02  0.18864339342E+03  0.91284058814E+02 0.  0.
        -11    1    3    3    0    0 -0.25496597069E+02  0.10728278842E+03  0.10175859766E+02  0.11073942963E+03  0.00000000000E+00 0. -1.
         11    1    3    3    0    0 -0.63422317589E+02  0.22799367044E+02  0.39074621789E+02  0.77903963788E+02  0.00000000000E+00 0.  1.
        -15    1    1    2    0    0  0.50344350999E+02 -0.26924180748E+02 -0.30068281319E+02  0.64550170077E+02  0.17770000000E+01 0. -1.
         15    1    1    2    0    0  0.38574563659E+02 -0.10315797472E+03 -0.19182200235E+02  0.11180643650E+03  0.17770000000E+01 0.  1.
</event>
<event>
 7    1  0.4268661E-005  0.1918044E+03  0.7546771E-02  0.1061281E+00
        -11   -1    0    0    0    0  0.00000000000E+00  0.00000000000E+00  0.18250000000E+03  0.18250000000E+03  0.00000000000E+00 0. -1.
         11   -1    0    0    0    0 -0.00000000000E+00 -0.00000000000E+00 -0.18250000000E+03  0.18250000000E+03  0.00000000000E+00 0.  1.
         23    2    1    2    0    0 -0.24653375678E+02 -0.36242046661E+02  0.16393836904E+03  0.19180441958E+03  0.89397268687E+02 0.  0.
        -11    1    3    3    0    0  0.32960331015E+02 -0.51390215571E+01  0.44729497930E+02  0.55798933218E+02  0.00000000000E+00 0.  1.
         11    1    3    3    0    0 -0.57613706693E+02 -0.31103025104E+02  0.11920887111E+03  0.13600548636E+03  0.00000000000E+00 0. -1.
        -15    1    1    2    0    0  0.29549560595E+02  0.14940881257E+02 -0.11231575995E+03  0.11710847162E+03  0.17770000000E+01 0.  1.
         15    1    1    2    0    0 -0.48961849172E+01  0.21301165404E+02 -0.51622609096E+02  0.56087108797E+02  0.17770000000E+01 0. -1.
</event>
<event>
 7    1  0.4268661E-005  0.1954901E+03  0.7546771E-02  0.1058561E+00
        -11   -1    0    0    0    0  0.00000000000E+00  0.00000000000E+00  0.18250000000E+03  0.18250000000E+03  0.00000000000E+00 0.  1.
         11   -1    0    0    0    0 -0.00000000000E+00 -0.00000000000E+00 -0.18250000000E+03  0.18250000000E+03  0.00000000000E+00 0.  1.
         23    2    1    2    0    0  0.19530242072E+02 -0.42493075935E+02  0.16231227968E+03  0.19549008579E+03  0.98407345515E+02 0.  0.
        -11    1    3    3    0    0  0.35778725156E+02 -0.28369344585E+02  0.16727626692E+03  0.17339632742E+03  0.00000000000E+00 0.  1.
         11    1    3    3    0    0 -0.16248483085E+02 -0.14123731350E+02 -0.49639872454E+01  0.22093758376E+02  0.00000000000E+00 0.  1.
        -15    1    1    2    0    0 -0.14781350154E+02  0.23417574865E+02 -0.11383543643E+03  0.11716883306E+03  0.17770000000E+01 0.  1.
         15    1    1    2    0    0 -0.47488919177E+01  0.19075501069E+02 -0.48476843249E+02  0.52341081150E+02  0.17770000000E+01 0. -1.
</event>
<event>
 7    1  0.4268661E-005  0.1874500E+03  0.7546771E-02  0.1064581E+00
        -11   -1    0    0    0    0  0.00000000000E+00  0.00000000000E+00  0.18250000000E+03  0.18250000000E+03  0.00000000000E+00 0. -1.
         11   -1    0    0    0    0 -0.00000000000E+00 -0.00000000000E+00 -0.18250000000E+03  0.18250000000E+03  0.00000000000E+00 0.  1.
         23    2    1    2    0    0  0.10928773993E+03  0.42345990051E+02  0.11450033199E+03  0.18745004604E+03  0.91050539606E+02 0.  0.
        -11    1    3    3    0    0 -0.33412219618E+01 -0.88502014577E+01 -0.86994661929E+01  0.12851869206E+02  0.00000000000E+00 0. -1.
         11    1    3    3    0    0  0.11262896189E+03  0.51196191508E+02  0.12319979818E+03  0.17459817684E+03  0.00000000000E+00 0.  1.
        -15    1    1    2    0    0 -0.73312431168E+01  0.16304403443E+02 -0.12959569092E+02  0.22151497857E+02  0.17770000000E+01 0.  1.
         15    1    1    2    0    0 -0.10195649681E+03 -0.58650393493E+02 -0.10154076290E+03  0.15539845610E+03  0.17770000000E+01 0. -1.
</event>
<event>
 7    1  0.4268661E-005  0.1914553E+03  0.7546771E-02  0.1061542E+00
        -11   -1    0    0    0    0  0.00000000000E+00  0.00000000000E+00  0.18250000000E+03  0.18250000000E+03  0.00000000000E+00 0. -1.
         11   -1    0    0    0    0 -0.00000000000E+00 -0.00000000000E+00 -0.18250000000E+03  0.18250000000E+03  0.00000000000E+00 0.  1.
         23    2    1    2    0    0  0.40687328075E+01 -0.10040043803E+02 -0.16819296232E+03  0.19145530088E+03  0.90823469407E+02 0.  0.
        -11    1    3    3    0    0  0.20686312551E+02 -0.38422873936E+02 -0.40295709703E+02  0.59396843258E+02  0.00000000000E+00 0. -1.
         11    1    3    3    0    0 -0.16617579743E+02  0.28382830133E+02 -0.12789725262E+03  0.13205845762E+03  0.00000000000E+00 0.  1.
        -15    1    1    2    0    0 -0.20336711418E+02 -0.32133059231E+01  0.10237616805E+03  0.10444110628E+03  0.17770000000E+01 0.  1.
         15    1    1    2    0    0  0.16267978610E+02  0.13253349726E+02  0.65816794268E+02  0.69103592843E+02  0.17770000000E+01 0. -1.
</event>
<event>
 7    1  0.4268661E-005  0.1925755E+03  0.7546771E-02  0.1060706E+00
        -11   -1    0    0    0    0  0.00000000000E+00  0.00000000000E+00  0.18250000000E+03  0.18250000000E+03  0.00000000000E+00 0.  1.
         11   -1    0    0    0    0 -0.00000000000E+00 -0.00000000000E+00 -0.18250000000E+03  0.18250000000E+03  0.00000000000E+00 0. -1.
         23    2    1    2    0    0  0.18337602921E+01 -0.20122251226E+01  0.17172378692E+03  0.19257554732E+03  0.87114124604E+02 0.  0.
        -11    1    3    3    0    0  0.44207318796E+02  0.34655117363E+01  0.83138891643E+02  0.94225114010E+02  0.00000000000E+00 0.  1.
         11    1    3    3    0    0 -0.42373558503E+02 -0.54777368590E+01  0.88584895273E+02  0.98350433308E+02  0.00000000000E+00 0. -1.
        -15    1    1    2    0    0  0.63961572505E+01  0.25412770078E-01 -0.59960586405E+02  0.60326951890E+02  0.17770000000E+01 0.  1.
         15    1    1    2    0    0 -0.82299175426E+01  0.19868123526E+01 -0.11176320051E+03  0.11209750079E+03  0.17770000000E+01 0. -1.
</event>
<event>
 7    1  0.4268661E-005  0.1836137E+03  0.7546771E-02  0.1067572E+00
        -11   -1    0    0    0    0  0.00000000000E+00  0.00000000000E+00  0.18250000000E+03  0.18250000000E+03  0.00000000000E+00 0.  1.
         11   -1    0    0    0    0 -0.00000000000E+00 -0.00000000000E+00 -0.18250000000E+03  0.18250000000E+03  0.00000000000E+00 0. -1.
         23    2    1    2    0    0 -0.37944466885E+02 -0.74518438765E+01  0.15032807799E+03  0.18138631931E+03  0.93846434432E+02 0.  0.
        -11    1    3    3    0    0 -0.41154675822E+02 -0.38773626669E+02  0.13500970997E+03  0.14637186633E+03  0.00000000000E+00 0.  1.
         11    1    3    3    0    0  0.32102089370E+01  0.31321782793E+02  0.15318368029E+02  0.35014452984E+02  0.00000000000E+00 0. -1.
        -15    1    1    2    0    0  0.36438300150E+01 -0.37447422041E+02 -0.10371947526E+03  0.11034706246E+03  0.17770000000E+01 0.  1.
         15    1    1    2    0    0  0.34300636870E+02  0.44899265918E+02 -0.46608602732E+02  0.73266618233E+02  0.17770000000E+01 0. -1.
</event>
<event>
 7    1  0.4268661E-005  0.1939957E+03  0.7546771E-02  0.1059655E+00
        -11   -1    0    0    0    0  0.00000000000E+00  0.00000000000E+00  0.18250000000E+03  0.18250000000E+03  0.00000000000E+00 0. -1.
         11   -1    0    0    0    0 -0.00000000000E+00 -0.00000000000E+00 -0.18250000000E+03  0.18250000000E+03  0.00000000000E+00 0.  1.
         23    2    1    2    0    0 -0.29871103260E+02  0.50948877604E+01 -0.16788706083E+03  0.19399571937E+03  0.92358179103E+02 0.  0.
        -11    1    3    3    0    0 -0.91229949798E+01 -0.40279824503E+02 -0.11042464906E+03  0.11789527734E+03  0.00000000000E+00 0.  1.
         11    1    3    3    0    0 -0.20748108280E+02  0.45374712263E+02 -0.57462411772E+02  0.76100442028E+02  0.00000000000E+00 0. -1.
        -15    1    1    2    0    0  0.58889167675E+01 -0.28769502425E+01  0.63400453373E+02  0.63763088071E+02  0.17770000000E+01 0. -1.
         15    1    1    2    0    0  0.23982186493E+02 -0.22179375179E+01  0.10448660746E+03  0.10724119256E+03  0.17770000000E+01 0. -1.
</event>
<event>
 7    1  0.4268661E-005  0.1938590E+03  0.7546771E-02  0.1059756E+00
        -11   -1    0    0    0    0  0.00000000000E+00  0.00000000000E+00  0.18250000000E+03  0.18250000000E+03  0.00000000000E+00 0. -1.
         11   -1    0    0    0    0 -0.00000000000E+00 -0.00000000000E+00 -0.18250000000E+03  0.18250000000E+03  0.00000000000E+00 0. -1.
         23    2    1    2    0    0 -0.10173669979E+02 -0.92926482205E+01 -0.17046242035E+03  0.19385902125E+03  0.91290889445E+02 0.  0.
        -11    1    3    3    0    0  0.35105108882E+02  0.17852439677E+02 -0.78316953493E+02  0.87661984215E+02  0.00000000000E+00 0. -1.
         11    1    3    3    0    0 -0.45278778862E+02 -0.27145087898E+02 -0.92145466860E+02  0.10619703704E+03  0.00000000000E+00 0. -1.
        -15    1    1    2    0    0  0.52136336266E+01  0.76032448217E+01  0.89949254579E+02  0.90437920342E+02  0.17770000000E+01 0. -1.
         15    1    1    2    0    0  0.49600363525E+01  0.16894033988E+01  0.80513165774E+02  0.80703058408E+02  0.17770000000E+01 0. -1.
</event>
<event>
 7    1  0.4268661E-005  0.1856683E+03  0.7546771E-02  0.1065960E+00
        -11   -1    0    0    0    0  0.00000000000E+00  0.00000000000E+00  0.18250000000E+03  0.18250000000E+03  0.00000000000E+00 0. -1.
         11   -1    0    0    0    0 -0.00000000000E+00 -0.00000000000E+00 -0.18250000000E+03  0.18250000000E+03  0.00000000000E+00 0.  1.
         23    2    1    2    0    0  0.41503765242E+01 -0.62480512254E+02  0.15213233243E+03  0.18566829634E+03  0.86066425851E+02 0.  0.
        -11    1    3    3    0    0 -0.38934252247E+02 -0.44425750464E+02  0.74681351805E+02  0.95219890830E+02  0.00000000000E+00 0.  1.
         11    1    3    3    0    0  0.43084628771E+02 -0.18054761790E+02  0.77450980629E+02  0.90448405514E+02  0.00000000000E+00 0. -1.
        -15    1    1    2    0    0  0.14967074541E+02  0.39559619823E+02 -0.25947616063E+02  0.49652928909E+02  0.17770000000E+01 0. -1.
         15    1    1    2    0    0 -0.19117451065E+02  0.22920892431E+02 -0.12618471637E+03  0.12967877475E+03  0.17770000000E+01 0.  1.
</event>
<event>
 7    1  0.4268661E-005  0.1937708E+03  0.7546771E-02  0.1059821E+00
        -11   -1    0    0    0    0  0.00000000000E+00  0.00000000000E+00  0.18250000000E+03  0.18250000000E+03  0.00000000000E+00 0.  1.
         11   -1    0    0    0    0 -0.00000000000E+00 -0.00000000000E+00 -0.18250000000E+03  0.18250000000E+03  0.00000000000E+00 0.  1.
         23    2    1    2    0    0 -0.20123466541E+02 -0.42245420930E+01 -0.16988386755E+03  0.19377076064E+03  0.90905327478E+02 0.  0.
        -11    1    3    3    0    0 -0.14894074976E+02  0.12179630996E+02  0.34815753899E+01  0.19552448639E+02  0.00000000000E+00 0.  1.
         11    1    3    3    0    0 -0.52293915653E+01 -0.16404173089E+02 -0.17336544294E+03  0.17421831200E+03  0.00000000000E+00 0.  1.
        -15    1    1    2    0    0  0.59415411525E+01  0.16244767829E+01  0.36734556326E+02  0.37289759902E+02  0.17770000000E+01 0. -1.
         15    1    1    2    0    0  0.14181925388E+02  0.26000653102E+01  0.13314931123E+03  0.13393947945E+03  0.17770000000E+01 0.  1.
</event>
<event>
 7    1  0.4268661E-005  0.1919984E+03  0.7546771E-02  0.1061136E+00
        -11   -1    0    0    0    0  0.00000000000E+00  0.00000000000E+00  0.18250000000E+03  0.18250000000E+03  0.00000000000E+00 0.  1.
         11   -1    0    0    0    0 -0.00000000000E+00 -0.00000000000E+00 -0.18250000000E+03  0.18250000000E+03  0.00000000000E+00 0. -1.
         23    2    1    2    0    0 -0.14718948198E+03 -0.15387859829E+02 -0.82160039094E+02  0.19199837595E+03  0.90617738366E+02 0.  0.
        -11    1    3    3    0    0  0.12529620460E+02 -0.36281002539E+01 -0.94876677642E+01  0.16129796649E+02  0.00000000000E+00 0.  1.
         11    1    3    3    0    0 -0.15971910244E+03 -0.11759759575E+02 -0.72672371330E+02  0.17586857930E+03  0.00000000000E+00 0. -1.
        -15    1    1    2    0    0  0.10949877645E+03  0.24865590230E+02  0.69600459352E+02  0.13211987471E+03  0.17770000000E+01 0.  1.
         15    1    1    2    0    0  0.37690705531E+02 -0.94777304014E+01  0.12559579742E+02  0.40881749342E+02  0.17770000000E+01 0. -1.
</event>
<event>
 7    1  0.4268661E-005  0.1920274E+03  0.7546771E-02  0.1061114E+00
        -11   -1    0    0    0    0  0.00000000000E+00  0.00000000000E+00  0.18250000000E+03  0.18250000000E+03  0.00000000000E+00 0.  1.
         11   -1    0    0    0    0 -0.00000000000E+00 -0.00000000000E+00 -0.18250000000E+03  0.18250000000E+03  0.00000000000E+00 0. -1.
         23    2    1    2    0    0 -0.23882568170E+02 -0.11719483980E+03 -0.84836177297E+02  0.17297255906E+03  0.91745962698E+02 0.  0.
        -11    1    3    3    0    0 -0.88393995007E+01 -0.12387922405E+03 -0.92459120025E+02  0.15483179909E+03  0.00000000000E+00 0. -1.
         11    1    3    3    0    0 -0.15043168669E+02  0.66843842484E+01  0.76229427281E+01  0.18140759968E+02  0.00000000000E+00 0.  1.
        -15    1    1    2    0    0 -0.21287879201E+02  0.12337188764E+03  0.50869975501E+02  0.13514698886E+03  0.17770000000E+01 0.  1.
         15    1    1    2    0    0  0.45170447371E+02 -0.61770478395E+01  0.33966201796E+02  0.56880452083E+02  0.17770000000E+01 0. -1.
</event>
<event>
 7    1  0.4268661E-005  0.1935375E+03  0.7546771E-02  0.1059993E+00
        -11   -1    0    0    0    0  0.00000000000E+00  0.00000000000E+00  0.18250000000E+03  0.18250000000E+03  0.00000000000E+00 0.  1.
         11   -1    0    0    0    0 -0.00000000000E+00 -0.00000000000E+00 -0.18250000000E+03  0.18250000000E+03  0.00000000000E+00 0. -1.
         23    2    1    2    0    0  0.59754448365E+02  0.49653514141E+02  0.15180389986E+03  0.19353745758E+03  0.91521898513E+02 0.  0.
        -11    1    3    3    0    0  0.81355589815E+02  0.21575980572E+02  0.11431860147E+03  0.14196125378E+03  0.00000000000E+00 0.  1.
         11    1    3    3    0    0 -0.21601141450E+02  0.28077533568E+02  0.37485298385E+02  0.51576203799E+02  0.00000000000E+00 0. -1.
        -15    1    1    2    0    0 -0.22900416537E+02 -0.12423212465E+02 -0.65152157919E+02  0.70190645360E+02  0.17770000000E+01 0.  1.
         15    1    1    2    0    0 -0.36854031828E+02 -0.37230301675E+02 -0.86651741938E+02  0.10127189706E+03  0.17770000000E+01 0. -1.
</event>
<event>
 7    1  0.4268661E-005  0.3650000E+03  0.7546771E-02  0.9765871E-01
        -11   -1    0    0    0    0  0.00000000000E+00  0.00000000000E+00  0.18250000000E+03  0.18250000000E+03  0.00000000000E+00 0.  1.
         11   -1    0    0    0    0 -0.00000000000E+00 -0.00000000000E+00 -0.18250000000E+03  0.18250000000E+03  0.00000000000E+00 0. -1.
         23    2    1    2    0    0  0.70018427835E+02 -0.90758911212E+02  0.12452740353E+02  0.14752904187E+03  0.92032533663E+02 0.  0.
        -11    1    3    3    0    0  0.24444857401E+02 -0.97381103140E+02  0.14432349098E+02  0.10143432852E+03  0.00000000000E+00 0.  1.
         11    1    3    3    0    0  0.45573570434E+02  0.66221919282E+01 -0.19796087450E+01  0.46094713350E+02  0.00000000000E+00 0. -1.
        -15    1    1    2    0    0 -0.12813925204E+03  0.38675255416E+02 -0.30628046315E+02  0.13731962075E+03  0.17770000000E+01 0.  1.
         15    1    1    2    0    0  0.58120824202E+02  0.52083655796E+02  0.18175305962E+02  0.80151337373E+02  0.17770000000E+01 0. -1.
</event>
<event>
 7    1  0.4268661E-005  0.1939066E+03  0.7546771E-02  0.1059721E+00
        -11   -1    0    0    0    0  0.00000000000E+00  0.00000000000E+00  0.18250000000E+03  0.18250000000E+03  0.00000000000E+00 0.  1.
         11   -1    0    0    0    0 -0.00000000000E+00 -0.00000000000E+00 -0.18250000000E+03  0.18250000000E+03  0.00000000000E+00 0. -1.
         23    2    1    2    0    0 -0.36266774012E+01  0.62498461247E+01  0.17088293299E+03  0.19390662148E+03  0.91359661238E+02 0.  0.
        -11    1    3    3    0    0 -0.44401105843E+02  0.19885547381E+02  0.90926955304E+02  0.10312421828E+03  0.00000000000E+00 0. -1.
         11    1    3    3    0    0  0.40774428442E+02 -0.13635701257E+02  0.79955977686E+02  0.90782403202E+02  0.00000000000E+00 0.  1.
        -15    1    1    2    0    0  0.11271181784E+01 -0.42070186172E+01 -0.10823050087E+03  0.10833267489E+03  0.17770000000E+01 0. -1.
         15    1    1    2    0    0  0.24995592228E+01 -0.20428275075E+01 -0.62652432115E+02  0.62760703625E+02  0.17770000000E+01 0. -1.
</event>
<event>
 7    1  0.4524686E-005  0.1931052E+03  0.7546771E-02  0.1060313E+00
        -11   -1    0    0    0    0  0.00000000000E+00  0.00000000000E+00  0.18250000000E+03  0.18250000000E+03  0.00000000000E+00 0.  1.
         11   -1    0    0    0    0 -0.00000000000E+00 -0.00000000000E+00 -0.18250000000E+03  0.18250000000E+03  0.00000000000E+00 0. -1.
         23    2    1    2    0    0  0.22985743837E+01  0.95161242223E+01 -0.17116408382E+03  0.19310522773E+03  0.88863070626E+02 0.  0.
        -11    1    3    3    0    0 -0.27499965638E+02 -0.11654510594E+02 -0.16381669447E+02  0.34065155527E+02  0.00000000000E+00 0.  1.
         11    1    3    3    0    0  0.29798540021E+02  0.21170634816E+02 -0.15478241438E+03  0.15904007220E+03  0.00000000000E+00 0. -1.
        -15    1    1    2    0    0 -0.11654973990E+01 -0.35829503440E+01  0.14189386033E+03  0.14195499725E+03  0.17770000000E+01 0.  1.
         15    1    1    2    0    0 -0.11330769847E+01 -0.59331738783E+01  0.29270223495E+02  0.29939775019E+02  0.17770000000E+01 0. -1.
</event>
<event>
 7    1  0.4268661E-005  0.1942140E+03  0.7546771E-02  0.1059495E+00
        -11   -1    0    0    0    0  0.00000000000E+00  0.00000000000E+00  0.18250000000E+03  0.18250000000E+03  0.00000000000E+00 0.  1.
         11   -1    0    0    0    0 -0.00000000000E+00 -0.00000000000E+00 -0.18250000000E+03  0.18250000000E+03  0.00000000000E+00 0. -1.
         23    2    1    2    0    0  0.37645065594E+01 -0.87694636521E+02  0.14513992117E+03  0.19421399370E+03  0.94598931535E+02 0.  0.
        -11    1    3    3    0    0 -0.44028227377E+02 -0.30266454884E+02  0.49350450333E+02  0.72732455241E+02  0.00000000000E+00 0.  1.
         11    1    3    3    0    0  0.47792733937E+02 -0.57428181636E+02  0.95789470840E+02  0.12148153846E+03  0.00000000000E+00 0. -1.
        -15    1    1    2    0    0  0.27817255668E+00  0.69002772165E+02 -0.12601502813E+03  0.14368160978E+03  0.17770000000E+01 0. -1.
         15    1    1    2    0    0 -0.40426791161E+01  0.18691864355E+02 -0.19124893043E+02  0.27104396515E+02  0.17770000000E+01 0.  1.
</event>
<event>
 7    1  0.4268661E-005  0.1930177E+03  0.7546771E-02  0.1060378E+00
        -11   -1    0    0    0    0  0.00000000000E+00  0.00000000000E+00  0.18250000000E+03  0.18250000000E+03  0.00000000000E+00 0. -1.
         11   -1    0    0    0    0 -0.00000000000E+00 -0.00000000000E+00 -0.18250000000E+03  0.18250000000E+03  0.00000000000E+00 0. -1.
         23    2    1    2    0    0 -0.14373002132E+03  0.67567736203E+02  0.59858206731E+02  0.19301769016E+03  0.91919017602E+02 0.  0.
        -11    1    3    3    0    0 -0.13503192424E+03  0.87723193749E+02  0.57304346031E+02  0.17091742848E+03  0.00000000000E+00 0. -1.
         11    1    3    3    0    0 -0.86980970866E+01 -0.20155457546E+02  0.25538607003E+01  0.22100261680E+02  0.00000000000E+00 0. -1.
        -15    1    1    2    0    0  0.37807549692E+01 -0.81882083458E+01 -0.35710544194E+01  0.98615933153E+01  0.17770000000E+01 0.  1.
         15    1    1    2    0    0  0.13994926635E+03 -0.59379527857E+02 -0.56287152312E+02  0.16212071652E+03  0.17770000000E+01 0. -1.
</event>
<event>
 7    1  0.4268661E-005  0.1836797E+03  0.7546771E-02  0.1067520E+00
        -11   -1    0    0    0    0  0.00000000000E+00  0.00000000000E+00  0.18250000000E+03  0.18250000000E+03  0.00000000000E+00 0.  1.
         11   -1    0    0    0    0 -0.00000000000E+00 -0.00000000000E+00 -0.18250000000E+03  0.18250000000E+03  0.00000000000E+00 0. -1.
         23    2    1    2    0    0  0.67767411676E+02 -0.13801940643E+03  0.12278434463E+02  0.18132028038E+03  0.95312672225E+02 0.  0.
        -11    1    3    3    0    0  0.35288676106E+02 -0.23930947102E+02 -0.33446802789E+02  0.54191046376E+02  0.00000000000E+00 0.  1.
         11    1    3    3    0    0  0.32478735570E+02 -0.11408845933E+03  0.45725237252E+02  0.12712923400E+03  0.00000000000E+00 0. -1.
        -15    1    1    2    0    0 -0.91358558821E+02  0.12364331320E+03 -0.89332018302E+00  0.15374658019E+03  0.17770000000E+01 0.  1.
         15    1    1    2    0    0  0.23591147145E+02  0.14376093227E+02 -0.11385114280E+02  0.29933139432E+02  0.17770000000E+01 0. -1.
</event>
<event>
 7    1  0.4268661E-005  0.1937790E+03  0.7546771E-02  0.1059815E+00
        -11   -1    0    0    0    0  0.00000000000E+00  0.00000000000E+00  0.18250000000E+03  0.18250000000E+03  0.00000000000E+00 0. -1.
         11   -1    0    0    0    0 -0.00000000000E+00 -0.00000000000E+00 -0.18250000000E+03  0.18250000000E+03  0.00000000000E+00 0.  1.
         23    2    1    2    0    0  0.15199170965E+01  0.87284344593E+01  0.16905597857E+03  0.19377897616E+03  0.94296723140E+02 0.  0.
        -11    1    3    3    0    0  0.41473226260E+01  0.40144136728E+02  0.27697903600E+02  0.48948195702E+02  0.00000000000E+00 0.  1.
         11    1    3    3    0    0 -0.26274055295E+01 -0.31415702269E+02  0.14135807497E+03  0.14483078046E+03  0.00000000000E+00 0. -1.
        -15    1    1    2    0    0 -0.61484976237E+01 -0.19492063844E+01 -0.10549067361E+02  0.12491756472E+02  0.17770000000E+01 0. -1.
         15    1    1    2    0    0  0.46285805272E+01 -0.67792280749E+01 -0.15850691121E+03  0.15872926737E+03  0.17770000000E+01 0.  1.
</event>
<event>
 7    1  0.4268661E-005  0.1925270E+03  0.7546771E-02  0.1060742E+00
        -11   -1    0    0    0    0  0.00000000000E+00  0.00000000000E+00  0.18250000000E+03  0.18250000000E+03  0.00000000000E+00 0. -1.
         11   -1    0    0    0    0 -0.00000000000E+00 -0.00000000000E+00 -0.18250000000E+03  0.18250000000E+03  0.00000000000E+00 0.  1.
         23    2    1    2    0    0  0.22690453792E+02 -0.42029630468E+01 -0.16971269180E+03  0.19252698183E+03  0.87930196086E+02 0.  0.
        -11    1    3    3    0    0  0.28888631177E+02  0.37499423705E+02 -0.72747451890E+02  0.86792577712E+02  0.00000000000E+00 0. -1.
         11    1    3    3    0    0 -0.61981773845E+01 -0.41702386752E+02 -0.96965239907E+02  0.10573440412E+03  0.00000000000E+00 0.  1.
        -15    1    1    2    0    0 -0.74456099432E+01 -0.72014097503E+01  0.83905398241E+02  0.84561048910E+02  0.17770000000E+01 0.  1.
         15    1    1    2    0    0 -0.15244843849E+02  0.11404372797E+02  0.85807293556E+02  0.87911969260E+02  0.17770000000E+01 0. -1.
</event>
<event>
 7    1  0.4268661E-005  0.2058235E+03  0.7546771E-02  0.1051270E+00
        -11   -1    0    0    0    0  0.00000000000E+00  0.00000000000E+00  0.18250000000E+03  0.18250000000E+03  0.00000000000E+00 0.  1.
         11   -1    0    0    0    0 -0.00000000000E+00 -0.00000000000E+00 -0.18250000000E+03  0.18250000000E+03  0.00000000000E+00 0. -1.
         23    2    1    2    0    0  0.10801727130E+03  0.55181405516E+02  0.48205364639E+02  0.15917649125E+03  0.91108066453E+02 0.  0.
        -11    1    3    3    0    0  0.78048411201E+01  0.42801866333E+02 -0.70458050016E+01  0.44074467377E+02  0.00000000000E+00 0. -1.
         11    1    3    3    0    0  0.10021243018E+03  0.12379539183E+02  0.55251169641E+02  0.11510202387E+03  0.00000000000E+00 0.  1.
        -15    1    1    2    0    0 -0.52416929591E+02 -0.11003809128E+03 -0.32107180693E+02  0.12605532445E+03  0.17770000000E+01 0.  1.
         15    1    1    2    0    0 -0.55600341706E+02  0.54856685768E+02 -0.16098183947E+02  0.79768184301E+02  0.17770000000E+01 0. -1.
</event>
<event>
 7    1  0.4268661E-005  0.1933371E+03  0.7546771E-02  0.1060141E+00
        -11   -1    0    0    0    0  0.00000000000E+00  0.00000000000E+00  0.18250000000E+03  0.18250000000E+03  0.00000000000E+00 0.  1.
         11   -1    0    0    0    0 -0.00000000000E+00 -0.00000000000E+00 -0.18250000000E+03  0.18250000000E+03  0.00000000000E+00 0. -1.
         23    2    1    2    0    0 -0.16295707931E+02  0.31355946323E+02  0.16681460390E+03  0.19333712401E+03  0.91122916886E+02 0.  0.
        -11    1    3    3    0    0  0.65093243681E+01  0.47973515268E+02  0.15562622044E+03  0.16298266767E+03  0.00000000000E+00 0.  1.
         11    1    3    3    0    0 -0.22805032300E+02 -0.16617568945E+02  0.11188383457E+02  0.30354456348E+02  0.00000000000E+00 0. -1.
        -15    1    1    2    0    0  0.58894798734E+01 -0.28738507626E+02 -0.11293589732E+03  0.11669731113E+03  0.17770000000E+01 0. -1.
         15    1    1    2    0    0  0.10406228058E+02 -0.26174386975E+01 -0.53878706581E+02  0.54965564853E+02  0.17770000000E+01 0.  1.
</event>
<event>
 7    1  0.4268661E-005  0.1921388E+03  0.7546771E-02  0.1061031E+00
        -11   -1    0    0    0    0  0.00000000000E+00  0.00000000000E+00  0.18250000000E+03  0.18250000000E+03  0.00000000000E+00 0. -1.
         11   -1    0    0    0    0 -0.00000000000E+00 -0.00000000000E+00 -0.18250000000E+03  0.18250000000E+03  0.00000000000E+00 0.  1.
         23    2    1    2    0    0 -0.12909805166E+02  0.85468865103E+02  0.12072275692E+03  0.17286118618E+03  0.88517883374E+02 0.  0.
        -11    1    3    3    0    0 -0.12160756146E+02  0.24429015370E+02 -0.96178475703E+01  0.28933782571E+02  0.00000000000E+00 0.  1.
         11    1    3    3    0    0 -0.74904901958E+00  0.61039849732E+02  0.13034060449E+03  0.14392740361E+03  0.00000000000E+00 0. -1.
        -15    1    1    2    0    0  0.61594590761E+02 -0.54729778249E+02 -0.10290829133E+03  0.13184277148E+03  0.17770000000E+01 0. -1.
         15    1    1    2    0    0 -0.48684785595E+02 -0.30739086854E+02 -0.17814465596E+02  0.60296042345E+02  0.17770000000E+01 0.  1.
</event>
<event>
 7    1  0.4268661E-005  0.2662884E+03  0.7546771E-02  0.1016300E+00
        -11   -1    0    0    0    0  0.00000000000E+00  0.00000000000E+00  0.18250000000E+03  0.18250000000E+03  0.00000000000E+00 0.  1.
         11   -1    0    0    0    0 -0.00000000000E+00 -0.00000000000E+00 -0.18250000000E+03  0.18250000000E+03  0.00000000000E+00 0. -1.
         23    2    1    2    0    0  0.48489862761E-01  0.12344469773E+01  0.30269721368E+02  0.98711578720E+02  0.93947823451E+02 0.  0.
        -11    1    3    3    0    0  0.12018858895E+02 -0.41520953326E+02 -0.28509575946E+01  0.43319400890E+02  0.00000000000E+00 0.  1.
         11    1    3    3    0    0 -0.11970369032E+02  0.42755400304E+02  0.33120678962E+02  0.55392177831E+02  0.00000000000E+00 0. -1.
        -15    1    1    2    0    0 -0.12105851484E+03  0.11645235483E+02  0.37122349847E+02  0.12716918696E+03  0.17770000000E+01 0.  1.
         15    1    1    2    0    0  0.12101002498E+03 -0.12879682460E+02 -0.67392071215E+02  0.13911923432E+03  0.17770000000E+01 0. -1.
</event>
<event>
 7    1  0.4268661E-005  0.1930404E+03  0.7546771E-02  0.1060361E+00
        -11   -1    0    0    0    0  0.00000000000E+00  0.00000000000E+00  0.18250000000E+03  0.18250000000E+03  0.00000000000E+00 0. -1.
         11   -1    0    0    0    0 -0.00000000000E+00 -0.00000000000E+00 -0.18250000000E+03  0.18250000000E+03  0.00000000000E+00 0. -1.
         23    2    1    2    0    0  0.87781248271E+01 -0.16129407521E+02  0.17010000653E+03  0.19304041906E+03  0.89405692806E+02 0.  0.
        -11    1    3    3    0    0  0.22770700784E+02  0.24941525886E+02  0.12874172545E+03  0.13309777008E+03  0.00000000000E+00 0. -1.
         11    1    3    3    0    0 -0.13992575957E+02 -0.41070933407E+02  0.41358281078E+02  0.59942648978E+02  0.00000000000E+00 0. -1.
        -15    1    1    2    0    0  0.36376336713E+01  0.80243075804E+01 -0.92511305748E+02  0.92946873595E+02  0.17770000000E+01 0.  1.
         15    1    1    2    0    0 -0.12415758498E+02  0.81050999402E+01 -0.77588700782E+02  0.79012707347E+02  0.17770000000E+01 0. -1.
</event>
<event>
 7    1  0.4268661E-005  0.1914307E+03  0.7546771E-02  0.1061560E+00
        -11   -1    0    0    0    0  0.00000000000E+00  0.00000000000E+00  0.18250000000E+03  0.18250000000E+03  0.00000000000E+00 0. -1.
         11   -1    0    0    0    0 -0.00000000000E+00 -0.00000000000E+00 -0.18250000000E+03  0.18250000000E+03  0.00000000000E+00 0.  1.
         23    2    1    2    0    0 -0.31081956064E+00 -0.37840126048E+01  0.17266109813E+03  0.19143065714E+03  0.82579817911E+02 0.  0.
        -11    1    3    3    0    0 -0.32869678317E+02 -0.22973778364E+02  0.12063782869E+03  0.12712865906E+03  0.00000000000E+00 0. -1.
         11    1    3    3    0    0  0.32558858756E+02  0.19189765759E+02  0.52023269445E+02  0.64301998080E+02  0.00000000000E+00 0.  1.
        -15    1    1    2    0    0  0.12000775141E+01 -0.66818385556E+01 -0.61553557640E+02  0.61952282764E+02  0.17770000000E+01 0. -1.
         15    1    1    2    0    0 -0.88925795347E+00  0.10465851160E+02 -0.11110754049E+03  0.11161706009E+03  0.17770000000E+01 0.  1.
</event>
<event>
 7    1  0.4268661E-005  0.1925185E+03  0.7546771E-02  0.1060748E+00
        -11   -1    0    0    0    0  0.00000000000E+00  0.00000000000E+00  0.18250000000E+03  0.18250000000E+03  0.00000000000E+00 0. -1.
         11   -1    0    0    0    0 -0.00000000000E+00 -0.00000000000E+00 -0.18250000000E+03  0.18250000000E+03  0.00000000000E+00 0.  1.
         23    2    1    2    0    0  0.52065208382E+02  0.40093272637E+02  0.15666361931E+03  0.19251851882E+03  0.90562873403E+02 0.  0.
        -11    1    3    3    0    0  0.54864798582E+02 -0.61917531727E-01  0.36766637144E+02  0.66044951087E+02  0.00000000000E+00 0.  1.
         11    1    3    3    0    0 -0.27995901999E+01  0.40155190169E+02  0.11989698217E+03  0.12647356773E+03  0.00000000000E+00 0. -1.
        -15    1    1    2    0    0 -0.49573537821E+02 -0.28308901011E+02 -0.10635608536E+03  0.12072159769E+03  0.17770000000E+01 0. -1.
         15    1    1    2    0    0 -0.24916705611E+01 -0.11784371626E+02 -0.50307533954E+02  0.51759883484E+02  0.17770000000E+01 0.  1.
</event>
<event>
 7    1  0.4268661E-005  0.1857849E+03  0.7546771E-02  0.1065870E+00
        -11   -1    0    0    0    0  0.00000000000E+00  0.00000000000E+00  0.18250000000E+03  0.18250000000E+03  0.00000000000E+00 0.  1.
         11   -1    0    0    0    0 -0.00000000000E+00 -0.00000000000E+00 -0.18250000000E+03  0.18250000000E+03  0.00000000000E+00 0. -1.
         23    2    1    2    0    0  0.18667472314E+02 -0.32548559000E+02  0.14935000983E+03  0.17921513646E+03  0.91677458976E+02 0.  0.
        -11    1    3    3    0    0  0.21235039162E+02  0.26635392431E+02  0.27689824003E+02  0.43898717197E+02  0.00000000000E+00 0. -1.
         11    1    3    3    0    0 -0.25675668481E+01 -0.59183951432E+02  0.12166018583E+03  0.13531641926E+03  0.00000000000E+00 0.  1.
        -15    1    1    2    0    0 -0.34133643507E+02 -0.10796036269E+02 -0.13165451360E+03  0.13644679805E+03  0.17770000000E+01 0. -1.
         15    1    1    2    0    0  0.15466171193E+02  0.43344595269E+02 -0.17695496233E+02  0.49338065491E+02  0.17770000000E+01 0.  1.
</event>
<event>
 7    1  0.4268661E-005  0.1943908E+03  0.7546771E-02  0.1059365E+00
        -11   -1    0    0    0    0  0.00000000000E+00  0.00000000000E+00  0.18250000000E+03  0.18250000000E+03  0.00000000000E+00 0. -1.
         11   -1    0    0    0    0 -0.00000000000E+00 -0.00000000000E+00 -0.18250000000E+03  0.18250000000E+03  0.00000000000E+00 0.  1.
         23    2    1    2    0    0  0.22061713951E+02 -0.14241427531E+02  0.16788950989E+03  0.19439080778E+03  0.94400006039E+02 0.  0.
        -11    1    3    3    0    0 -0.17596286616E+02  0.21280731667E+02  0.12835431102E+02  0.30450732906E+02  0.00000000000E+00 0.  1.
         11    1    3    3    0    0  0.39658000567E+02 -0.35522159198E+02  0.15505407878E+03  0.16394007488E+03  0.00000000000E+00 0. -1.
        -15    1    1    2    0    0 -0.12677457185E+02  0.97475952467E+01 -0.13751039067E+03  0.13844854208E+03  0.17770000000E+01 0.  1.
         15    1    1    2    0    0 -0.93842567655E+01  0.44938322845E+01 -0.30379119219E+02  0.32160650136E+02  0.17770000000E+01 0. -1.
</event>
<event>
 7    1  0.4268661E-005  0.1892944E+03  0.7546771E-02  0.1063171E+00
        -11   -1    0    0    0    0  0.00000000000E+00  0.00000000000E+00  0.18250000000E+03  0.18250000000E+03  0.00000000000E+00 0. -1.
         11   -1    0    0    0    0 -0.00000000000E+00 -0.00000000000E+00 -0.18250000000E+03  0.18250000000E+03  0.00000000000E+00 0. -1.
         23    2    1    2    0    0 -0.11874102215E+03 -0.85878887068E+02  0.77401752423E+02  0.18929444090E+03  0.91469888446E+02 0.  0.
        -11    1    3    3    0    0 -0.17745142808E+02 -0.12653633269E+02  0.59377319719E+02  0.63250854739E+02  0.00000000000E+00 0. -1.
         11    1    3    3    0    0 -0.10099587934E+03 -0.73225253800E+02  0.18024432704E+02  0.12604358616E+03  0.00000000000E+00 0. -1.
        -15    1    1    2    0    0  0.65285609943E+02  0.56129906239E+02 -0.13401552225E+02  0.87152375590E+02  0.17770000000E+01 0. -1.
         15    1    1    2    0    0  0.53455412210E+02  0.29748980830E+02 -0.64000200198E+02  0.88553183508E+02  0.17770000000E+01 0.  1.
</event>
