<event>
 7    1  0.6581077E-006  0.5019468E+03  0.7546771E-02  0.9395464E-01
        -11   -1    0    0    0    0  0.00000000000E+00  0.00000000000E+00  0.50000000000E+03  0.50000000000E+03  0.00000000000E+00 0.  1.
         11   -1    0    0    0    0 -0.00000000000E+00 -0.00000000000E+00 -0.50000000000E+03  0.50000000000E+03  0.00000000000E+00 0. -1.
         23    2    1    2    0    0 -0.97365468611E+01 -0.11113864398E+02  0.49373884284E+03  0.50194679694E+03  0.89186454722E+02 0.  0.
        -11    1    3    3    0    0  0.21459673608E+02 -0.32572649135E+02  0.11745210669E+03  0.12375981751E+03  0.00000000000E+00 0. -1.
         11    1    3    3    0    0 -0.31196220469E+02  0.21458784737E+02  0.37628673615E+03  0.37818697943E+03  0.00000000000E+00 0.  1.
        -15    1    1    2    0    0 -0.88642175964E+01  0.34176714369E+02 -0.29481436220E+03  0.29692640174E+03  0.17770000000E+01 0. -1.
         15    1    1    2    0    0  0.18600764457E+02 -0.23062849971E+02 -0.19892448063E+03  0.20112680133E+03  0.17770000000E+01 0.  1.
</event>
<event>
 7    1  0.6581077E-006  0.1000000E+04  0.7546771E-02  0.8684367E-01
        -11   -1    0    0    0    0  0.00000000000E+00  0.00000000000E+00  0.50000000000E+03  0.50000000000E+03  0.00000000000E+00 0. -1.
         11   -1    0    0    0    0 -0.00000000000E+00 -0.00000000000E+00 -0.50000000000E+03  0.50000000000E+03  0.00000000000E+00 0.  1.
         23    2    1    2    0    0 -0.34837761586E+02 -0.90849094339E+02  0.77657689236E+02  0.15557936672E+03  0.93311280550E+02 0.  0.
        -11    1    3    3    0    0 -0.51056578525E+01 -0.69040545202E+02 -0.42265089949E+00  0.69230363697E+02  0.00000000000E+00 0. -1.
         11    1    3    3    0    0 -0.29732103734E+02 -0.21808549137E+02  0.78080340135E+02  0.86349003026E+02  0.00000000000E+00 0.  1.
        -15    1    1    2    0    0  0.16472333846E+03  0.43017617907E+03  0.40334500960E+02  0.46240172250E+03  0.17770000000E+01 0. -1.
         15    1    1    2    0    0 -0.12988557687E+03 -0.33932708474E+03 -0.11799219020E+03  0.38201891078E+03  0.17770000000E+01 0.  1.
</event>
<event>
 7    1  0.6978911E-006  0.5005192E+03  0.7546771E-02  0.9398649E-01
        -11   -1    0    0    0    0  0.00000000000E+00  0.00000000000E+00  0.50000000000E+03  0.50000000000E+03  0.00000000000E+00 0. -1.
         11   -1    0    0    0    0 -0.00000000000E+00 -0.00000000000E+00 -0.50000000000E+03  0.50000000000E+03  0.00000000000E+00 0.  1.
         23    2    1    2    0    0 -0.12185569382E+02  0.87680634788E+02 -0.48773768534E+03  0.50051920643E+03  0.69246259732E+02 0.  0.
        -11    1    3    3    0    0 -0.32843205720E+02  0.69534379471E+02 -0.42670091985E+03  0.43357511586E+03  0.00000000000E+00 0.  1.
         11    1    3    3    0    0  0.20657636337E+02  0.18146255317E+02 -0.61036765489E+02  0.66944090571E+02  0.00000000000E+00 0. -1.
        -15    1    1    2    0    0  0.20382045587E+01  0.92134158370E+01  0.61666748117E+02  0.62409829847E+02  0.17770000000E+01 0.  1.
         15    1    1    2    0    0  0.10147364824E+02 -0.96894050625E+02  0.42607093722E+03  0.43707096373E+03  0.17770000000E+01 0. -1.
</event>
<event>
 7    1  0.6581077E-006  0.1000000E+04  0.7546771E-02  0.8684367E-01
        -11   -1    0    0    0    0  0.00000000000E+00  0.00000000000E+00  0.50000000000E+03  0.50000000000E+03  0.00000000000E+00 0. -1.
         11   -1    0    0    0    0 -0.00000000000E+00 -0.00000000000E+00 -0.50000000000E+03  0.50000000000E+03  0.00000000000E+00 0.  1.
         23    2    1    2    0    0 -0.20556220701E+03  0.20502898015E+03 -0.91840077004E+02  0.31683790756E+03  0.87515463009E+02 0.  0.
        -11    1    3    3    0    0 -0.16086499161E+03  0.19114864414E+03 -0.51575854711E+02  0.25509884059E+03  0.00000000000E+00 0. -1.
         11    1    3    3    0    0 -0.44697215407E+02  0.13880336012E+02 -0.40264222293E+02  0.61739066966E+02  0.00000000000E+00 0.  1.
        -15    1    1    2    0    0  0.21934978529E+02  0.18954790849E+03 -0.90620620013E+02  0.21124584587E+03  0.17770000000E+01 0. -1.
         15    1    1    2    0    0  0.18362722848E+03 -0.39457688865E+03  0.18246069702E+03  0.47191624657E+03  0.17770000000E+01 0.  1.
</event>
<event>
 7    1  0.6581077E-006  0.5018226E+03  0.7546771E-02  0.9395741E-01
        -11   -1    0    0    0    0  0.00000000000E+00  0.00000000000E+00  0.50000000000E+03  0.50000000000E+03  0.00000000000E+00 0.  1.
         11   -1    0    0    0    0 -0.00000000000E+00 -0.00000000000E+00 -0.50000000000E+03  0.50000000000E+03  0.00000000000E+00 0. -1.
         23    2    1    2    0    0  0.22036839963E+03  0.12810091659E+03  0.42292035966E+03  0.50182256590E+03  0.89398996923E+02 0.  0.
        -11    1    3    3    0    0  0.21119466787E+03  0.10289619087E+03  0.32981430436E+03  0.40492998060E+03  0.00000000000E+00 0.  1.
         11    1    3    3    0    0  0.91737317607E+01  0.25204725728E+02  0.93106055293E+02  0.96892585298E+02  0.00000000000E+00 0. -1.
        -15    1    1    2    0    0 -0.14663487285E+03 -0.11708226973E+03 -0.28174993065E+03  0.33852064187E+03  0.17770000000E+01 0. -1.
         15    1    1    2    0    0 -0.73733526783E+02 -0.11018646861E+02 -0.14117042900E+03  0.15965679223E+03  0.17770000000E+01 0.  1.
</event>
<event>
 7    1  0.6581077E-006  0.5266337E+03  0.7546771E-02  0.9342111E-01
        -11   -1    0    0    0    0  0.00000000000E+00  0.00000000000E+00  0.50000000000E+03  0.50000000000E+03  0.00000000000E+00 0.  1.
         11   -1    0    0    0    0 -0.00000000000E+00 -0.00000000000E+00 -0.50000000000E+03  0.50000000000E+03  0.00000000000E+00 0. -1.
         23    2    1    2    0    0 -0.71153587277E+02  0.37585116665E+03 -0.26257344011E+03  0.47336625959E+03  0.93828949724E+02 0.  0.
        -11    1    3    3    0    0 -0.28678366956E+02  0.14247422931E+03 -0.15633259923E+03  0.21345078199E+03  0.00000000000E+00 0.  1.
         11    1    3    3    0    0 -0.42475220320E+02  0.23337693734E+03 -0.10624084088E+03  0.25991547760E+03  0.00000000000E+00 0. -1.
        -15    1    1    2    0    0 -0.25115044252E+02 -0.34799139820E+03  0.16212408405E+03  0.38472867716E+03  0.17770000000E+01 0.  1.
         15    1    1    2    0    0  0.96268631529E+02 -0.27859768453E+02  0.10044935606E+03  0.14190506326E+03  0.17770000000E+01 0. -1.
</event>
<event>
 7    1  0.6581077E-006  0.1000000E+04  0.7546771E-02  0.8684367E-01
        -11   -1    0    0    0    0  0.00000000000E+00  0.00000000000E+00  0.50000000000E+03  0.50000000000E+03  0.00000000000E+00 0. -1.
         11   -1    0    0    0    0 -0.00000000000E+00 -0.00000000000E+00 -0.50000000000E+03  0.50000000000E+03  0.00000000000E+00 0.  1.
         23    2    1    2    0    0 -0.69793588236E+02  0.27982622878E+03 -0.22024540934E+03  0.37406817121E+03  0.90802495065E+02 0.  0.
        -11    1    3    3    0    0 -0.42363952452E+02  0.25767992682E+03 -0.16620231016E+03  0.30954298095E+03  0.00000000000E+00 0.  1.
         11    1    3    3    0    0 -0.27429635784E+02  0.22146301956E+02 -0.54043099178E+02  0.64525190262E+02  0.00000000000E+00 0. -1.
        -15    1    1    2    0    0  0.69731321335E+02 -0.38614222992E+03  0.12541098004E+02  0.39259230223E+03  0.17770000000E+01 0. -1.
         15    1    1    2    0    0  0.62266900763E-01  0.10631600114E+03  0.20770431133E+03  0.23333952655E+03  0.17770000000E+01 0.  1.
</event>
<event>
 7    1  0.6581077E-006  0.5035331E+03  0.7546771E-02  0.9391939E-01
        -11   -1    0    0    0    0  0.00000000000E+00  0.00000000000E+00  0.50000000000E+03  0.50000000000E+03  0.00000000000E+00 0. -1.
         11   -1    0    0    0    0 -0.00000000000E+00 -0.00000000000E+00 -0.50000000000E+03  0.50000000000E+03  0.00000000000E+00 0.  1.
         23    2    1    2    0    0  0.65686722252E+02 -0.56864289778E+02  0.48765516751E+03  0.50353308740E+03  0.90497042891E+02 0.  0.
        -11    1    3    3    0    0  0.72992441459E+02 -0.54239233858E+02  0.25468177444E+03  0.27043039258E+03  0.00000000000E+00 0. -1.
         11    1    3    3    0    0 -0.73057192075E+01 -0.26250559200E+01  0.23297339307E+03  0.23310269482E+03  0.00000000000E+00 0.  1.
        -15    1    1    2    0    0 -0.30500677111E+02  0.46053756486E+02 -0.25588986539E+03  0.26179003176E+03  0.17770000000E+01 0.  1.
         15    1    1    2    0    0 -0.35186045141E+02  0.10810533292E+02 -0.23176530212E+03  0.23467688084E+03  0.17770000000E+01 0. -1.
</event>
<event>
 7    1  0.6581077E-006  0.5002823E+03  0.7546771E-02  0.9399178E-01
        -11   -1    0    0    0    0  0.00000000000E+00  0.00000000000E+00  0.50000000000E+03  0.50000000000E+03  0.00000000000E+00 0. -1.
         11   -1    0    0    0    0 -0.00000000000E+00 -0.00000000000E+00 -0.50000000000E+03  0.50000000000E+03  0.00000000000E+00 0.  1.
         23    2    1    2    0    0 -0.57452321505E+02  0.55532889823E+02 -0.48538859097E+03  0.49971774593E+03  0.87926504896E+02 0.  0.
        -11    1    3    3    0    0  0.96319127246E+01  0.48907905953E+02 -0.16747749328E+03  0.17473828362E+03  0.00000000000E+00 0.  1.
         11    1    3    3    0    0 -0.67084234230E+02  0.66249838700E+01 -0.31791109769E+03  0.32497946232E+03  0.00000000000E+00 0. -1.
        -15    1    1    2    0    0  0.60815808087E+02 -0.13416280913E+02  0.15276656810E+03  0.16498285113E+03  0.17770000000E+01 0.  1.
         15    1    1    2    0    0 -0.33634865820E+01 -0.42116608910E+02  0.33262202286E+03  0.33529940294E+03  0.17770000000E+01 0. -1.
</event>
<event>
 7    1  0.6581077E-006  0.7941865E+03  0.7546771E-02  0.8909606E-01
        -11   -1    0    0    0    0  0.00000000000E+00  0.00000000000E+00  0.50000000000E+03  0.50000000000E+03  0.00000000000E+00 0.  1.
         11   -1    0    0    0    0 -0.00000000000E+00 -0.00000000000E+00 -0.50000000000E+03  0.50000000000E+03  0.00000000000E+00 0. -1.
         23    2    1    2    0    0  0.87494458537E+02  0.71719664411E+02  0.14700063821E+03  0.20581352096E+03  0.89168532776E+02 0.  0.
        -11    1    3    3    0    0  0.49710098607E+02 -0.17607737167E+01  0.18559338769E+02  0.53090896425E+02  0.00000000000E+00 0. -1.
         11    1    3    3    0    0  0.37784359930E+02  0.73480438128E+02  0.12844129944E+03  0.15272262453E+03  0.00000000000E+00 0.  1.
        -15    1    1    2    0    0  0.28814698253E+03  0.14551732307E+03 -0.15950724697E+03  0.36006901341E+03  0.17770000000E+01 0.  1.
         15    1    1    2    0    0 -0.37564144106E+03 -0.21723698748E+03  0.12506608763E+02  0.43411746563E+03  0.17770000000E+01 0. -1.
</event>
<event>
 7    1  0.6581077E-006  0.5024929E+03  0.7546771E-02  0.9394249E-01
        -11   -1    0    0    0    0  0.00000000000E+00  0.00000000000E+00  0.50000000000E+03  0.50000000000E+03  0.00000000000E+00 0.  1.
         11   -1    0    0    0    0 -0.00000000000E+00 -0.00000000000E+00 -0.50000000000E+03  0.50000000000E+03  0.00000000000E+00 0.  1.
         23    2    1    2    0    0  0.65555423940E+01 -0.12592903448E+02  0.49343052415E+03  0.50249293439E+03  0.93935672627E+02 0.  0.
        -11    1    3    3    0    0  0.20879810647E+02  0.25106021158E+02  0.39172395587E+03  0.39308260759E+03  0.00000000000E+00 0.  1.
         11    1    3    3    0    0 -0.14324268253E+02 -0.37698924606E+02  0.10170656829E+03  0.10941032680E+03  0.00000000000E+00 0.  1.
        -15    1    1    2    0    0 -0.11860245591E+02  0.52457488221E+00 -0.47284758333E+03  0.47299993170E+03  0.17770000000E+01 0.  1.
         15    1    1    2    0    0  0.53047031967E+01  0.12068328566E+02 -0.20582940825E+02  0.24507133908E+02  0.17770000000E+01 0. -1.
</event>
<event>
 7    1  0.6581077E-006  0.5034159E+03  0.7546771E-02  0.9392199E-01
        -11   -1    0    0    0    0  0.00000000000E+00  0.00000000000E+00  0.50000000000E+03  0.50000000000E+03  0.00000000000E+00 0. -1.
         11   -1    0    0    0    0 -0.00000000000E+00 -0.00000000000E+00 -0.50000000000E+03  0.50000000000E+03  0.00000000000E+00 0.  1.
         23    2    1    2    0    0 -0.19038745795E+03 -0.96280964878E+02 -0.44630467287E+03  0.50341590106E+03  0.93393254969E+02 0.  0.
        -11    1    3    3    0    0 -0.57272142636E+02 -0.51168169037E+02 -0.25310060055E+03  0.26449611310E+03  0.00000000000E+00 0.  1.
         11    1    3    3    0    0 -0.13311531532E+03 -0.45112795840E+02 -0.19320407232E+03  0.23891978796E+03  0.00000000000E+00 0. -1.
        -15    1    1    2    0    0  0.50615650990E+02  0.16676592648E+02  0.15356711818E+03  0.16256097436E+03  0.17770000000E+01 0. -1.
         15    1    1    2    0    0  0.13977180696E+03  0.79604372229E+02  0.29273755469E+03  0.33402312458E+03  0.17770000000E+01 0.  1.
</event>
<event>
 6    1  0.6581077E-006  0.1000000E+04  0.7546771E-02  0.8684367E-01
        -11   -1    0    0    0    0  0.00000000000E+00  0.00000000000E+00  0.50000000000E+03  0.50000000000E+03  0.00000000000E+00 0.  1.
         11   -1    0    0    0    0 -0.00000000000E+00 -0.00000000000E+00 -0.50000000000E+03  0.50000000000E+03  0.00000000000E+00 0. -1.
        -11    1    1    2    0    0 -0.86704602554E+01 -0.13352291872E+03 -0.26902848830E+02  0.13648190349E+03  0.00000000000E+00 0.  1.
         11    1    1    2    0    0 -0.55738408325E+02 -0.18820790736E+03 -0.22471250135E+03  0.29837006354E+03  0.00000000000E+00 0. -1.
        -15    1    1    2    0    0 -0.54429143976E+01  0.39431966101E+03  0.24479832958E+03  0.46416268729E+03  0.17770000000E+01 0.  1.
         15    1    1    2    0    0  0.69851782978E+02 -0.72588834934E+02  0.68170205996E+01  0.10098534567E+03  0.17770000000E+01 0. -1.
</event>
<event>
 7    1  0.6581077E-006  0.5506291E+03  0.7546771E-02  0.9293146E-01
        -11   -1    0    0    0    0  0.00000000000E+00  0.00000000000E+00  0.50000000000E+03  0.50000000000E+03  0.00000000000E+00 0.  1.
         11   -1    0    0    0    0 -0.00000000000E+00 -0.00000000000E+00 -0.50000000000E+03  0.50000000000E+03  0.00000000000E+00 0. -1.
         23    2    1    2    0    0  0.66981901477E+02 -0.14136587630E+02  0.43598833826E+03  0.44937089600E+03  0.84628321681E+02 0.  0.
        -11    1    3    3    0    0  0.70328826925E+02  0.18100404292E+02  0.35052072069E+03  0.35796444539E+03  0.00000000000E+00 0.  1.
         11    1    3    3    0    0 -0.33469254482E+01 -0.32236991922E+02  0.85467617579E+02  0.91406450608E+02  0.00000000000E+00 0. -1.
        -15    1    1    2    0    0  0.14203554355E+02 -0.15064312156E+03 -0.17311535120E+03  0.22992862714E+03  0.17770000000E+01 0. -1.
         15    1    1    2    0    0 -0.81185455832E+02  0.16477970919E+03 -0.26287298707E+03  0.32070047686E+03  0.17770000000E+01 0.  1.
</event>
<event>
 7    1  0.6581077E-006  0.5229616E+03  0.7546771E-02  0.9349848E-01
        -11   -1    0    0    0    0  0.00000000000E+00  0.00000000000E+00  0.50000000000E+03  0.50000000000E+03  0.00000000000E+00 0.  1.
         11   -1    0    0    0    0 -0.00000000000E+00 -0.00000000000E+00 -0.50000000000E+03  0.50000000000E+03  0.00000000000E+00 0. -1.
         23    2    1    2    0    0 -0.47441828640E+01  0.14460593088E+03  0.44512524432E+03  0.47703835172E+03  0.92172248360E+02 0.  0.
        -11    1    3    3    0    0 -0.15477685611E+01 -0.74638360660E+01  0.11223877924E+01  0.77048160715E+01  0.00000000000E+00 0. -1.
         11    1    3    3    0    0 -0.31964143029E+01  0.15206976694E+03  0.44400285653E+03  0.46933353565E+03  0.00000000000E+00 0.  1.
        -15    1    1    2    0    0  0.78738055619E+01  0.92300402385E+01  0.25242717628E+02  0.28063196166E+02  0.17770000000E+01 0.  1.
         15    1    1    2    0    0 -0.31296226980E+01 -0.15383597111E+03 -0.47036796195E+03  0.49489845211E+03  0.17770000000E+01 0. -1.
</event>
<event>
 7    1  0.6581077E-006  0.5039311E+03  0.7546771E-02  0.9391056E-01
        -11   -1    0    0    0    0  0.00000000000E+00  0.00000000000E+00  0.50000000000E+03  0.50000000000E+03  0.00000000000E+00 0. -1.
         11   -1    0    0    0    0 -0.00000000000E+00 -0.00000000000E+00 -0.50000000000E+03  0.50000000000E+03  0.00000000000E+00 0.  1.
         23    2    1    2    0    0  0.86218163637E-01  0.65524920694E+00  0.49563799176E+03  0.50393106241E+03  0.91044274989E+02 0.  0.
        -11    1    3    3    0    0 -0.22281697350E+02  0.21620423800E+02  0.43381165911E+03  0.43492122544E+03  0.00000000000E+00 0. -1.
         11    1    3    3    0    0  0.22367915513E+02 -0.20965174593E+02  0.61826332650E+02  0.69009836973E+02  0.00000000000E+00 0.  1.
        -15    1    1    2    0    0  0.16107023173E+01  0.58544425107E+01 -0.43290987540E+03  0.43295610264E+03  0.17770000000E+01 0.  1.
         15    1    1    2    0    0 -0.16969204809E+01 -0.65096917176E+01 -0.62728116353E+02  0.63112834952E+02  0.17770000000E+01 0.  1.
</event>
<event>
 7    1  0.6581077E-006  0.5044886E+03  0.7546771E-02  0.9389822E-01
        -11   -1    0    0    0    0  0.00000000000E+00  0.00000000000E+00  0.50000000000E+03  0.50000000000E+03  0.00000000000E+00 0. -1.
         11   -1    0    0    0    0 -0.00000000000E+00 -0.00000000000E+00 -0.50000000000E+03  0.50000000000E+03  0.00000000000E+00 0.  1.
         23    2    1    2    0    0  0.85563989403E+02 -0.15274196466E+03 -0.45468251924E+03  0.49551142860E+03  0.90244548426E+02 0.  0.
        -11    1    3    3    0    0  0.40277353567E+01 -0.58182526426E+02 -0.24162259947E+03  0.24856168170E+03  0.00000000000E+00 0. -1.
         11    1    3    3    0    0  0.81536254047E+02 -0.94559438234E+02 -0.21305991976E+03  0.24694974690E+03  0.00000000000E+00 0.  1.
        -15    1    1    2    0    0 -0.71215594243E+02  0.17528155499E+03  0.36839834999E+03  0.41414464428E+03  0.17770000000E+01 0. -1.
         15    1    1    2    0    0 -0.14348395160E+02 -0.22539590329E+02  0.86284169249E+02  0.90343927122E+02  0.17770000000E+01 0.  1.
</event>
<event>
 7    1  0.6581077E-006  0.5017690E+03  0.7546771E-02  0.9395860E-01
        -11   -1    0    0    0    0  0.00000000000E+00  0.00000000000E+00  0.50000000000E+03  0.50000000000E+03  0.00000000000E+00 0. -1.
         11   -1    0    0    0    0 -0.00000000000E+00 -0.00000000000E+00 -0.50000000000E+03  0.50000000000E+03  0.00000000000E+00 0.  1.
         23    2    1    2    0    0  0.23561871916E+03  0.82135925699E+02 -0.42568025171E+03  0.50176901279E+03  0.91137118647E+02 0.  0.
        -11    1    3    3    0    0  0.44306201011E+02 -0.17225702811E+02 -0.10626265447E+03  0.11641097895E+03  0.00000000000E+00 0. -1.
         11    1    3    3    0    0  0.19131251815E+03  0.99361628510E+02 -0.31941759724E+03  0.38535803384E+03  0.00000000000E+00 0.  1.
        -15    1    1    2    0    0 -0.17208273588E+03 -0.87491095341E+02  0.29108335311E+03  0.34928474908E+03  0.17770000000E+01 0.  1.
         15    1    1    2    0    0 -0.63535983275E+02  0.53551696424E+01  0.13459689860E+03  0.14894623813E+03  0.17770000000E+01 0. -1.
</event>
<event>
 6    1  0.6581077E-006  0.3505991E+03  0.7546771E-02  0.9814800E-01
        -11   -1    0    0    0    0  0.00000000000E+00  0.00000000000E+00  0.50000000000E+03  0.50000000000E+03  0.00000000000E+00 0.  1.
         11   -1    0    0    0    0 -0.00000000000E+00 -0.00000000000E+00 -0.50000000000E+03  0.50000000000E+03  0.00000000000E+00 0. -1.
        -11    1    1    2    0    0 -0.22645050618E+03 -0.55779726772E+02  0.34984067884E+03  0.42045179300E+03  0.00000000000E+00 0.  1.
         11    1    1    2    0    0  0.25308319143E+03 -0.10556564864E+02 -0.37303177441E+02  0.25603529033E+03  0.00000000000E+00 0. -1.
        -15    1    1    2    0    0 -0.29515409901E+02  0.18082659447E+02 -0.11301051670E+03  0.11820607687E+03  0.17770000000E+01 0.  1.
         15    1    1    2    0    0  0.28827246539E+01  0.48253632189E+02 -0.19952698469E+03  0.20530683980E+03  0.17770000000E+01 0. -1.
</event>
<event>
 7    1  0.6581077E-006  0.5015618E+03  0.7546771E-02  0.9396322E-01
        -11   -1    0    0    0    0  0.00000000000E+00  0.00000000000E+00  0.50000000000E+03  0.50000000000E+03  0.00000000000E+00 0. -1.
         11   -1    0    0    0    0 -0.00000000000E+00 -0.00000000000E+00 -0.50000000000E+03  0.50000000000E+03  0.00000000000E+00 0.  1.
         23    2    1    2    0    0  0.14366845534E+03  0.12071455979E+03  0.45568813916E+03  0.50156176824E+03  0.93273239360E+02 0.  0.
        -11    1    3    3    0    0  0.16926568390E+02  0.71238449763E+02  0.17186313720E+03  0.18681103654E+03  0.00000000000E+00 0.  1.
         11    1    3    3    0    0  0.12674188695E+03  0.49476110024E+02  0.28382500196E+03  0.31475073170E+03  0.00000000000E+00 0. -1.
        -15    1    1    2    0    0 -0.13647109995E+03 -0.10364922645E+03 -0.33467116505E+03  0.37599929482E+03  0.17770000000E+01 0.  1.
         15    1    1    2    0    0 -0.71973553896E+01 -0.17065333333E+02 -0.12101697411E+03  0.12243893694E+03  0.17770000000E+01 0. -1.
</event>
<event>
 7    1  0.6581077E-006  0.5038597E+03  0.7546771E-02  0.9391214E-01
        -11   -1    0    0    0    0  0.00000000000E+00  0.00000000000E+00  0.50000000000E+03  0.50000000000E+03  0.00000000000E+00 0.  1.
         11   -1    0    0    0    0 -0.00000000000E+00 -0.00000000000E+00 -0.50000000000E+03  0.50000000000E+03  0.00000000000E+00 0. -1.
         23    2    1    2    0    0  0.10903165525E+00  0.21139731231E+01  0.49545963740E+03  0.50385971150E+03  0.91596265259E+02 0.  0.
        -11    1    3    3    0    0  0.18666793927E+02  0.41015072344E+02  0.32136743071E+03  0.32451149575E+03  0.00000000000E+00 0. -1.
         11    1    3    3    0    0 -0.18557762272E+02 -0.38901099221E+02  0.17409220669E+03  0.17934821575E+03  0.00000000000E+00 0.  1.
        -15    1    1    2    0    0 -0.11965413445E+02 -0.24185096669E+01 -0.33780572396E+03  0.33803089382E+03  0.17770000000E+01 0.  1.
         15    1    1    2    0    0  0.11856381790E+02  0.30453654376E+00 -0.15765391345E+03  0.15810939468E+03  0.17770000000E+01 0. -1.
</event>
<event>
 7    1  0.6581077E-006  0.5038370E+03  0.7546771E-02  0.9391265E-01
        -11   -1    0    0    0    0  0.00000000000E+00  0.00000000000E+00  0.50000000000E+03  0.50000000000E+03  0.00000000000E+00 0.  1.
         11   -1    0    0    0    0 -0.00000000000E+00 -0.00000000000E+00 -0.50000000000E+03  0.50000000000E+03  0.00000000000E+00 0. -1.
         23    2    1    2    0    0  0.76926263628E+02  0.70281686554E+02  0.48469404051E+03  0.50383697193E+03  0.89812114338E+02 0.  0.
        -11    1    3    3    0    0 -0.20076427750E+02  0.19850975908E+02  0.99758593393E+02  0.10367690751E+03  0.00000000000E+00 0. -1.
         11    1    3    3    0    0  0.97002691378E+02  0.50430710646E+02  0.38493544711E+03  0.40016006442E+03  0.00000000000E+00 0.  1.
        -15    1    1    2    0    0 -0.67331852753E+02 -0.58801129993E+02 -0.44015738460E+03  0.44914678250E+03  0.17770000000E+01 0. -1.
         15    1    1    2    0    0 -0.95944108751E+01 -0.11480556561E+02 -0.44536655906E+02  0.47016245568E+02  0.17770000000E+01 0.  1.
</event>
<event>
 7    1  0.6581077E-006  0.5034334E+03  0.7546771E-02  0.9392160E-01
        -11   -1    0    0    0    0  0.00000000000E+00  0.00000000000E+00  0.50000000000E+03  0.50000000000E+03  0.00000000000E+00 0. -1.
         11   -1    0    0    0    0 -0.00000000000E+00 -0.00000000000E+00 -0.50000000000E+03  0.50000000000E+03  0.00000000000E+00 0.  1.
         23    2    1    2    0    0 -0.11740802040E+01  0.11905511060E+02  0.49490550795E+03  0.50343344873E+03  0.91491288387E+02 0.  0.
        -11    1    3    3    0    0  0.53234271177E+01  0.51600199822E+02  0.26335260268E+03  0.26841295206E+03  0.00000000000E+00 0. -1.
         11    1    3    3    0    0 -0.64975073217E+01 -0.39694688762E+02  0.23155290527E+03  0.23502049667E+03  0.00000000000E+00 0.  1.
        -15    1    1    2    0    0 -0.11324933310E+02  0.78348001251E+01 -0.99094768667E+02  0.10006282583E+03  0.17770000000E+01 0. -1.
         15    1    1    2    0    0  0.12499013514E+02 -0.19740311185E+02 -0.39581073928E+03  0.39650372543E+03  0.17770000000E+01 0.  1.
</event>
<event>
 7    1  0.6581077E-006  0.5013439E+03  0.7546771E-02  0.9396808E-01
        -11   -1    0    0    0    0  0.00000000000E+00  0.00000000000E+00  0.50000000000E+03  0.50000000000E+03  0.00000000000E+00 0.  1.
         11   -1    0    0    0    0 -0.00000000000E+00 -0.00000000000E+00 -0.50000000000E+03  0.50000000000E+03  0.00000000000E+00 0. -1.
         23    2    1    2    0    0 -0.10133946286E+02  0.18152753084E+02  0.48905053179E+03  0.49865605224E+03  0.95158901186E+02 0.  0.
        -11    1    3    3    0    0  0.18369516262E+02 -0.63846887538E+01  0.19287968232E+02  0.27390310270E+02  0.00000000000E+00 0. -1.
         11    1    3    3    0    0 -0.28503462548E+02  0.24537441838E+02  0.46976256356E+03  0.47126574197E+03  0.00000000000E+00 0.  1.
        -15    1    1    2    0    0 -0.11182889573E+02  0.20822566987E+02 -0.22503571194E+02  0.32683401914E+02  0.17770000000E+01 0.  1.
         15    1    1    2    0    0  0.21316835860E+02 -0.38975320071E+02 -0.46654696060E+03  0.46866054585E+03  0.17770000000E+01 0. -1.
</event>
<event>
 7    1  0.6581077E-006  0.5031474E+03  0.7546771E-02  0.9392795E-01
        -11   -1    0    0    0    0  0.00000000000E+00  0.00000000000E+00  0.50000000000E+03  0.50000000000E+03  0.00000000000E+00 0.  1.
         11   -1    0    0    0    0 -0.00000000000E+00 -0.00000000000E+00 -0.50000000000E+03  0.50000000000E+03  0.00000000000E+00 0. -1.
         23    2    1    2    0    0 -0.78049161078E+02  0.14967108108E+03 -0.46507395673E+03  0.50314735790E+03  0.91489750685E+02 0.  0.
        -11    1    3    3    0    0 -0.29820206349E+02  0.11813945451E+03 -0.38949282807E+03  0.40810640590E+03  0.00000000000E+00 0.  1.
         11    1    3    3    0    0 -0.48228954728E+02  0.31531626567E+02 -0.75581128661E+02  0.95040952004E+02  0.00000000000E+00 0. -1.
        -15    1    1    2    0    0  0.29702997181E+02 -0.77954369189E+02  0.28690329754E+03  0.29879058149E+03  0.17770000000E+01 0. -1.
         15    1    1    2    0    0  0.48346163896E+02 -0.71716711893E+02  0.17817065919E+03  0.19806206061E+03  0.17770000000E+01 0.  1.
</event>
<event>
 7    1  0.1094051E-005  0.5704018E+03  0.7546771E-02  0.9254744E-01
        -11   -1    0    0    0    0  0.00000000000E+00  0.00000000000E+00  0.50000000000E+03  0.50000000000E+03  0.00000000000E+00 0.  1.
         11   -1    0    0    0    0 -0.00000000000E+00 -0.00000000000E+00 -0.50000000000E+03  0.50000000000E+03  0.00000000000E+00 0. -1.
         23    2    1    2    0    0  0.64044819469E+01  0.84438116082E+01 -0.42000663844E+03  0.42959822983E+03  0.89647907933E+02 0.  0.
        -11    1    3    3    0    0  0.44158131973E+02 -0.95785507389E+01 -0.27461503967E+03  0.27830758033E+03  0.00000000000E+00 0. -1.
         11    1    3    3    0    0 -0.37753650027E+02  0.18022362347E+02 -0.14539159877E+03  0.15129064950E+03  0.00000000000E+00 0.  1.
        -15    1    1    2    0    0 -0.10460880878E+03  0.15720598001E+03  0.16444632243E+03  0.25040462000E+03  0.17770000000E+01 0.  1.
         15    1    1    2    0    0  0.98204326836E+02 -0.16564979162E+03  0.25556031601E+03  0.31999715017E+03  0.17770000000E+01 0. -1.
</event>
<event>
 7    1  0.6581077E-006  0.5052621E+03  0.7546771E-02  0.9388112E-01
        -11   -1    0    0    0    0  0.00000000000E+00  0.00000000000E+00  0.50000000000E+03  0.50000000000E+03  0.00000000000E+00 0. -1.
         11   -1    0    0    0    0 -0.00000000000E+00 -0.00000000000E+00 -0.50000000000E+03  0.50000000000E+03  0.00000000000E+00 0.  1.
         23    2    1    2    0    0 -0.11243567691E+02  0.26251159132E+01  0.48638396763E+03  0.49473791786E+03  0.89793843616E+02 0.  0.
        -11    1    3    3    0    0 -0.10777615665E+02  0.43492281087E+02  0.33305021453E+03  0.33605086061E+03  0.00000000000E+00 0.  1.
         11    1    3    3    0    0 -0.46595202637E+00 -0.40867165174E+02  0.15333375310E+03  0.15868705725E+03  0.00000000000E+00 0. -1.
        -15    1    1    2    0    0 -0.26387366294E+02 -0.57299633578E+02 -0.15617461850E+03  0.16844349290E+03  0.17770000000E+01 0. -1.
         15    1    1    2    0    0  0.37630933985E+02  0.54674517664E+02 -0.33020934913E+03  0.33681858924E+03  0.17770000000E+01 0.  1.
</event>
<event>
 7    1  0.6581077E-006  0.5043815E+03  0.7546771E-02  0.9390059E-01
        -11   -1    0    0    0    0  0.00000000000E+00  0.00000000000E+00  0.50000000000E+03  0.50000000000E+03  0.00000000000E+00 0.  1.
         11   -1    0    0    0    0 -0.00000000000E+00 -0.00000000000E+00 -0.50000000000E+03  0.50000000000E+03  0.00000000000E+00 0.  1.
         23    2    1    2    0    0  0.14436642570E+02 -0.70608158002E+02  0.48837853008E+03  0.50438145735E+03  0.10340762667E+03 0.  0.
        -11    1    3    3    0    0 -0.24070142786E+02 -0.78688799973E+02  0.38664501716E+03  0.39530452604E+03  0.00000000000E+00 0.  1.
         11    1    3    3    0    0  0.38506785356E+02  0.80806419706E+01  0.10173351292E+03  0.10907693131E+03  0.00000000000E+00 0.  1.
        -15    1    1    2    0    0 -0.18975099771E+02  0.56715921441E+02 -0.45765662493E+03  0.46155118267E+03  0.17770000000E+01 0.  1.
         15    1    1    2    0    0  0.45384572014E+01  0.13892236561E+02 -0.30721905152E+02  0.34067359974E+02  0.17770000000E+01 0.  1.
</event>
<event>
 7    1  0.6581077E-006  0.5038777E+03  0.7546771E-02  0.9391175E-01
        -11   -1    0    0    0    0  0.00000000000E+00  0.00000000000E+00  0.50000000000E+03  0.50000000000E+03  0.00000000000E+00 0.  1.
         11   -1    0    0    0    0 -0.00000000000E+00 -0.00000000000E+00 -0.50000000000E+03  0.50000000000E+03  0.00000000000E+00 0. -1.
         23    2    1    2    0    0 -0.71212305195E+01 -0.44004125411E+01  0.49543395375E+03  0.50387772647E+03  0.91476145260E+02 0.  0.
        -11    1    3    3    0    0  0.87403542704E+01  0.32551694149E+02  0.84394734547E+02  0.90876167415E+02  0.00000000000E+00 0. -1.
         11    1    3    3    0    0 -0.15861584790E+02 -0.36952106690E+02  0.41103921920E+03  0.41300155905E+03  0.00000000000E+00 0.  1.
        -15    1    1    2    0    0 -0.27741432141E+01 -0.81069633151E+01 -0.25699259947E+03  0.25714154203E+03  0.17770000000E+01 0. -1.
         15    1    1    2    0    0  0.98953737337E+01  0.12507375856E+02 -0.23844135428E+03  0.23898073151E+03  0.17770000000E+01 0.  1.
</event>
<event>
 7    1  0.6581077E-006  0.1000000E+04  0.7546771E-02  0.8684367E-01
        -11   -1    0    0    0    0  0.00000000000E+00  0.00000000000E+00  0.50000000000E+03  0.50000000000E+03  0.00000000000E+00 0. -1.
         11   -1    0    0    0    0 -0.00000000000E+00 -0.00000000000E+00 -0.50000000000E+03  0.50000000000E+03  0.00000000000E+00 0.  1.
         23    2    1    2    0    0 -0.36930792660E+02  0.35096100020E+03 -0.21767502321E+03  0.42469868849E+03  0.91918731346E+02 0.  0.
        -11    1    3    3    0    0 -0.47501536610E+02  0.19635765299E+03 -0.16559433293E+03  0.26121678156E+03  0.00000000000E+00 0.  1.
         11    1    3    3    0    0  0.10570743950E+02  0.15460334720E+03 -0.52080690274E+02  0.16348190693E+03  0.00000000000E+00 0. -1.
        -15    1    1    2    0    0  0.15098594777E+02  0.84081404783E+02  0.83601979322E+02  0.11954120156E+03  0.17770000000E+01 0.  1.
         15    1    1    2    0    0  0.21832197883E+02 -0.43504240498E+03  0.13407304389E+03  0.45576010995E+03  0.17770000000E+01 0. -1.
</event>
<event>
 7    1  0.6581077E-006  0.5039400E+03  0.7546771E-02  0.9391036E-01
        -11   -1    0    0    0    0  0.00000000000E+00  0.00000000000E+00  0.50000000000E+03  0.50000000000E+03  0.00000000000E+00 0. -1.
         11   -1    0    0    0    0 -0.00000000000E+00 -0.00000000000E+00 -0.50000000000E+03  0.50000000000E+03  0.00000000000E+00 0. -1.
         23    2    1    2    0    0  0.19828455784E+01 -0.19135739299E+01  0.49580332534E+03  0.50394003915E+03  0.90150053778E+02 0.  0.
        -11    1    3    3    0    0 -0.24840311884E+02 -0.26000165560E+02  0.39941797018E+03  0.40103337094E+03  0.00000000000E+00 0. -1.
         11    1    3    3    0    0  0.26823157462E+02  0.24086591630E+02  0.96385355161E+02  0.10290666821E+03  0.00000000000E+00 0. -1.
        -15    1    1    2    0    0 -0.22228703083E+01 -0.61728725942E+01 -0.14545303020E+03  0.14561176886E+03  0.17770000000E+01 0. -1.
         15    1    1    2    0    0  0.24002472992E+00  0.80864465241E+01 -0.35035029515E+03  0.35044819199E+03  0.17770000000E+01 0.  1.
</event>
<event>
 7    1  0.6581077E-006  0.5001003E+03  0.7546771E-02  0.9399585E-01
        -11   -1    0    0    0    0  0.00000000000E+00  0.00000000000E+00  0.50000000000E+03  0.50000000000E+03  0.00000000000E+00 0.  1.
         11   -1    0    0    0    0 -0.00000000000E+00 -0.00000000000E+00 -0.50000000000E+03  0.50000000000E+03  0.00000000000E+00 0. -1.
         23    2    1    2    0    0 -0.64996241948E+01 -0.12719851931E+02 -0.49183977789E+03  0.50010027364E+03  0.89386110965E+02 0.  0.
        -11    1    3    3    0    0  0.11442702845E+02 -0.83933213571E+01 -0.87788137087E+01  0.16686846974E+02  0.00000000000E+00 0.  1.
         11    1    3    3    0    0 -0.17942327040E+02 -0.43265305741E+01 -0.48306096418E+03  0.48341342667E+03  0.00000000000E+00 0. -1.
        -15    1    1    2    0    0 -0.11285626617E+02 -0.29519558999E+02  0.89076084391E+02  0.94532937493E+02  0.17770000000E+01 0. -1.
         15    1    1    2    0    0  0.17785250812E+02  0.42239410930E+02  0.40276369350E+03  0.40536678886E+03  0.17770000000E+01 0.  1.
</event>
<event>
 7    1  0.6581077E-006  0.5563542E+03  0.7546771E-02  0.9281853E-01
        -11   -1    0    0    0    0  0.00000000000E+00  0.00000000000E+00  0.50000000000E+03  0.50000000000E+03  0.00000000000E+00 0.  1.
         11   -1    0    0    0    0 -0.00000000000E+00 -0.00000000000E+00 -0.50000000000E+03  0.50000000000E+03  0.00000000000E+00 0. -1.
         23    2    1    2    0    0  0.45621465056E+02  0.52713201711E+02  0.42824051362E+03  0.44364579497E+03  0.92583228367E+02 0.  0.
        -11    1    3    3    0    0  0.24266349475E+02  0.78180167430E+02  0.27972027285E+03  0.29145226940E+03  0.00000000000E+00 0.  1.
         11    1    3    3    0    0  0.21355115581E+02 -0.25466965720E+02  0.14852024077E+03  0.15219352556E+03  0.00000000000E+00 0. -1.
        -15    1    1    2    0    0 -0.11995864396E+03  0.52874634670E+02 -0.25695744343E+02  0.13360101893E+03  0.17770000000E+01 0.  1.
         15    1    1    2    0    0  0.74337178903E+02 -0.10558783638E+03 -0.40254476928E+03  0.42275318611E+03  0.17770000000E+01 0. -1.
</event>
<event>
 7    1  0.6581077E-006  0.5011840E+03  0.7546771E-02  0.9397164E-01
        -11   -1    0    0    0    0  0.00000000000E+00  0.00000000000E+00  0.50000000000E+03  0.50000000000E+03  0.00000000000E+00 0.  1.
         11   -1    0    0    0    0 -0.00000000000E+00 -0.00000000000E+00 -0.50000000000E+03  0.50000000000E+03  0.00000000000E+00 0. -1.
         23    2    1    2    0    0  0.29638300367E+01 -0.91296555190E+02 -0.48191168412E+03  0.49881597536E+03  0.90745031264E+02 0.  0.
        -11    1    3    3    0    0 -0.38069075423E+02 -0.17936216803E+02 -0.21131505758E+03  0.21546465125E+03  0.00000000000E+00 0.  1.
         11    1    3    3    0    0  0.41032905460E+02 -0.73360338387E+02 -0.27059662654E+03  0.28335132411E+03  0.00000000000E+00 0. -1.
        -15    1    1    2    0    0  0.12376203123E+02  0.10978910827E+03  0.34798543686E+03  0.36510798498E+03  0.17770000000E+01 0.  1.
         15    1    1    2    0    0 -0.15340033159E+02 -0.18492553078E+02  0.13392624726E+03  0.13607603967E+03  0.17770000000E+01 0. -1.
</event>
<event>
 7    1  0.6581077E-006  0.5040815E+03  0.7546771E-02  0.9390723E-01
        -11   -1    0    0    0    0  0.00000000000E+00  0.00000000000E+00  0.50000000000E+03  0.50000000000E+03  0.00000000000E+00 0.  1.
         11   -1    0    0    0    0 -0.00000000000E+00 -0.00000000000E+00 -0.50000000000E+03  0.50000000000E+03  0.00000000000E+00 0. -1.
         23    2    1    2    0    0 -0.16995988728E+02 -0.17130810371E+02  0.49521319329E+03  0.50408146204E+03  0.90992775899E+02 0.  0.
        -11    1    3    3    0    0  0.19789062408E+02  0.11640016688E+02  0.37344118952E+02  0.43836972977E+02  0.00000000000E+00 0. -1.
         11    1    3    3    0    0 -0.36785051136E+02 -0.28770827059E+02  0.45786907434E+03  0.46024448906E+03  0.00000000000E+00 0.  1.
        -15    1    1    2    0    0  0.17098929180E+02  0.15326583964E+02 -0.47315850071E+03  0.47371869509E+03  0.17770000000E+01 0. -1.
         15    1    1    2    0    0 -0.10294045161E+00  0.18042264072E+01 -0.22054692581E+02  0.22199842871E+02  0.17770000000E+01 0.  1.
</event>
<event>
 7    1  0.6581077E-006  0.5039246E+03  0.7546771E-02  0.9391071E-01
        -11   -1    0    0    0    0  0.00000000000E+00  0.00000000000E+00  0.50000000000E+03  0.50000000000E+03  0.00000000000E+00 0. -1.
         11   -1    0    0    0    0 -0.00000000000E+00 -0.00000000000E+00 -0.50000000000E+03  0.50000000000E+03  0.00000000000E+00 0.  1.
         23    2    1    2    0    0  0.96091939194E+00 -0.15526860798E+01  0.49597153637E+03  0.50392456374E+03  0.89156417904E+02 0.  0.
        -11    1    3    3    0    0 -0.35039996494E+02  0.41860918086E+01  0.39500493231E+03  0.39657814018E+03  0.00000000000E+00 0. -1.
         11    1    3    3    0    0  0.36000915886E+02 -0.57387778884E+01  0.10096660406E+03  0.10734642356E+03  0.00000000000E+00 0.  1.
        -15    1    1    2    0    0 -0.32031738843E+01 -0.29175829140E+01 -0.18891270301E+03  0.18897073768E+03  0.17770000000E+01 0. -1.
         15    1    1    2    0    0  0.22422544924E+01  0.44702689938E+01 -0.30705883337E+03  0.30710469857E+03  0.17770000000E+01 0.  1.
</event>
<event>
 7    1  0.6581077E-006  0.1000000E+04  0.7546771E-02  0.8684367E-01
        -11   -1    0    0    0    0  0.00000000000E+00  0.00000000000E+00  0.50000000000E+03  0.50000000000E+03  0.00000000000E+00 0.  1.
         11   -1    0    0    0    0 -0.00000000000E+00 -0.00000000000E+00 -0.50000000000E+03  0.50000000000E+03  0.00000000000E+00 0. -1.
         23    2    1    2    0    0 -0.18947292948E+03  0.13583738102E+03 -0.36221701593E+03  0.44019509711E+03  0.90657442096E+02 0.  0.
        -11    1    3    3    0    0 -0.32668463623E+02  0.71096771747E+02 -0.14297219771E+03  0.16298168237E+03  0.00000000000E+00 0.  1.
         11    1    3    3    0    0 -0.15680446586E+03  0.64740609274E+02 -0.21924481822E+03  0.27721341475E+03  0.00000000000E+00 0. -1.
        -15    1    1    2    0    0  0.12957620819E+03 -0.24319798274E+03  0.33517762812E+03  0.43391525977E+03  0.17770000000E+01 0.  1.
         15    1    1    2    0    0  0.59896721285E+02  0.10736060172E+03  0.27039387807E+02  0.12588964312E+03  0.17770000000E+01 0. -1.
</event>
<event>
 7    1  0.6581077E-006  0.5042308E+03  0.7546771E-02  0.9390392E-01
        -11   -1    0    0    0    0  0.00000000000E+00  0.00000000000E+00  0.50000000000E+03  0.50000000000E+03  0.00000000000E+00 0.  1.
         11   -1    0    0    0    0 -0.00000000000E+00 -0.00000000000E+00 -0.50000000000E+03  0.50000000000E+03  0.00000000000E+00 0. -1.
         23    2    1    2    0    0  0.13689886600E+02  0.96302066085E+01  0.49538809326E+03  0.50423083429E+03  0.92516038797E+02 0.  0.
        -11    1    3    3    0    0  0.19019837999E+02  0.11519764476E+02  0.49764541530E+03  0.49814196629E+03  0.00000000000E+00 0.  1.
         11    1    3    3    0    0 -0.53299513993E+01 -0.18895578677E+01 -0.22573220348E+01  0.60888680084E+01  0.00000000000E+00 0. -1.
        -15    1    1    2    0    0 -0.11054577059E+02 -0.89105826987E+01 -0.46219995348E+03  0.46242140617E+03  0.17770000000E+01 0. -1.
         15    1    1    2    0    0 -0.26353095401E+01 -0.71962390973E+00 -0.33188139782E+02  0.33347759537E+02  0.17770000000E+01 0. -1.
</event>
<event>
 7    1  0.6581077E-006  0.5015556E+03  0.7546771E-02  0.9396336E-01
        -11   -1    0    0    0    0  0.00000000000E+00  0.00000000000E+00  0.50000000000E+03  0.50000000000E+03  0.00000000000E+00 0.  1.
         11   -1    0    0    0    0 -0.00000000000E+00 -0.00000000000E+00 -0.50000000000E+03  0.50000000000E+03  0.00000000000E+00 0. -1.
         23    2    1    2    0    0 -0.18064108994E+02  0.28446804715E+02  0.49196225366E+03  0.50155556632E+03  0.91627475944E+02 0.  0.
        -11    1    3    3    0    0  0.24161683061E+02 -0.91869001360E+01  0.53038010933E+02  0.59001836126E+02  0.00000000000E+00 0. -1.
         11    1    3    3    0    0 -0.42225792055E+02  0.37633704851E+02  0.43892424273E+03  0.44255373019E+03  0.00000000000E+00 0.  1.
        -15    1    1    2    0    0  0.38567356682E+02 -0.24447557895E+02 -0.44066808642E+03  0.44303120004E+03  0.17770000000E+01 0. -1.
         15    1    1    2    0    0 -0.20503247688E+02 -0.39992468202E+01 -0.51294167236E+02  0.55413233639E+02  0.17770000000E+01 0.  1.
</event>
<event>
 7    1  0.6581077E-006  0.1000000E+04  0.7546771E-02  0.8684367E-01
        -11   -1    0    0    0    0  0.00000000000E+00  0.00000000000E+00  0.50000000000E+03  0.50000000000E+03  0.00000000000E+00 0. -1.
         11   -1    0    0    0    0 -0.00000000000E+00 -0.00000000000E+00 -0.50000000000E+03  0.50000000000E+03  0.00000000000E+00 0.  1.
         23    2    1    2    0    0  0.26546503073E+03  0.21675994848E+03 -0.21293174306E+03  0.41341744366E+03  0.90097157058E+02 0.  0.
        -11    1    3    3    0    0  0.44210841832E+02  0.17026712270E+02 -0.65607612891E+02  0.80925066176E+02  0.00000000000E+00 0.  1.
         11    1    3    3    0    0  0.22125418890E+03  0.19973323621E+03 -0.14732413017E+03  0.33249237748E+03  0.00000000000E+00 0. -1.
        -15    1    1    2    0    0 -0.17430469308E+03 -0.34613558164E+03  0.13718002078E+03  0.41111249401E+03  0.17770000000E+01 0.  1.
         15    1    1    2    0    0 -0.91160337655E+02  0.12937563315E+03  0.75751722283E+02  0.17547006233E+03  0.17770000000E+01 0. -1.
</event>
<event>
 7    1  0.6581077E-006  0.5306514E+03  0.7546771E-02  0.9333722E-01
        -11   -1    0    0    0    0  0.00000000000E+00  0.00000000000E+00  0.50000000000E+03  0.50000000000E+03  0.00000000000E+00 0.  1.
         11   -1    0    0    0    0 -0.00000000000E+00 -0.00000000000E+00 -0.50000000000E+03  0.50000000000E+03  0.00000000000E+00 0. -1.
         23    2    1    2    0    0  0.32095779462E+03  0.15026218991E+03  0.29290287399E+03  0.46934864911E+03  0.94357984232E+02 0.  0.
        -11    1    3    3    0    0  0.31920001406E+03  0.14890779788E+03  0.29952746020E+03  0.46236228291E+03  0.00000000000E+00 0.  1.
         11    1    3    3    0    0  0.17577805606E+01  0.13543920220E+01 -0.66245862083E+01  0.69863661999E+01  0.00000000000E+00 0. -1.
        -15    1    1    2    0    0 -0.10427882116E+03 -0.49065926484E+02  0.38897931251E+02  0.12164598008E+03  0.17770000000E+01 0.  1.
         15    1    1    2    0    0 -0.21667897346E+03 -0.10119626342E+03 -0.33180080524E+03  0.40900537082E+03  0.17770000000E+01 0. -1.
</event>
<event>
 7    1  0.6581077E-006  0.5025905E+03  0.7546771E-02  0.9394032E-01
        -11   -1    0    0    0    0  0.00000000000E+00  0.00000000000E+00  0.50000000000E+03  0.50000000000E+03  0.00000000000E+00 0. -1.
         11   -1    0    0    0    0 -0.00000000000E+00 -0.00000000000E+00 -0.50000000000E+03  0.50000000000E+03  0.00000000000E+00 0.  1.
         23    2    1    2    0    0 -0.59922337594E+02  0.31175543951E+02  0.48916745442E+03  0.50259045502E+03  0.93540183486E+02 0.  0.
        -11    1    3    3    0    0 -0.81780194911E+02  0.81585254869E+01  0.38590395278E+03  0.39455851606E+03  0.00000000000E+00 0. -1.
         11    1    3    3    0    0  0.21857857317E+02  0.23017018464E+02  0.10326350164E+03  0.10803193896E+03  0.00000000000E+00 0.  1.
        -15    1    1    2    0    0 -0.11271243721E+02 -0.45230536888E+01 -0.11073801594E+03  0.11141617859E+03  0.17770000000E+01 0. -1.
         15    1    1    2    0    0  0.71193581314E+02 -0.26652490262E+02 -0.37842943848E+03  0.38599336639E+03  0.17770000000E+01 0.  1.
</event>
<event>
 7    1  0.6581077E-006  0.6720139E+03  0.7546771E-02  0.9080455E-01
        -11   -1    0    0    0    0  0.00000000000E+00  0.00000000000E+00  0.50000000000E+03  0.50000000000E+03  0.00000000000E+00 0.  1.
         11   -1    0    0    0    0 -0.00000000000E+00 -0.00000000000E+00 -0.50000000000E+03  0.50000000000E+03  0.00000000000E+00 0. -1.
         23    2    1    2    0    0 -0.83212629743E+02 -0.17123922499E+03 -0.25100568039E+03  0.32798605465E+03  0.91234787948E+02 0.  0.
        -11    1    3    3    0    0  0.17646763117E+02 -0.10385710150E+02 -0.33608165232E+02  0.39354542230E+02  0.00000000000E+00 0.  1.
         11    1    3    3    0    0 -0.10085939286E+03 -0.16085351484E+03 -0.21739751515E+03  0.28863151242E+03  0.00000000000E+00 0. -1.
        -15    1    1    2    0    0 -0.18892311675E+03  0.21678707740E+03 -0.16059053132E+02  0.28800977742E+03  0.17770000000E+01 0. -1.
         15    1    1    2    0    0  0.27213574649E+03 -0.45547852413E+02  0.26706473352E+03  0.38400416794E+03  0.17770000000E+01 0.  1.
</event>
<event>
 7    1  0.6581077E-006  0.5073068E+03  0.7546771E-02  0.9383607E-01
        -11   -1    0    0    0    0  0.00000000000E+00  0.00000000000E+00  0.50000000000E+03  0.50000000000E+03  0.00000000000E+00 0.  1.
         11   -1    0    0    0    0 -0.00000000000E+00 -0.00000000000E+00 -0.50000000000E+03  0.50000000000E+03  0.00000000000E+00 0. -1.
         23    2    1    2    0    0  0.12688452797E+03 -0.41829775722E+02 -0.46583453129E+03  0.49269323359E+03  0.88856053854E+02 0.  0.
        -11    1    3    3    0    0  0.37384105114E+02 -0.58011236074E+02 -0.18217191783E+03  0.19480626907E+03  0.00000000000E+00 0.  1.
         11    1    3    3    0    0  0.89500422855E+02  0.16181460352E+02 -0.28366261346E+03  0.29788696451E+03  0.00000000000E+00 0. -1.
        -15    1    1    2    0    0 -0.15402306812E+03  0.11056465254E+02  0.31261182151E+03  0.34867557931E+03  0.17770000000E+01 0.  1.
         15    1    1    2    0    0  0.27138540148E+02  0.30773310468E+02  0.15322270978E+03  0.15863118710E+03  0.17770000000E+01 0. -1.
</event>
<event>
 7    1  0.6581077E-006  0.5018098E+03  0.7546771E-02  0.9395769E-01
        -11   -1    0    0    0    0  0.00000000000E+00  0.00000000000E+00  0.50000000000E+03  0.50000000000E+03  0.00000000000E+00 0.  1.
         11   -1    0    0    0    0 -0.00000000000E+00 -0.00000000000E+00 -0.50000000000E+03  0.50000000000E+03  0.00000000000E+00 0. -1.
         23    2    1    2    0    0  0.15821976245E+03  0.11926487091E+03 -0.45222078867E+03  0.50180977882E+03  0.89731877011E+02 0.  0.
        -11    1    3    3    0    0  0.12080550865E+03  0.12097613500E+03 -0.41576252561E+03  0.44954162640E+03  0.00000000000E+00 0. -1.
         11    1    3    3    0    0  0.37414253807E+02 -0.17112640933E+01 -0.36458263055E+02  0.52268152422E+02  0.00000000000E+00 0.  1.
        -15    1    1    2    0    0 -0.26831990505E+02 -0.31718918627E+02  0.44208942379E+02  0.60692947107E+02  0.17770000000E+01 0. -1.
         15    1    1    2    0    0 -0.13138777195E+03 -0.87545952281E+02  0.40801184629E+03  0.43749727407E+03  0.17770000000E+01 0.  1.
</event>
<event>
 7    1  0.6581077E-006  0.5306568E+03  0.7546771E-02  0.9333710E-01
        -11   -1    0    0    0    0  0.00000000000E+00  0.00000000000E+00  0.50000000000E+03  0.50000000000E+03  0.00000000000E+00 0.  1.
         11   -1    0    0    0    0 -0.00000000000E+00 -0.00000000000E+00 -0.50000000000E+03  0.50000000000E+03  0.00000000000E+00 0. -1.
         23    2    1    2    0    0 -0.22635342104E+03 -0.11525711127E+03 -0.38394657312E+03  0.46934320741E+03  0.91367403444E+02 0.  0.
        -11    1    3    3    0    0 -0.21882577669E+03 -0.78866818378E+02 -0.32503149908E+03  0.39968759173E+03  0.00000000000E+00 0. -1.
         11    1    3    3    0    0 -0.75276443458E+01 -0.36390292897E+02 -0.58915074040E+02  0.69655615679E+02  0.00000000000E+00 0.  1.
        -15    1    1    2    0    0  0.14221845694E+03  0.17702082858E+03  0.35657226307E+03  0.42274034556E+03  0.17770000000E+01 0.  1.
         15    1    1    2    0    0  0.84134964098E+02 -0.61763717309E+02  0.27374310054E+02  0.10791644703E+03  0.17770000000E+01 0. -1.
</event>
<event>
 7    1  0.6581077E-006  0.5032444E+03  0.7546771E-02  0.9392579E-01
        -11   -1    0    0    0    0  0.00000000000E+00  0.00000000000E+00  0.50000000000E+03  0.50000000000E+03  0.00000000000E+00 0.  1.
         11   -1    0    0    0    0 -0.00000000000E+00 -0.00000000000E+00 -0.50000000000E+03  0.50000000000E+03  0.00000000000E+00 0. -1.
         23    2    1    2    0    0  0.61737309579E+02  0.55353489387E+02  0.48089336658E+03  0.49675559567E+03  0.92909566935E+02 0.  0.
        -11    1    3    3    0    0  0.58307564643E+02  0.41505086622E+02  0.47647488226E+03  0.48182025460E+03  0.00000000000E+00 0.  1.
         11    1    3    3    0    0  0.34297449362E+01  0.13848402764E+02  0.44184843199E+01  0.14935341079E+02  0.00000000000E+00 0. -1.
        -15    1    1    2    0    0 -0.19382022537E+02  0.38945879095E+02 -0.11294537142E+03  0.12104651565E+03  0.17770000000E+01 0.  1.
         15    1    1    2    0    0 -0.42355287042E+02 -0.94299368481E+02 -0.36794799516E+03  0.38219788868E+03  0.17770000000E+01 0. -1.
</event>
<event>
 7    1  0.6581077E-006  0.5054289E+03  0.7546771E-02  0.9387743E-01
        -11   -1    0    0    0    0  0.00000000000E+00  0.00000000000E+00  0.50000000000E+03  0.50000000000E+03  0.00000000000E+00 0.  1.
         11   -1    0    0    0    0 -0.00000000000E+00 -0.00000000000E+00 -0.50000000000E+03  0.50000000000E+03  0.00000000000E+00 0. -1.
         23    2    1    2    0    0 -0.66737012085E+01  0.98482538572E+00 -0.48627714949E+03  0.49457112491E+03  0.89942333212E+02 0.  0.
        -11    1    3    3    0    0 -0.15640737223E+02  0.27078690379E+02 -0.62402743194E+02  0.69799645355E+02  0.00000000000E+00 0.  1.
         11    1    3    3    0    0  0.89670360149E+01 -0.26093864994E+02 -0.42387440630E+03  0.42477147955E+03  0.00000000000E+00 0. -1.
        -15    1    1    2    0    0  0.10536858226E+02  0.58903987843E+02  0.36745229370E+03  0.37229699306E+03  0.17770000000E+01 0.  1.
         15    1    1    2    0    0 -0.38631570176E+01 -0.59888813228E+02  0.11882485579E+03  0.13313188204E+03  0.17770000000E+01 0. -1.
</event>
<event>
 7    1  0.6581077E-006  0.5004748E+03  0.7546771E-02  0.9398748E-01
        -11   -1    0    0    0    0  0.00000000000E+00  0.00000000000E+00  0.50000000000E+03  0.50000000000E+03  0.00000000000E+00 0. -1.
         11   -1    0    0    0    0 -0.00000000000E+00 -0.00000000000E+00 -0.50000000000E+03  0.50000000000E+03  0.00000000000E+00 0.  1.
         23    2    1    2    0    0 -0.20806808680E+02 -0.29963676838E+02  0.48976306290E+03  0.49952515033E+03  0.91251152405E+02 0.  0.
        -11    1    3    3    0    0  0.31218263547E+02 -0.24890806612E+02  0.13025697917E+03  0.13623880818E+03  0.00000000000E+00 0.  1.
         11    1    3    3    0    0 -0.52025072227E+02 -0.50728702260E+01  0.35950608373E+03  0.36328634214E+03  0.00000000000E+00 0. -1.
        -15    1    1    2    0    0  0.57696030678E+02  0.43453157172E+01 -0.26188954224E+03  0.26821074510E+03  0.17770000000E+01 0. -1.
         15    1    1    2    0    0 -0.36889221998E+02  0.25618361120E+02 -0.22787352066E+03  0.23226410457E+03  0.17770000000E+01 0.  1.
</event>
<event>
 7    1  0.6581077E-006  0.5186633E+03  0.7546771E-02  0.9358991E-01
        -11   -1    0    0    0    0  0.00000000000E+00  0.00000000000E+00  0.50000000000E+03  0.50000000000E+03  0.00000000000E+00 0.  1.
         11   -1    0    0    0    0 -0.00000000000E+00 -0.00000000000E+00 -0.50000000000E+03  0.50000000000E+03  0.00000000000E+00 0. -1.
         23    2    1    2    0    0  0.27156212533E+03  0.36470410870E+03  0.12929007755E+03  0.48133671504E+03  0.90631309565E+02 0.  0.
        -11    1    3    3    0    0  0.18840875670E+02  0.48414015046E+02 -0.10549911883E+02  0.53011282664E+02  0.00000000000E+00 0.  1.
         11    1    3    3    0    0  0.25272124966E+03  0.31629009366E+03  0.13983998943E+03  0.42832543238E+03  0.00000000000E+00 0. -1.
        -15    1    1    2    0    0 -0.30496918091E+03 -0.32276329062E+03 -0.92434029359E+02  0.45357419524E+03  0.17770000000E+01 0.  1.
         15    1    1    2    0    0  0.33407055576E+02 -0.41940818084E+02 -0.36856048190E+02  0.65089089723E+02  0.17770000000E+01 0. -1.
</event>
<event>
 7    1  0.6581077E-006  0.5050752E+03  0.7546771E-02  0.9388525E-01
        -11   -1    0    0    0    0  0.00000000000E+00  0.00000000000E+00  0.50000000000E+03  0.50000000000E+03  0.00000000000E+00 0.  1.
         11   -1    0    0    0    0 -0.00000000000E+00 -0.00000000000E+00 -0.50000000000E+03  0.50000000000E+03  0.00000000000E+00 0.  1.
         23    2    1    2    0    0 -0.79965074523E+02 -0.62436541638E+01  0.48550111486E+03  0.50507522613E+03  0.11382554703E+03 0.  0.
        -11    1    3    3    0    0 -0.52162846315E+02  0.28024432959E+00  0.46940396632E+03  0.47229347303E+03  0.00000000000E+00 0.  1.
         11    1    3    3    0    0 -0.27802228208E+02 -0.65238984933E+01  0.16097148544E+02  0.32781753098E+02  0.00000000000E+00 0.  1.
        -15    1    1    2    0    0  0.55228293707E+02  0.16256230005E+01 -0.17790368800E+03  0.18629462421E+03  0.17770000000E+01 0. -1.
         15    1    1    2    0    0  0.24736780816E+02  0.46180311632E+01 -0.30759742686E+03  0.30863014966E+03  0.17770000000E+01 0.  1.
</event>
<event>
 7    1  0.6581077E-006  0.5034432E+03  0.7546771E-02  0.9392138E-01
        -11   -1    0    0    0    0  0.00000000000E+00  0.00000000000E+00  0.50000000000E+03  0.50000000000E+03  0.00000000000E+00 0. -1.
         11   -1    0    0    0    0 -0.00000000000E+00 -0.00000000000E+00 -0.50000000000E+03  0.50000000000E+03  0.00000000000E+00 0.  1.
         23    2    1    2    0    0 -0.11272645234E+02 -0.10742270785E+02  0.49627089046E+03  0.50344316188E+03  0.83233116077E+02 0.  0.
        -11    1    3    3    0    0 -0.42438499592E+02 -0.24330701907E+02  0.24069720879E+03  0.24561790574E+03  0.00000000000E+00 0.  1.
         11    1    3    3    0    0  0.31165854358E+02  0.13588431122E+02  0.25557368168E+03  0.25782525614E+03  0.00000000000E+00 0. -1.
        -15    1    1    2    0    0  0.72474188049E+01  0.82099346385E+01 -0.39831925890E+03  0.39847373546E+03  0.17770000000E+01 0.  1.
         15    1    1    2    0    0  0.40252264286E+01  0.25323361463E+01 -0.97951631557E+02  0.98083102663E+02  0.17770000000E+01 0.  1.
</event>
<event>
 7    1  0.6581077E-006  0.5018261E+03  0.7546771E-02  0.9395733E-01
        -11   -1    0    0    0    0  0.00000000000E+00  0.00000000000E+00  0.50000000000E+03  0.50000000000E+03  0.00000000000E+00 0. -1.
         11   -1    0    0    0    0 -0.00000000000E+00 -0.00000000000E+00 -0.50000000000E+03  0.50000000000E+03  0.00000000000E+00 0. -1.
         23    2    1    2    0    0  0.21445713546E+03 -0.15994769966E+02 -0.44691950292E+03  0.50182607122E+03  0.76450428720E+02 0.  0.
        -11    1    3    3    0    0  0.14692158687E+02  0.12740434694E+02 -0.13358474757E+02  0.23592944939E+02  0.00000000000E+00 0. -1.
         11    1    3    3    0    0  0.19976497677E+03 -0.28735204660E+02 -0.43356102816E+03  0.47823312628E+03  0.00000000000E+00 0. -1.
        -15    1    1    2    0    0 -0.13526236494E+03  0.28889613302E+02  0.31010220807E+03  0.33955419936E+03  0.17770000000E+01 0. -1.
         15    1    1    2    0    0 -0.79194770520E+02 -0.12894843336E+02  0.13681729485E+03  0.15861972942E+03  0.17770000000E+01 0.  1.
</event>
<event>
 7    1  0.6581077E-006  0.5040562E+03  0.7546771E-02  0.9390779E-01
        -11   -1    0    0    0    0  0.00000000000E+00  0.00000000000E+00  0.50000000000E+03  0.50000000000E+03  0.00000000000E+00 0.  1.
         11   -1    0    0    0    0 -0.00000000000E+00 -0.00000000000E+00 -0.50000000000E+03  0.50000000000E+03  0.00000000000E+00 0. -1.
         23    2    1    2    0    0  0.62366817256E+01  0.98179147282E+01  0.48724840836E+03  0.49594377777E+03  0.91727485556E+02 0.  0.
        -11    1    3    3    0    0  0.47134442837E+02 -0.56985277179E+01  0.21285928985E+03  0.21808990393E+03  0.00000000000E+00 0. -1.
         11    1    3    3    0    0 -0.40897761111E+02  0.15516442446E+02  0.27438911851E+03  0.27785387384E+03  0.00000000000E+00 0.  1.
        -15    1    1    2    0    0  0.18942928164E+02 -0.39569813845E+02 -0.56548172869E+02  0.71592306004E+02  0.17770000000E+01 0.  1.
         15    1    1    2    0    0 -0.25179609890E+02  0.29751899117E+02 -0.43070023549E+03  0.43246391623E+03  0.17770000000E+01 0. -1.
</event>
<event>
 7    1  0.6581077E-006  0.5016137E+03  0.7546771E-02  0.9396206E-01
        -11   -1    0    0    0    0  0.00000000000E+00  0.00000000000E+00  0.50000000000E+03  0.50000000000E+03  0.00000000000E+00 0. -1.
         11   -1    0    0    0    0 -0.00000000000E+00 -0.00000000000E+00 -0.50000000000E+03  0.50000000000E+03  0.00000000000E+00 0. -1.
         23    2    1    2    0    0 -0.62362425766E+02 -0.83521536228E+02  0.48141522035E+03  0.50161373796E+03  0.94819874306E+02 0.  0.
        -11    1    3    3    0    0  0.24282838843E+02 -0.29811970940E+02  0.15183869447E+03  0.15663141132E+03  0.00000000000E+00 0. -1.
         11    1    3    3    0    0 -0.86645264609E+02 -0.53709565288E+02  0.32957652588E+03  0.34498232664E+03  0.00000000000E+00 0. -1.
        -15    1    1    2    0    0  0.77799797041E+02  0.72860247561E+02 -0.35782399844E+03  0.37336657012E+03  0.17770000000E+01 0. -1.
         15    1    1    2    0    0 -0.15437371276E+02  0.10661288667E+02 -0.12359122191E+03  0.12501969193E+03  0.17770000000E+01 0.  1.
</event>
<event>
 7    1  0.6581077E-006  0.1000000E+04  0.7546771E-02  0.8684367E-01
        -11   -1    0    0    0    0  0.00000000000E+00  0.00000000000E+00  0.50000000000E+03  0.50000000000E+03  0.00000000000E+00 0. -1.
         11   -1    0    0    0    0 -0.00000000000E+00 -0.00000000000E+00 -0.50000000000E+03  0.50000000000E+03  0.00000000000E+00 0.  1.
         23    2    1    2    0    0 -0.11217056719E+03  0.21011880057E+03  0.65550520061E+01  0.25535123561E+03  0.91810338866E+02 0.  0.
        -11    1    3    3    0    0 -0.17779779801E+02  0.98929629693E+01  0.26141932147E+02  0.33126906020E+02  0.00000000000E+00 0. -1.
         11    1    3    3    0    0 -0.94390787386E+02  0.20022583760E+03 -0.19586880141E+02  0.22222432959E+03  0.00000000000E+00 0.  1.
        -15    1    1    2    0    0  0.17477436755E+03 -0.44421543588E+03 -0.94921926156E+02  0.48671014251E+03  0.17770000000E+01 0. -1.
         15    1    1    2    0    0 -0.62603800365E+02  0.23409663531E+03  0.88366874150E+02  0.25793862188E+03  0.17770000000E+01 0.  1.
</event>
<event>
 7    1  0.6581077E-006  0.5037175E+03  0.7546771E-02  0.9391530E-01
        -11   -1    0    0    0    0  0.00000000000E+00  0.00000000000E+00  0.50000000000E+03  0.50000000000E+03  0.00000000000E+00 0. -1.
         11   -1    0    0    0    0 -0.00000000000E+00 -0.00000000000E+00 -0.50000000000E+03  0.50000000000E+03  0.00000000000E+00 0.  1.
         23    2    1    2    0    0  0.58125820976E+00 -0.78864922052E+01  0.49566642504E+03  0.50371754251E+03  0.89351122538E+02 0.  0.
        -11    1    3    3    0    0  0.21499789900E+02 -0.49530961314E+01  0.28347701129E+02  0.35921668758E+02  0.00000000000E+00 0.  1.
         11    1    3    3    0    0 -0.20918531691E+02 -0.29333960738E+01  0.46731872391E+03  0.46779587375E+03  0.00000000000E+00 0. -1.
        -15    1    1    2    0    0 -0.60602471101E+01 -0.36770951602E+01 -0.62875838130E+02  0.63299102469E+02  0.17770000000E+01 0. -1.
         15    1    1    2    0    0  0.54789889003E+01  0.11563587365E+02 -0.43279058691E+03  0.43298335502E+03  0.17770000000E+01 0.  1.
</event>
<event>
 7    1  0.6581077E-006  0.5025877E+03  0.7546771E-02  0.9394038E-01
        -11   -1    0    0    0    0  0.00000000000E+00  0.00000000000E+00  0.50000000000E+03  0.50000000000E+03  0.00000000000E+00 0.  1.
         11   -1    0    0    0    0 -0.00000000000E+00 -0.00000000000E+00 -0.50000000000E+03  0.50000000000E+03  0.00000000000E+00 0. -1.
         23    2    1    2    0    0 -0.10678541456E+03  0.10845380932E+03  0.46472221651E+03  0.49741230485E+03  0.91032461123E+02 0.  0.
        -11    1    3    3    0    0 -0.42562867443E+02  0.74576966599E+01  0.51607320071E+02  0.67309214892E+02  0.00000000000E+00 0. -1.
         11    1    3    3    0    0 -0.64222547120E+02  0.10099611266E+03  0.41311489644E+03  0.43010308996E+03  0.00000000000E+00 0.  1.
        -15    1    1    2    0    0  0.31639558442E+02  0.20320572819E+02 -0.14497713030E+03  0.14978489035E+03  0.17770000000E+01 0.  1.
         15    1    1    2    0    0  0.75145856121E+02 -0.12877438214E+03 -0.31974508622E+03  0.35280280480E+03  0.17770000000E+01 0. -1.
</event>
<event>
 6    1  0.6581077E-006  0.4857205E+03  0.7546771E-02  0.9432341E-01
        -11   -1    0    0    0    0  0.00000000000E+00  0.00000000000E+00  0.50000000000E+03  0.50000000000E+03  0.00000000000E+00 0. -1.
         11   -1    0    0    0    0 -0.00000000000E+00 -0.00000000000E+00 -0.50000000000E+03  0.50000000000E+03  0.00000000000E+00 0. -1.
        -11    1    1    2    0    0  0.14920382440E+02 -0.24359559882E+02  0.14515485145E+02  0.32042242101E+02  0.00000000000E+00 0. -1.
         11    1    1    2    0    0  0.68119201749E+02  0.44052925367E+02  0.46750458431E+03  0.47449069773E+03  0.00000000000E+00 0. -1.
        -15    1    1    2    0    0 -0.92969872146E+02 -0.14967398098E+02 -0.41743046278E+03  0.42792378891E+03  0.17770000000E+01 0. -1.
         15    1    1    2    0    0  0.99302879565E+01 -0.47259673865E+01 -0.64589606680E+02  0.65543271254E+02  0.17770000000E+01 0.  1.
</event>
<event>
 7    1  0.6581077E-006  0.5336771E+03  0.7546771E-02  0.9327455E-01
        -11   -1    0    0    0    0  0.00000000000E+00  0.00000000000E+00  0.50000000000E+03  0.50000000000E+03  0.00000000000E+00 0. -1.
         11   -1    0    0    0    0 -0.00000000000E+00 -0.00000000000E+00 -0.50000000000E+03  0.50000000000E+03  0.00000000000E+00 0.  1.
         23    2    1    2    0    0  0.44508715012E+02  0.28660205135E+03  0.35235359183E+03  0.46632291897E+03  0.95824055088E+02 0.  0.
        -11    1    3    3    0    0  0.42951339470E+02  0.29312625178E+03  0.33234607090E+03  0.44522098770E+03  0.00000000000E+00 0. -1.
         11    1    3    3    0    0  0.15573755423E+01 -0.65242004268E+01  0.20007520931E+02  0.21101931277E+02  0.00000000000E+00 0.  1.
        -15    1    1    2    0    0 -0.30012529464E+02 -0.18208904492E+03 -0.38184423536E+03  0.42410535250E+03  0.17770000000E+01 0.  1.
         15    1    1    2    0    0 -0.14496185548E+02 -0.10451300643E+03  0.29490643534E+02  0.10957172853E+03  0.17770000000E+01 0. -1.
</event>
<event>
 7    1  0.6581077E-006  0.1000000E+04  0.7546771E-02  0.8684367E-01
        -11   -1    0    0    0    0  0.00000000000E+00  0.00000000000E+00  0.50000000000E+03  0.50000000000E+03  0.00000000000E+00 0. -1.
         11   -1    0    0    0    0 -0.00000000000E+00 -0.00000000000E+00 -0.50000000000E+03  0.50000000000E+03  0.00000000000E+00 0.  1.
         23    2    1    2    0    0  0.69793629984E+02 -0.25424995939E+02  0.54027529264E+02  0.12923146456E+03  0.90907735149E+02 0.  0.
        -11    1    3    3    0    0 -0.13748445354E+02 -0.23928178474E+02 -0.34558683456E+01  0.27812236529E+02  0.00000000000E+00 0. -1.
         11    1    3    3    0    0  0.83542075338E+02 -0.14968174652E+01  0.57483397610E+02  0.10141922803E+03  0.00000000000E+00 0.  1.
        -15    1    1    2    0    0  0.14185861480E+03 -0.37845514159E+03  0.36747157402E+02  0.40583946592E+03  0.17770000000E+01 0.  1.
         15    1    1    2    0    0 -0.21165224479E+03  0.40388013753E+03 -0.90774686666E+02  0.46492906952E+03  0.17770000000E+01 0. -1.
</event>
<event>
 7    1  0.6581077E-006  0.5265626E+03  0.7546771E-02  0.9342260E-01
        -11   -1    0    0    0    0  0.00000000000E+00  0.00000000000E+00  0.50000000000E+03  0.50000000000E+03  0.00000000000E+00 0.  1.
         11   -1    0    0    0    0 -0.00000000000E+00 -0.00000000000E+00 -0.50000000000E+03  0.50000000000E+03  0.00000000000E+00 0. -1.
         23    2    1    2    0    0  0.38039091794E+03 -0.22441439589E+03  0.14303281997E+03  0.47343740993E+03  0.92873688408E+02 0.  0.
        -11    1    3    3    0    0  0.31545585073E+03 -0.21878255841E+03  0.10510573714E+03  0.39802690563E+03  0.00000000000E+00 0.  1.
         11    1    3    3    0    0  0.64935067214E+02 -0.56318374774E+01  0.37927082825E+02  0.75410504302E+02  0.00000000000E+00 0. -1.
        -15    1    1    2    0    0 -0.34415344371E+03  0.26894914576E+03 -0.85130357366E+02  0.44500064191E+03  0.17770000000E+01 0. -1.
         15    1    1    2    0    0 -0.36237474226E+02 -0.44534749869E+02 -0.57902462601E+02  0.81561948164E+02  0.17770000000E+01 0.  1.
</event>
<event>
 7    1  0.6581077E-006  0.5006922E+03  0.7546771E-02  0.9398262E-01
        -11   -1    0    0    0    0  0.00000000000E+00  0.00000000000E+00  0.50000000000E+03  0.50000000000E+03  0.00000000000E+00 0. -1.
         11   -1    0    0    0    0 -0.00000000000E+00 -0.00000000000E+00 -0.50000000000E+03  0.50000000000E+03  0.00000000000E+00 0.  1.
         23    2    1    2    0    0 -0.41380097688E+03 -0.15322922429E+03 -0.21487834395E+03  0.49930782522E+03  0.91788659325E+02 0.  0.
        -11    1    3    3    0    0 -0.11140627778E+03 -0.69934293712E+01 -0.80041900750E+02  0.13735709905E+03  0.00000000000E+00 0.  1.
         11    1    3    3    0    0 -0.30239469910E+03 -0.14623579492E+03 -0.13483644320E+03  0.36195072617E+03  0.00000000000E+00 0. -1.
        -15    1    1    2    0    0  0.12699872780E+01 -0.52814487028E+01  0.14232762306E+02  0.15337399386E+02  0.17770000000E+01 0. -1.
         15    1    1    2    0    0  0.41253098960E+03  0.15851067300E+03  0.20064558165E+03  0.48535477540E+03  0.17770000000E+01 0.  1.
</event>
<event>
 6    1  0.6581077E-006  0.3486796E+03  0.7546771E-02  0.9821512E-01
        -11   -1    0    0    0    0  0.00000000000E+00  0.00000000000E+00  0.50000000000E+03  0.50000000000E+03  0.00000000000E+00 0.  1.
         11   -1    0    0    0    0 -0.00000000000E+00 -0.00000000000E+00 -0.50000000000E+03  0.50000000000E+03  0.00000000000E+00 0.  1.
        -11    1    1    2    0    0 -0.14971039088E+03 -0.76419464151E+01 -0.23328126670E+03  0.27729361672E+03  0.00000000000E+00 0.  1.
         11    1    1    2    0    0  0.10269064015E+03 -0.12295889028E+03 -0.20469233353E+03  0.25992923591E+03  0.00000000000E+00 0.  1.
        -15    1    1    2    0    0  0.50948123362E+02  0.60684417116E+02  0.24336864268E+03  0.25594875214E+03  0.17770000000E+01 0. -1.
         15    1    1    2    0    0 -0.39283726355E+01  0.69916419581E+02  0.19460495755E+03  0.20682839523E+03  0.17770000000E+01 0.  1.
</event>
<event>
 7    1  0.6581077E-006  0.6885495E+03  0.7546771E-02  0.9055179E-01
        -11   -1    0    0    0    0  0.00000000000E+00  0.00000000000E+00  0.50000000000E+03  0.50000000000E+03  0.00000000000E+00 0.  1.
         11   -1    0    0    0    0 -0.00000000000E+00 -0.00000000000E+00 -0.50000000000E+03  0.50000000000E+03  0.00000000000E+00 0. -1.
         23    2    1    2    0    0  0.99538538922E+02  0.10357254399E+03  0.26008673764E+03  0.31145053489E+03  0.93387001140E+02 0.  0.
        -11    1    3    3    0    0  0.33542626424E+02  0.88005596811E+02  0.98837440586E+02  0.13652447590E+03  0.00000000000E+00 0.  1.
         11    1    3    3    0    0  0.65995912498E+02  0.15566947180E+02  0.16124929706E+03  0.17492605899E+03  0.00000000000E+00 0. -1.
        -15    1    1    2    0    0 -0.34745948148E+03 -0.10539405120E+03 -0.55932469254E+02  0.36737936271E+03  0.17770000000E+01 0.  1.
         15    1    1    2    0    0  0.24792094256E+03  0.18215072060E+01 -0.20415426839E+03  0.32117010241E+03  0.17770000000E+01 0. -1.
</event>
<event>
 6    1  0.6581077E-006  0.5094081E+03  0.7546771E-02  0.9379001E-01
        -11   -1    0    0    0    0  0.00000000000E+00  0.00000000000E+00  0.50000000000E+03  0.50000000000E+03  0.00000000000E+00 0. -1.
         11   -1    0    0    0    0 -0.00000000000E+00 -0.00000000000E+00 -0.50000000000E+03  0.50000000000E+03  0.00000000000E+00 0. -1.
        -11    1    1    2    0    0 -0.20654278536E+03  0.12409162416E+03 -0.24652272519E+03  0.34472033216E+03  0.00000000000E+00 0. -1.
         11    1    1    2    0    0 -0.11360948353E+03 -0.38461576309E+02 -0.11285234926E+03  0.16468776619E+03  0.00000000000E+00 0. -1.
        -15    1    1    2    0    0  0.37215966949E+01 -0.38234213503E+01  0.12826162839E+01  0.57681596990E+01  0.17770000000E+01 0.  1.
         15    1    1    2    0    0  0.31643067219E+03 -0.81806626496E+02  0.35809245816E+03  0.48482374195E+03  0.17770000000E+01 0. -1.
</event>
<event>
 7    1  0.6581077E-006  0.5039501E+03  0.7546771E-02  0.9391014E-01
        -11   -1    0    0    0    0  0.00000000000E+00  0.00000000000E+00  0.50000000000E+03  0.50000000000E+03  0.00000000000E+00 0.  1.
         11   -1    0    0    0    0 -0.00000000000E+00 -0.00000000000E+00 -0.50000000000E+03  0.50000000000E+03  0.00000000000E+00 0. -1.
         23    2    1    2    0    0 -0.42591888836E+01 -0.20423340308E+01  0.49563488421E+03  0.50395011893E+03  0.91046538128E+02 0.  0.
        -11    1    3    3    0    0  0.30440589784E+02 -0.20817053049E+02  0.10422605830E+03  0.11055790534E+03  0.00000000000E+00 0. -1.
         11    1    3    3    0    0 -0.34699778668E+02  0.18774719018E+02  0.39140882592E+03  0.39339221360E+03  0.00000000000E+00 0.  1.
        -15    1    1    2    0    0  0.90137640709E+01 -0.32467184742E+01 -0.13965261528E+03  0.13999214195E+03  0.17770000000E+01 0.  1.
         15    1    1    2    0    0 -0.47545751873E+01  0.52890525051E+01 -0.35598226894E+03  0.35605773912E+03  0.17770000000E+01 0. -1.
</event>
<event>
 7    1  0.6581077E-006  0.5014342E+03  0.7546771E-02  0.9396606E-01
        -11   -1    0    0    0    0  0.00000000000E+00  0.00000000000E+00  0.50000000000E+03  0.50000000000E+03  0.00000000000E+00 0.  1.
         11   -1    0    0    0    0 -0.00000000000E+00 -0.00000000000E+00 -0.50000000000E+03  0.50000000000E+03  0.00000000000E+00 0. -1.
         23    2    1    2    0    0 -0.12028134484E+02  0.36735036842E+01  0.48994906804E+03  0.49856584087E+03  0.91431054666E+02 0.  0.
        -11    1    3    3    0    0  0.37313668078E+02 -0.11593684082E+02  0.16681813230E+03  0.17133304585E+03  0.00000000000E+00 0. -1.
         11    1    3    3    0    0 -0.49341802563E+02  0.15267187766E+02  0.32313093574E+03  0.32723279502E+03  0.00000000000E+00 0.  1.
        -15    1    1    2    0    0 -0.41271942225E+02  0.16878941515E+01 -0.10626872295E+03  0.11402816059E+03  0.17770000000E+01 0.  1.
         15    1    1    2    0    0  0.53300076709E+02 -0.53613978357E+01 -0.38368034509E+03  0.38740599854E+03  0.17770000000E+01 0. -1.
</event>
<event>
 6    1  0.6581077E-006  0.3438124E+03  0.7546771E-02  0.9838741E-01
        -11   -1    0    0    0    0  0.00000000000E+00  0.00000000000E+00  0.50000000000E+03  0.50000000000E+03  0.00000000000E+00 0.  1.
         11   -1    0    0    0    0 -0.00000000000E+00 -0.00000000000E+00 -0.50000000000E+03  0.50000000000E+03  0.00000000000E+00 0. -1.
        -11    1    1    2    0    0  0.23657393998E+03  0.50037173462E+02  0.38508377998E+03  0.45470920973E+03  0.00000000000E+00 0.  1.
         11    1    1    2    0    0 -0.23562170932E+03 -0.57016265123E+02 -0.10368362161E+03  0.26366406236E+03  0.00000000000E+00 0. -1.
        -15    1    1    2    0    0 -0.16082554828E+01  0.28868030262E+00 -0.21763218108E+02  0.21896694121E+02  0.17770000000E+01 0.  1.
         15    1    1    2    0    0  0.65602482204E+00  0.66904113589E+01 -0.25963694027E+03  0.25973003379E+03  0.17770000000E+01 0. -1.
</event>
<event>
 7    1  0.6581077E-006  0.5034417E+03  0.7546771E-02  0.9392141E-01
        -11   -1    0    0    0    0  0.00000000000E+00  0.00000000000E+00  0.50000000000E+03  0.50000000000E+03  0.00000000000E+00 0.  1.
         11   -1    0    0    0    0 -0.00000000000E+00 -0.00000000000E+00 -0.50000000000E+03  0.50000000000E+03  0.00000000000E+00 0. -1.
         23    2    1    2    0    0 -0.39940205585E+01  0.43720297897E+02  0.49311298512E+03  0.50344174122E+03  0.91464496190E+02 0.  0.
        -11    1    3    3    0    0 -0.38908357002E+02  0.12529254302E+02  0.36044329100E+03  0.36275364710E+03  0.00000000000E+00 0.  1.
         11    1    3    3    0    0  0.34914336443E+02  0.31191043595E+02  0.13266969412E+03  0.14068809412E+03  0.00000000000E+00 0. -1.
        -15    1    1    2    0    0 -0.30583368741E+01 -0.72639649629E+01 -0.15307802384E+02  0.17309106108E+02  0.17770000000E+01 0.  1.
         15    1    1    2    0    0  0.70523574327E+01 -0.36456332934E+02 -0.47780518274E+03  0.47924915267E+03  0.17770000000E+01 0. -1.
</event>
<event>
 6    1  0.6581077E-006  0.1992187E+03  0.7546771E-02  0.1055875E+00
        -11   -1    0    0    0    0  0.00000000000E+00  0.00000000000E+00  0.50000000000E+03  0.50000000000E+03  0.00000000000E+00 0.  1.
         11   -1    0    0    0    0 -0.00000000000E+00 -0.00000000000E+00 -0.50000000000E+03  0.50000000000E+03  0.00000000000E+00 0. -1.
        -11    1    1    2    0    0  0.30447200968E+03  0.23769128968E+01  0.12177702893E+03  0.32793063164E+03  0.00000000000E+00 0.  1.
         11    1    1    2    0    0 -0.26136788114E+03 -0.32187903908E+01 -0.15502919959E+03  0.30390390360E+03  0.00000000000E+00 0. -1.
        -15    1    1    2    0    0  0.76160681788E+01 -0.17173522357E+03  0.68146843621E+02  0.18492739530E+03  0.17770000000E+01 0.  1.
         15    1    1    2    0    0 -0.50720196726E+02  0.17257710106E+03 -0.34894672967E+02  0.18323806945E+03  0.17770000000E+01 0. -1.
</event>
<event>
 7    1  0.6581077E-006  0.5122624E+03  0.7546771E-02  0.9372782E-01
        -11   -1    0    0    0    0  0.00000000000E+00  0.00000000000E+00  0.50000000000E+03  0.50000000000E+03  0.00000000000E+00 0.  1.
         11   -1    0    0    0    0 -0.00000000000E+00 -0.00000000000E+00 -0.50000000000E+03  0.50000000000E+03  0.00000000000E+00 0. -1.
         23    2    1    2    0    0  0.33392918592E+02 -0.34200350008E+03 -0.33412064212E+03  0.48773760847E+03  0.90387444603E+02 0.  0.
        -11    1    3    3    0    0  0.59456443952E+02 -0.19620635566E+03 -0.16694752312E+03  0.26439265914E+03  0.00000000000E+00 0.  1.
         11    1    3    3    0    0 -0.26063525361E+02 -0.14579714443E+03 -0.16717311900E+03  0.22334494933E+03  0.00000000000E+00 0. -1.
        -15    1    1    2    0    0 -0.78729184929E+02  0.32928554471E+03  0.27202815449E+03  0.43431524159E+03  0.17770000000E+01 0.  1.
         15    1    1    2    0    0  0.45336266338E+02  0.12717955375E+02  0.62092487633E+02  0.77947149940E+02  0.17770000000E+01 0. -1.
</event>
<event>
 7    1  0.6581077E-006  0.5032735E+03  0.7546771E-02  0.9392515E-01
        -11   -1    0    0    0    0  0.00000000000E+00  0.00000000000E+00  0.50000000000E+03  0.50000000000E+03  0.00000000000E+00 0.  1.
         11   -1    0    0    0    0 -0.00000000000E+00 -0.00000000000E+00 -0.50000000000E+03  0.50000000000E+03  0.00000000000E+00 0. -1.
         23    2    1    2    0    0 -0.20523232300E+03 -0.19616837340E+03 -0.40391830817E+03  0.50327345337E+03  0.97631101926E+02 0.  0.
        -11    1    3    3    0    0 -0.36759968590E+02 -0.86416348045E+02 -0.17488136983E+03  0.19850081615E+03  0.00000000000E+00 0.  1.
         11    1    3    3    0    0 -0.16847235441E+03 -0.10975202535E+03 -0.22903693835E+03  0.30477263722E+03  0.00000000000E+00 0. -1.
        -15    1    1    2    0    0  0.42432686862E+02  0.22032574688E+02  0.96475077339E+02  0.10768735087E+03  0.17770000000E+01 0. -1.
         15    1    1    2    0    0  0.16279963614E+03  0.17413579871E+03  0.30744323083E+03  0.38903919576E+03  0.17770000000E+01 0.  1.
</event>
<event>
 7    1  0.6581077E-006  0.5057972E+03  0.7546771E-02  0.9386931E-01
        -11   -1    0    0    0    0  0.00000000000E+00  0.00000000000E+00  0.50000000000E+03  0.50000000000E+03  0.00000000000E+00 0.  1.
         11   -1    0    0    0    0 -0.00000000000E+00 -0.00000000000E+00 -0.50000000000E+03  0.50000000000E+03  0.00000000000E+00 0. -1.
         23    2    1    2    0    0 -0.18655725752E+02 -0.58284596363E+01  0.48529090811E+03  0.49420282670E+03  0.91362800859E+02 0.  0.
        -11    1    3    3    0    0 -0.23075628393E+02 -0.95685944232E+01  0.48740066762E+03  0.48804042191E+03  0.00000000000E+00 0.  1.
         11    1    3    3    0    0  0.44199026411E+01  0.37401347869E+01 -0.21097595103E+01  0.61624047881E+01  0.00000000000E+00 0. -1.
        -15    1    1    2    0    0  0.24027894309E+02 -0.30029783191E+02 -0.45987166144E+03  0.46148047663E+03  0.17770000000E+01 0. -1.
         15    1    1    2    0    0 -0.53721685573E+01  0.35858242828E+02 -0.25419246668E+02  0.44316696672E+02  0.17770000000E+01 0.  1.
</event>
<event>
 7    1  0.6581077E-006  0.5026391E+03  0.7546771E-02  0.9393924E-01
        -11   -1    0    0    0    0  0.00000000000E+00  0.00000000000E+00  0.50000000000E+03  0.50000000000E+03  0.00000000000E+00 0.  1.
         11   -1    0    0    0    0 -0.00000000000E+00 -0.00000000000E+00 -0.50000000000E+03  0.50000000000E+03  0.00000000000E+00 0. -1.
         23    2    1    2    0    0  0.20361470827E+02  0.13098258804E+02  0.49418637263E+03  0.50263913502E+03  0.88542505517E+02 0.  0.
        -11    1    3    3    0    0 -0.89783678192E+01 -0.27279239713E+01  0.23488185103E+01  0.96731383885E+01  0.00000000000E+00 0. -1.
         11    1    3    3    0    0  0.29339838646E+02  0.15826182775E+02  0.49183755412E+03  0.49296599663E+03  0.00000000000E+00 0.  1.
        -15    1    1    2    0    0  0.85858355642E+01 -0.22219937590E+02 -0.15702108003E+03  0.15882764086E+03  0.17770000000E+01 0.  1.
         15    1    1    2    0    0 -0.28947306391E+02  0.91216787859E+01 -0.33716529260E+03  0.33853322412E+03  0.17770000000E+01 0. -1.
</event>
<event>
 7    1  0.6581077E-006  0.5047121E+03  0.7546771E-02  0.9389327E-01
        -11   -1    0    0    0    0  0.00000000000E+00  0.00000000000E+00  0.50000000000E+03  0.50000000000E+03  0.00000000000E+00 0.  1.
         11   -1    0    0    0    0 -0.00000000000E+00 -0.00000000000E+00 -0.50000000000E+03  0.50000000000E+03  0.00000000000E+00 0.  1.
         23    2    1    2    0    0 -0.39878752662E+01  0.65425851431E+02  0.49069576559E+03  0.50471208545E+03  0.98262452919E+02 0.  0.
        -11    1    3    3    0    0 -0.91332156935E+01  0.73502634874E+02  0.48948752871E+03  0.49505968704E+03  0.00000000000E+00 0.  1.
         11    1    3    3    0    0  0.51453404273E+01 -0.80767834432E+01  0.12082368752E+01  0.96523984195E+01  0.00000000000E+00 0.  1.
        -15    1    1    2    0    0  0.89883740398E+01 -0.47595855488E+02 -0.37166827771E+03  0.37481545154E+03  0.17770000000E+01 0. -1.
         15    1    1    2    0    0 -0.50004987736E+01 -0.17829995943E+02 -0.11902748788E+03  0.12047246301E+03  0.17770000000E+01 0.  1.
</event>
<event>
 7    1  0.6581077E-006  0.5107029E+03  0.7546771E-02  0.9376175E-01
        -11   -1    0    0    0    0  0.00000000000E+00  0.00000000000E+00  0.50000000000E+03  0.50000000000E+03  0.00000000000E+00 0. -1.
         11   -1    0    0    0    0 -0.00000000000E+00 -0.00000000000E+00 -0.50000000000E+03  0.50000000000E+03  0.00000000000E+00 0.  1.
         23    2    1    2    0    0  0.42479534622E+03 -0.22300298308E+03 -0.37357048358E+02  0.48929708973E+03  0.88513706953E+02 0.  0.
        -11    1    3    3    0    0  0.41286677078E+03 -0.23042056955E+03 -0.30857117250E+02  0.47381934424E+03  0.00000000000E+00 0.  1.
         11    1    3    3    0    0  0.11928575436E+02  0.74175864688E+01 -0.64999311084E+01  0.15477745487E+02  0.00000000000E+00 0. -1.
        -15    1    1    2    0    0 -0.35605329177E+03  0.19301817821E+03 -0.34944150335E+02  0.40651471691E+03  0.17770000000E+01 0. -1.
         15    1    1    2    0    0 -0.68742054454E+02  0.29984804876E+02  0.72301198693E+02  0.10418819336E+03  0.17770000000E+01 0.  1.
</event>
<event>
 7    1  0.6581077E-006  0.5040660E+03  0.7546771E-02  0.9390757E-01
        -11   -1    0    0    0    0  0.00000000000E+00  0.00000000000E+00  0.50000000000E+03  0.50000000000E+03  0.00000000000E+00 0. -1.
         11   -1    0    0    0    0 -0.00000000000E+00 -0.00000000000E+00 -0.50000000000E+03  0.50000000000E+03  0.00000000000E+00 0.  1.
         23    2    1    2    0    0  0.73477865122E+01 -0.21627146522E+02  0.49523731240E+03  0.50406602658E+03  0.91108946464E+02 0.  0.
        -11    1    3    3    0    0  0.45949763876E+02  0.58797598605E+01  0.22817859271E+03  0.23283346526E+03  0.00000000000E+00 0. -1.
         11    1    3    3    0    0 -0.38601977363E+02 -0.27506906382E+02  0.26705871969E+03  0.27123256132E+03  0.00000000000E+00 0.  1.
        -15    1    1    2    0    0 -0.77736852451E+01  0.55490316700E+01 -0.14678535123E+03  0.14710648863E+03  0.17770000000E+01 0.  1.
         15    1    1    2    0    0  0.42589873294E+00  0.16078114852E+02 -0.34845196117E+03  0.34882748479E+03  0.17770000000E+01 0.  1.
</event>
<event>
 7    1  0.6581077E-006  0.5110550E+03  0.7546771E-02  0.9375408E-01
        -11   -1    0    0    0    0  0.00000000000E+00  0.00000000000E+00  0.50000000000E+03  0.50000000000E+03  0.00000000000E+00 0.  1.
         11   -1    0    0    0    0 -0.00000000000E+00 -0.00000000000E+00 -0.50000000000E+03  0.50000000000E+03  0.00000000000E+00 0. -1.
         23    2    1    2    0    0  0.25729930594E+03 -0.29894840625E+03  0.27458508442E+03  0.48894501713E+03  0.89984325023E+02 0.  0.
        -11    1    3    3    0    0  0.19525388342E+03 -0.16042840878E+03  0.17603221239E+03  0.30797515019E+03  0.00000000000E+00 0.  1.
         11    1    3    3    0    0  0.62045422522E+02 -0.13851999747E+03  0.98552872034E+02  0.18096986694E+03  0.00000000000E+00 0. -1.
        -15    1    1    2    0    0 -0.44094197990E+02  0.18313087749E+03 -0.12183384768E+03  0.22433871881E+03  0.17770000000E+01 0.  1.
         15    1    1    2    0    0 -0.21320510795E+03  0.11581752876E+03 -0.15275123674E+03  0.28671626406E+03  0.17770000000E+01 0. -1.
</event>
<event>
 7    1  0.6581077E-006  0.5360269E+03  0.7546771E-02  0.9322619E-01
        -11   -1    0    0    0    0  0.00000000000E+00  0.00000000000E+00  0.50000000000E+03  0.50000000000E+03  0.00000000000E+00 0.  1.
         11   -1    0    0    0    0 -0.00000000000E+00 -0.00000000000E+00 -0.50000000000E+03  0.50000000000E+03  0.00000000000E+00 0. -1.
         23    2    1    2    0    0 -0.43718935855E+03  0.12007678172E+03  0.62317139243E+02  0.46397306968E+03  0.76384650386E+02 0.  0.
        -11    1    3    3    0    0 -0.42224927246E+03  0.10257313096E+03  0.69082654797E+02  0.43998648671E+03  0.00000000000E+00 0. -1.
         11    1    3    3    0    0 -0.14940086082E+02  0.17503650765E+02 -0.67655155543E+01  0.23986582978E+02  0.00000000000E+00 0.  1.
        -15    1    1    2    0    0  0.17829457507E+03 -0.43970065489E+02 -0.16540416631E+03  0.24715181189E+03  0.17770000000E+01 0. -1.
         15    1    1    2    0    0  0.25889478347E+03 -0.76106716234E+02  0.10308702707E+03  0.28887511842E+03  0.17770000000E+01 0.  1.
</event>
<event>
 7    1  0.6581077E-006  0.1000000E+04  0.7546771E-02  0.8684367E-01
        -11   -1    0    0    0    0  0.00000000000E+00  0.00000000000E+00  0.50000000000E+03  0.50000000000E+03  0.00000000000E+00 0. -1.
         11   -1    0    0    0    0 -0.00000000000E+00 -0.00000000000E+00 -0.50000000000E+03  0.50000000000E+03  0.00000000000E+00 0.  1.
         23    2    1    2    0    0  0.38697251720E+03  0.14352367784E+03 -0.41248272168E+02  0.42452388616E+03  0.90400966774E+02 0.  0.
        -11    1    3    3    0    0  0.11837544732E+03  0.94654958016E+01  0.13019754467E+02  0.11946487411E+03  0.00000000000E+00 0.  1.
         11    1    3    3    0    0  0.26859706988E+03  0.13405818204E+03 -0.54268026635E+02  0.30505901205E+03  0.00000000000E+00 0. -1.
        -15    1    1    2    0    0 -0.11739887509E+00  0.59369647707E+02 -0.10005321889E+03  0.11635537457E+03  0.17770000000E+01 0. -1.
         15    1    1    2    0    0 -0.38685511833E+03 -0.20289332554E+03  0.14130149106E+03  0.45912073927E+03  0.17770000000E+01 0.  1.
</event>
<event>
 7    1  0.6581077E-006  0.5042099E+03  0.7546771E-02  0.9390439E-01
        -11   -1    0    0    0    0  0.00000000000E+00  0.00000000000E+00  0.50000000000E+03  0.50000000000E+03  0.00000000000E+00 0. -1.
         11   -1    0    0    0    0 -0.00000000000E+00 -0.00000000000E+00 -0.50000000000E+03  0.50000000000E+03  0.00000000000E+00 0. -1.
         23    2    1    2    0    0  0.10812002795E+02 -0.18646693235E+02  0.49523917176E+03  0.50420992903E+03  0.92202042860E+02 0.  0.
        -11    1    3    3    0    0  0.46624849091E+02 -0.46504695431E+01  0.37639793578E+03  0.37930318938E+03  0.00000000000E+00 0. -1.
         11    1    3    3    0    0 -0.35812846296E+02 -0.13996223691E+02  0.11884123598E+03  0.12490673964E+03  0.00000000000E+00 0. -1.
        -15    1    1    2    0    0 -0.10257734445E+02  0.14811792888E+02 -0.33027584247E+03  0.33077167377E+03  0.17770000000E+01 0. -1.
         15    1    1    2    0    0 -0.55426834982E+00  0.38349003465E+01 -0.16496332929E+03  0.16501839720E+03  0.17770000000E+01 0.  1.
</event>
<event>
 7    1  0.6581077E-006  0.1000000E+04  0.7546771E-02  0.8684367E-01
        -11   -1    0    0    0    0  0.00000000000E+00  0.00000000000E+00  0.50000000000E+03  0.50000000000E+03  0.00000000000E+00 0.  1.
         11   -1    0    0    0    0 -0.00000000000E+00 -0.00000000000E+00 -0.50000000000E+03  0.50000000000E+03  0.00000000000E+00 0. -1.
         23    2    1    2    0    0 -0.22801237483E+03  0.10229557826E+03  0.21828941459E+03  0.34448793888E+03  0.92561563878E+02 0.  0.
        -11    1    3    3    0    0 -0.23690904260E+03  0.96891223288E+02  0.20754563841E+03  0.32952844436E+03  0.00000000000E+00 0.  1.
         11    1    3    3    0    0  0.88966677678E+01  0.54043549698E+01  0.10743776174E+02  0.14959494526E+02  0.00000000000E+00 0. -1.
        -15    1    1    2    0    0 -0.53371026308E+02 -0.17445457312E+03  0.11323083614E+03  0.21472597541E+03  0.17770000000E+01 0.  1.
         15    1    1    2    0    0  0.28138340114E+03  0.72158994865E+02 -0.33152025073E+03  0.44078608571E+03  0.17770000000E+01 0. -1.
</event>
<event>
 7    1  0.6581077E-006  0.5014251E+03  0.7546771E-02  0.9396627E-01
        -11   -1    0    0    0    0  0.00000000000E+00  0.00000000000E+00  0.50000000000E+03  0.50000000000E+03  0.00000000000E+00 0.  1.
         11   -1    0    0    0    0 -0.00000000000E+00 -0.00000000000E+00 -0.50000000000E+03  0.50000000000E+03  0.00000000000E+00 0. -1.
         23    2    1    2    0    0 -0.15225724596E+03  0.15490812972E+03 -0.44569476663E+03  0.50142509916E+03  0.74863258439E+02 0.  0.
        -11    1    3    3    0    0 -0.10417616951E+03  0.14817913775E+03 -0.35617097070E+03  0.39958414825E+03  0.00000000000E+00 0. -1.
         11    1    3    3    0    0 -0.48081076453E+02  0.67289919713E+01 -0.89523795924E+02  0.10184095091E+03  0.00000000000E+00 0.  1.
        -15    1    1    2    0    0  0.21845565795E+02 -0.84140407991E+01  0.24404704721E+02  0.33864024702E+02  0.17770000000E+01 0. -1.
         15    1    1    2    0    0  0.13041168017E+03 -0.14649408892E+03  0.42129006191E+03  0.46471087614E+03  0.17770000000E+01 0.  1.
</event>
<event>
 7    1  0.6581077E-006  0.5053506E+03  0.7546771E-02  0.9387916E-01
        -11   -1    0    0    0    0  0.00000000000E+00  0.00000000000E+00  0.50000000000E+03  0.50000000000E+03  0.00000000000E+00 0. -1.
         11   -1    0    0    0    0 -0.00000000000E+00 -0.00000000000E+00 -0.50000000000E+03  0.50000000000E+03  0.00000000000E+00 0.  1.
         23    2    1    2    0    0  0.18947922795E+02 -0.88524463497E+02  0.47765486018E+03  0.49464939498E+03  0.91259268479E+02 0.  0.
        -11    1    3    3    0    0  0.14360557701E+02 -0.74533294442E+02  0.16470916523E+03  0.18135751076E+03  0.00000000000E+00 0.  1.
         11    1    3    3    0    0  0.45873650943E+01 -0.13991169055E+02  0.31294569495E+03  0.31329188422E+03  0.00000000000E+00 0. -1.
        -15    1    1    2    0    0  0.18119679891E+02 -0.16311527457E+02 -0.13228192014E+02  0.27794451250E+02  0.17770000000E+01 0. -1.
         15    1    1    2    0    0 -0.37067602686E+02  0.10483599095E+03 -0.46442666817E+03  0.47755615377E+03  0.17770000000E+01 0.  1.
</event>
<event>
 7    1  0.6581077E-006  0.5039591E+03  0.7546771E-02  0.9390994E-01
        -11   -1    0    0    0    0  0.00000000000E+00  0.00000000000E+00  0.50000000000E+03  0.50000000000E+03  0.00000000000E+00 0.  1.
         11   -1    0    0    0    0 -0.00000000000E+00 -0.00000000000E+00 -0.50000000000E+03  0.50000000000E+03  0.00000000000E+00 0. -1.
         23    2    1    2    0    0 -0.25487112428E+03  0.79804692091E+02 -0.41713011168E+03  0.50395907233E+03  0.93000740028E+02 0.  0.
        -11    1    3    3    0    0 -0.21158595158E+02  0.31825954373E+02 -0.10035878377E+03  0.10738930580E+03  0.00000000000E+00 0.  1.
         11    1    3    3    0    0 -0.23371252912E+03  0.47978737718E+02 -0.31677132791E+03  0.39656976653E+03  0.00000000000E+00 0. -1.
        -15    1    1    2    0    0  0.24209138193E+03 -0.80304418985E+02  0.40263186817E+03  0.47662628537E+03  0.17770000000E+01 0.  1.
         15    1    1    2    0    0  0.12779742349E+02  0.49972689401E+00  0.14498243517E+02  0.19414642298E+02  0.17770000000E+01 0.  1.
</event>
<event>
 6    1  0.6581077E-006  0.4948701E+03  0.7546771E-02  0.9411362E-01
        -11   -1    0    0    0    0  0.00000000000E+00  0.00000000000E+00  0.50000000000E+03  0.50000000000E+03  0.00000000000E+00 0.  1.
         11   -1    0    0    0    0 -0.00000000000E+00 -0.00000000000E+00 -0.50000000000E+03  0.50000000000E+03  0.00000000000E+00 0.  1.
        -11    1    1    2    0    0 -0.27563811379E+03  0.66568731848E+01  0.40979729474E+03  0.49391750983E+03  0.00000000000E+00 0.  1.
         11    1    1    2    0    0 -0.24302578597E+01 -0.11208608210E+02 -0.64242319570E+01  0.13145714416E+02  0.00000000000E+00 0.  1.
        -15    1    1    2    0    0  0.42177678023E+02  0.56209879478E+01 -0.33254494095E+02  0.54033055951E+02  0.17770000000E+01 0. -1.
         15    1    1    2    0    0  0.23589069362E+03 -0.10692529222E+01 -0.37011856869E+03  0.43890371981E+03  0.17770000000E+01 0.  1.
</event>
<event>
 7    1  0.6581077E-006  0.5029672E+03  0.7546771E-02  0.9393195E-01
        -11   -1    0    0    0    0  0.00000000000E+00  0.00000000000E+00  0.50000000000E+03  0.50000000000E+03  0.00000000000E+00 0. -1.
         11   -1    0    0    0    0 -0.00000000000E+00 -0.00000000000E+00 -0.50000000000E+03  0.50000000000E+03  0.00000000000E+00 0.  1.
         23    2    1    2    0    0  0.33532687323E+01  0.48751865283E+01  0.49477797914E+03  0.50296719533E+03  0.90198331933E+02 0.  0.
        -11    1    3    3    0    0  0.16404768234E+02 -0.38392458871E+02  0.30707690127E+03  0.30990211457E+03  0.00000000000E+00 0. -1.
         11    1    3    3    0    0 -0.13051499502E+02  0.43267645399E+02  0.18770107787E+03  0.19306508076E+03  0.00000000000E+00 0.  1.
        -15    1    1    2    0    0  0.17054445928E+02 -0.28949760157E+01 -0.86183749814E+02  0.87920597547E+02  0.17770000000E+01 0. -1.
         15    1    1    2    0    0 -0.20407714661E+02 -0.19802105127E+01 -0.40859422932E+03  0.40911220712E+03  0.17770000000E+01 0.  1.
</event>
<event>
 7    1  0.6581077E-006  0.5040669E+03  0.7546771E-02  0.9390755E-01
        -11   -1    0    0    0    0  0.00000000000E+00  0.00000000000E+00  0.50000000000E+03  0.50000000000E+03  0.00000000000E+00 0.  1.
         11   -1    0    0    0    0 -0.00000000000E+00 -0.00000000000E+00 -0.50000000000E+03  0.50000000000E+03  0.00000000000E+00 0. -1.
         23    2    1    2    0    0 -0.12810526727E+00  0.93587329188E+01  0.49539993072E+03  0.50406688815E+03  0.92599859998E+02 0.  0.
        -11    1    3    3    0    0 -0.29203182759E+02  0.32422833197E+02  0.13773816276E+03  0.14448483476E+03  0.00000000000E+00 0. -1.
         11    1    3    3    0    0  0.29075077492E+02 -0.23064100278E+02  0.35766176797E+03  0.35958205339E+03  0.00000000000E+00 0.  1.
        -15    1    1    2    0    0  0.66134548373E+01  0.18610631431E+01 -0.30588142700E+03  0.30596373389E+03  0.17770000000E+01 0.  1.
         15    1    1    2    0    0 -0.64853495701E+01 -0.11219796062E+02 -0.18951850372E+03  0.18996937797E+03  0.17770000000E+01 0. -1.
</event>
<event>
 7    1  0.6581077E-006  0.5038542E+03  0.7546771E-02  0.9391227E-01
        -11   -1    0    0    0    0  0.00000000000E+00  0.00000000000E+00  0.50000000000E+03  0.50000000000E+03  0.00000000000E+00 0.  1.
         11   -1    0    0    0    0 -0.00000000000E+00 -0.00000000000E+00 -0.50000000000E+03  0.50000000000E+03  0.00000000000E+00 0. -1.
         23    2    1    2    0    0  0.27051890457E+01  0.23060851089E+01  0.49571295264E+03  0.50385420945E+03  0.90139319331E+02 0.  0.
        -11    1    3    3    0    0 -0.24063663046E+02  0.91077210804E+01  0.44789129358E+03  0.44862971516E+03  0.00000000000E+00 0.  1.
         11    1    3    3    0    0  0.26768852091E+02 -0.68016359714E+01  0.47821659069E+02  0.55224494296E+02  0.00000000000E+00 0. -1.
        -15    1    1    2    0    0  0.18384418035E+01 -0.96003999182E+01 -0.15397924198E+03  0.15429942397E+03  0.17770000000E+01 0. -1.
         15    1    1    2    0    0 -0.45436308492E+01  0.72943148092E+01 -0.34173371066E+03  0.34184636658E+03  0.17770000000E+01 0.  1.
</event>
<event>
 7    1  0.6581077E-006  0.5121758E+03  0.7546771E-02  0.9372970E-01
        -11   -1    0    0    0    0  0.00000000000E+00  0.00000000000E+00  0.50000000000E+03  0.50000000000E+03  0.00000000000E+00 0.  1.
         11   -1    0    0    0    0 -0.00000000000E+00 -0.00000000000E+00 -0.50000000000E+03  0.50000000000E+03  0.00000000000E+00 0. -1.
         23    2    1    2    0    0  0.30146584542E+03 -0.13463743761E+03 -0.34746262132E+03  0.48782424351E+03  0.90737664600E+02 0.  0.
        -11    1    3    3    0    0  0.18925198219E+03 -0.11073563418E+03 -0.17431745873E+03  0.28011652907E+03  0.00000000000E+00 0. -1.
         11    1    3    3    0    0  0.11221386323E+03 -0.23901803432E+02 -0.17314516259E+03  0.20770771443E+03  0.00000000000E+00 0.  1.
        -15    1    1    2    0    0 -0.19643033918E+03  0.53258682808E+02  0.31558109177E+03  0.37552090309E+03  0.17770000000E+01 0.  1.
         15    1    1    2    0    0 -0.10503550624E+03  0.81378754803E+02  0.31881529554E+02  0.13665485341E+03  0.17770000000E+01 0. -1.
</event>
<event>
 7    1  0.6581077E-006  0.5851606E+03  0.7546771E-02  0.9227139E-01
        -11   -1    0    0    0    0  0.00000000000E+00  0.00000000000E+00  0.50000000000E+03  0.50000000000E+03  0.00000000000E+00 0.  1.
         11   -1    0    0    0    0 -0.00000000000E+00 -0.00000000000E+00 -0.50000000000E+03  0.50000000000E+03  0.00000000000E+00 0. -1.
         23    2    1    2    0    0  0.26412060454E+03  0.30371272956E+03 -0.40502242735E+02  0.41483938226E+03  0.91924782127E+02 0.  0.
        -11    1    3    3    0    0  0.19074772058E+03  0.15781753622E+03 -0.44230704753E+02  0.25149040317E+03  0.00000000000E+00 0. -1.
         11    1    3    3    0    0  0.73372883963E+02  0.14589519334E+03  0.37284620173E+01  0.16334897909E+03  0.00000000000E+00 0.  1.
        -15    1    1    2    0    0 -0.21027118242E+03 -0.33576675855E+02  0.17777338757E+03  0.27739484201E+03  0.17770000000E+01 0.  1.
         15    1    1    2    0    0 -0.53849422119E+02 -0.27013605371E+03 -0.13727114483E+03  0.30776577572E+03  0.17770000000E+01 0. -1.
</event>
<event>
 7    1  0.6581077E-006  0.1000000E+04  0.7546771E-02  0.8684367E-01
        -11   -1    0    0    0    0  0.00000000000E+00  0.00000000000E+00  0.50000000000E+03  0.50000000000E+03  0.00000000000E+00 0.  1.
         11   -1    0    0    0    0 -0.00000000000E+00 -0.00000000000E+00 -0.50000000000E+03  0.50000000000E+03  0.00000000000E+00 0. -1.
         23    2    1    2    0    0  0.10520245641E+03  0.99075743682E+01  0.82692941766E+02  0.16243249590E+03  0.91544941094E+02 0.  0.
        -11    1    3    3    0    0  0.90307472141E+02 -0.25821831410E+02  0.80428344437E+02  0.12365648018E+03  0.00000000000E+00 0.  1.
         11    1    3    3    0    0  0.14894984272E+02  0.35729405778E+02  0.22645973291E+01  0.38776015716E+02  0.00000000000E+00 0. -1.
        -15    1    1    2    0    0 -0.43396647510E+03 -0.11443826458E+03 -0.17293990005E+03  0.48097233254E+03  0.17770000000E+01 0.  1.
         15    1    1    2    0    0  0.32876401868E+03  0.10453069021E+03  0.90246958284E+02  0.35659517157E+03  0.17770000000E+01 0. -1.
</event>
<event>
 7    1  0.6581077E-006  0.8664062E+03  0.7546771E-02  0.8823151E-01
        -11   -1    0    0    0    0  0.00000000000E+00  0.00000000000E+00  0.50000000000E+03  0.50000000000E+03  0.00000000000E+00 0. -1.
         11   -1    0    0    0    0 -0.00000000000E+00 -0.00000000000E+00 -0.50000000000E+03  0.50000000000E+03  0.00000000000E+00 0.  1.
         23    2    1    2    0    0 -0.95483885263E+01  0.32077450302E+02  0.91265965983E+02  0.13359384145E+03  0.91638983975E+02 0.  0.
        -11    1    3    3    0    0  0.39079462191E+02  0.27713509367E+02  0.53889699072E+02  0.72106467342E+02  0.00000000000E+00 0. -1.
         11    1    3    3    0    0 -0.48627850717E+02  0.43639409358E+01  0.37376266911E+02  0.61487374103E+02  0.00000000000E+00 0.  1.
        -15    1    1    2    0    0  0.29612659616E+03  0.27127195695E+03 -0.17946197582E+03  0.43987406615E+03  0.17770000000E+01 0. -1.
         15    1    1    2    0    0 -0.28657820763E+03 -0.30334940725E+03  0.88196009835E+02  0.42653209240E+03  0.17770000000E+01 0.  1.
</event>
<event>
 7    1  0.6581077E-006  0.5024965E+03  0.7546771E-02  0.9394241E-01
        -11   -1    0    0    0    0  0.00000000000E+00  0.00000000000E+00  0.50000000000E+03  0.50000000000E+03  0.00000000000E+00 0.  1.
         11   -1    0    0    0    0 -0.00000000000E+00 -0.00000000000E+00 -0.50000000000E+03  0.50000000000E+03  0.00000000000E+00 0. -1.
         23    2    1    2    0    0 -0.18801837766E+02 -0.27571659931E+02  0.49317682094E+03  0.50249652138E+03  0.90364106561E+02 0.  0.
        -11    1    3    3    0    0  0.40549424986E+01 -0.51698865959E+02  0.40424181866E+03  0.40755449115E+03  0.00000000000E+00 0.  1.
         11    1    3    3    0    0 -0.22856780265E+02  0.24127206028E+02  0.88935002276E+02  0.94942030233E+02  0.00000000000E+00 0. -1.
        -15    1    1    2    0    0  0.16553806844E+02  0.19340993785E+02 -0.48461435006E+03  0.48528582152E+03  0.17770000000E+01 0. -1.
         15    1    1    2    0    0  0.22480309222E+01  0.82306661459E+01 -0.85624708846E+01  0.12217657095E+02  0.17770000000E+01 0.  1.
</event>
<event>
 7    1  0.6581077E-006  0.1000000E+04  0.7546771E-02  0.8684367E-01
        -11   -1    0    0    0    0  0.00000000000E+00  0.00000000000E+00  0.50000000000E+03  0.50000000000E+03  0.00000000000E+00 0.  1.
         11   -1    0    0    0    0 -0.00000000000E+00 -0.00000000000E+00 -0.50000000000E+03  0.50000000000E+03  0.00000000000E+00 0. -1.
         23    2    1    2    0    0  0.96760563925E+02  0.85617463667E+02  0.39288102875E+03  0.42372444860E+03  0.92162621350E+02 0.  0.
        -11    1    3    3    0    0  0.10640543818E+03  0.50685161114E+02  0.33798569558E+03  0.35794613177E+03  0.00000000000E+00 0.  1.
         11    1    3    3    0    0 -0.96448742583E+01  0.34932302554E+02  0.54895333164E+02  0.65778316825E+02  0.00000000000E+00 0. -1.
        -15    1    1    2    0    0  0.78546630201E+02  0.79966125624E+02  0.36615521481E+01  0.11216380457E+03  0.17770000000E+01 0.  1.
         15    1    1    2    0    0 -0.17530719413E+03 -0.16558358929E+03 -0.39654258089E+03  0.46411174683E+03  0.17770000000E+01 0. -1.
</event>
<event>
 7    1  0.6581077E-006  0.5038562E+03  0.7546771E-02  0.9391222E-01
        -11   -1    0    0    0    0  0.00000000000E+00  0.00000000000E+00  0.50000000000E+03  0.50000000000E+03  0.00000000000E+00 0. -1.
         11   -1    0    0    0    0 -0.00000000000E+00 -0.00000000000E+00 -0.50000000000E+03  0.50000000000E+03  0.00000000000E+00 0.  1.
         23    2    1    2    0    0  0.16009761758E+02  0.74004690400E+01  0.49579695226E+03  0.50385620097E+03  0.88007806276E+02 0.  0.
        -11    1    3    3    0    0 -0.19225419506E+02 -0.13796752201E+02  0.42060038885E+02  0.48259859070E+02  0.00000000000E+00 0.  1.
         11    1    3    3    0    0  0.35235181265E+02  0.21197221241E+02  0.45373691338E+03  0.45559634190E+03  0.00000000000E+00 0. -1.
        -15    1    1    2    0    0 -0.41550209148E+01 -0.65952109522E+00 -0.16042104235E+03  0.16048603592E+03  0.17770000000E+01 0.  1.
         15    1    1    2    0    0 -0.11854740844E+02 -0.67409479448E+01 -0.33537590992E+03  0.33565776312E+03  0.17770000000E+01 0.  1.
</event>
<event>
 7    1  0.6581077E-006  0.1000000E+04  0.7546771E-02  0.8684367E-01
        -11   -1    0    0    0    0  0.00000000000E+00  0.00000000000E+00  0.50000000000E+03  0.50000000000E+03  0.00000000000E+00 0.  1.
         11   -1    0    0    0    0 -0.00000000000E+00 -0.00000000000E+00 -0.50000000000E+03  0.50000000000E+03  0.00000000000E+00 0. -1.
         23    2    1    2    0    0 -0.20224499269E+02  0.15591617834E+03  0.36250660308E+03  0.40138126202E+03  0.70547821988E+02 0.  0.
        -11    1    3    3    0    0 -0.25368451130E+02  0.10910695562E+03  0.31570493854E+03  0.33498879727E+03  0.00000000000E+00 0.  1.
         11    1    3    3    0    0  0.51439518606E+01  0.46809222720E+02  0.46801664545E+02  0.66392464758E+02  0.00000000000E+00 0. -1.
        -15    1    1    2    0    0  0.14495492323E+03 -0.45959321289E+02  0.44913556076E+02  0.15857040780E+03  0.17770000000E+01 0.  1.
         15    1    1    2    0    0 -0.12473042396E+03 -0.10995685705E+03 -0.40742015916E+03  0.44004833018E+03  0.17770000000E+01 0. -1.
</event>
<event>
 7    1  0.6581077E-006  0.5025656E+03  0.7546771E-02  0.9394087E-01
        -11   -1    0    0    0    0  0.00000000000E+00  0.00000000000E+00  0.50000000000E+03  0.50000000000E+03  0.00000000000E+00 0.  1.
         11   -1    0    0    0    0 -0.00000000000E+00 -0.00000000000E+00 -0.50000000000E+03  0.50000000000E+03  0.00000000000E+00 0. -1.
         23    2    1    2    0    0  0.17908377164E+03 -0.20903563927E+03 -0.41061664093E+03  0.50256557753E+03  0.90549644767E+02 0.  0.
        -11    1    3    3    0    0  0.29424941817E+02 -0.99407495858E+02 -0.16271050324E+03  0.19293103767E+03  0.00000000000E+00 0.  1.
         11    1    3    3    0    0  0.14965882982E+03 -0.10962814341E+03 -0.24790613769E+03  0.30963453986E+03  0.00000000000E+00 0. -1.
        -15    1    1    2    0    0 -0.61250491682E+02  0.78648835259E+02  0.10435647966E+03  0.14432842615E+03  0.17770000000E+01 0. -1.
         15    1    1    2    0    0 -0.11783327995E+03  0.13038680401E+03  0.30626016127E+03  0.35310599632E+03  0.17770000000E+01 0.  1.
</event>
<event>
 7    1  0.6581077E-006  0.5176019E+03  0.7546771E-02  0.9361263E-01
        -11   -1    0    0    0    0  0.00000000000E+00  0.00000000000E+00  0.50000000000E+03  0.50000000000E+03  0.00000000000E+00 0.  1.
         11   -1    0    0    0    0 -0.00000000000E+00 -0.00000000000E+00 -0.50000000000E+03  0.50000000000E+03  0.00000000000E+00 0. -1.
         23    2    1    2    0    0  0.47564739497E+02  0.34800891839E+02  0.46973836595E+03  0.48239806798E+03  0.92629676863E+02 0.  0.
        -11    1    3    3    0    0  0.54194308983E+02 -0.11069476614E+02  0.34341098774E+03  0.34783712128E+03  0.00000000000E+00 0. -1.
         11    1    3    3    0    0 -0.66295694862E+01  0.45870368453E+02  0.12632737821E+03  0.13456094670E+03  0.00000000000E+00 0.  1.
        -15    1    1    2    0    0 -0.87594120032E+02 -0.25836329414E+02 -0.68261287684E+02  0.11403072791E+03  0.17770000000E+01 0.  1.
         15    1    1    2    0    0  0.40029380535E+02 -0.89645624257E+01 -0.40147707826E+03  0.40357120411E+03  0.17770000000E+01 0. -1.
</event>
<event>
 7    1  0.6581077E-006  0.5037699E+03  0.7546771E-02  0.9391414E-01
        -11   -1    0    0    0    0  0.00000000000E+00  0.00000000000E+00  0.50000000000E+03  0.50000000000E+03  0.00000000000E+00 0. -1.
         11   -1    0    0    0    0 -0.00000000000E+00 -0.00000000000E+00 -0.50000000000E+03  0.50000000000E+03  0.00000000000E+00 0.  1.
         23    2    1    2    0    0 -0.37594466540E+02  0.23335929461E+02 -0.49306055096E+03  0.50376986954E+03  0.93367365949E+02 0.  0.
        -11    1    3    3    0    0 -0.66345849994E+02  0.60425136148E+00 -0.33617224457E+03  0.34265713907E+03  0.00000000000E+00 0.  1.
         11    1    3    3    0    0  0.28751383454E+02  0.22731678100E+02 -0.15688830638E+03  0.16111273047E+03  0.00000000000E+00 0. -1.
        -15    1    1    2    0    0  0.32284065240E+02 -0.11399242548E+01  0.24767671356E+03  0.24978084887E+03  0.17770000000E+01 0.  1.
         15    1    1    2    0    0  0.53104012998E+01 -0.22196005206E+02  0.24538383740E+03  0.24644928159E+03  0.17770000000E+01 0. -1.
</event>
<event>
 7    1  0.6581077E-006  0.5092220E+03  0.7546771E-02  0.9379408E-01
        -11   -1    0    0    0    0  0.00000000000E+00  0.00000000000E+00  0.50000000000E+03  0.50000000000E+03  0.00000000000E+00 0.  1.
         11   -1    0    0    0    0 -0.00000000000E+00 -0.00000000000E+00 -0.50000000000E+03  0.50000000000E+03  0.00000000000E+00 0. -1.
         23    2    1    2    0    0  0.10525385268E+03  0.10481461916E+03 -0.45894334890E+03  0.49077798317E+03  0.90385581673E+02 0.  0.
        -11    1    3    3    0    0  0.10612873855E+03  0.96139648941E+02 -0.46020364093E+03  0.48196839354E+03  0.00000000000E+00 0. -1.
         11    1    3    3    0    0 -0.87488586745E+00  0.86749702151E+01  0.12602920307E+01  0.88095896338E+01  0.00000000000E+00 0.  1.
        -15    1    1    2    0    0 -0.12782309043E+03 -0.22350449875E+02  0.21983765438E+03  0.25528422801E+03  0.17770000000E+01 0.  1.
         15    1    1    2    0    0  0.22569237751E+02 -0.82464169282E+02  0.23910569452E+03  0.25393778882E+03  0.17770000000E+01 0. -1.
</event>
<event>
 7    1  0.6581077E-006  0.5038006E+03  0.7546771E-02  0.9391346E-01
        -11   -1    0    0    0    0  0.00000000000E+00  0.00000000000E+00  0.50000000000E+03  0.50000000000E+03  0.00000000000E+00 0.  1.
         11   -1    0    0    0    0 -0.00000000000E+00 -0.00000000000E+00 -0.50000000000E+03  0.50000000000E+03  0.00000000000E+00 0. -1.
         23    2    1    2    0    0 -0.95838666867E+01 -0.11881600539E+03  0.48120351609E+03  0.50380055870E+03  0.89716695242E+02 0.  0.
        -11    1    3    3    0    0 -0.10138401760E+02 -0.75992198549E+02  0.13741448108E+03  0.15735418978E+03  0.00000000000E+00 0.  1.
         11    1    3    3    0    0  0.55453507362E+00 -0.42823806844E+02  0.34378903501E+03  0.34644636891E+03  0.00000000000E+00 0. -1.
        -15    1    1    2    0    0  0.63155136864E+01  0.11619787058E+03 -0.46708330427E+03  0.48136452061E+03  0.17770000000E+01 0. -1.
         15    1    1    2    0    0  0.32683530003E+01  0.26181348102E+01 -0.14120211819E+02  0.14834920695E+02  0.17770000000E+01 0.  1.
</event>
<event>
 7    1  0.6581077E-006  0.5040502E+03  0.7546771E-02  0.9390793E-01
        -11   -1    0    0    0    0  0.00000000000E+00  0.00000000000E+00  0.50000000000E+03  0.50000000000E+03  0.00000000000E+00 0. -1.
         11   -1    0    0    0    0 -0.00000000000E+00 -0.00000000000E+00 -0.50000000000E+03  0.50000000000E+03  0.00000000000E+00 0.  1.
         23    2    1    2    0    0  0.61839529928E+01  0.32832351203E+01  0.49587882480E+03  0.50405015042E+03  0.90120609981E+02 0.  0.
        -11    1    3    3    0    0  0.10986720043E+02  0.18029028624E+02  0.48413986925E+03  0.48460000711E+03  0.00000000000E+00 0. -1.
         11    1    3    3    0    0 -0.48027670505E+01 -0.14745793504E+02  0.11738955549E+02  0.19450143310E+02  0.00000000000E+00 0.  1.
        -15    1    1    2    0    0 -0.51846452194E+01 -0.15486988177E+01 -0.35326276300E+03  0.35330867024E+03  0.17770000000E+01 0.  1.
         15    1    1    2    0    0 -0.99930777340E+00 -0.17345363026E+01 -0.14261606180E+03  0.14264117934E+03  0.17770000000E+01 0.  1.
</event>
<event>
 7    1  0.6581077E-006  0.5264439E+03  0.7546771E-02  0.9342509E-01
        -11   -1    0    0    0    0  0.00000000000E+00  0.00000000000E+00  0.50000000000E+03  0.50000000000E+03  0.00000000000E+00 0. -1.
         11   -1    0    0    0    0 -0.00000000000E+00 -0.00000000000E+00 -0.50000000000E+03  0.50000000000E+03  0.00000000000E+00 0.  1.
         23    2    1    2    0    0  0.72462302221E+02  0.79254343593E+02  0.45195552791E+03  0.47355613003E+03  0.91975936318E+02 0.  0.
        -11    1    3    3    0    0 -0.88937840897E+01  0.39263651319E+02  0.23498701312E+03  0.23841063324E+03  0.00000000000E+00 0. -1.
         11    1    3    3    0    0  0.81356086311E+02  0.39990692274E+02  0.21696851479E+03  0.23514549679E+03  0.00000000000E+00 0.  1.
        -15    1    1    2    0    0  0.21284621440E+02 -0.28647869394E+02  0.21126453959E+02  0.41511688915E+02  0.17770000000E+01 0. -1.
         15    1    1    2    0    0 -0.93746923661E+02 -0.50606474198E+02 -0.47308198187E+03  0.48493218105E+03  0.17770000000E+01 0.  1.
</event>
<event>
 7    1  0.6581077E-006  0.5066011E+03  0.7546771E-02  0.9385159E-01
        -11   -1    0    0    0    0  0.00000000000E+00  0.00000000000E+00  0.50000000000E+03  0.50000000000E+03  0.00000000000E+00 0.  1.
         11   -1    0    0    0    0 -0.00000000000E+00 -0.00000000000E+00 -0.50000000000E+03  0.50000000000E+03  0.00000000000E+00 0. -1.
         23    2    1    2    0    0 -0.28421195088E+03 -0.22502028887E+02 -0.39992191268E+03  0.50660112353E+03  0.12419495882E+03 0.  0.
        -11    1    3    3    0    0 -0.70604968187E+02  0.44388825071E+01 -0.26473272725E+02  0.75535418046E+02  0.00000000000E+00 0.  1.
         11    1    3    3    0    0 -0.21360698269E+03 -0.26940911394E+02 -0.37344863995E+03  0.43106570548E+03  0.00000000000E+00 0. -1.
        -15    1    1    2    0    0  0.27502711571E+03  0.12566513044E+02  0.38168204970E+03  0.47061892909E+03  0.17770000000E+01 0.  1.
         15    1    1    2    0    0  0.91848351708E+01  0.99355158430E+01  0.18239862975E+02  0.22779947378E+02  0.17770000000E+01 0. -1.
</event>
<event>
 7    1  0.6581077E-006  0.5042385E+03  0.7546771E-02  0.9390375E-01
        -11   -1    0    0    0    0  0.00000000000E+00  0.00000000000E+00  0.50000000000E+03  0.50000000000E+03  0.00000000000E+00 0. -1.
         11   -1    0    0    0    0 -0.00000000000E+00 -0.00000000000E+00 -0.50000000000E+03  0.50000000000E+03  0.00000000000E+00 0.  1.
         23    2    1    2    0    0 -0.80314866914E+00 -0.22377297906E+01  0.49551380950E+03  0.50423845923E+03  0.93363996660E+02 0.  0.
        -11    1    3    3    0    0  0.47137351367E+01 -0.74710413082E+01  0.49649292222E+03  0.49657150298E+03  0.00000000000E+00 0. -1.
         11    1    3    3    0    0 -0.55168838058E+01  0.52333115176E+01 -0.97911271736E+00  0.76669562461E+01  0.00000000000E+00 0.  1.
        -15    1    1    2    0    0  0.31680160259E-01  0.75108590282E+01 -0.40501657423E+03  0.40509010990E+03  0.17770000000E+01 0.  1.
         15    1    1    2    0    0  0.77146850888E+00 -0.52731292376E+01 -0.90497235273E+02  0.90671430874E+02  0.17770000000E+01 0. -1.
</event>
<event>
 7    1  0.6581077E-006  0.8280859E+03  0.7546771E-02  0.8867872E-01
        -11   -1    0    0    0    0  0.00000000000E+00  0.00000000000E+00  0.50000000000E+03  0.50000000000E+03  0.00000000000E+00 0.  1.
         11   -1    0    0    0    0 -0.00000000000E+00 -0.00000000000E+00 -0.50000000000E+03  0.50000000000E+03  0.00000000000E+00 0. -1.
         23    2    1    2    0    0  0.83792124666E+02 -0.29575059492E+02  0.11527407358E+03  0.17191411719E+03  0.91490695431E+02 0.  0.
        -11    1    3    3    0    0  0.37459259194E+02  0.31905556440E+02  0.57389699772E+02  0.75595887924E+02  0.00000000000E+00 0. -1.
         11    1    3    3    0    0  0.46332865472E+02 -0.61480615932E+02  0.57884373807E+02  0.96318229268E+02  0.00000000000E+00 0.  1.
        -15    1    1    2    0    0 -0.19221587594E+03 -0.11764837371E+03  0.29948523597E+03  0.37481014806E+03  0.17770000000E+01 0.  1.
         15    1    1    2    0    0  0.10842375128E+03  0.14722343320E+03 -0.41475930955E+03  0.45327573474E+03  0.17770000000E+01 0. -1.
</event>
<event>
 7    1  0.6581077E-006  0.5041337E+03  0.7546771E-02  0.9390607E-01
        -11   -1    0    0    0    0  0.00000000000E+00  0.00000000000E+00  0.50000000000E+03  0.50000000000E+03  0.00000000000E+00 0.  1.
         11   -1    0    0    0    0 -0.00000000000E+00 -0.00000000000E+00 -0.50000000000E+03  0.50000000000E+03  0.00000000000E+00 0. -1.
         23    2    1    2    0    0  0.13363790592E+02  0.26492985692E+02  0.49487060994E+03  0.50413369398E+03  0.91506238212E+02 0.  0.
        -11    1    3    3    0    0  0.40286314475E+01  0.60542611490E+02  0.29632381583E+03  0.30247221609E+03  0.00000000000E+00 0. -1.
         11    1    3    3    0    0  0.93351591449E+01 -0.34049625798E+02  0.19854679411E+03  0.20166147789E+03  0.00000000000E+00 0.  1.
        -15    1    1    2    0    0  0.24937934560E+00 -0.73434635012E+01 -0.93770798687E+02  0.94075018265E+02  0.17770000000E+01 0.  1.
         15    1    1    2    0    0 -0.13613169938E+02 -0.19149522191E+02 -0.40109981126E+03  0.40179128775E+03  0.17770000000E+01 0. -1.
</event>
<event>
 7    1  0.6581077E-006  0.5026295E+03  0.7546771E-02  0.9393945E-01
        -11   -1    0    0    0    0  0.00000000000E+00  0.00000000000E+00  0.50000000000E+03  0.50000000000E+03  0.00000000000E+00 0.  1.
         11   -1    0    0    0    0 -0.00000000000E+00 -0.00000000000E+00 -0.50000000000E+03  0.50000000000E+03  0.00000000000E+00 0. -1.
         23    2    1    2    0    0  0.75016487390E+02 -0.29659197798E+02  0.48777926744E+03  0.50262945506E+03  0.90557241366E+02 0.  0.
        -11    1    3    3    0    0  0.48753717017E+01  0.25297745732E+02  0.54503740193E+02  0.60286009019E+02  0.00000000000E+00 0. -1.
         11    1    3    3    0    0  0.70141115688E+02 -0.54956943531E+02  0.43327552724E+03  0.44234344605E+03  0.00000000000E+00 0.  1.
        -15    1    1    2    0    0 -0.75854276231E+02  0.93933959839E+01 -0.40224065304E+03  0.40944206891E+03  0.17770000000E+01 0. -1.
         15    1    1    2    0    0  0.83778884076E+00  0.20265801815E+02 -0.85538614397E+02  0.87928476021E+02  0.17770000000E+01 0.  1.
</event>
<event>
 7    1  0.6581077E-006  0.5039708E+03  0.7546771E-02  0.9390968E-01
        -11   -1    0    0    0    0  0.00000000000E+00  0.00000000000E+00  0.50000000000E+03  0.50000000000E+03  0.00000000000E+00 0. -1.
         11   -1    0    0    0    0 -0.00000000000E+00 -0.00000000000E+00 -0.50000000000E+03  0.50000000000E+03  0.00000000000E+00 0. -1.
         23    2    1    2    0    0  0.22777159817E+01  0.81258158966E+00  0.49571468999E+03  0.50397075807E+03  0.90816423834E+02 0.  0.
        -11    1    3    3    0    0  0.24778845064E+02  0.11275405081E+02  0.45809984811E+03  0.45890804826E+03  0.00000000000E+00 0. -1.
         11    1    3    3    0    0 -0.22501129082E+02 -0.10462823492E+02  0.37614841879E+02  0.45062709805E+02  0.00000000000E+00 0. -1.
        -15    1    1    2    0    0 -0.15931709130E+00  0.80783542748E+01 -0.21007527564E+03  0.21023811347E+03  0.17770000000E+01 0. -1.
         15    1    1    2    0    0 -0.21183988904E+01 -0.88909358644E+01 -0.28563941435E+03  0.28579112847E+03  0.17770000000E+01 0.  1.
</event>
<event>
 7    1  0.6581077E-006  0.5039156E+03  0.7546771E-02  0.9391091E-01
        -11   -1    0    0    0    0  0.00000000000E+00  0.00000000000E+00  0.50000000000E+03  0.50000000000E+03  0.00000000000E+00 0.  1.
         11   -1    0    0    0    0 -0.00000000000E+00 -0.00000000000E+00 -0.50000000000E+03  0.50000000000E+03  0.00000000000E+00 0. -1.
         23    2    1    2    0    0 -0.73978844615E+01  0.19041616563E+00  0.49554090207E+03  0.50391557377E+03  0.91188567870E+02 0.  0.
        -11    1    3    3    0    0  0.36155581027E+02  0.22154672163E+02  0.25111927600E+03  0.25467419641E+03  0.00000000000E+00 0.  1.
         11    1    3    3    0    0 -0.43553465488E+02 -0.21964255997E+02  0.24442162607E+03  0.24924137736E+03  0.00000000000E+00 0. -1.
        -15    1    1    2    0    0 -0.40524836509E+01  0.15542044051E+01 -0.27514399814E+02  0.27911254024E+02  0.17770000000E+01 0.  1.
         15    1    1    2    0    0  0.11450368112E+02 -0.17446205707E+01 -0.46802650226E+03  0.46817317221E+03  0.17770000000E+01 0. -1.
</event>
<event>
 7    1  0.6581077E-006  0.5209417E+03  0.7546771E-02  0.9354133E-01
        -11   -1    0    0    0    0  0.00000000000E+00  0.00000000000E+00  0.50000000000E+03  0.50000000000E+03  0.00000000000E+00 0.  1.
         11   -1    0    0    0    0 -0.00000000000E+00 -0.00000000000E+00 -0.50000000000E+03  0.50000000000E+03  0.00000000000E+00 0. -1.
         23    2    1    2    0    0  0.10684559696E+02 -0.26374971655E+02  0.46942494537E+03  0.47905826907E+03  0.91253750017E+02 0.  0.
        -11    1    3    3    0    0  0.20929965292E+02 -0.73196215417E+01  0.22428369706E+02  0.31538422192E+02  0.00000000000E+00 0. -1.
         11    1    3    3    0    0 -0.10245405596E+02 -0.19055350113E+02  0.44699657566E+03  0.44751984688E+03  0.00000000000E+00 0.  1.
        -15    1    1    2    0    0  0.10410809520E+03  0.19206592367E+02 -0.27969388512E+03  0.29906389916E+03  0.17770000000E+01 0.  1.
         15    1    1    2    0    0 -0.11479265490E+03  0.71683792877E+01 -0.18973106025E+03  0.22187783177E+03  0.17770000000E+01 0. -1.
</event>
<event>
 7    1  0.6581077E-006  0.5448875E+03  0.7546771E-02  0.9304618E-01
        -11   -1    0    0    0    0  0.00000000000E+00  0.00000000000E+00  0.50000000000E+03  0.50000000000E+03  0.00000000000E+00 0.  1.
         11   -1    0    0    0    0 -0.00000000000E+00 -0.00000000000E+00 -0.50000000000E+03  0.50000000000E+03  0.00000000000E+00 0. -1.
         23    2    1    2    0    0  0.72580733903E+02 -0.28374460314E+02  0.43837459565E+03  0.45511251364E+03  0.94244580924E+02 0.  0.
        -11    1    3    3    0    0  0.20994056921E+02 -0.49093610091E+02  0.11247234925E+03  0.12450286071E+03  0.00000000000E+00 0. -1.
         11    1    3    3    0    0  0.51586676982E+02  0.20719149777E+02  0.32590224639E+03  0.33060965294E+03  0.00000000000E+00 0.  1.
        -15    1    1    2    0    0 -0.15896420447E+03  0.96978217799E+02 -0.16024174527E+03  0.24567248052E+03  0.17770000000E+01 0.  1.
         15    1    1    2    0    0  0.86383470569E+02 -0.68603757485E+02 -0.27813285038E+03  0.29921500583E+03  0.17770000000E+01 0. -1.
</event>
<event>
 7    1  0.6581077E-006  0.5208470E+03  0.7546771E-02  0.9354334E-01
        -11   -1    0    0    0    0  0.00000000000E+00  0.00000000000E+00  0.50000000000E+03  0.50000000000E+03  0.00000000000E+00 0. -1.
         11   -1    0    0    0    0 -0.00000000000E+00 -0.00000000000E+00 -0.50000000000E+03  0.50000000000E+03  0.00000000000E+00 0.  1.
         23    2    1    2    0    0  0.16480121126E+02  0.97869199500E+01  0.46999872377E+03  0.47915300214E+03  0.91221822584E+02 0.  0.
        -11    1    3    3    0    0  0.47267950980E+02  0.13206443894E+02  0.39457860978E+03  0.39761909996E+03  0.00000000000E+00 0. -1.
         11    1    3    3    0    0 -0.30787829854E+02 -0.34195239438E+01  0.75420113990E+02  0.81533902184E+02  0.00000000000E+00 0.  1.
        -15    1    1    2    0    0 -0.10304683316E+03 -0.61155863000E+02 -0.20628488252E+03  0.23856927692E+03  0.17770000000E+01 0. -1.
         15    1    1    2    0    0  0.86566712036E+02  0.51368943050E+02 -0.26371384125E+03  0.28227772094E+03  0.17770000000E+01 0.  1.
</event>
<event>
 7    1  0.6581077E-006  0.5030288E+03  0.7546771E-02  0.9393058E-01
        -11   -1    0    0    0    0  0.00000000000E+00  0.00000000000E+00  0.50000000000E+03  0.50000000000E+03  0.00000000000E+00 0.  1.
         11   -1    0    0    0    0 -0.00000000000E+00 -0.00000000000E+00 -0.50000000000E+03  0.50000000000E+03  0.00000000000E+00 0. -1.
         23    2    1    2    0    0 -0.10732392903E+02 -0.39685305915E+02  0.49506513780E+03  0.50302880425E+03  0.79109920180E+02 0.  0.
        -11    1    3    3    0    0 -0.23275285555E+02 -0.54935019683E+02  0.44849037228E+03  0.45244138773E+03  0.00000000000E+00 0.  1.
         11    1    3    3    0    0  0.12542892652E+02  0.15249713768E+02  0.46574765526E+02  0.50587416517E+02  0.00000000000E+00 0. -1.
        -15    1    1    2    0    0  0.13395876604E+02  0.34193276792E+02 -0.44202206450E+03  0.44354852375E+03  0.17770000000E+01 0. -1.
         15    1    1    2    0    0 -0.26634837017E+01  0.54920291227E+01 -0.53043073300E+02  0.53422671998E+02  0.17770000000E+01 0.  1.
</event>
<event>
 7    1  0.6581077E-006  0.5019153E+03  0.7546771E-02  0.9395534E-01
        -11   -1    0    0    0    0  0.00000000000E+00  0.00000000000E+00  0.50000000000E+03  0.50000000000E+03  0.00000000000E+00 0.  1.
         11   -1    0    0    0    0 -0.00000000000E+00 -0.00000000000E+00 -0.50000000000E+03  0.50000000000E+03  0.00000000000E+00 0. -1.
         23    2    1    2    0    0  0.46610986785E+03  0.49231616296E+02 -0.15476524126E+03  0.50191532776E+03  0.91019532994E+02 0.  0.
        -11    1    3    3    0    0  0.45742955564E+03  0.62393983332E+02 -0.15059025740E+03  0.48560501764E+03  0.00000000000E+00 0.  1.
         11    1    3    3    0    0  0.86803122090E+01 -0.13162367036E+02 -0.41749838638E+01  0.16310310123E+02  0.00000000000E+00 0. -1.
        -15    1    1    2    0    0 -0.45364036067E+03 -0.37991903880E+02  0.15584426808E+03  0.48116894664E+03  0.17770000000E+01 0. -1.
         15    1    1    2    0    0 -0.12469507189E+02 -0.11239712416E+02 -0.10790268143E+01  0.16915725600E+02  0.17770000000E+01 0.  1.
</event>
<event>
 7    1  0.6581077E-006  0.5037578E+03  0.7546771E-02  0.9391440E-01
        -11   -1    0    0    0    0  0.00000000000E+00  0.00000000000E+00  0.50000000000E+03  0.50000000000E+03  0.00000000000E+00 0.  1.
         11   -1    0    0    0    0 -0.00000000000E+00 -0.00000000000E+00 -0.50000000000E+03  0.50000000000E+03  0.00000000000E+00 0. -1.
         23    2    1    2    0    0 -0.84777524538E+01 -0.26023243579E+00  0.49536175360E+03  0.50375779167E+03  0.91195974326E+02 0.  0.
        -11    1    3    3    0    0 -0.10820113781E+01 -0.67921927455E+01  0.49370436649E+03  0.49375227201E+03  0.00000000000E+00 0.  1.
         11    1    3    3    0    0 -0.73957410757E+01  0.65319603097E+01  0.16573871107E+01  0.10005519656E+02  0.00000000000E+00 0. -1.
        -15    1    1    2    0    0 -0.57451878330E+00 -0.13044262005E+02 -0.19534046451E+03  0.19578441625E+03  0.17770000000E+01 0.  1.
         15    1    1    2    0    0  0.90522712371E+01  0.13304494441E+02 -0.30002128908E+03  0.30045779208E+03  0.17770000000E+01 0. -1.
</event>
<event>
 7    1  0.6581077E-006  0.5035849E+03  0.7546771E-02  0.9391824E-01
        -11   -1    0    0    0    0  0.00000000000E+00  0.00000000000E+00  0.50000000000E+03  0.50000000000E+03  0.00000000000E+00 0.  1.
         11   -1    0    0    0    0 -0.00000000000E+00 -0.00000000000E+00 -0.50000000000E+03  0.50000000000E+03  0.00000000000E+00 0. -1.
         23    2    1    2    0    0 -0.53362483142E+02 -0.13418021348E+03  0.47273374320E+03  0.50358486961E+03  0.96273800407E+02 0.  0.
        -11    1    3    3    0    0 -0.45957387779E+02 -0.80873144796E+01  0.14651362045E+03  0.15376516876E+03  0.00000000000E+00 0.  1.
         11    1    3    3    0    0 -0.74050953635E+01 -0.12609289900E+03  0.32622012274E+03  0.34981970084E+03  0.00000000000E+00 0. -1.
        -15    1    1    2    0    0  0.57667743683E+02  0.92038473605E+02 -0.35694711632E+03  0.37310997154E+03  0.17770000000E+01 0. -1.
         15    1    1    2    0    0 -0.43052605408E+01  0.42141739870E+02 -0.11578662688E+03  0.12330515886E+03  0.17770000000E+01 0.  1.
</event>
<event>
 7    1  0.6581077E-006  0.5010512E+03  0.7546771E-02  0.9397461E-01
        -11   -1    0    0    0    0  0.00000000000E+00  0.00000000000E+00  0.50000000000E+03  0.50000000000E+03  0.00000000000E+00 0.  1.
         11   -1    0    0    0    0 -0.00000000000E+00 -0.00000000000E+00 -0.50000000000E+03  0.50000000000E+03  0.00000000000E+00 0. -1.
         23    2    1    2    0    0 -0.57940533484E+02  0.10943297476E+03  0.47175593148E+03  0.49894882800E+03  0.10518361418E+03 0.  0.
        -11    1    3    3    0    0 -0.73916724915E+02  0.44087536471E+02  0.17972117094E+03  0.19926638547E+03  0.00000000000E+00 0.  1.
         11    1    3    3    0    0  0.15976191430E+02  0.65345438291E+02  0.29203476054E+03  0.29968244253E+03  0.00000000000E+00 0. -1.
        -15    1    1    2    0    0  0.16363753696E+02  0.14851205681E+02 -0.17808825231E+03  0.17946284876E+03  0.17770000000E+01 0.  1.
         15    1    1    2    0    0  0.41576779788E+02 -0.12428418044E+03 -0.29366767916E+03  0.32158832323E+03  0.17770000000E+01 0. -1.
</event>
<event>
 7    1  0.6581077E-006  0.5136360E+03  0.7546771E-02  0.9369805E-01
        -11   -1    0    0    0    0  0.00000000000E+00  0.00000000000E+00  0.50000000000E+03  0.50000000000E+03  0.00000000000E+00 0.  1.
         11   -1    0    0    0    0 -0.00000000000E+00 -0.00000000000E+00 -0.50000000000E+03  0.50000000000E+03  0.00000000000E+00 0. -1.
         23    2    1    2    0    0 -0.13778796029E+03 -0.24486941522E+03  0.38869438975E+03  0.48636400280E+03  0.80746901368E+02 0.  0.
        -11    1    3    3    0    0 -0.18542978324E+02 -0.11280513255E+03  0.14604659491E+03  0.18546818557E+03  0.00000000000E+00 0. -1.
         11    1    3    3    0    0 -0.11924498197E+03 -0.13206428267E+03  0.24264779484E+03  0.30089581723E+03  0.00000000000E+00 0.  1.
        -15    1    1    2    0    0  0.13925129817E+03  0.10672309421E+03 -0.12334724819E+03  0.21447247899E+03  0.17770000000E+01 0.  1.
         15    1    1    2    0    0 -0.14633378782E+01  0.13814632101E+03 -0.26534714156E+03  0.29916351821E+03  0.17770000000E+01 0. -1.
</event>
<event>
 7    1  0.6581077E-006  0.5032577E+03  0.7546771E-02  0.9392550E-01
        -11   -1    0    0    0    0  0.00000000000E+00  0.00000000000E+00  0.50000000000E+03  0.50000000000E+03  0.00000000000E+00 0. -1.
         11   -1    0    0    0    0 -0.00000000000E+00 -0.00000000000E+00 -0.50000000000E+03  0.50000000000E+03  0.00000000000E+00 0. -1.
         23    2    1    2    0    0 -0.36256215774E+00 -0.90309414130E+01  0.48923303897E+03  0.49674227568E+03  0.85570045427E+02 0.  0.
        -11    1    3    3    0    0 -0.42161832145E+02 -0.12681384695E+02  0.24122533151E+03  0.24521031416E+03  0.00000000000E+00 0. -1.
         11    1    3    3    0    0  0.41799269987E+02  0.36504432817E+01  0.24800770746E+03  0.25153196152E+03  0.00000000000E+00 0. -1.
        -15    1    1    2    0    0 -0.53649178667E+02 -0.85783578401E+01 -0.15570194880E+03  0.16491839553E+03  0.17770000000E+01 0.  1.
         15    1    1    2    0    0  0.54011740825E+02  0.17609299253E+02 -0.33353109017E+03  0.33833932879E+03  0.17770000000E+01 0. -1.
</event>
