<event>
 6    1  0.6767154E-007  0.3313250E+03  0.7546771E-02  0.9884380E-01
        -11   -1    0    0    0    0  0.00000000000E+00  0.00000000000E+00  0.50000000000E+03  0.50000000000E+03  0.00000000000E+00 0.  1.
         11   -1    0    0    0    0 -0.00000000000E+00 -0.00000000000E+00 -0.50000000000E+03  0.50000000000E+03  0.00000000000E+00 0. -1.
        -11    1    1    2    0    0  0.30980082975E+02  0.21725260608E+03  0.31837246493E+03  0.38667749717E+03  0.00000000000E+00 0.  1.
         11    1    1    2    0    0 -0.69083527362E+02 -0.21749366862E+02 -0.46314475075E+02  0.85968594924E+02  0.00000000000E+00 0. -1.
        -15    1    1    2    0    0 -0.14228978860E+02 -0.20422079248E+03  0.41876876391E+02  0.20896273933E+03  0.17770000000E+01 0.  1.
         15    1    1    2    0    0  0.52332423247E+02  0.87175532636E+01 -0.31393486624E+03  0.31839116858E+03  0.17770000000E+01 0. -1.
</event>
<event>
 6    1  0.6767154E-007  0.5342466E+03  0.7546771E-02  0.9326281E-01
        -11   -1    0    0    0    0  0.00000000000E+00  0.00000000000E+00  0.50000000000E+03  0.50000000000E+03  0.00000000000E+00 0. -1.
         11   -1    0    0    0    0 -0.00000000000E+00 -0.00000000000E+00 -0.50000000000E+03  0.50000000000E+03  0.00000000000E+00 0.  1.
        -11    1    1    2    0    0 -0.59438306179E+02 -0.60403743073E+02  0.18065254100E+03  0.19954163723E+03  0.00000000000E+00 0. -1.
         11    1    1    2    0    0 -0.15426933091E+02  0.61042320467E+02 -0.46147814307E+03  0.46575340222E+03  0.00000000000E+00 0.  1.
        -15    1    1    2    0    0  0.56100170067E+02  0.33804314135E+02  0.28750588978E+03  0.29487752563E+03  0.17770000000E+01 0. -1.
         15    1    1    2    0    0  0.18765069203E+02 -0.34442891529E+02 -0.66802877143E+01  0.39827434916E+02  0.17770000000E+01 0.  1.
</event>
<event>
 6    1  0.6767154E-007  0.5191676E+03  0.7546771E-02  0.9357914E-01
        -11   -1    0    0    0    0  0.00000000000E+00  0.00000000000E+00  0.50000000000E+03  0.50000000000E+03  0.00000000000E+00 0. -1.
         11   -1    0    0    0    0 -0.00000000000E+00 -0.00000000000E+00 -0.50000000000E+03  0.50000000000E+03  0.00000000000E+00 0. -1.
        -11    1    1    2    0    0 -0.65698435496E+02  0.21795856456E+02  0.27593038738E+03  0.28448009151E+03  0.00000000000E+00 0. -1.
         11    1    1    2    0    0 -0.34055612541E+02 -0.13927349816E+02 -0.47942264953E+03  0.48083243724E+03  0.00000000000E+00 0. -1.
        -15    1    1    2    0    0  0.20127040337E+02  0.22976415622E+02  0.41527633451E+02  0.51582123808E+02  0.17770000000E+01 0.  1.
         15    1    1    2    0    0  0.79627007700E+02 -0.30844922262E+02  0.16196462869E+03  0.18310534744E+03  0.17770000000E+01 0. -1.
</event>
<event>
 6    1  0.6767154E-007  0.5097613E+03  0.7546771E-02  0.9378229E-01
        -11   -1    0    0    0    0  0.00000000000E+00  0.00000000000E+00  0.50000000000E+03  0.50000000000E+03  0.00000000000E+00 0. -1.
         11   -1    0    0    0    0 -0.00000000000E+00 -0.00000000000E+00 -0.50000000000E+03  0.50000000000E+03  0.00000000000E+00 0. -1.
        -11    1    1    2    0    0 -0.11408872822E+03 -0.11447757406E+02  0.47664107884E+03  0.49023872459E+03  0.00000000000E+00 0. -1.
         11    1    1    2    0    0  0.44220618957E+02 -0.35238115612E+02 -0.12175002426E+03  0.13423954835E+03  0.00000000000E+00 0. -1.
        -15    1    1    2    0    0 -0.16736627892E+02 -0.50792026362E+01 -0.25152398075E+02  0.30687356852E+02  0.17770000000E+01 0.  1.
         15    1    1    2    0    0  0.86604737158E+02  0.51765075654E+02 -0.32973865650E+03  0.34483437020E+03  0.17770000000E+01 0. -1.
</event>
<event>
 6    1  0.6767154E-007  0.4628534E+03  0.7546771E-02  0.9486993E-01
        -11   -1    0    0    0    0  0.00000000000E+00  0.00000000000E+00  0.50000000000E+03  0.50000000000E+03  0.00000000000E+00 0. -1.
         11   -1    0    0    0    0 -0.00000000000E+00 -0.00000000000E+00 -0.50000000000E+03  0.50000000000E+03  0.00000000000E+00 0. -1.
        -11    1    1    2    0    0 -0.97111144345E+02 -0.24999386358E+00  0.45486326488E+03  0.46511420811E+03  0.00000000000E+00 0. -1.
         11    1    1    2    0    0 -0.14963677670E+02 -0.19000463642E+01 -0.30007596268E+01  0.15379414291E+02  0.00000000000E+00 0. -1.
        -15    1    1    2    0    0  0.31714543382E+02 -0.47840477681E+02  0.41772177083E+00  0.57426960455E+02  0.17770000000E+01 0.  1.
         15    1    1    2    0    0  0.80360278633E+02  0.49990517908E+02 -0.45228022702E+03  0.46207941714E+03  0.17770000000E+01 0. -1.
</event>
<event>
 6    1  0.6767154E-007  0.5637287E+03  0.7546771E-02  0.9267517E-01
        -11   -1    0    0    0    0  0.00000000000E+00  0.00000000000E+00  0.50000000000E+03  0.50000000000E+03  0.00000000000E+00 0.  1.
         11   -1    0    0    0    0 -0.00000000000E+00 -0.00000000000E+00 -0.50000000000E+03  0.50000000000E+03  0.00000000000E+00 0. -1.
        -11    1    1    2    0    0 -0.58920647901E+02 -0.14200450936E+03  0.40828385133E+03  0.43627127648E+03  0.00000000000E+00 0.  1.
         11    1    1    2    0    0  0.40183650791E+02  0.70375046351E+02 -0.36891240003E+03  0.37770852761E+03  0.00000000000E+00 0. -1.
        -15    1    1    2    0    0 -0.10241771546E+02  0.11944985417E+03 -0.42725065001E+01  0.11997738782E+03  0.17770000000E+01 0.  1.
         15    1    1    2    0    0  0.28978768656E+02 -0.47820391168E+02 -0.35098944804E+02  0.66042808084E+02  0.17770000000E+01 0. -1.
</event>
<event>
 6    1  0.6767154E-007  0.5483058E+03  0.7546771E-02  0.9297770E-01
        -11   -1    0    0    0    0  0.00000000000E+00  0.00000000000E+00  0.50000000000E+03  0.50000000000E+03  0.00000000000E+00 0. -1.
         11   -1    0    0    0    0 -0.00000000000E+00 -0.00000000000E+00 -0.50000000000E+03  0.50000000000E+03  0.00000000000E+00 0.  1.
        -11    1    1    2    0    0 -0.49139985747E+02  0.48285428331E+02  0.12371628797E+03  0.14160487526E+03  0.00000000000E+00 0. -1.
         11    1    1    2    0    0  0.79036095411E+02  0.16789684168E+03 -0.41181495907E+03  0.45169416018E+03  0.00000000000E+00 0.  1.
        -15    1    1    2    0    0  0.20685207208E+02 -0.14158753169E+03  0.28214486359E+03  0.31636021986E+03  0.17770000000E+01 0. -1.
         15    1    1    2    0    0 -0.50581316871E+02 -0.74594738312E+02  0.59538075119E+01  0.90340744701E+02  0.17770000000E+01 0.  1.
</event>
<event>
 6    1  0.6767154E-007  0.5826918E+03  0.7546771E-02  0.9231696E-01
        -11   -1    0    0    0    0  0.00000000000E+00  0.00000000000E+00  0.50000000000E+03  0.50000000000E+03  0.00000000000E+00 0. -1.
         11   -1    0    0    0    0 -0.00000000000E+00 -0.00000000000E+00 -0.50000000000E+03  0.50000000000E+03  0.00000000000E+00 0.  1.
        -11    1    1    2    0    0 -0.18793763075E+03  0.24444930404E+02  0.37179031139E+03  0.41730821142E+03  0.00000000000E+00 0. -1.
         11    1    1    2    0    0  0.17163041922E+03  0.49524734131E+02 -0.17534471426E+03  0.25031074470E+03  0.00000000000E+00 0.  1.
        -15    1    1    2    0    0 -0.11229606993E+03  0.12227204321E+02 -0.90848832804E+02  0.14497096260E+03  0.17770000000E+01 0. -1.
         15    1    1    2    0    0  0.12860328146E+03 -0.86196868856E+02 -0.10559676433E+03  0.18741008128E+03  0.17770000000E+01 0.  1.
</event>
<event>
 6    1  0.6767154E-007  0.5462734E+03  0.7546771E-02  0.9301835E-01
        -11   -1    0    0    0    0  0.00000000000E+00  0.00000000000E+00  0.50000000000E+03  0.50000000000E+03  0.00000000000E+00 0.  1.
         11   -1    0    0    0    0 -0.00000000000E+00 -0.00000000000E+00 -0.50000000000E+03  0.50000000000E+03  0.00000000000E+00 0. -1.
        -11    1    1    2    0    0  0.47202477035E+02 -0.42745945827E+02  0.38769699934E+03  0.39289216462E+03  0.00000000000E+00 0.  1.
         11    1    1    2    0    0  0.48970180481E+02  0.20782525865E+02  0.29509899120E+02  0.60834415455E+02  0.00000000000E+00 0. -1.
        -15    1    1    2    0    0  0.12559955989E+02 -0.13772730498E+03 -0.86096150316E+02  0.16291797893E+03  0.17770000000E+01 0.  1.
         15    1    1    2    0    0 -0.10873261351E+03  0.15969072494E+03 -0.33111074814E+03  0.38335544099E+03  0.17770000000E+01 0. -1.
</event>
<event>
 6    1  0.6767154E-007  0.3887008E+03  0.7546771E-02  0.9690388E-01
        -11   -1    0    0    0    0  0.00000000000E+00  0.00000000000E+00  0.50000000000E+03  0.50000000000E+03  0.00000000000E+00 0.  1.
         11   -1    0    0    0    0 -0.00000000000E+00 -0.00000000000E+00 -0.50000000000E+03  0.50000000000E+03  0.00000000000E+00 0. -1.
        -11    1    1    2    0    0  0.10637993963E+03  0.25950727024E+02  0.23640535233E+03  0.26053334220E+03  0.00000000000E+00 0.  1.
         11    1    1    2    0    0  0.51834073195E+02 -0.43591008169E+02 -0.40023456100E+03  0.40592443996E+03  0.00000000000E+00 0. -1.
        -15    1    1    2    0    0 -0.88149768971E+02  0.91741807984E+02 -0.14541810614E+02  0.12806858743E+03  0.17770000000E+01 0.  1.
         15    1    1    2    0    0 -0.70064243851E+02 -0.74101526839E+02  0.17837101928E+03  0.20547363041E+03  0.17770000000E+01 0. -1.
</event>
<event>
 6    1  0.6767154E-007  0.3191680E+03  0.7546771E-02  0.9930934E-01
        -11   -1    0    0    0    0  0.00000000000E+00  0.00000000000E+00  0.50000000000E+03  0.50000000000E+03  0.00000000000E+00 0.  1.
         11   -1    0    0    0    0 -0.00000000000E+00 -0.00000000000E+00 -0.50000000000E+03  0.50000000000E+03  0.00000000000E+00 0.  1.
        -11    1    1    2    0    0  0.12450721480E+03  0.75503328636E+02  0.30237816257E+03  0.33561190737E+03  0.00000000000E+00 0.  1.
         11    1    1    2    0    0 -0.23661468568E+02  0.11786577300E+03 -0.31708650722E+03  0.33911068783E+03  0.00000000000E+00 0.  1.
        -15    1    1    2    0    0 -0.24767444615E+02 -0.10914178666E+03 -0.10979755405E+03  0.15679290964E+03  0.17770000000E+01 0.  1.
         15    1    1    2    0    0 -0.76078301622E+02 -0.84227314972E+02  0.12450589871E+03  0.16848449515E+03  0.17770000000E+01 0. -1.
</event>
<event>
 6    1  0.6767154E-007  0.3923773E+03  0.7546771E-02  0.9679196E-01
        -11   -1    0    0    0    0  0.00000000000E+00  0.00000000000E+00  0.50000000000E+03  0.50000000000E+03  0.00000000000E+00 0.  1.
         11   -1    0    0    0    0 -0.00000000000E+00 -0.00000000000E+00 -0.50000000000E+03  0.50000000000E+03  0.00000000000E+00 0. -1.
        -11    1    1    2    0    0 -0.65522536650E+01 -0.13658823194E+03  0.33325815970E+03  0.36022253975E+03  0.00000000000E+00 0.  1.
         11    1    1    2    0    0 -0.46720538503E+02 -0.19589121852E+02 -0.84479580513E+00  0.50668097388E+02  0.00000000000E+00 0. -1.
        -15    1    1    2    0    0  0.25348638946E+02 -0.14466621669E+03 -0.99569717355E+01  0.14721809252E+03  0.17770000000E+01 0.  1.
         15    1    1    2    0    0  0.27924153223E+02  0.30084357049E+03 -0.32245639216E+03  0.44189127035E+03  0.17770000000E+01 0. -1.
</event>
<event>
 6    1  0.6767154E-007  0.3732324E+03  0.7546771E-02  0.9738974E-01
        -11   -1    0    0    0    0  0.00000000000E+00  0.00000000000E+00  0.50000000000E+03  0.50000000000E+03  0.00000000000E+00 0.  1.
         11   -1    0    0    0    0 -0.00000000000E+00 -0.00000000000E+00 -0.50000000000E+03  0.50000000000E+03  0.00000000000E+00 0. -1.
        -11    1    1    2    0    0  0.93876605669E+02 -0.23764334170E+02  0.58096705118E+02  0.11292824189E+03  0.00000000000E+00 0.  1.
         11    1    1    2    0    0  0.85779397748E+02 -0.13269770882E+02 -0.41701651026E+03  0.42595417797E+03  0.00000000000E+00 0. -1.
        -15    1    1    2    0    0  0.30392143757E+02 -0.51788188462E+02  0.93960338207E+02  0.11152309963E+03  0.17770000000E+01 0.  1.
         15    1    1    2    0    0 -0.21004814717E+03  0.88822293514E+02  0.26495946694E+03  0.34959448051E+03  0.17770000000E+01 0. -1.
</event>
<event>
 6    1  0.6767154E-007  0.5821189E+03  0.7546771E-02  0.9232757E-01
        -11   -1    0    0    0    0  0.00000000000E+00  0.00000000000E+00  0.50000000000E+03  0.50000000000E+03  0.00000000000E+00 0. -1.
         11   -1    0    0    0    0 -0.00000000000E+00 -0.00000000000E+00 -0.50000000000E+03  0.50000000000E+03  0.00000000000E+00 0.  1.
        -11    1    1    2    0    0 -0.49583439766E+02  0.12449508930E+02  0.31899534530E+03  0.32306584173E+03  0.00000000000E+00 0. -1.
         11    1    1    2    0    0  0.47684636765E+02 -0.72037848588E+02 -0.40885372500E+03  0.41788113700E+03  0.00000000000E+00 0.  1.
        -15    1    1    2    0    0  0.82604305837E+02  0.24519794674E+02  0.13497946264E+03  0.16014775908E+03  0.17770000000E+01 0. -1.
         15    1    1    2    0    0 -0.80705502836E+02  0.35068544984E+02 -0.45121082932E+02  0.98905262192E+02  0.17770000000E+01 0.  1.
</event>
<event>
 6    1  0.6767154E-007  0.3365832E+03  0.7546771E-02  0.9864903E-01
        -11   -1    0    0    0    0  0.00000000000E+00  0.00000000000E+00  0.50000000000E+03  0.50000000000E+03  0.00000000000E+00 0. -1.
         11   -1    0    0    0    0 -0.00000000000E+00 -0.00000000000E+00 -0.50000000000E+03  0.50000000000E+03  0.00000000000E+00 0. -1.
        -11    1    1    2    0    0 -0.81017315173E+02 -0.37042572349E+02  0.13372638350E+02  0.90082101332E+02  0.00000000000E+00 0. -1.
         11    1    1    2    0    0 -0.11679187022E+03 -0.46443415075E+02 -0.39002260413E+03  0.40977428358E+03  0.00000000000E+00 0. -1.
        -15    1    1    2    0    0  0.12021147516E+03 -0.81767547022E+02  0.14693614891E+03  0.20671265102E+03  0.17770000000E+01 0.  1.
         15    1    1    2    0    0  0.77597710237E+02  0.16525353444E+03  0.22971381687E+03  0.29343096406E+03  0.17770000000E+01 0. -1.
</event>
<event>
 6    1  0.6767154E-007  0.2796935E+03  0.7546771E-02  0.1009899E+00
        -11   -1    0    0    0    0  0.00000000000E+00  0.00000000000E+00  0.50000000000E+03  0.50000000000E+03  0.00000000000E+00 0.  1.
         11   -1    0    0    0    0 -0.00000000000E+00 -0.00000000000E+00 -0.50000000000E+03  0.50000000000E+03  0.00000000000E+00 0. -1.
        -11    1    1    2    0    0  0.53950081631E+02  0.17808408319E+03  0.18580837289E+03  0.26296255139E+03  0.00000000000E+00 0.  1.
         11    1    1    2    0    0  0.95889236030E+02 -0.27451138867E+01 -0.19937869693E+03  0.22125583840E+03  0.00000000000E+00 0. -1.
        -15    1    1    2    0    0  0.13374481194E+03  0.13607516112E+02  0.95977095137E+02  0.16518958725E+03  0.17770000000E+01 0.  1.
         15    1    1    2    0    0 -0.28358412960E+03 -0.18894648542E+03 -0.82406771100E+02  0.35059202296E+03  0.17770000000E+01 0. -1.
</event>
<event>
 6    1  0.6767154E-007  0.4867481E+03  0.7546771E-02  0.9429960E-01
        -11   -1    0    0    0    0  0.00000000000E+00  0.00000000000E+00  0.50000000000E+03  0.50000000000E+03  0.00000000000E+00 0. -1.
         11   -1    0    0    0    0 -0.00000000000E+00 -0.00000000000E+00 -0.50000000000E+03  0.50000000000E+03  0.00000000000E+00 0. -1.
        -11    1    1    2    0    0 -0.62245363228E+01 -0.59456249937E+02  0.47249681318E+03  0.47626361290E+03  0.00000000000E+00 0. -1.
         11    1    1    2    0    0  0.23125909292E+02 -0.31077136007E+02 -0.19278172690E+02  0.43269435001E+02  0.00000000000E+00 0. -1.
        -15    1    1    2    0    0  0.39724158534E+02  0.19447515319E+02 -0.29243972547E+03  0.29577079874E+03  0.17770000000E+01 0.  1.
         15    1    1    2    0    0 -0.56625531504E+02  0.71085870625E+02 -0.16077891502E+03  0.18469615336E+03  0.17770000000E+01 0. -1.
</event>
<event>
 6    1  0.6767154E-007  0.5111308E+03  0.7546771E-02  0.9375243E-01
        -11   -1    0    0    0    0  0.00000000000E+00  0.00000000000E+00  0.50000000000E+03  0.50000000000E+03  0.00000000000E+00 0.  1.
         11   -1    0    0    0    0 -0.00000000000E+00 -0.00000000000E+00 -0.50000000000E+03  0.50000000000E+03  0.00000000000E+00 0. -1.
        -11    1    1    2    0    0 -0.69280025051E+02 -0.10509793693E+02  0.48382120478E+03  0.48886924205E+03  0.00000000000E+00 0.  1.
         11    1    1    2    0    0  0.39798027281E+02 -0.10614079894E+01 -0.32930831698E+03  0.33170616093E+03  0.00000000000E+00 0. -1.
        -15    1    1    2    0    0 -0.25804065315E+02  0.18965776683E+02 -0.81073256318E+02  0.87187046578E+02  0.17770000000E+01 0.  1.
         15    1    1    2    0    0  0.55286063086E+02 -0.73945750002E+01 -0.73439631478E+02  0.92237550442E+02  0.17770000000E+01 0. -1.
</event>
<event>
 6    1  0.6767154E-007  0.5494070E+03  0.7546771E-02  0.9295575E-01
        -11   -1    0    0    0    0  0.00000000000E+00  0.00000000000E+00  0.50000000000E+03  0.50000000000E+03  0.00000000000E+00 0. -1.
         11   -1    0    0    0    0 -0.00000000000E+00 -0.00000000000E+00 -0.50000000000E+03  0.50000000000E+03  0.00000000000E+00 0.  1.
        -11    1    1    2    0    0  0.32773790159E+02 -0.22696691329E+02  0.19354514805E+03  0.19760816140E+03  0.00000000000E+00 0. -1.
         11    1    1    2    0    0  0.38725229545E+02  0.37161634480E+02 -0.44738513632E+03  0.45059304331E+03  0.00000000000E+00 0.  1.
        -15    1    1    2    0    0 -0.52758123405E+02  0.31149776343E+02  0.28626444107E+03  0.29275282424E+03  0.17770000000E+01 0. -1.
         15    1    1    2    0    0 -0.18740896299E+02 -0.45614719495E+02 -0.32424452802E+02  0.59045971050E+02  0.17770000000E+01 0.  1.
</event>
<event>
 6    1  0.6767154E-007  0.5226187E+03  0.7546771E-02  0.9350574E-01
        -11   -1    0    0    0    0  0.00000000000E+00  0.00000000000E+00  0.50000000000E+03  0.50000000000E+03  0.00000000000E+00 0.  1.
         11   -1    0    0    0    0 -0.00000000000E+00 -0.00000000000E+00 -0.50000000000E+03  0.50000000000E+03  0.00000000000E+00 0.  1.
        -11    1    1    2    0    0 -0.14474273522E+02  0.15154840209E+02  0.10074710800E+03  0.10290361289E+03  0.00000000000E+00 0.  1.
         11    1    1    2    0    0  0.58482545071E+02  0.73217053310E+02 -0.46809397933E+03  0.47738131348E+03  0.00000000000E+00 0.  1.
        -15    1    1    2    0    0 -0.35242522981E+02 -0.12400573353E+00 -0.61594117547E+01  0.35821039706E+02  0.17770000000E+01 0. -1.
         15    1    1    2    0    0 -0.87657485677E+01 -0.88247887785E+02  0.37350628309E+03  0.38389403392E+03  0.17770000000E+01 0.  1.
</event>
<event>
 6    1  0.6767154E-007  0.5765360E+03  0.7546771E-02  0.9243165E-01
        -11   -1    0    0    0    0  0.00000000000E+00  0.00000000000E+00  0.50000000000E+03  0.50000000000E+03  0.00000000000E+00 0. -1.
         11   -1    0    0    0    0 -0.00000000000E+00 -0.00000000000E+00 -0.50000000000E+03  0.50000000000E+03  0.00000000000E+00 0. -1.
        -11    1    1    2    0    0 -0.69406415231E+02  0.31311723684E+02  0.41656225413E+03  0.42346403162E+03  0.00000000000E+00 0. -1.
         11    1    1    2    0    0 -0.44854687610E+02 -0.26826807464E+02 -0.22707739353E+03  0.23301451297E+03  0.00000000000E+00 0. -1.
        -15    1    1    2    0    0 -0.71941410447E+02  0.52976146417E+02 -0.80328061348E+02  0.12015737096E+03  0.17770000000E+01 0.  1.
         15    1    1    2    0    0  0.18620251329E+03 -0.57461062636E+02 -0.10915679925E+03  0.22336408446E+03  0.17770000000E+01 0. -1.
</event>
<event>
 6    1  0.6767154E-007  0.4536606E+03  0.7546771E-02  0.9509919E-01
        -11   -1    0    0    0    0  0.00000000000E+00  0.00000000000E+00  0.50000000000E+03  0.50000000000E+03  0.00000000000E+00 0.  1.
         11   -1    0    0    0    0 -0.00000000000E+00 -0.00000000000E+00 -0.50000000000E+03  0.50000000000E+03  0.00000000000E+00 0. -1.
        -11    1    1    2    0    0  0.34982716619E+02  0.34089018467E+01  0.95884610033E+02  0.10212379505E+03  0.00000000000E+00 0.  1.
         11    1    1    2    0    0 -0.86381747411E+02  0.51844402829E+02 -0.47944212703E+03  0.48991264687E+03  0.00000000000E+00 0. -1.
        -15    1    1    2    0    0 -0.34129846747E+02 -0.19588364758E+02  0.18057761365E+03  0.18482419418E+03  0.17770000000E+01 0.  1.
         15    1    1    2    0    0  0.85528877538E+02 -0.35664939918E+02  0.20297990335E+03  0.22313936390E+03  0.17770000000E+01 0. -1.
</event>
<event>
 6    1  0.6767154E-007  0.5430671E+03  0.7546771E-02  0.9308286E-01
        -11   -1    0    0    0    0  0.00000000000E+00  0.00000000000E+00  0.50000000000E+03  0.50000000000E+03  0.00000000000E+00 0.  1.
         11   -1    0    0    0    0 -0.00000000000E+00 -0.00000000000E+00 -0.50000000000E+03  0.50000000000E+03  0.00000000000E+00 0. -1.
        -11    1    1    2    0    0 -0.12108148913E+02  0.12141125726E+03  0.44034119837E+03  0.45693289621E+03  0.00000000000E+00 0.  1.
         11    1    1    2    0    0 -0.10564151785E+02 -0.25745827748E+02 -0.19344855688E+03  0.19543999874E+03  0.00000000000E+00 0. -1.
        -15    1    1    2    0    0  0.70485864447E+02 -0.49882174088E+02  0.56426896139E+01  0.86553371128E+02  0.17770000000E+01 0.  1.
         15    1    1    2    0    0 -0.47813563749E+02 -0.45783255421E+02 -0.25253533111E+03  0.26107373392E+03  0.17770000000E+01 0. -1.
</event>
<event>
 6    1  0.6767154E-007  0.3441768E+03  0.7546771E-02  0.9837440E-01
        -11   -1    0    0    0    0  0.00000000000E+00  0.00000000000E+00  0.50000000000E+03  0.50000000000E+03  0.00000000000E+00 0.  1.
         11   -1    0    0    0    0 -0.00000000000E+00 -0.00000000000E+00 -0.50000000000E+03  0.50000000000E+03  0.00000000000E+00 0.  1.
        -11    1    1    2    0    0 -0.63538156863E+02  0.10793784059E+02  0.89105311111E+01  0.65061514865E+02  0.00000000000E+00 0.  1.
         11    1    1    2    0    0 -0.23873747701E+02  0.63144546228E+02 -0.31267552772E+03  0.31987993870E+03  0.00000000000E+00 0.  1.
        -15    1    1    2    0    0 -0.29970042031E+02  0.20301290189E+03  0.28267728540E+02  0.20715854787E+03  0.17770000000E+01 0. -1.
         15    1    1    2    0    0  0.11738194660E+03 -0.27695123217E+03  0.27549726807E+03  0.40789999856E+03  0.17770000000E+01 0.  1.
</event>
<event>
 6    1  0.6767154E-007  0.5734362E+03  0.7546771E-02  0.9248997E-01
        -11   -1    0    0    0    0  0.00000000000E+00  0.00000000000E+00  0.50000000000E+03  0.50000000000E+03  0.00000000000E+00 0.  1.
         11   -1    0    0    0    0 -0.00000000000E+00 -0.00000000000E+00 -0.50000000000E+03  0.50000000000E+03  0.00000000000E+00 0.  1.
        -11    1    1    2    0    0 -0.70868474797E+02 -0.41414254737E+02  0.25510733298E+03  0.26798737387E+03  0.00000000000E+00 0.  1.
         11    1    1    2    0    0 -0.44322686920E+02 -0.28815019694E+02 -0.42327514474E+03  0.42656377494E+03  0.00000000000E+00 0.  1.
        -15    1    1    2    0    0  0.10746875173E+02 -0.34066881898E+01 -0.50716123857E+02  0.51984457278E+02  0.17770000000E+01 0.  1.
         15    1    1    2    0    0  0.10444428654E+03  0.73635962622E+02  0.21888393562E+03  0.25346439391E+03  0.17770000000E+01 0. -1.
</event>
<event>
 6    1  0.6767154E-007  0.5368455E+03  0.7546771E-02  0.9320941E-01
        -11   -1    0    0    0    0  0.00000000000E+00  0.00000000000E+00  0.50000000000E+03  0.50000000000E+03  0.00000000000E+00 0. -1.
         11   -1    0    0    0    0 -0.00000000000E+00 -0.00000000000E+00 -0.50000000000E+03  0.50000000000E+03  0.00000000000E+00 0. -1.
        -11    1    1    2    0    0  0.32153322246E+02 -0.39778774796E+02  0.15116790549E+03  0.15958672471E+03  0.00000000000E+00 0. -1.
         11    1    1    2    0    0  0.20278362770E+02 -0.15379024707E+03 -0.43640513209E+03  0.46315450057E+03  0.00000000000E+00 0. -1.
        -15    1    1    2    0    0 -0.89024520376E+02  0.16714599791E+03  0.17392557564E+03  0.25713112109E+03  0.17770000000E+01 0. -1.
         15    1    1    2    0    0  0.36592835360E+02  0.26423023961E+02  0.11131165096E+03  0.12012765362E+03  0.17770000000E+01 0.  1.
</event>
<event>
 6    1  0.6767154E-007  0.5420651E+03  0.7546771E-02  0.9310312E-01
        -11   -1    0    0    0    0  0.00000000000E+00  0.00000000000E+00  0.50000000000E+03  0.50000000000E+03  0.00000000000E+00 0.  1.
         11   -1    0    0    0    0 -0.00000000000E+00 -0.00000000000E+00 -0.50000000000E+03  0.50000000000E+03  0.00000000000E+00 0.  1.
        -11    1    1    2    0    0  0.28238047344E+02  0.45862831310E+01  0.33373871546E+03  0.33496261210E+03  0.00000000000E+00 0.  1.
         11    1    1    2    0    0  0.52871881847E+02 -0.10291211602E+03 -0.44307788405E+03  0.45793487621E+03  0.00000000000E+00 0.  1.
        -15    1    1    2    0    0 -0.19508046008E+02  0.35199083998E+02  0.11181186016E+03  0.11884691487E+03  0.17770000000E+01 0.  1.
         15    1    1    2    0    0 -0.61601883183E+02  0.63126748894E+02 -0.24726915691E+01  0.88255596821E+02  0.17770000000E+01 0. -1.
</event>
<event>
 6    1  0.6767154E-007  0.5431989E+03  0.7546771E-02  0.9308020E-01
        -11   -1    0    0    0    0  0.00000000000E+00  0.00000000000E+00  0.50000000000E+03  0.50000000000E+03  0.00000000000E+00 0. -1.
         11   -1    0    0    0    0 -0.00000000000E+00 -0.00000000000E+00 -0.50000000000E+03  0.50000000000E+03  0.00000000000E+00 0. -1.
        -11    1    1    2    0    0  0.48634048772E+02  0.31693190480E+01  0.45419375038E+03  0.45680113635E+03  0.00000000000E+00 0. -1.
         11    1    1    2    0    0 -0.50568432438E+02  0.42252391140E+02 -0.89290851323E+02  0.11097426299E+03  0.00000000000E+00 0. -1.
        -15    1    1    2    0    0 -0.23761262414E+02 -0.29651046320E+02  0.22134952212E+02  0.44010180389E+02  0.17770000000E+01 0.  1.
         15    1    1    2    0    0  0.25695646081E+02 -0.15770663868E+02 -0.38703785127E+03  0.38821442028E+03  0.17770000000E+01 0. -1.
</event>
<event>
 6    1  0.6767154E-007  0.4147517E+03  0.7546771E-02  0.9613791E-01
        -11   -1    0    0    0    0  0.00000000000E+00  0.00000000000E+00  0.50000000000E+03  0.50000000000E+03  0.00000000000E+00 0.  1.
         11   -1    0    0    0    0 -0.00000000000E+00 -0.00000000000E+00 -0.50000000000E+03  0.50000000000E+03  0.00000000000E+00 0.  1.
        -11    1    1    2    0    0  0.43357360403E+02  0.52735303714E+02  0.19536649818E+02  0.71010940320E+02  0.00000000000E+00 0.  1.
         11    1    1    2    0    0  0.17029175159E+02 -0.68594477160E+02 -0.38600272650E+03  0.39241980068E+03  0.00000000000E+00 0.  1.
        -15    1    1    2    0    0  0.17140857598E+02  0.49104864297E+02 -0.72680472661E+02  0.89390746345E+02  0.17770000000E+01 0. -1.
         15    1    1    2    0    0 -0.77527393160E+02 -0.33245690851E+02  0.43914654934E+03  0.44717851265E+03  0.17770000000E+01 0.  1.
</event>
<event>
 6    1  0.6767154E-007  0.3007912E+03  0.7546771E-02  0.1000571E+00
        -11   -1    0    0    0    0  0.00000000000E+00  0.00000000000E+00  0.50000000000E+03  0.50000000000E+03  0.00000000000E+00 0. -1.
         11   -1    0    0    0    0 -0.00000000000E+00 -0.00000000000E+00 -0.50000000000E+03  0.50000000000E+03  0.00000000000E+00 0. -1.
        -11    1    1    2    0    0  0.11086520862E+03  0.65168199019E+02 -0.90146238699E+00  0.12860327088E+03  0.00000000000E+00 0. -1.
         11    1    1    2    0    0  0.12803142752E+02 -0.14662598584E+03 -0.35521792529E+03  0.38450341304E+03  0.00000000000E+00 0. -1.
        -15    1    1    2    0    0 -0.15806709815E+03 -0.72291609462E+02  0.17159481090E+03  0.24425237188E+03  0.17770000000E+01 0. -1.
         15    1    1    2    0    0  0.34398746777E+02  0.15374939628E+03  0.18452457678E+03  0.24264094420E+03  0.17770000000E+01 0.  1.
</event>
<event>
 6    1  0.6767154E-007  0.5417180E+03  0.7546771E-02  0.9311015E-01
        -11   -1    0    0    0    0  0.00000000000E+00  0.00000000000E+00  0.50000000000E+03  0.50000000000E+03  0.00000000000E+00 0. -1.
         11   -1    0    0    0    0 -0.00000000000E+00 -0.00000000000E+00 -0.50000000000E+03  0.50000000000E+03  0.00000000000E+00 0. -1.
        -11    1    1    2    0    0 -0.20829694570E+01 -0.23114286028E+02  0.17399825215E+03  0.17553917150E+03  0.00000000000E+00 0. -1.
         11    1    1    2    0    0 -0.36306871113E+02 -0.36329964276E+02 -0.45539466229E+03  0.45828195866E+03  0.00000000000E+00 0. -1.
        -15    1    1    2    0    0  0.64345262793E+02 -0.41823198576E+02  0.24293284121E+03  0.25477247860E+03  0.17770000000E+01 0.  1.
         15    1    1    2    0    0 -0.25955422222E+02  0.10126744888E+03  0.38463568926E+02  0.11140639124E+03  0.17770000000E+01 0. -1.
</event>
<event>
 6    1  0.6767154E-007  0.5902881E+03  0.7546771E-02  0.9217750E-01
        -11   -1    0    0    0    0  0.00000000000E+00  0.00000000000E+00  0.50000000000E+03  0.50000000000E+03  0.00000000000E+00 0.  1.
         11   -1    0    0    0    0 -0.00000000000E+00 -0.00000000000E+00 -0.50000000000E+03  0.50000000000E+03  0.00000000000E+00 0. -1.
        -11    1    1    2    0    0 -0.49916803431E+02  0.13908031801E+02  0.40642184590E+03  0.40971189566E+03  0.00000000000E+00 0.  1.
         11    1    1    2    0    0  0.96928614336E+02  0.49941832606E+02 -0.17401175472E+03  0.20535197516E+03  0.00000000000E+00 0. -1.
        -15    1    1    2    0    0  0.10438119910E+01 -0.31245477898E+02  0.70164078951E+02  0.76834400737E+02  0.17770000000E+01 0.  1.
         15    1    1    2    0    0 -0.48055622897E+02 -0.32604386509E+02 -0.30257417013E+03  0.30810172844E+03  0.17770000000E+01 0. -1.
</event>
<event>
 6    1  0.6767154E-007  0.4913261E+03  0.7546771E-02  0.9419430E-01
        -11   -1    0    0    0    0  0.00000000000E+00  0.00000000000E+00  0.50000000000E+03  0.50000000000E+03  0.00000000000E+00 0. -1.
         11   -1    0    0    0    0 -0.00000000000E+00 -0.00000000000E+00 -0.50000000000E+03  0.50000000000E+03  0.00000000000E+00 0.  1.
        -11    1    1    2    0    0  0.76428071969E+02 -0.66559633017E+02  0.47582034818E+03  0.48649402738E+03  0.00000000000E+00 0. -1.
         11    1    1    2    0    0 -0.25362848060E+02  0.53879856852E+01 -0.48614968938E+01  0.26380648277E+02  0.00000000000E+00 0.  1.
        -15    1    1    2    0    0 -0.25753278948E+02  0.44163227123E+01 -0.22946539275E+02  0.34820061410E+02  0.17770000000E+01 0. -1.
         15    1    1    2    0    0 -0.25311944962E+02  0.56755324620E+02 -0.44801231201E+03  0.45230526293E+03  0.17770000000E+01 0.  1.
</event>
<event>
 6    1  0.6767154E-007  0.3556008E+03  0.7546771E-02  0.9797526E-01
        -11   -1    0    0    0    0  0.00000000000E+00  0.00000000000E+00  0.50000000000E+03  0.50000000000E+03  0.00000000000E+00 0. -1.
         11   -1    0    0    0    0 -0.00000000000E+00 -0.00000000000E+00 -0.50000000000E+03  0.50000000000E+03  0.00000000000E+00 0. -1.
        -11    1    1    2    0    0  0.21264265841E+02 -0.29578634109E+02  0.88928753016E+02  0.96100924608E+02  0.00000000000E+00 0. -1.
         11    1    1    2    0    0  0.77765694275E+02  0.29392230449E+02 -0.44667177500E+03  0.45434247105E+03  0.00000000000E+00 0. -1.
        -15    1    1    2    0    0 -0.16320893996E+03 -0.69584100157E+02  0.23426800780E+03  0.29387712106E+03  0.17770000000E+01 0. -1.
         15    1    1    2    0    0  0.64178979845E+02  0.69770503818E+02  0.12347501419E+03  0.15567948328E+03  0.17770000000E+01 0.  1.
</event>
