<event>
 6    1  0.1775046E-008  0.9434991E+02  0.7546771E-02  0.1173966E+00
        -11   -1    0    0    0    0  0.00000000000E+00  0.00000000000E+00  0.18250000000E+03  0.18250000000E+03  0.00000000000E+00 0. -1.
         11   -1    0    0    0    0 -0.00000000000E+00 -0.00000000000E+00 -0.18250000000E+03  0.18250000000E+03  0.00000000000E+00 0.  1.
        -11    1    1    2    0    0 -0.66557011661E+01 -0.45004339538E+02  0.16872141010E+02  0.48521727890E+02  0.00000000000E+00 0. -1.
         11    1    1    2    0    0  0.55376399457E+02 -0.24177845236E+02 -0.96070306879E+02  0.11349280894E+03  0.00000000000E+00 0.  1.
        -15    1    1    2    0    0  0.28439460439E+02  0.99715792207E+02  0.39440494019E+02  0.11095383014E+03  0.17770000000E+01 0. -1.
         15    1    1    2    0    0 -0.77160158730E+02 -0.30533607434E+02  0.39757671850E+02  0.92031633029E+02  0.17770000000E+01 0.  1.
</event>
<event>
 6    1  0.1775046E-008  0.8866151E+02  0.7546771E-02  0.1185022E+00
        -11   -1    0    0    0    0  0.00000000000E+00  0.00000000000E+00  0.18250000000E+03  0.18250000000E+03  0.00000000000E+00 0. -1.
         11   -1    0    0    0    0 -0.00000000000E+00 -0.00000000000E+00 -0.18250000000E+03  0.18250000000E+03  0.00000000000E+00 0.  1.
        -11    1    1    2    0    0  0.25513479500E+02  0.65987304858E+02  0.60777892718E+02  0.93269578545E+02  0.00000000000E+00 0. -1.
         11    1    1    2    0    0  0.11459722206E+02 -0.12751787487E+03 -0.39770245561E+02  0.13406642412E+03  0.00000000000E+00 0.  1.
        -15    1    1    2    0    0 -0.52596508775E+02  0.33474254241E+01  0.28252012984E+02  0.59824175372E+02  0.17770000000E+01 0. -1.
         15    1    1    2    0    0  0.15623307069E+02  0.58183144585E+02 -0.49259660141E+02  0.77839821966E+02  0.17770000000E+01 0.  1.
</event>
<event>
 6    1  0.2170136E-008  0.1145164E+03  0.7546771E-02  0.1140840E+00
        -11   -1    0    0    0    0  0.00000000000E+00  0.00000000000E+00  0.18250000000E+03  0.18250000000E+03  0.00000000000E+00 0.  1.
         11   -1    0    0    0    0 -0.00000000000E+00 -0.00000000000E+00 -0.18250000000E+03  0.18250000000E+03  0.00000000000E+00 0. -1.
        -11    1    1    2    0    0 -0.38444963817E+02  0.52903886202E+02  0.87133856941E+02  0.10894560773E+03  0.00000000000E+00 0.  1.
         11    1    1    2    0    0 -0.16515159777E+02 -0.54337608777E+02 -0.23749816662E+02  0.61557940362E+02  0.00000000000E+00 0. -1.
        -15    1    1    2    0    0  0.24490600022E+02  0.55164095683E+01  0.61195067590E+02  0.66168076066E+02  0.17770000000E+01 0.  1.
         15    1    1    2    0    0  0.30469523572E+02 -0.40826869929E+01 -0.12457910787E+03  0.12832837584E+03  0.17770000000E+01 0. -1.
</event>
<event>
 6    1  0.1775046E-008  0.1472223E+03  0.7546771E-02  0.1100619E+00
        -11   -1    0    0    0    0  0.00000000000E+00  0.00000000000E+00  0.18250000000E+03  0.18250000000E+03  0.00000000000E+00 0. -1.
         11   -1    0    0    0    0 -0.00000000000E+00 -0.00000000000E+00 -0.18250000000E+03  0.18250000000E+03  0.00000000000E+00 0. -1.
        -11    1    1    2    0    0  0.36844274634E+02  0.17660774320E+02  0.16233252544E+03  0.16739549676E+03  0.00000000000E+00 0. -1.
         11    1    1    2    0    0 -0.21338067076E+01 -0.14519708460E+02 -0.12476810610E+02  0.19262550917E+02  0.00000000000E+00 0. -1.
        -15    1    1    2    0    0  0.29465404920E+02 -0.81654896393E+01 -0.33763816256E+02  0.45585505649E+02  0.17770000000E+01 0.  1.
         15    1    1    2    0    0 -0.64175872847E+02  0.50244237797E+01 -0.11609189857E+03  0.13275644667E+03  0.17770000000E+01 0. -1.
</event>
<event>
 6    1  0.1775046E-008  0.1298598E+03  0.7546771E-02  0.1120341E+00
        -11   -1    0    0    0    0  0.00000000000E+00  0.00000000000E+00  0.18250000000E+03  0.18250000000E+03  0.00000000000E+00 0.  1.
         11   -1    0    0    0    0 -0.00000000000E+00 -0.00000000000E+00 -0.18250000000E+03  0.18250000000E+03  0.00000000000E+00 0. -1.
        -11    1    1    2    0    0 -0.21869337867E+02 -0.22732262373E+02  0.46852804043E+02  0.56481934616E+02  0.00000000000E+00 0.  1.
         11    1    1    2    0    0 -0.28344460302E+02 -0.37235656690E+02 -0.11313526806E+03  0.12243157859E+03  0.00000000000E+00 0. -1.
        -15    1    1    2    0    0  0.49644408957E+02  0.68845404439E+02  0.11140223959E+03  0.14006382034E+03  0.17770000000E+01 0.  1.
         15    1    1    2    0    0  0.56938921191E+00 -0.88774853770E+01 -0.45119775573E+02  0.46022666453E+02  0.17770000000E+01 0. -1.
</event>
<event>
 6    1  0.1775046E-008  0.1170087E+03  0.7546771E-02  0.1137276E+00
        -11   -1    0    0    0    0  0.00000000000E+00  0.00000000000E+00  0.18250000000E+03  0.18250000000E+03  0.00000000000E+00 0.  1.
         11   -1    0    0    0    0 -0.00000000000E+00 -0.00000000000E+00 -0.18250000000E+03  0.18250000000E+03  0.00000000000E+00 0. -1.
        -11    1    1    2    0    0 -0.13870791782E+01  0.96663586455E+01  0.61059733478E+01  0.11517177981E+02  0.00000000000E+00 0.  1.
         11    1    1    2    0    0  0.96659224529E+02 -0.34529070174E+01 -0.56603794771E+02  0.11206657769E+03  0.00000000000E+00 0. -1.
        -15    1    1    2    0    0  0.22107412803E+02  0.79322675534E+02  0.49633452226E+02  0.96163724260E+02  0.17770000000E+01 0.  1.
         15    1    1    2    0    0 -0.11737955815E+03 -0.85536127162E+02  0.86436919698E+00  0.14525252007E+03  0.17770000000E+01 0. -1.
</event>
<event>
 6    1  0.1775046E-008  0.1357256E+03  0.7546771E-02  0.1113316E+00
        -11   -1    0    0    0    0  0.00000000000E+00  0.00000000000E+00  0.18250000000E+03  0.18250000000E+03  0.00000000000E+00 0.  1.
         11   -1    0    0    0    0 -0.00000000000E+00 -0.00000000000E+00 -0.18250000000E+03  0.18250000000E+03  0.00000000000E+00 0. -1.
        -11    1    1    2    0    0  0.23561225876E+02 -0.10651057598E+02  0.11846926513E+03  0.12125816745E+03  0.00000000000E+00 0.  1.
         11    1    1    2    0    0 -0.35111185682E+02 -0.22192840353E+02 -0.99732853947E+01  0.42717489913E+02  0.00000000000E+00 0. -1.
        -15    1    1    2    0    0  0.75868833291E+01  0.53932397166E+02 -0.14707406379E+03  0.15684451610E+03  0.17770000000E+01 0. -1.
         15    1    1    2    0    0  0.39630764765E+01 -0.21088499214E+02  0.38578084052E+02  0.44179826532E+02  0.17770000000E+01 0.  1.
</event>
<event>
 6    1  0.1775046E-008  0.2242092E+03  0.7546771E-02  0.1039384E+00
        -11   -1    0    0    0    0  0.00000000000E+00  0.00000000000E+00  0.18250000000E+03  0.18250000000E+03  0.00000000000E+00 0.  1.
         11   -1    0    0    0    0 -0.00000000000E+00 -0.00000000000E+00 -0.18250000000E+03  0.18250000000E+03  0.00000000000E+00 0. -1.
        -11    1    1    2    0    0 -0.93957382321E+02  0.13692837475E+02  0.10395460640E+03  0.14079077982E+03  0.00000000000E+00 0.  1.
         11    1    1    2    0    0  0.45437140421E+02  0.33192987673E+01 -0.80411472687E+02  0.92420541081E+02  0.00000000000E+00 0. -1.
        -15    1    1    2    0    0 -0.34985044179E+02 -0.20123196021E+02 -0.26223617087E+02  0.48163597835E+02  0.17770000000E+01 0. -1.
         15    1    1    2    0    0  0.83505286079E+02  0.31110597785E+01  0.26804833739E+01  0.83625081263E+02  0.17770000000E+01 0.  1.
</event>
<event>
 6    1  0.1775046E-008  0.1810396E+03  0.7546771E-02  0.1069623E+00
        -11   -1    0    0    0    0  0.00000000000E+00  0.00000000000E+00  0.18250000000E+03  0.18250000000E+03  0.00000000000E+00 0.  1.
         11   -1    0    0    0    0 -0.00000000000E+00 -0.00000000000E+00 -0.18250000000E+03  0.18250000000E+03  0.00000000000E+00 0.  1.
        -11    1    1    2    0    0  0.69569205578E+02 -0.15940876336E+02  0.15860649438E+03  0.17392528845E+03  0.00000000000E+00 0.  1.
         11    1    1    2    0    0 -0.10686123779E+02  0.42020663339E+01 -0.13908449722E+02  0.18035952333E+02  0.00000000000E+00 0.  1.
        -15    1    1    2    0    0 -0.35542098103E+02  0.72109572476E+01 -0.12038055411E+02  0.38253250177E+02  0.17770000000E+01 0. -1.
         15    1    1    2    0    0 -0.23340983696E+02  0.45278527541E+01 -0.13265998925E+03  0.13478550904E+03  0.17770000000E+01 0.  1.
</event>
<event>
 6    1  0.1775046E-008  0.1239796E+03  0.7546771E-02  0.1127807E+00
        -11   -1    0    0    0    0  0.00000000000E+00  0.00000000000E+00  0.18250000000E+03  0.18250000000E+03  0.00000000000E+00 0.  1.
         11   -1    0    0    0    0 -0.00000000000E+00 -0.00000000000E+00 -0.18250000000E+03  0.18250000000E+03  0.00000000000E+00 0. -1.
        -11    1    1    2    0    0 -0.32021709384E+02  0.13701692664E+02  0.66756270132E+02  0.75296253928E+02  0.00000000000E+00 0.  1.
         11    1    1    2    0    0 -0.22228844038E+02 -0.17124336048E+02 -0.66361428960E+01  0.28834055991E+02  0.00000000000E+00 0. -1.
        -15    1    1    2    0    0  0.13699601213E+03 -0.92077036926E+01 -0.98277330603E+02  0.16886172031E+03  0.17770000000E+01 0. -1.
         15    1    1    2    0    0 -0.82745458706E+02  0.12630347077E+02  0.38157203367E+02  0.92007969772E+02  0.17770000000E+01 0.  1.
</event>
<event>
 6    1  0.1775046E-008  0.9525796E+02  0.7546771E-02  0.1172282E+00
        -11   -1    0    0    0    0  0.00000000000E+00  0.00000000000E+00  0.18250000000E+03  0.18250000000E+03  0.00000000000E+00 0. -1.
         11   -1    0    0    0    0 -0.00000000000E+00 -0.00000000000E+00 -0.18250000000E+03  0.18250000000E+03  0.00000000000E+00 0.  1.
        -11    1    1    2    0    0 -0.33130181305E+02 -0.18493657025E+02  0.10356478270E+03  0.11029636657E+03  0.00000000000E+00 0. -1.
         11    1    1    2    0    0 -0.29660165637E+02  0.61698392006E+02 -0.58293699907E+02  0.89914250542E+02  0.00000000000E+00 0.  1.
        -15    1    1    2    0    0  0.14867736367E+01 -0.40205527094E+02 -0.83327961239E+02  0.92549455741E+02  0.17770000000E+01 0. -1.
         15    1    1    2    0    0  0.61303573305E+02 -0.29992078863E+01  0.38056878450E+02  0.72239927147E+02  0.17770000000E+01 0.  1.
</event>
<event>
 6    1  0.1775046E-008  0.7646208E+02  0.7546771E-02  0.1212217E+00
        -11   -1    0    0    0    0  0.00000000000E+00  0.00000000000E+00  0.18250000000E+03  0.18250000000E+03  0.00000000000E+00 0. -1.
         11   -1    0    0    0    0 -0.00000000000E+00 -0.00000000000E+00 -0.18250000000E+03  0.18250000000E+03  0.00000000000E+00 0.  1.
        -11    1    1    2    0    0 -0.63758522045E+02 -0.47832357788E+02  0.57152564251E+02  0.98079045598E+02  0.00000000000E+00 0. -1.
         11    1    1    2    0    0  0.14716184959E+00  0.46861271342E+02 -0.10798064336E+03  0.11771074611E+03  0.00000000000E+00 0.  1.
        -15    1    1    2    0    0  0.10234426717E+01  0.49333462249E+02  0.49741034822E+02  0.70086847600E+02  0.17770000000E+01 0.  1.
         15    1    1    2    0    0  0.62587917524E+02 -0.48362375803E+02  0.10870442876E+01  0.79123360694E+02  0.17770000000E+01 0.  1.
</event>
<event>
 6    1  0.1775046E-008  0.1979350E+03  0.7546771E-02  0.1056792E+00
        -11   -1    0    0    0    0  0.00000000000E+00  0.00000000000E+00  0.18250000000E+03  0.18250000000E+03  0.00000000000E+00 0. -1.
         11   -1    0    0    0    0 -0.00000000000E+00 -0.00000000000E+00 -0.18250000000E+03  0.18250000000E+03  0.00000000000E+00 0. -1.
        -11    1    1    2    0    0  0.96578669256E+01 -0.45011885991E+01  0.29478016407E+02  0.31344673290E+02  0.00000000000E+00 0. -1.
         11    1    1    2    0    0  0.10627241370E+02 -0.10068606913E+03  0.90384665412E+02  0.13572033937E+03  0.00000000000E+00 0. -1.
        -15    1    1    2    0    0 -0.38626227171E+02  0.71369100661E+01  0.32719252227E+01  0.39456103893E+02  0.17770000000E+01 0.  1.
         15    1    1    2    0    0  0.18341118876E+02  0.98050347666E+02 -0.12313460704E+03  0.15847888345E+03  0.17770000000E+01 0. -1.
</event>
<event>
 6    1  0.1775046E-008  0.2028442E+03  0.7546771E-02  0.1053323E+00
        -11   -1    0    0    0    0  0.00000000000E+00  0.00000000000E+00  0.18250000000E+03  0.18250000000E+03  0.00000000000E+00 0.  1.
         11   -1    0    0    0    0 -0.00000000000E+00 -0.00000000000E+00 -0.18250000000E+03  0.18250000000E+03  0.00000000000E+00 0.  1.
        -11    1    1    2    0    0 -0.15016653717E+02  0.54959466979E+01  0.16136544894E+03  0.16215583070E+03  0.00000000000E+00 0.  1.
         11    1    1    2    0    0 -0.15192059117E+02  0.16901282699E+02 -0.90353629472E+02  0.93167753949E+02  0.00000000000E+00 0.  1.
        -15    1    1    2    0    0  0.10837924990E+02 -0.46969029992E+02 -0.58771234143E+02  0.76031349378E+02  0.17770000000E+01 0.  1.
         15    1    1    2    0    0  0.19370787844E+02  0.24571800595E+02 -0.12240585325E+02  0.33645065972E+02  0.17770000000E+01 0. -1.
</event>
<event>
 6    1  0.1775046E-008  0.1923993E+03  0.7546771E-02  0.1060837E+00
        -11   -1    0    0    0    0  0.00000000000E+00  0.00000000000E+00  0.18250000000E+03  0.18250000000E+03  0.00000000000E+00 0. -1.
         11   -1    0    0    0    0 -0.00000000000E+00 -0.00000000000E+00 -0.18250000000E+03  0.18250000000E+03  0.00000000000E+00 0.  1.
        -11    1    1    2    0    0 -0.14533789024E+02 -0.50568519984E+02  0.16438545790E+03  0.17260065181E+03  0.00000000000E+00 0. -1.
         11    1    1    2    0    0 -0.18380941437E+01  0.31346007909E+02 -0.32354287720E+02  0.45086037037E+02  0.00000000000E+00 0.  1.
        -15    1    1    2    0    0 -0.42358502912E+01  0.27574028764E+02 -0.11729186014E+03  0.12057697821E+03  0.17770000000E+01 0.  1.
         15    1    1    2    0    0  0.20607733459E+02 -0.83515166888E+01 -0.14739310040E+02  0.26736332934E+02  0.17770000000E+01 0. -1.
</event>
<event>
 6    1  0.1775046E-008  0.9556012E+02  0.7546771E-02  0.1171726E+00
        -11   -1    0    0    0    0  0.00000000000E+00  0.00000000000E+00  0.18250000000E+03  0.18250000000E+03  0.00000000000E+00 0.  1.
         11   -1    0    0    0    0 -0.00000000000E+00 -0.00000000000E+00 -0.18250000000E+03  0.18250000000E+03  0.00000000000E+00 0. -1.
        -11    1    1    2    0    0 -0.15884282612E+02  0.46020526682E+02  0.33941239837E+02  0.59348185076E+02  0.00000000000E+00 0.  1.
         11    1    1    2    0    0  0.45249322800E+02 -0.17705733701E+02 -0.90057296925E+02  0.10232942367E+03  0.00000000000E+00 0. -1.
        -15    1    1    2    0    0 -0.78802298433E+02 -0.67461583060E+01 -0.43313260540E+02  0.90191513779E+02  0.17770000000E+01 0. -1.
         15    1    1    2    0    0  0.49437258245E+02 -0.21568634675E+02  0.99429317628E+02  0.11313087747E+03  0.17770000000E+01 0.  1.
</event>
<event>
 6    1  0.1775046E-008  0.1768031E+03  0.7546771E-02  0.1073082E+00
        -11   -1    0    0    0    0  0.00000000000E+00  0.00000000000E+00  0.18250000000E+03  0.18250000000E+03  0.00000000000E+00 0. -1.
         11   -1    0    0    0    0 -0.00000000000E+00 -0.00000000000E+00 -0.18250000000E+03  0.18250000000E+03  0.00000000000E+00 0.  1.
        -11    1    1    2    0    0  0.11726065467E+02 -0.75300562101E+01  0.65572572208E+01  0.15401298001E+02  0.00000000000E+00 0. -1.
         11    1    1    2    0    0 -0.71067011255E+01  0.27401606447E+02 -0.17409628764E+03  0.17638273897E+03  0.00000000000E+00 0.  1.
        -15    1    1    2    0    0  0.24228671032E+01 -0.28216427086E+02  0.14857925465E+03  0.15126463461E+03  0.17770000000E+01 0. -1.
         15    1    1    2    0    0 -0.70422314442E+01  0.83448768491E+01  0.18959775768E+02  0.21951328423E+02  0.17770000000E+01 0.  1.
</event>
<event>
 6    1  0.1775046E-008  0.1882948E+03  0.7546771E-02  0.1063933E+00
        -11   -1    0    0    0    0  0.00000000000E+00  0.00000000000E+00  0.18250000000E+03  0.18250000000E+03  0.00000000000E+00 0.  1.
         11   -1    0    0    0    0 -0.00000000000E+00 -0.00000000000E+00 -0.18250000000E+03  0.18250000000E+03  0.00000000000E+00 0.  1.
        -11    1    1    2    0    0 -0.56601905545E+02  0.29314742127E+01  0.13510956846E+03  0.14651609038E+03  0.00000000000E+00 0.  1.
         11    1    1    2    0    0  0.49170494067E+02 -0.35938844172E+01 -0.16968814382E+03  0.17670517719E+03  0.00000000000E+00 0.  1.
        -15    1    1    2    0    0  0.95469225711E+00 -0.31012823133E+01  0.33843324250E+02  0.34044936695E+02  0.17770000000E+01 0. -1.
         15    1    1    2    0    0  0.64767192205E+01  0.37636925178E+01  0.73525111511E+00  0.77337957325E+01  0.17770000000E+01 0.  1.
</event>
<event>
 6    1  0.1775046E-008  0.1382851E+03  0.7546771E-02  0.1110372E+00
        -11   -1    0    0    0    0  0.00000000000E+00  0.00000000000E+00  0.18250000000E+03  0.18250000000E+03  0.00000000000E+00 0. -1.
         11   -1    0    0    0    0 -0.00000000000E+00 -0.00000000000E+00 -0.18250000000E+03  0.18250000000E+03  0.00000000000E+00 0. -1.
        -11    1    1    2    0    0  0.10162856066E+02 -0.17468648292E+02  0.13859270772E+03  0.14005847332E+03  0.00000000000E+00 0. -1.
         11    1    1    2    0    0  0.18422503705E+02 -0.16905763267E+02 -0.13785360850E+03  0.14010285811E+03  0.00000000000E+00 0. -1.
        -15    1    1    2    0    0  0.19015848966E+02  0.84775221203E+01 -0.18372943194E+02  0.27824335820E+02  0.17770000000E+01 0. -1.
         15    1    1    2    0    0 -0.47601208737E+02  0.25896889439E+02  0.17633843975E+02  0.57014332744E+02  0.17770000000E+01 0.  1.
</event>
<event>
 6    1  0.1775046E-008  0.8421733E+02  0.7546771E-02  0.1194326E+00
        -11   -1    0    0    0    0  0.00000000000E+00  0.00000000000E+00  0.18250000000E+03  0.18250000000E+03  0.00000000000E+00 0. -1.
         11   -1    0    0    0    0 -0.00000000000E+00 -0.00000000000E+00 -0.18250000000E+03  0.18250000000E+03  0.00000000000E+00 0. -1.
        -11    1    1    2    0    0  0.13797286066E+02 -0.60594672669E+02  0.40982927464E+02  0.74442459673E+02  0.00000000000E+00 0. -1.
         11    1    1    2    0    0 -0.50464523748E+02 -0.41467583718E+02 -0.60821214474E+02  0.89249362948E+02  0.00000000000E+00 0. -1.
        -15    1    1    2    0    0  0.86713803591E+02  0.52889615330E+02 -0.39901906790E+02  0.10914171997E+03  0.17770000000E+01 0. -1.
         15    1    1    2    0    0 -0.50046565908E+02  0.49172641057E+02  0.59740193799E+02  0.92166457412E+02  0.17770000000E+01 0.  1.
</event>
<event>
 6    1  0.1775046E-008  0.1282069E+03  0.7546771E-02  0.1122395E+00
        -11   -1    0    0    0    0  0.00000000000E+00  0.00000000000E+00  0.18250000000E+03  0.18250000000E+03  0.00000000000E+00 0.  1.
         11   -1    0    0    0    0 -0.00000000000E+00 -0.00000000000E+00 -0.18250000000E+03  0.18250000000E+03  0.00000000000E+00 0.  1.
        -11    1    1    2    0    0 -0.15798963724E+02  0.10332385385E+03  0.89632586290E+02  0.13769323351E+03  0.00000000000E+00 0.  1.
         11    1    1    2    0    0  0.63772626866E+01  0.91439590401E+01 -0.33323065996E+02  0.35138414786E+02  0.00000000000E+00 0.  1.
        -15    1    1    2    0    0 -0.51357934322E+02 -0.11029875306E+03 -0.47789512829E+02  0.13073043873E+03  0.17770000000E+01 0.  1.
         15    1    1    2    0    0  0.60779635360E+02 -0.21690598255E+01 -0.85200074653E+01  0.61437912979E+02  0.17770000000E+01 0. -1.
</event>
<event>
 6    1  0.1775046E-008  0.1355806E+03  0.7546771E-02  0.1113484E+00
        -11   -1    0    0    0    0  0.00000000000E+00  0.00000000000E+00  0.18250000000E+03  0.18250000000E+03  0.00000000000E+00 0. -1.
         11   -1    0    0    0    0 -0.00000000000E+00 -0.00000000000E+00 -0.18250000000E+03  0.18250000000E+03  0.00000000000E+00 0. -1.
        -11    1    1    2    0    0 -0.51538872975E+02  0.71898076068E+01  0.15446494906E+03  0.16299499762E+03  0.00000000000E+00 0. -1.
         11    1    1    2    0    0  0.20424233894E+02  0.12460190180E+02 -0.37387076067E+02  0.44386925173E+02  0.00000000000E+00 0. -1.
        -15    1    1    2    0    0  0.65431216763E+02 -0.20850902144E+02 -0.93092678405E+02  0.11569532726E+03  0.17770000000E+01 0. -1.
         15    1    1    2    0    0 -0.34316577683E+02  0.12009043575E+01 -0.23985194587E+02  0.41922749952E+02  0.17770000000E+01 0.  1.
</event>
<event>
 6    1  0.1775046E-008  0.1009923E+03  0.7546771E-02  0.1162110E+00
        -11   -1    0    0    0    0  0.00000000000E+00  0.00000000000E+00  0.18250000000E+03  0.18250000000E+03  0.00000000000E+00 0. -1.
         11   -1    0    0    0    0 -0.00000000000E+00 -0.00000000000E+00 -0.18250000000E+03  0.18250000000E+03  0.00000000000E+00 0.  1.
        -11    1    1    2    0    0 -0.69167333267E+02  0.13322802131E+02  0.10765095818E+03  0.12864814746E+03  0.00000000000E+00 0. -1.
         11    1    1    2    0    0  0.62650720035E+02 -0.99941257770E+01 -0.39044431139E+02  0.74494717088E+02  0.00000000000E+00 0.  1.
        -15    1    1    2    0    0 -0.45185534426E+02 -0.48619492859E+00 -0.93884705443E+02  0.10420875468E+03  0.17770000000E+01 0. -1.
         15    1    1    2    0    0  0.51702147658E+02 -0.28424814257E+01  0.25278178398E+02  0.57648380768E+02  0.17770000000E+01 0.  1.
</event>
<event>
 6    1  0.1775046E-008  0.1184036E+03  0.7546771E-02  0.1135323E+00
        -11   -1    0    0    0    0  0.00000000000E+00  0.00000000000E+00  0.18250000000E+03  0.18250000000E+03  0.00000000000E+00 0. -1.
         11   -1    0    0    0    0 -0.00000000000E+00 -0.00000000000E+00 -0.18250000000E+03  0.18250000000E+03  0.00000000000E+00 0.  1.
        -11    1    1    2    0    0 -0.97183635848E+01  0.10564887895E+02  0.68478871339E+02  0.69967272827E+02  0.00000000000E+00 0. -1.
         11    1    1    2    0    0 -0.66431502694E+01  0.65385921114E+01 -0.55944578800E+02  0.56715787303E+02  0.00000000000E+00 0.  1.
        -15    1    1    2    0    0  0.11306111697E+02 -0.16023739055E+02 -0.12458571709E+03  0.12613225997E+03  0.17770000000E+01 0.  1.
         15    1    1    2    0    0  0.50554021569E+01 -0.10797409505E+01  0.11205142455E+03  0.11218467990E+03  0.17770000000E+01 0. -1.
</event>
<event>
 6    1  0.1775046E-008  0.1234221E+03  0.7546771E-02  0.1128539E+00
        -11   -1    0    0    0    0  0.00000000000E+00  0.00000000000E+00  0.18250000000E+03  0.18250000000E+03  0.00000000000E+00 0.  1.
         11   -1    0    0    0    0 -0.00000000000E+00 -0.00000000000E+00 -0.18250000000E+03  0.18250000000E+03  0.00000000000E+00 0. -1.
        -11    1    1    2    0    0  0.21000450456E+02 -0.31722279037E+02  0.13338737841E+03  0.13870657744E+03  0.00000000000E+00 0.  1.
         11    1    1    2    0    0 -0.18517205790E+02 -0.77486758105E+01 -0.68935395809E+02  0.71798451810E+02  0.00000000000E+00 0. -1.
        -15    1    1    2    0    0  0.99549778611E+01  0.13117185708E+02  0.41453012042E+02  0.44639355746E+02  0.17770000000E+01 0.  1.
         15    1    1    2    0    0 -0.12438222527E+02  0.26353769140E+02 -0.10590499464E+03  0.10985561500E+03  0.17770000000E+01 0. -1.
</event>
<event>
 6    1  0.1775046E-008  0.1172930E+03  0.7546771E-02  0.1136875E+00
        -11   -1    0    0    0    0  0.00000000000E+00  0.00000000000E+00  0.18250000000E+03  0.18250000000E+03  0.00000000000E+00 0. -1.
         11   -1    0    0    0    0 -0.00000000000E+00 -0.00000000000E+00 -0.18250000000E+03  0.18250000000E+03  0.00000000000E+00 0.  1.
        -11    1    1    2    0    0 -0.53420855232E+01  0.38420833964E+02  0.48520957182E+02  0.62120702234E+02  0.00000000000E+00 0. -1.
         11    1    1    2    0    0 -0.51106128220E+01 -0.50639337072E+02 -0.14240499299E+03  0.15122712340E+03  0.00000000000E+00 0.  1.
        -15    1    1    2    0    0  0.40255168721E+02  0.52185670812E+02  0.70600034408E+02  0.96598889405E+02  0.17770000000E+01 0. -1.
         15    1    1    2    0    0 -0.29802470375E+02 -0.39967167704E+02  0.23284001403E+02  0.55053284962E+02  0.17770000000E+01 0.  1.
</event>
<event>
 6    1  0.1775046E-008  0.1341117E+03  0.7546771E-02  0.1115209E+00
        -11   -1    0    0    0    0  0.00000000000E+00  0.00000000000E+00  0.18250000000E+03  0.18250000000E+03  0.00000000000E+00 0.  1.
         11   -1    0    0    0    0 -0.00000000000E+00 -0.00000000000E+00 -0.18250000000E+03  0.18250000000E+03  0.00000000000E+00 0.  1.
        -11    1    1    2    0    0 -0.25779882563E+02 -0.33994109806E+02  0.12536733454E+03  0.13242798199E+03  0.00000000000E+00 0.  1.
         11    1    1    2    0    0 -0.12531546297E+02 -0.12107678249E+02 -0.71925167885E+01  0.18851202161E+02  0.00000000000E+00 0.  1.
        -15    1    1    2    0    0 -0.61370084201E+02 -0.68150025443E+01 -0.22455414964E+02  0.65727732995E+02  0.17770000000E+01 0. -1.
         15    1    1    2    0    0  0.99681513060E+02  0.52916790600E+02 -0.95719402783E+02  0.14799308285E+03  0.17770000000E+01 0.  1.
</event>
<event>
 6    1  0.1775046E-008  0.1868534E+03  0.7546771E-02  0.1065041E+00
        -11   -1    0    0    0    0  0.00000000000E+00  0.00000000000E+00  0.18250000000E+03  0.18250000000E+03  0.00000000000E+00 0.  1.
         11   -1    0    0    0    0 -0.00000000000E+00 -0.00000000000E+00 -0.18250000000E+03  0.18250000000E+03  0.00000000000E+00 0. -1.
        -11    1    1    2    0    0  0.11569049932E+02 -0.13024849965E+02  0.57772128170E+02  0.60341597809E+02  0.00000000000E+00 0.  1.
         11    1    1    2    0    0 -0.29526850177E+02  0.86544797543E+00 -0.17568046952E+03  0.17814660045E+03  0.00000000000E+00 0. -1.
        -15    1    1    2    0    0  0.16830804774E+02 -0.31094483682E+01  0.16171303511E+02  0.23613840109E+02  0.17770000000E+01 0.  1.
         15    1    1    2    0    0  0.11269954720E+01  0.15268850357E+02  0.10173703784E+03  0.10289796163E+03  0.17770000000E+01 0.  1.
</event>
<event>
 6    1  0.1775046E-008  0.8555308E+02  0.7546771E-02  0.1191463E+00
        -11   -1    0    0    0    0  0.00000000000E+00  0.00000000000E+00  0.18250000000E+03  0.18250000000E+03  0.00000000000E+00 0. -1.
         11   -1    0    0    0    0 -0.00000000000E+00 -0.00000000000E+00 -0.18250000000E+03  0.18250000000E+03  0.00000000000E+00 0.  1.
        -11    1    1    2    0    0 -0.31739937322E+02 -0.58202863994E+02  0.41173815740E+02  0.78040246674E+02  0.00000000000E+00 0. -1.
         11    1    1    2    0    0  0.84148962842E+02  0.24874759959E+02 -0.56373615424E+02  0.10429662577E+03  0.00000000000E+00 0.  1.
        -15    1    1    2    0    0  0.11187368490E+02 -0.11329272056E+02  0.79924022165E+02  0.81513904747E+02  0.17770000000E+01 0. -1.
         15    1    1    2    0    0 -0.63596394010E+02  0.44657376091E+02 -0.64724222482E+02  0.10114922281E+03  0.17770000000E+01 0.  1.
</event>
<event>
 6    1  0.1775046E-008  0.1047291E+03  0.7546771E-02  0.1155878E+00
        -11   -1    0    0    0    0  0.00000000000E+00  0.00000000000E+00  0.18250000000E+03  0.18250000000E+03  0.00000000000E+00 0. -1.
         11   -1    0    0    0    0 -0.00000000000E+00 -0.00000000000E+00 -0.18250000000E+03  0.18250000000E+03  0.00000000000E+00 0.  1.
        -11    1    1    2    0    0  0.15827427196E+02  0.37675006884E+02  0.65578398631E+02  0.77268622108E+02  0.00000000000E+00 0.  1.
         11    1    1    2    0    0 -0.14267321172E+02 -0.47974073433E+02  0.53215798527E+02  0.73054701341E+02  0.00000000000E+00 0. -1.
        -15    1    1    2    0    0 -0.33022208672E+02  0.49772889855E+02  0.23095211467E+02  0.64065227323E+02  0.17770000000E+01 0. -1.
         15    1    1    2    0    0  0.31462102648E+02 -0.39473823306E+02 -0.14188940863E+03  0.15061144923E+03  0.17770000000E+01 0.  1.
</event>
<event>
 6    1  0.1775046E-008  0.1204240E+03  0.7546771E-02  0.1132548E+00
        -11   -1    0    0    0    0  0.00000000000E+00  0.00000000000E+00  0.18250000000E+03  0.18250000000E+03  0.00000000000E+00 0.  1.
         11   -1    0    0    0    0 -0.00000000000E+00 -0.00000000000E+00 -0.18250000000E+03  0.18250000000E+03  0.00000000000E+00 0. -1.
        -11    1    1    2    0    0  0.23803022925E+02  0.11777814468E+03 -0.18852744196E+02  0.12162936005E+03  0.00000000000E+00 0.  1.
         11    1    1    2    0    0 -0.20089350510E+02 -0.10915513223E+02 -0.92564991434E+01  0.24666033512E+02  0.00000000000E+00 0. -1.
        -15    1    1    2    0    0  0.68917541106E+02 -0.11896076218E+03 -0.58100980139E+01  0.13761615231E+03  0.17770000000E+01 0.  1.
         15    1    1    2    0    0 -0.72631213521E+02  0.12098130725E+02  0.33919341354E+02  0.81088454119E+02  0.17770000000E+01 0. -1.
</event>
<event>
 6    1  0.1775046E-008  0.1619006E+03  0.7546771E-02  0.1086147E+00
        -11   -1    0    0    0    0  0.00000000000E+00  0.00000000000E+00  0.18250000000E+03  0.18250000000E+03  0.00000000000E+00 0. -1.
         11   -1    0    0    0    0 -0.00000000000E+00 -0.00000000000E+00 -0.18250000000E+03  0.18250000000E+03  0.00000000000E+00 0.  1.
        -11    1    1    2    0    0  0.59552966033E+02 -0.46579391988E+02  0.61390502537E+02  0.97390909859E+02  0.00000000000E+00 0. -1.
         11    1    1    2    0    0 -0.18186044826E+02 -0.58263198505E+02 -0.70742013188E+02  0.93433211207E+02  0.00000000000E+00 0.  1.
        -15    1    1    2    0    0 -0.66416475078E+02  0.87405281053E+02  0.52176128120E+02  0.12155795898E+03  0.17770000000E+01 0.  1.
         15    1    1    2    0    0  0.25049553871E+02  0.17437309441E+02 -0.42824617468E+02  0.52617919951E+02  0.17770000000E+01 0. -1.
</event>
<event>
 6    1  0.1775046E-008  0.1785761E+03  0.7546771E-02  0.1071622E+00
        -11   -1    0    0    0    0  0.00000000000E+00  0.00000000000E+00  0.18250000000E+03  0.18250000000E+03  0.00000000000E+00 0.  1.
         11   -1    0    0    0    0 -0.00000000000E+00 -0.00000000000E+00 -0.18250000000E+03  0.18250000000E+03  0.00000000000E+00 0.  1.
        -11    1    1    2    0    0  0.81995097253E+02 -0.96853735138E+00  0.15111210607E+03  0.17192731789E+03  0.00000000000E+00 0.  1.
         11    1    1    2    0    0 -0.50216964179E+01  0.13612715957E+02 -0.16475969420E+02  0.21954066571E+02  0.00000000000E+00 0.  1.
        -15    1    1    2    0    0 -0.38833958335E+02 -0.30168108428E+02 -0.28253767327E+02  0.56741732290E+02  0.17770000000E+01 0. -1.
         15    1    1    2    0    0 -0.38139442499E+02  0.17523929822E+02 -0.10638236932E+03  0.11437688325E+03  0.17770000000E+01 0.  1.
</event>
<event>
 6    1  0.1775046E-008  0.9620285E+02  0.7546771E-02  0.1170552E+00
        -11   -1    0    0    0    0  0.00000000000E+00  0.00000000000E+00  0.18250000000E+03  0.18250000000E+03  0.00000000000E+00 0. -1.
         11   -1    0    0    0    0 -0.00000000000E+00 -0.00000000000E+00 -0.18250000000E+03  0.18250000000E+03  0.00000000000E+00 0. -1.
        -11    1    1    2    0    0 -0.36125894571E+02  0.58733816912E+01  0.84647994632E+02  0.92221797132E+02  0.00000000000E+00 0. -1.
         11    1    1    2    0    0  0.49613826517E+02  0.36250597100E+02 -0.11059969374E+03  0.12652244792E+03  0.00000000000E+00 0. -1.
        -15    1    1    2    0    0  0.14180390834E+02 -0.12228222550E+02  0.77944803362E+02  0.80182061654E+02  0.17770000000E+01 0.  1.
         15    1    1    2    0    0 -0.27668322779E+02 -0.29895756241E+02 -0.51993104250E+02  0.66073693292E+02  0.17770000000E+01 0. -1.
</event>
<event>
 6    1  0.1775046E-008  0.1280495E+03  0.7546771E-02  0.1122592E+00
        -11   -1    0    0    0    0  0.00000000000E+00  0.00000000000E+00  0.18250000000E+03  0.18250000000E+03  0.00000000000E+00 0. -1.
         11   -1    0    0    0    0 -0.00000000000E+00 -0.00000000000E+00 -0.18250000000E+03  0.18250000000E+03  0.00000000000E+00 0. -1.
        -11    1    1    2    0    0 -0.24762413006E+01 -0.69827898873E+00 -0.20399418415E+01  0.32834017789E+01  0.00000000000E+00 0. -1.
         11    1    1    2    0    0  0.96297437587E+02 -0.19395287088E+02 -0.92893281362E+02  0.13519813375E+03  0.00000000000E+00 0. -1.
        -15    1    1    2    0    0 -0.11710847159E+03 -0.51927019720E+02  0.44852847113E+02  0.13574146426E+03  0.17770000000E+01 0. -1.
         15    1    1    2    0    0  0.23287275305E+02  0.72020585797E+02  0.50080376090E+02  0.90777000215E+02  0.17770000000E+01 0.  1.
</event>
<event>
 6    1  0.1775046E-008  0.1095673E+03  0.7546771E-02  0.1148226E+00
        -11   -1    0    0    0    0  0.00000000000E+00  0.00000000000E+00  0.18250000000E+03  0.18250000000E+03  0.00000000000E+00 0.  1.
         11   -1    0    0    0    0 -0.00000000000E+00 -0.00000000000E+00 -0.18250000000E+03  0.18250000000E+03  0.00000000000E+00 0. -1.
        -11    1    1    2    0    0 -0.84221979587E+01  0.43508735289E+02  0.59479434191E+02  0.74173759219E+02  0.00000000000E+00 0.  1.
         11    1    1    2    0    0 -0.42467386272E+02 -0.31871318567E+02 -0.36409733376E+02  0.64381119348E+02  0.00000000000E+00 0. -1.
        -15    1    1    2    0    0  0.34506370702E+02 -0.56936787631E+02  0.85075159113E+02  0.10804363855E+03  0.17770000000E+01 0.  1.
         15    1    1    2    0    0  0.16383213529E+02  0.45299370909E+02 -0.10814485993E+03  0.11840148288E+03  0.17770000000E+01 0. -1.
</event>
<event>
 6    1  0.1775046E-008  0.2678638E+03  0.7546771E-02  0.1015527E+00
        -11   -1    0    0    0    0  0.00000000000E+00  0.00000000000E+00  0.18250000000E+03  0.18250000000E+03  0.00000000000E+00 0. -1.
         11   -1    0    0    0    0 -0.00000000000E+00 -0.00000000000E+00 -0.18250000000E+03  0.18250000000E+03  0.00000000000E+00 0.  1.
        -11    1    1    2    0    0  0.24262859750E+02  0.63503562463E+02 -0.74076641506E+01  0.68383201862E+02  0.00000000000E+00 0. -1.
         11    1    1    2    0    0 -0.68779109617E+01 -0.12009150474E+02 -0.25943455480E+02  0.29403881318E+02  0.00000000000E+00 0.  1.
        -15    1    1    2    0    0 -0.76950515442E+02 -0.26307763391E+02  0.12854227910E+03  0.15211757126E+03  0.17770000000E+01 0. -1.
         15    1    1    2    0    0  0.59565566654E+02 -0.25186648598E+02 -0.95191159471E+02  0.11509534556E+03  0.17770000000E+01 0.  1.
</event>
<event>
 6    1  0.1775046E-008  0.1253380E+03  0.7546771E-02  0.1126042E+00
        -11   -1    0    0    0    0  0.00000000000E+00  0.00000000000E+00  0.18250000000E+03  0.18250000000E+03  0.00000000000E+00 0.  1.
         11   -1    0    0    0    0 -0.00000000000E+00 -0.00000000000E+00 -0.18250000000E+03  0.18250000000E+03  0.00000000000E+00 0. -1.
        -11    1    1    2    0    0 -0.16972801890E+02 -0.10198497159E+02  0.85137584065E+01  0.21553872750E+02  0.00000000000E+00 0.  1.
         11    1    1    2    0    0 -0.78078103778E+02  0.41450323107E+02 -0.69010443288E+02  0.11214615846E+03  0.00000000000E+00 0. -1.
        -15    1    1    2    0    0  0.52035885676E+02 -0.41604389921E+02  0.13161297220E+03  0.14752555995E+03  0.17770000000E+01 0.  1.
         15    1    1    2    0    0  0.43015019992E+02  0.10352563974E+02 -0.71116287315E+02  0.83774408839E+02  0.17770000000E+01 0. -1.
</event>
<event>
 6    1  0.1775046E-008  0.1442906E+03  0.7546771E-02  0.1103732E+00
        -11   -1    0    0    0    0  0.00000000000E+00  0.00000000000E+00  0.18250000000E+03  0.18250000000E+03  0.00000000000E+00 0. -1.
         11   -1    0    0    0    0 -0.00000000000E+00 -0.00000000000E+00 -0.18250000000E+03  0.18250000000E+03  0.00000000000E+00 0.  1.
        -11    1    1    2    0    0 -0.37751180145E+02  0.35207832188E+02  0.15703315882E+03  0.16530019970E+03  0.00000000000E+00 0. -1.
         11    1    1    2    0    0 -0.13044398844E+02 -0.50469900867E+02 -0.52762756903E+02  0.74170585482E+02  0.00000000000E+00 0.  1.
        -15    1    1    2    0    0 -0.47547396125E+01 -0.47003458791E+01 -0.16222194535E+01  0.71056403738E+01  0.17770000000E+01 0. -1.
         15    1    1    2    0    0  0.55550318602E+02  0.19962414559E+02 -0.10264818247E+03  0.11842357445E+03  0.17770000000E+01 0.  1.
</event>
<event>
 6    1  0.1775046E-008  0.1828409E+03  0.7546771E-02  0.1068184E+00
        -11   -1    0    0    0    0  0.00000000000E+00  0.00000000000E+00  0.18250000000E+03  0.18250000000E+03  0.00000000000E+00 0.  1.
         11   -1    0    0    0    0 -0.00000000000E+00 -0.00000000000E+00 -0.18250000000E+03  0.18250000000E+03  0.00000000000E+00 0.  1.
        -11    1    1    2    0    0 -0.43515808446E+02 -0.20743795443E+02  0.17459701662E+03  0.18112992256E+03  0.00000000000E+00 0.  1.
         11    1    1    2    0    0  0.60504959888E+00 -0.96286838814E+00 -0.10414054471E+01  0.15419876313E+01  0.00000000000E+00 0.  1.
        -15    1    1    2    0    0  0.27801690342E+02  0.22447690681E+02 -0.81303759314E+02  0.88827314551E+02  0.17770000000E+01 0. -1.
         15    1    1    2    0    0  0.15109068505E+02 -0.74102684950E+00 -0.92251851863E+02  0.93500775253E+02  0.17770000000E+01 0.  1.
</event>
<event>
 6    1  0.1775046E-008  0.3650000E+03  0.7546771E-02  0.9765871E-01
        -11   -1    0    0    0    0  0.00000000000E+00  0.00000000000E+00  0.18250000000E+03  0.18250000000E+03  0.00000000000E+00 0.  1.
         11   -1    0    0    0    0 -0.00000000000E+00 -0.00000000000E+00 -0.18250000000E+03  0.18250000000E+03  0.00000000000E+00 0.  1.
        -11    1    1    2    0    0 -0.27918988646E+02  0.37598177263E+02  0.92588288454E+02  0.10375781426E+03  0.00000000000E+00 0.  1.
         11    1    1    2    0    0  0.19711127866E+02  0.24133543546E+00  0.35252018144E+02  0.40389250894E+02  0.00000000000E+00 0.  1.
        -15    1    1    2    0    0  0.44202076353E+00  0.47787066398E+02  0.18368641741E+02  0.51228545028E+02  0.17770000000E+01 0. -1.
         15    1    1    2    0    0  0.77658400171E+01 -0.85626579097E+02 -0.14620894834E+03  0.16962438982E+03  0.17770000000E+01 0.  1.
</event>
<event>
 6    1  0.1775046E-008  0.1496930E+03  0.7546771E-02  0.1098056E+00
        -11   -1    0    0    0    0  0.00000000000E+00  0.00000000000E+00  0.18250000000E+03  0.18250000000E+03  0.00000000000E+00 0.  1.
         11   -1    0    0    0    0 -0.00000000000E+00 -0.00000000000E+00 -0.18250000000E+03  0.18250000000E+03  0.00000000000E+00 0.  1.
        -11    1    1    2    0    0 -0.34446867552E+02  0.54835365530E+02  0.48441648973E+02  0.80870868378E+02  0.00000000000E+00 0.  1.
         11    1    1    2    0    0 -0.19297340431E+02 -0.61348263929E+02 -0.13580567124E+03  0.15026369214E+03  0.00000000000E+00 0.  1.
        -15    1    1    2    0    0 -0.21495935933E+02  0.13483135726E+02  0.16963376166E+02  0.30574238676E+02  0.17770000000E+01 0. -1.
         15    1    1    2    0    0  0.75240143916E+02 -0.69702373262E+01  0.70400646096E+02  0.10329120081E+03  0.17770000000E+01 0.  1.
</event>
<event>
 6    1  0.1775046E-008  0.1337775E+03  0.7546771E-02  0.1115605E+00
        -11   -1    0    0    0    0  0.00000000000E+00  0.00000000000E+00  0.18250000000E+03  0.18250000000E+03  0.00000000000E+00 0. -1.
         11   -1    0    0    0    0 -0.00000000000E+00 -0.00000000000E+00 -0.18250000000E+03  0.18250000000E+03  0.00000000000E+00 0. -1.
        -11    1    1    2    0    0 -0.24824643769E+02  0.29873989845E+02  0.16557905209E+02  0.42224192502E+02  0.00000000000E+00 0. -1.
         11    1    1    2    0    0 -0.36538532051E+02 -0.42383937576E+02 -0.11523745086E+03  0.12810594276E+03  0.00000000000E+00 0. -1.
        -15    1    1    2    0    0  0.26009370278E+02  0.13971919361E+02 -0.41006597077E+02  0.50560860414E+02  0.17770000000E+01 0.  1.
         15    1    1    2    0    0  0.35353805541E+02 -0.14619716301E+01  0.13968614273E+03  0.14410900433E+03  0.17770000000E+01 0. -1.
</event>
<event>
 6    1  0.1775046E-008  0.1041191E+03  0.7546771E-02  0.1156875E+00
        -11   -1    0    0    0    0  0.00000000000E+00  0.00000000000E+00  0.18250000000E+03  0.18250000000E+03  0.00000000000E+00 0.  1.
         11   -1    0    0    0    0 -0.00000000000E+00 -0.00000000000E+00 -0.18250000000E+03  0.18250000000E+03  0.00000000000E+00 0. -1.
        -11    1    1    2    0    0 -0.13952811405E+02 -0.70340462931E+00 -0.15094864620E+01  0.14051842355E+02  0.00000000000E+00 0.  1.
         11    1    1    2    0    0  0.11013407297E+03 -0.11018770299E+02 -0.39730116901E+02  0.11759850984E+03  0.00000000000E+00 0. -1.
        -15    1    1    2    0    0 -0.11253361174E+02  0.15196998501E+02  0.11756994001E+03  0.11909422918E+03  0.17770000000E+01 0.  1.
         15    1    1    2    0    0 -0.84927900390E+02 -0.34748235730E+01 -0.76330336646E+02  0.11425541862E+03  0.17770000000E+01 0. -1.
</event>
<event>
 6    1  0.1775046E-008  0.1977346E+03  0.7546771E-02  0.1056936E+00
        -11   -1    0    0    0    0  0.00000000000E+00  0.00000000000E+00  0.18250000000E+03  0.18250000000E+03  0.00000000000E+00 0. -1.
         11   -1    0    0    0    0 -0.00000000000E+00 -0.00000000000E+00 -0.18250000000E+03  0.18250000000E+03  0.00000000000E+00 0.  1.
        -11    1    1    2    0    0  0.48954567597E+02 -0.21164532317E+02  0.15853458373E+03  0.16726536209E+03  0.00000000000E+00 0. -1.
         11    1    1    2    0    0 -0.14320597790E+02  0.31524075343E+02 -0.89874439898E+02  0.96313352108E+02  0.00000000000E+00 0.  1.
        -15    1    1    2    0    0 -0.35112202771E+02  0.17963347200E+02 -0.59857200669E+02  0.71704887052E+02  0.17770000000E+01 0. -1.
         15    1    1    2    0    0  0.47823296456E+00 -0.28322890226E+02 -0.88029431604E+01  0.29716398752E+02  0.17770000000E+01 0.  1.
</event>
<event>
 6    1  0.1775046E-008  0.1637085E+03  0.7546771E-02  0.1084482E+00
        -11   -1    0    0    0    0  0.00000000000E+00  0.00000000000E+00  0.18250000000E+03  0.18250000000E+03  0.00000000000E+00 0.  1.
         11   -1    0    0    0    0 -0.00000000000E+00 -0.00000000000E+00 -0.18250000000E+03  0.18250000000E+03  0.00000000000E+00 0. -1.
        -11    1    1    2    0    0 -0.14410785795E+02 -0.49298891095E+02  0.15991999576E+03  0.16796564070E+03  0.00000000000E+00 0.  1.
         11    1    1    2    0    0 -0.18697132923E+01 -0.50378896816E+01 -0.21927656126E+01  0.58038247106E+01  0.00000000000E+00 0. -1.
        -15    1    1    2    0    0  0.14795825618E+02  0.23645775689E+02 -0.15799797867E+03  0.16045110831E+03  0.17770000000E+01 0. -1.
         15    1    1    2    0    0  0.14846734699E+01  0.30691005088E+02  0.27074852710E+00  0.30779426284E+02  0.17770000000E+01 0.  1.
</event>
<event>
 6    1  0.1775046E-008  0.3032994E+03  0.7546771E-02  0.9995171E-01
        -11   -1    0    0    0    0  0.00000000000E+00  0.00000000000E+00  0.18250000000E+03  0.18250000000E+03  0.00000000000E+00 0. -1.
         11   -1    0    0    0    0 -0.00000000000E+00 -0.00000000000E+00 -0.18250000000E+03  0.18250000000E+03  0.00000000000E+00 0. -1.
        -11    1    1    2    0    0  0.17768884237E+02 -0.40405970123E+02  0.25128271388E+02  0.50791787639E+02  0.00000000000E+00 0. -1.
         11    1    1    2    0    0 -0.52663595323E+01 -0.95240061592E+01  0.74951493312E+00  0.10908850016E+02  0.00000000000E+00 0. -1.
        -15    1    1    2    0    0  0.37967295776E+01  0.26779249828E+02 -0.16200027069E+03  0.16425221097E+03  0.17770000000E+01 0. -1.
         15    1    1    2    0    0 -0.16299254283E+02  0.23150726454E+02  0.13612248437E+03  0.13904715137E+03  0.17770000000E+01 0.  1.
</event>
<event>
 6    1  0.1775046E-008  0.9597145E+02  0.7546771E-02  0.1170973E+00
        -11   -1    0    0    0    0  0.00000000000E+00  0.00000000000E+00  0.18250000000E+03  0.18250000000E+03  0.00000000000E+00 0. -1.
         11   -1    0    0    0    0 -0.00000000000E+00 -0.00000000000E+00 -0.18250000000E+03  0.18250000000E+03  0.00000000000E+00 0.  1.
        -11    1    1    2    0    0  0.45368341005E+02 -0.32856678953E+02  0.39695910754E+02  0.68655757573E+02  0.00000000000E+00 0. -1.
         11    1    1    2    0    0  0.78789317351E+02  0.17903816144E+02 -0.54886326758E+02  0.97677080352E+02  0.00000000000E+00 0.  1.
        -15    1    1    2    0    0 -0.85140274858E+01 -0.32827810743E+01  0.69131165211E+02  0.69753430367E+02  0.17770000000E+01 0. -1.
         15    1    1    2    0    0 -0.11564363087E+03  0.18235643883E+02 -0.53940749207E+02  0.12891373171E+03  0.17770000000E+01 0.  1.
</event>
<event>
 6    1  0.1775046E-008  0.1456911E+03  0.7546771E-02  0.1102235E+00
        -11   -1    0    0    0    0  0.00000000000E+00  0.00000000000E+00  0.18250000000E+03  0.18250000000E+03  0.00000000000E+00 0. -1.
         11   -1    0    0    0    0 -0.00000000000E+00 -0.00000000000E+00 -0.18250000000E+03  0.18250000000E+03  0.00000000000E+00 0. -1.
        -11    1    1    2    0    0  0.27685837861E+02  0.70346516728E+02  0.11115303689E+03  0.13442520465E+03  0.00000000000E+00 0. -1.
         11    1    1    2    0    0  0.18995313408E+02  0.28087058721E+01 -0.94460103375E+02  0.96392021920E+02  0.00000000000E+00 0. -1.
        -15    1    1    2    0    0 -0.78870127460E+01 -0.24164279958E+01 -0.47172178476E+02  0.47920937444E+02  0.17770000000E+01 0. -1.
         15    1    1    2    0    0 -0.38794138523E+02 -0.70738794605E+02  0.30479244957E+02  0.86261835988E+02  0.17770000000E+01 0.  1.
</event>
<event>
 6    1  0.1775046E-008  0.1066049E+03  0.7546771E-02  0.1152858E+00
        -11   -1    0    0    0    0  0.00000000000E+00  0.00000000000E+00  0.18250000000E+03  0.18250000000E+03  0.00000000000E+00 0. -1.
         11   -1    0    0    0    0 -0.00000000000E+00 -0.00000000000E+00 -0.18250000000E+03  0.18250000000E+03  0.00000000000E+00 0. -1.
        -11    1    1    2    0    0  0.11022516186E+01  0.98321810519E+02  0.88859795002E+02  0.13253096450E+03  0.00000000000E+00 0. -1.
         11    1    1    2    0    0 -0.29256502627E+01 -0.43356060688E+02 -0.35427613242E+02  0.56066239466E+02  0.00000000000E+00 0. -1.
        -15    1    1    2    0    0 -0.35338666483E+01 -0.13825291689E+00 -0.10251943812E+03  0.10259581009E+03  0.17770000000E+01 0. -1.
         15    1    1    2    0    0  0.53572652923E+01 -0.54827496914E+02  0.49087256356E+02  0.73806985949E+02  0.17770000000E+01 0.  1.
</event>
<event>
 6    1  0.1775046E-008  0.1201188E+03  0.7546771E-02  0.1132963E+00
        -11   -1    0    0    0    0  0.00000000000E+00  0.00000000000E+00  0.18250000000E+03  0.18250000000E+03  0.00000000000E+00 0. -1.
         11   -1    0    0    0    0 -0.00000000000E+00 -0.00000000000E+00 -0.18250000000E+03  0.18250000000E+03  0.00000000000E+00 0. -1.
        -11    1    1    2    0    0 -0.41446981131E+02 -0.53336965685E+02  0.11581773800E+03  0.13407621932E+03  0.00000000000E+00 0. -1.
         11    1    1    2    0    0  0.49988724593E+02 -0.38381439916E+02 -0.10609209442E+03  0.12339991902E+03  0.00000000000E+00 0. -1.
        -15    1    1    2    0    0  0.20153338240E+02  0.41609627946E+02 -0.17011114316E+02  0.49295577077E+02  0.17770000000E+01 0.  1.
         15    1    1    2    0    0 -0.28695081702E+02  0.50108777655E+02  0.72854707358E+01  0.58228284577E+02  0.17770000000E+01 0. -1.
</event>
<event>
 6    1  0.1775046E-008  0.1138307E+03  0.7546771E-02  0.1141838E+00
        -11   -1    0    0    0    0  0.00000000000E+00  0.00000000000E+00  0.18250000000E+03  0.18250000000E+03  0.00000000000E+00 0. -1.
         11   -1    0    0    0    0 -0.00000000000E+00 -0.00000000000E+00 -0.18250000000E+03  0.18250000000E+03  0.00000000000E+00 0.  1.
        -11    1    1    2    0    0 -0.92592119923E+01  0.57858306647E+02  0.40217414303E+02  0.71068678530E+02  0.00000000000E+00 0. -1.
         11    1    1    2    0    0  0.89120779269E+01 -0.73866347547E+02 -0.11459419132E+03  0.13662902736E+03  0.00000000000E+00 0.  1.
        -15    1    1    2    0    0 -0.38409090507E+02  0.60125712622E+02  0.67355765667E+02  0.98134175747E+02  0.17770000000E+01 0. -1.
         15    1    1    2    0    0  0.38756224572E+02 -0.44117671723E+02  0.70210113493E+01  0.59168118364E+02  0.17770000000E+01 0.  1.
</event>
<event>
 6    1  0.1775046E-008  0.1429693E+03  0.7546771E-02  0.1105162E+00
        -11   -1    0    0    0    0  0.00000000000E+00  0.00000000000E+00  0.18250000000E+03  0.18250000000E+03  0.00000000000E+00 0.  1.
         11   -1    0    0    0    0 -0.00000000000E+00 -0.00000000000E+00 -0.18250000000E+03  0.18250000000E+03  0.00000000000E+00 0.  1.
        -11    1    1    2    0    0  0.78843072339E+02 -0.48912942526E+02  0.32525372925E+02  0.98318898927E+02  0.00000000000E+00 0.  1.
         11    1    1    2    0    0 -0.89564076453E+02  0.54684377714E+02 -0.10224671752E+03  0.14651449143E+03  0.00000000000E+00 0.  1.
        -15    1    1    2    0    0  0.48526359988E+01 -0.84555375495E+01  0.94235504852E+02  0.94755117514E+02  0.17770000000E+01 0.  1.
         15    1    1    2    0    0  0.58683681158E+01  0.26841023615E+01 -0.24514160260E+02  0.25411492127E+02  0.17770000000E+01 0. -1.
</event>
<event>
 6    1  0.2085438E-008  0.1371175E+03  0.7546771E-02  0.1111706E+00
        -11   -1    0    0    0    0  0.00000000000E+00  0.00000000000E+00  0.18250000000E+03  0.18250000000E+03  0.00000000000E+00 0. -1.
         11   -1    0    0    0    0 -0.00000000000E+00 -0.00000000000E+00 -0.18250000000E+03  0.18250000000E+03  0.00000000000E+00 0.  1.
        -11    1    1    2    0    0  0.49658090323E+02  0.12513952379E+02  0.12901353623E+03  0.13880568241E+03  0.00000000000E+00 0. -1.
         11    1    1    2    0    0 -0.75590164601E+00  0.22547941308E+02 -0.28260700550E+02  0.36161419221E+02  0.00000000000E+00 0.  1.
        -15    1    1    2    0    0 -0.37648196128E+02 -0.62195954397E+01  0.34376766189E+02  0.51390561602E+02  0.17770000000E+01 0.  1.
         15    1    1    2    0    0 -0.11253992549E+02 -0.28842298247E+02 -0.13512960186E+03  0.13864233677E+03  0.17770000000E+01 0. -1.
</event>
<event>
 6    1  0.1775046E-008  0.1948499E+03  0.7546771E-02  0.1059028E+00
        -11   -1    0    0    0    0  0.00000000000E+00  0.00000000000E+00  0.18250000000E+03  0.18250000000E+03  0.00000000000E+00 0.  1.
         11   -1    0    0    0    0 -0.00000000000E+00 -0.00000000000E+00 -0.18250000000E+03  0.18250000000E+03  0.00000000000E+00 0.  1.
        -11    1    1    2    0    0  0.31893004969E+02 -0.41109601800E+01  0.16708377605E+03  0.17015008663E+03  0.00000000000E+00 0.  1.
         11    1    1    2    0    0 -0.30190106984E+01  0.24809426767E+02 -0.11664254569E+03  0.11929000607E+03  0.00000000000E+00 0.  1.
        -15    1    1    2    0    0 -0.13966549662E+02  0.97249960339E+01 -0.32145665721E+01  0.17410664104E+02  0.17770000000E+01 0.  1.
         15    1    1    2    0    0 -0.14907444608E+02 -0.30423462621E+02 -0.47226663789E+02  0.58149243196E+02  0.17770000000E+01 0. -1.
</event>
<event>
 6    1  0.1775046E-008  0.9246672E+02  0.7546771E-02  0.1177527E+00
        -11   -1    0    0    0    0  0.00000000000E+00  0.00000000000E+00  0.18250000000E+03  0.18250000000E+03  0.00000000000E+00 0. -1.
         11   -1    0    0    0    0 -0.00000000000E+00 -0.00000000000E+00 -0.18250000000E+03  0.18250000000E+03  0.00000000000E+00 0. -1.
        -11    1    1    2    0    0 -0.58581858577E+02  0.80547962412E+01  0.58931614095E+02  0.83484423916E+02  0.00000000000E+00 0. -1.
         11    1    1    2    0    0  0.31248850935E+02  0.21400638503E+02 -0.92210085129E+02  0.99685394178E+02  0.00000000000E+00 0. -1.
        -15    1    1    2    0    0  0.92344106192E+01 -0.98109076368E+02  0.47485827660E+02  0.10940167623E+03  0.17770000000E+01 0.  1.
         15    1    1    2    0    0  0.18098597023E+02  0.68653641624E+02 -0.14207356626E+02  0.72428505671E+02  0.17770000000E+01 0. -1.
</event>
<event>
 6    1  0.1775046E-008  0.1020791E+03  0.7546771E-02  0.1160267E+00
        -11   -1    0    0    0    0  0.00000000000E+00  0.00000000000E+00  0.18250000000E+03  0.18250000000E+03  0.00000000000E+00 0.  1.
         11   -1    0    0    0    0 -0.00000000000E+00 -0.00000000000E+00 -0.18250000000E+03  0.18250000000E+03  0.00000000000E+00 0. -1.
        -11    1    1    2    0    0  0.55541744452E+02 -0.31339898327E+02 -0.18196997034E+02  0.66318966405E+02  0.00000000000E+00 0.  1.
         11    1    1    2    0    0 -0.63058215384E+02  0.41857620487E+02 -0.90195848580E+02  0.11774417192E+03  0.00000000000E+00 0. -1.
        -15    1    1    2    0    0  0.34698807465E+02  0.52979881548E+02  0.88862571585E+02  0.10913564700E+03  0.17770000000E+01 0.  1.
         15    1    1    2    0    0 -0.27182336533E+02 -0.63497603709E+02  0.19530274029E+02  0.71801214675E+02  0.17770000000E+01 0. -1.
</event>
<event>
 6    1  0.2967902E-008  0.1112241E+03  0.7546771E-02  0.1145706E+00
        -11   -1    0    0    0    0  0.00000000000E+00  0.00000000000E+00  0.18250000000E+03  0.18250000000E+03  0.00000000000E+00 0. -1.
         11   -1    0    0    0    0 -0.00000000000E+00 -0.00000000000E+00 -0.18250000000E+03  0.18250000000E+03  0.00000000000E+00 0.  1.
        -11    1    1    2    0    0 -0.87686575644E+02  0.55976040262E+02  0.62960272005E+02  0.12159871908E+03  0.00000000000E+00 0. -1.
         11    1    1    2    0    0  0.28409030672E+02  0.15678875988E+02 -0.24723455370E+02  0.40793987565E+02  0.00000000000E+00 0.  1.
        -15    1    1    2    0    0  0.18015796010E+02 -0.57503516347E+02  0.66125420071E+02  0.89481574678E+02  0.17770000000E+01 0. -1.
         15    1    1    2    0    0  0.41261748962E+02 -0.14151399903E+02 -0.10436223671E+03  0.11312571868E+03  0.17770000000E+01 0.  1.
</event>
<event>
 6    1  0.1775046E-008  0.1158679E+03  0.7546771E-02  0.1138895E+00
        -11   -1    0    0    0    0  0.00000000000E+00  0.00000000000E+00  0.18250000000E+03  0.18250000000E+03  0.00000000000E+00 0. -1.
         11   -1    0    0    0    0 -0.00000000000E+00 -0.00000000000E+00 -0.18250000000E+03  0.18250000000E+03  0.00000000000E+00 0. -1.
        -11    1    1    2    0    0 -0.35051251114E+02  0.51154471361E+02  0.99989116219E+01  0.62812008235E+02  0.00000000000E+00 0. -1.
         11    1    1    2    0    0  0.69074887067E+02 -0.17517311290E+02 -0.10911090751E+03  0.13032032211E+03  0.00000000000E+00 0. -1.
        -15    1    1    2    0    0 -0.68942067149E+02 -0.63795926206E+02  0.71575699797E+02  0.11810659318E+03  0.17770000000E+01 0. -1.
         15    1    1    2    0    0  0.34918431195E+02  0.30158766135E+02  0.27536296088E+02  0.53761076470E+02  0.17770000000E+01 0.  1.
</event>
<event>
 6    1  0.1775046E-008  0.1113677E+03  0.7546771E-02  0.1145490E+00
        -11   -1    0    0    0    0  0.00000000000E+00  0.00000000000E+00  0.18250000000E+03  0.18250000000E+03  0.00000000000E+00 0. -1.
         11   -1    0    0    0    0 -0.00000000000E+00 -0.00000000000E+00 -0.18250000000E+03  0.18250000000E+03  0.00000000000E+00 0.  1.
        -11    1    1    2    0    0 -0.69481445930E+02 -0.21571080995E+02  0.24922269589E+02  0.76903201398E+02  0.00000000000E+00 0. -1.
         11    1    1    2    0    0  0.10662813857E+03  0.50103837938E+02 -0.67106400702E+02  0.13558474666E+03  0.00000000000E+00 0.  1.
        -15    1    1    2    0    0  0.36978591963E+02  0.31140299307E+02  0.29062681996E+02  0.56435199285E+02  0.17770000000E+01 0. -1.
         15    1    1    2    0    0 -0.74125284607E+02 -0.59673056251E+02  0.13121449116E+02  0.96076852656E+02  0.17770000000E+01 0.  1.
</event>
<event>
 6    1  0.1775046E-008  0.1258053E+03  0.7546771E-02  0.1125441E+00
        -11   -1    0    0    0    0  0.00000000000E+00  0.00000000000E+00  0.18250000000E+03  0.18250000000E+03  0.00000000000E+00 0. -1.
         11   -1    0    0    0    0 -0.00000000000E+00 -0.00000000000E+00 -0.18250000000E+03  0.18250000000E+03  0.00000000000E+00 0.  1.
        -11    1    1    2    0    0 -0.13055897378E+02 -0.11464194506E+02  0.68826256962E+01  0.18688358636E+02  0.00000000000E+00 0. -1.
         11    1    1    2    0    0  0.32751322647E+02 -0.14775890098E+02 -0.14619602571E+03  0.15054651771E+03  0.00000000000E+00 0.  1.
        -15    1    1    2    0    0  0.57236449725E+02  0.38918024759E+01  0.59086847058E+02  0.82374574523E+02  0.17770000000E+01 0. -1.
         15    1    1    2    0    0 -0.76931874994E+02  0.22348282128E+02  0.80226552951E+02  0.11339054913E+03  0.17770000000E+01 0.  1.
</event>
<event>
 6    1  0.1775046E-008  0.1207606E+03  0.7546771E-02  0.1132091E+00
        -11   -1    0    0    0    0  0.00000000000E+00  0.00000000000E+00  0.18250000000E+03  0.18250000000E+03  0.00000000000E+00 0.  1.
         11   -1    0    0    0    0 -0.00000000000E+00 -0.00000000000E+00 -0.18250000000E+03  0.18250000000E+03  0.00000000000E+00 0. -1.
        -11    1    1    2    0    0 -0.12692644627E+02 -0.46621630456E+02  0.27562976640E+02  0.55627307460E+02  0.00000000000E+00 0.  1.
         11    1    1    2    0    0  0.21802536900E+02  0.49920304871E+02 -0.14351451140E+03  0.15350505671E+03  0.00000000000E+00 0. -1.
        -15    1    1    2    0    0  0.26928863068E+02  0.25166619566E+02  0.10101256741E+03  0.10754170777E+03  0.17770000000E+01 0.  1.
         15    1    1    2    0    0 -0.36038755341E+02 -0.28465293981E+02  0.14938967354E+02  0.48325928057E+02  0.17770000000E+01 0. -1.
</event>
<event>
 6    1  0.1775046E-008  0.1399893E+03  0.7546771E-02  0.1108450E+00
        -11   -1    0    0    0    0  0.00000000000E+00  0.00000000000E+00  0.18250000000E+03  0.18250000000E+03  0.00000000000E+00 0. -1.
         11   -1    0    0    0    0 -0.00000000000E+00 -0.00000000000E+00 -0.18250000000E+03  0.18250000000E+03  0.00000000000E+00 0. -1.
        -11    1    1    2    0    0 -0.80646928975E+02 -0.63828505535E+02  0.84577532434E+02  0.13315916891E+03  0.00000000000E+00 0. -1.
         11    1    1    2    0    0  0.94097144441E+02  0.25496327559E+02 -0.54073363327E+02  0.11148212382E+03  0.00000000000E+00 0. -1.
        -15    1    1    2    0    0 -0.34107926371E+02 -0.36990227226E+01  0.28759392048E+02  0.44802832170E+02  0.17770000000E+01 0.  1.
         15    1    1    2    0    0  0.20657710905E+02  0.42031200698E+02 -0.59263561155E+02  0.75555875097E+02  0.17770000000E+01 0. -1.
</event>
<event>
 6    1  0.1775046E-008  0.1920521E+03  0.7546771E-02  0.1061096E+00
        -11   -1    0    0    0    0  0.00000000000E+00  0.00000000000E+00  0.18250000000E+03  0.18250000000E+03  0.00000000000E+00 0.  1.
         11   -1    0    0    0    0 -0.00000000000E+00 -0.00000000000E+00 -0.18250000000E+03  0.18250000000E+03  0.00000000000E+00 0.  1.
        -11    1    1    2    0    0  0.50063948800E+02  0.21561007382E+02  0.16413316109E+03  0.17294788399E+03  0.00000000000E+00 0.  1.
         11    1    1    2    0    0 -0.20728678078E+02 -0.26580409666E+02 -0.25249143585E+02  0.42115502189E+02  0.00000000000E+00 0.  1.
        -15    1    1    2    0    0 -0.23352268974E+02 -0.63138898602E+01 -0.13388778446E+03  0.13606722687E+03  0.17770000000E+01 0.  1.
         15    1    1    2    0    0 -0.59830017481E+01  0.11333292144E+02 -0.49962330409E+01  0.13869386949E+02  0.17770000000E+01 0. -1.
</event>
<event>
 6    1  0.1775046E-008  0.1043181E+03  0.7546771E-02  0.1156549E+00
        -11   -1    0    0    0    0  0.00000000000E+00  0.00000000000E+00  0.18250000000E+03  0.18250000000E+03  0.00000000000E+00 0.  1.
         11   -1    0    0    0    0 -0.00000000000E+00 -0.00000000000E+00 -0.18250000000E+03  0.18250000000E+03  0.00000000000E+00 0. -1.
        -11    1    1    2    0    0 -0.54733582214E+00  0.29946395642E+02  0.56186128611E+02  0.63670772233E+02  0.00000000000E+00 0.  1.
         11    1    1    2    0    0 -0.57721019556E+02 -0.47304894169E+02 -0.11076668438E+03  0.13356169915E+03  0.00000000000E+00 0. -1.
        -15    1    1    2    0    0 -0.36234278413E+01  0.64091590037E+02  0.62722854334E+02  0.89767339983E+02  0.17770000000E+01 0.  1.
         15    1    1    2    0    0  0.61891783220E+02 -0.46733091510E+02 -0.81422985642E+01  0.78000188635E+02  0.17770000000E+01 0. -1.
</event>
<event>
 6    1  0.1775046E-008  0.2448637E+03  0.7546771E-02  0.1027425E+00
        -11   -1    0    0    0    0  0.00000000000E+00  0.00000000000E+00  0.18250000000E+03  0.18250000000E+03  0.00000000000E+00 0. -1.
         11   -1    0    0    0    0 -0.00000000000E+00 -0.00000000000E+00 -0.18250000000E+03  0.18250000000E+03  0.00000000000E+00 0.  1.
        -11    1    1    2    0    0  0.23051505403E+01 -0.29028453816E+02  0.27970578783E+02  0.40377198112E+02  0.00000000000E+00 0.  1.
         11    1    1    2    0    0 -0.24748576667E+02 -0.26547616002E+02  0.71022903224E+02  0.79759142077E+02  0.00000000000E+00 0. -1.
        -15    1    1    2    0    0 -0.63283155804E+02  0.10582723726E+03 -0.41872388407E+02  0.13023293207E+03  0.17770000000E+01 0. -1.
         15    1    1    2    0    0  0.85726581931E+02 -0.50251167447E+02 -0.57121093600E+02  0.11463072774E+03  0.17770000000E+01 0.  1.
</event>
<event>
 6    1  0.1775046E-008  0.2564504E+03  0.7546771E-02  0.1021263E+00
        -11   -1    0    0    0    0  0.00000000000E+00  0.00000000000E+00  0.18250000000E+03  0.18250000000E+03  0.00000000000E+00 0.  1.
         11   -1    0    0    0    0 -0.00000000000E+00 -0.00000000000E+00 -0.18250000000E+03  0.18250000000E+03  0.00000000000E+00 0. -1.
        -11    1    1    2    0    0  0.60578596888E+02 -0.77846701902E+01 -0.24862372327E+02  0.65943195620E+02  0.00000000000E+00 0.  1.
         11    1    1    2    0    0 -0.32760186078E+02 -0.74366497353E+01 -0.26932022015E+02  0.43056560022E+02  0.00000000000E+00 0. -1.
        -15    1    1    2    0    0  0.65100351208E+02  0.10361182278E+03  0.22274649825E+02  0.12438964306E+03  0.17770000000E+01 0.  1.
         15    1    1    2    0    0 -0.92918762018E+02 -0.88390502851E+02  0.29519744516E+02  0.13161060130E+03  0.17770000000E+01 0. -1.
</event>
<event>
 6    1  0.1775046E-008  0.1998312E+03  0.7546771E-02  0.1055439E+00
        -11   -1    0    0    0    0  0.00000000000E+00  0.00000000000E+00  0.18250000000E+03  0.18250000000E+03  0.00000000000E+00 0.  1.
         11   -1    0    0    0    0 -0.00000000000E+00 -0.00000000000E+00 -0.18250000000E+03  0.18250000000E+03  0.00000000000E+00 0. -1.
        -11    1    1    2    0    0  0.13604259369E+02  0.53576669707E+02  0.15564443575E+03  0.16516877970E+03  0.00000000000E+00 0.  1.
         11    1    1    2    0    0  0.13650490492E+02 -0.36226033887E+02 -0.13121782870E+03  0.13680928327E+03  0.00000000000E+00 0. -1.
        -15    1    1    2    0    0  0.60541828599E+01 -0.37072505618E+01  0.10524487519E+02  0.12818713015E+02  0.17770000000E+01 0.  1.
         15    1    1    2    0    0 -0.33308932721E+02 -0.13643385258E+02 -0.34951094569E+02  0.50203224009E+02  0.17770000000E+01 0. -1.
</event>
<event>
 6    1  0.1775046E-008  0.1031779E+03  0.7546771E-02  0.1158429E+00
        -11   -1    0    0    0    0  0.00000000000E+00  0.00000000000E+00  0.18250000000E+03  0.18250000000E+03  0.00000000000E+00 0.  1.
         11   -1    0    0    0    0 -0.00000000000E+00 -0.00000000000E+00 -0.18250000000E+03  0.18250000000E+03  0.00000000000E+00 0. -1.
        -11    1    1    2    0    0 -0.11684008052E+03  0.21342506491E+01  0.23328332873E+02  0.11916530769E+03  0.00000000000E+00 0.  1.
         11    1    1    2    0    0  0.13300297540E+02 -0.21874656337E+01 -0.26941478748E+02  0.30125175480E+02  0.00000000000E+00 0. -1.
        -15    1    1    2    0    0  0.72935825089E+02  0.77444345356E+02  0.53055177867E+02  0.11889184512E+03  0.17770000000E+01 0.  1.
         15    1    1    2    0    0  0.30603957891E+02 -0.77391130372E+02 -0.49442031992E+02  0.96817671709E+02  0.17770000000E+01 0. -1.
</event>
<event>
 6    1  0.1775046E-008  0.1140633E+03  0.7546771E-02  0.1141499E+00
        -11   -1    0    0    0    0  0.00000000000E+00  0.00000000000E+00  0.18250000000E+03  0.18250000000E+03  0.00000000000E+00 0. -1.
         11   -1    0    0    0    0 -0.00000000000E+00 -0.00000000000E+00 -0.18250000000E+03  0.18250000000E+03  0.00000000000E+00 0. -1.
        -11    1    1    2    0    0  0.83255414530E+01  0.26604911151E+02  0.22050223466E+02  0.35543611138E+02  0.00000000000E+00 0. -1.
         11    1    1    2    0    0  0.52363502942E+02  0.56765280641E+01 -0.79060515975E+02  0.94998550502E+02  0.00000000000E+00 0. -1.
        -15    1    1    2    0    0 -0.76774619231E+02 -0.10503984111E+03  0.84348219495E+02  0.15506608346E+03  0.17770000000E+01 0. -1.
         15    1    1    2    0    0  0.16085574836E+02  0.72758401899E+02 -0.27337926986E+02  0.79391754897E+02  0.17770000000E+01 0.  1.
</event>
<event>
 6    1  0.1775046E-008  0.9487505E+02  0.7546771E-02  0.1172990E+00
        -11   -1    0    0    0    0  0.00000000000E+00  0.00000000000E+00  0.18250000000E+03  0.18250000000E+03  0.00000000000E+00 0.  1.
         11   -1    0    0    0    0 -0.00000000000E+00 -0.00000000000E+00 -0.18250000000E+03  0.18250000000E+03  0.00000000000E+00 0.  1.
        -11    1    1    2    0    0 -0.19472984976E+02 -0.40072417605E+02 -0.43307100808E+02  0.62132928283E+02  0.00000000000E+00 0.  1.
         11    1    1    2    0    0 -0.40603035774E+02  0.35388629562E+02 -0.82577031157E+02  0.98589693635E+02  0.00000000000E+00 0.  1.
        -15    1    1    2    0    0 -0.31331885709E+02 -0.41352080265E+02  0.71523657659E+02  0.88376880111E+02  0.17770000000E+01 0.  1.
         15    1    1    2    0    0  0.91407906458E+02  0.46035868308E+02  0.54360474307E+02  0.11590049797E+03  0.17770000000E+01 0. -1.
</event>
<event>
 6    1  0.1775046E-008  0.1241340E+03  0.7546771E-02  0.1127605E+00
        -11   -1    0    0    0    0  0.00000000000E+00  0.00000000000E+00  0.18250000000E+03  0.18250000000E+03  0.00000000000E+00 0. -1.
         11   -1    0    0    0    0 -0.00000000000E+00 -0.00000000000E+00 -0.18250000000E+03  0.18250000000E+03  0.00000000000E+00 0.  1.
        -11    1    1    2    0    0  0.54500412560E+02  0.16231642802E+02  0.13183555657E+03  0.14357707050E+03  0.00000000000E+00 0. -1.
         11    1    1    2    0    0  0.37234961608E+02 -0.43343699281E+02 -0.88123618743E+02  0.10502804775E+03  0.00000000000E+00 0.  1.
        -15    1    1    2    0    0 -0.81689410042E+02  0.40374983331E+02 -0.37222905170E+02  0.98447962855E+02  0.17770000000E+01 0.  1.
         15    1    1    2    0    0 -0.10045964126E+02 -0.13262926852E+02 -0.64890326607E+01  0.17946918893E+02  0.17770000000E+01 0. -1.
</event>
<event>
 6    1  0.1775046E-008  0.8261016E+02  0.7546771E-02  0.1197851E+00
        -11   -1    0    0    0    0  0.00000000000E+00  0.00000000000E+00  0.18250000000E+03  0.18250000000E+03  0.00000000000E+00 0. -1.
         11   -1    0    0    0    0 -0.00000000000E+00 -0.00000000000E+00 -0.18250000000E+03  0.18250000000E+03  0.00000000000E+00 0. -1.
        -11    1    1    2    0    0  0.19978553687E+02  0.33914553495E+02  0.71840338385E+02  0.81916871067E+02  0.00000000000E+00 0. -1.
         11    1    1    2    0    0 -0.56657637550E+02  0.37318053565E+02 -0.72727449742E+02  0.99458569066E+02  0.00000000000E+00 0. -1.
        -15    1    1    2    0    0  0.85577640809E+02  0.12239732976E+02  0.64581946754E+01  0.86707610261E+02  0.17770000000E+01 0.  1.
         15    1    1    2    0    0 -0.48898556946E+02 -0.83472340036E+02 -0.55710833183E+01  0.96916949605E+02  0.17770000000E+01 0. -1.
</event>
<event>
 6    1  0.1775046E-008  0.1300365E+03  0.7546771E-02  0.1120123E+00
        -11   -1    0    0    0    0  0.00000000000E+00  0.00000000000E+00  0.18250000000E+03  0.18250000000E+03  0.00000000000E+00 0. -1.
         11   -1    0    0    0    0 -0.00000000000E+00 -0.00000000000E+00 -0.18250000000E+03  0.18250000000E+03  0.00000000000E+00 0. -1.
        -11    1    1    2    0    0  0.25242446281E+02  0.36898642753E+02  0.10110364454E+03  0.11054699394E+03  0.00000000000E+00 0. -1.
         11    1    1    2    0    0 -0.10449049145E+02  0.11146506258E+01 -0.11625293978E+02  0.15670754102E+02  0.00000000000E+00 0. -1.
        -15    1    1    2    0    0  0.12141382513E+02 -0.11161619562E+02 -0.15881538513E+03  0.15967930111E+03  0.17770000000E+01 0. -1.
         15    1    1    2    0    0 -0.26934779649E+02 -0.26851673817E+02  0.69337034567E+02  0.79102950849E+02  0.17770000000E+01 0.  1.
</event>
<event>
 6    1  0.1775046E-008  0.1354447E+03  0.7546771E-02  0.1113643E+00
        -11   -1    0    0    0    0  0.00000000000E+00  0.00000000000E+00  0.18250000000E+03  0.18250000000E+03  0.00000000000E+00 0. -1.
         11   -1    0    0    0    0 -0.00000000000E+00 -0.00000000000E+00 -0.18250000000E+03  0.18250000000E+03  0.00000000000E+00 0.  1.
        -11    1    1    2    0    0 -0.28932357047E+02  0.12231259153E+02  0.17716186102E+02  0.36063114602E+02  0.00000000000E+00 0. -1.
         11    1    1    2    0    0  0.25480239599E+02  0.22290601147E+02 -0.42930800154E+02  0.54673276026E+02  0.00000000000E+00 0.  1.
        -15    1    1    2    0    0  0.54260966451E+01  0.40881333129E+01  0.14664605077E+03  0.14681409092E+03  0.17770000000E+01 0. -1.
         15    1    1    2    0    0 -0.19739791975E+01 -0.38609993613E+02 -0.12143143672E+03  0.12744951845E+03  0.17770000000E+01 0.  1.
</event>
<event>
 6    1  0.1775046E-008  0.1350814E+03  0.7546771E-02  0.1114068E+00
        -11   -1    0    0    0    0  0.00000000000E+00  0.00000000000E+00  0.18250000000E+03  0.18250000000E+03  0.00000000000E+00 0.  1.
         11   -1    0    0    0    0 -0.00000000000E+00 -0.00000000000E+00 -0.18250000000E+03  0.18250000000E+03  0.00000000000E+00 0.  1.
        -11    1    1    2    0    0 -0.45926595405E+02  0.12265803212E+02  0.13783997288E+03  0.14580658495E+03  0.00000000000E+00 0.  1.
         11    1    1    2    0    0  0.45671015870E+02  0.25783689798E+02 -0.11659591559E+03  0.12784853492E+03  0.00000000000E+00 0.  1.
        -15    1    1    2    0    0 -0.11535636012E+02 -0.30523925508E+02  0.26177582921E+02  0.41871284948E+02  0.17770000000E+01 0.  1.
         15    1    1    2    0    0  0.11791215547E+02 -0.75255675019E+01 -0.47421640211E+02  0.49473595175E+02  0.17770000000E+01 0. -1.
</event>
<event>
 6    1  0.1775046E-008  0.1204298E+03  0.7546771E-02  0.1132540E+00
        -11   -1    0    0    0    0  0.00000000000E+00  0.00000000000E+00  0.18250000000E+03  0.18250000000E+03  0.00000000000E+00 0. -1.
         11   -1    0    0    0    0 -0.00000000000E+00 -0.00000000000E+00 -0.18250000000E+03  0.18250000000E+03  0.00000000000E+00 0.  1.
        -11    1    1    2    0    0  0.27923136760E-01 -0.21142542102E+02  0.27944226026E+02  0.35041227639E+02  0.00000000000E+00 0. -1.
         11    1    1    2    0    0  0.24486791002E+02 -0.66401913000E+02 -0.12558876590E+03  0.14415739698E+03  0.00000000000E+00 0.  1.
        -15    1    1    2    0    0 -0.57348419218E+02  0.16265793697E+02  0.88576435956E+02  0.10678183351E+03  0.17770000000E+01 0. -1.
         15    1    1    2    0    0  0.32833705079E+02  0.71278661405E+02  0.90681039145E+01  0.79019541878E+02  0.17770000000E+01 0.  1.
</event>
<event>
 6    1  0.1775046E-008  0.1897490E+03  0.7546771E-02  0.1062827E+00
        -11   -1    0    0    0    0  0.00000000000E+00  0.00000000000E+00  0.18250000000E+03  0.18250000000E+03  0.00000000000E+00 0. -1.
         11   -1    0    0    0    0 -0.00000000000E+00 -0.00000000000E+00 -0.18250000000E+03  0.18250000000E+03  0.00000000000E+00 0. -1.
        -11    1    1    2    0    0  0.74891584367E+01 -0.45720906850E+01 -0.19610026481E+02  0.21483590154E+02  0.00000000000E+00 0. -1.
         11    1    1    2    0    0 -0.66777747745E+01 -0.32658429581E+02 -0.15011075183E+03  0.15376736817E+03  0.00000000000E+00 0. -1.
        -15    1    1    2    0    0 -0.16343398334E+02 -0.19196780489E+02  0.38466538050E+02  0.46026680619E+02  0.17770000000E+01 0.  1.
         15    1    1    2    0    0  0.15532014671E+02  0.56427300755E+02  0.13125424027E+03  0.14372236105E+03  0.17770000000E+01 0. -1.
</event>
<event>
 6    1  0.1775046E-008  0.1003293E+03  0.7546771E-02  0.1163247E+00
        -11   -1    0    0    0    0  0.00000000000E+00  0.00000000000E+00  0.18250000000E+03  0.18250000000E+03  0.00000000000E+00 0.  1.
         11   -1    0    0    0    0 -0.00000000000E+00 -0.00000000000E+00 -0.18250000000E+03  0.18250000000E+03  0.00000000000E+00 0. -1.
        -11    1    1    2    0    0 -0.23626820062E+02 -0.80145041995E+01  0.66319135618E+02  0.70856803858E+02  0.00000000000E+00 0.  1.
         11    1    1    2    0    0  0.37258297658E+02 -0.40288400760E+02 -0.67892888802E+02  0.87297080879E+02  0.00000000000E+00 0. -1.
        -15    1    1    2    0    0 -0.89285174367E+01  0.32795485888E+02 -0.99140971847E+02  0.10482057215E+03  0.17770000000E+01 0. -1.
         15    1    1    2    0    0 -0.47029601592E+01  0.15507419072E+02  0.10071472503E+03  0.10202554311E+03  0.17770000000E+01 0.  1.
</event>
<event>
 6    1  0.1775046E-008  0.1931876E+03  0.7546771E-02  0.1060252E+00
        -11   -1    0    0    0    0  0.00000000000E+00  0.00000000000E+00  0.18250000000E+03  0.18250000000E+03  0.00000000000E+00 0.  1.
         11   -1    0    0    0    0 -0.00000000000E+00 -0.00000000000E+00 -0.18250000000E+03  0.18250000000E+03  0.00000000000E+00 0.  1.
        -11    1    1    2    0    0 -0.12708891170E+01 -0.16136278133E+02  0.62502856400E+02  0.64564709318E+02  0.00000000000E+00 0.  1.
         11    1    1    2    0    0 -0.97263388673E+01 -0.33487699703E+02 -0.16823632924E+03  0.17181236910E+03  0.00000000000E+00 0.  1.
        -15    1    1    2    0    0 -0.21315609707E+02  0.17761740078E+02  0.38559303638E+02  0.47537482620E+02  0.17770000000E+01 0. -1.
         15    1    1    2    0    0  0.32312837691E+02  0.31862237758E+02  0.67174169203E+02  0.81085438962E+02  0.17770000000E+01 0.  1.
</event>
<event>
 6    1  0.1775046E-008  0.2185340E+03  0.7546771E-02  0.1042917E+00
        -11   -1    0    0    0    0  0.00000000000E+00  0.00000000000E+00  0.18250000000E+03  0.18250000000E+03  0.00000000000E+00 0. -1.
         11   -1    0    0    0    0 -0.00000000000E+00 -0.00000000000E+00 -0.18250000000E+03  0.18250000000E+03  0.00000000000E+00 0.  1.
        -11    1    1    2    0    0  0.12491038371E+02 -0.46224903487E+02  0.64596280348E+02  0.80408004432E+02  0.00000000000E+00 0. -1.
         11    1    1    2    0    0 -0.47059554880E+02  0.26161733440E+02 -0.13621028109E+03  0.14646596423E+03  0.00000000000E+00 0.  1.
        -15    1    1    2    0    0  0.26863061860E+02 -0.95438296878E+00  0.99063727167E+02  0.10266116456E+03  0.17770000000E+01 0. -1.
         15    1    1    2    0    0  0.77054546494E+01  0.21017553015E+02 -0.27449726421E+02  0.35464866780E+02  0.17770000000E+01 0.  1.
</event>
<event>
 6    1  0.1775046E-008  0.1399548E+03  0.7546771E-02  0.1108489E+00
        -11   -1    0    0    0    0  0.00000000000E+00  0.00000000000E+00  0.18250000000E+03  0.18250000000E+03  0.00000000000E+00 0. -1.
         11   -1    0    0    0    0 -0.00000000000E+00 -0.00000000000E+00 -0.18250000000E+03  0.18250000000E+03  0.00000000000E+00 0. -1.
        -11    1    1    2    0    0  0.18879648683E+02  0.31627052709E+02  0.11426020469E+03  0.12005043096E+03  0.00000000000E+00 0. -1.
         11    1    1    2    0    0  0.17098878552E+02  0.19671230804E+01 -0.11680479537E+03  0.11806608930E+03  0.00000000000E+00 0. -1.
        -15    1    1    2    0    0 -0.34504763235E+00 -0.29528041612E+02  0.55505342393E+02  0.62896940008E+02  0.17770000000E+01 0.  1.
         15    1    1    2    0    0 -0.35633479603E+02 -0.40661341777E+01 -0.52960751718E+02  0.63986539736E+02  0.17770000000E+01 0. -1.
</event>
<event>
 6    1  0.1775046E-008  0.2081233E+03  0.7546771E-02  0.1049711E+00
        -11   -1    0    0    0    0  0.00000000000E+00  0.00000000000E+00  0.18250000000E+03  0.18250000000E+03  0.00000000000E+00 0.  1.
         11   -1    0    0    0    0 -0.00000000000E+00 -0.00000000000E+00 -0.18250000000E+03  0.18250000000E+03  0.00000000000E+00 0.  1.
        -11    1    1    2    0    0 -0.28557770652E+02  0.47037617949E+02  0.49564576190E+02  0.74058969611E+02  0.00000000000E+00 0.  1.
         11    1    1    2    0    0  0.10490202212E+03 -0.69518104490E+02 -0.93664773312E+02  0.15687667403E+03  0.00000000000E+00 0.  1.
        -15    1    1    2    0    0 -0.93142793951E+02 -0.33491460437E+01  0.44277317512E+02  0.10320094680E+03  0.17770000000E+01 0.  1.
         15    1    1    2    0    0  0.16798542488E+02  0.25829632584E+02 -0.17712039023E+00  0.30863409562E+02  0.17770000000E+01 0. -1.
</event>
<event>
 6    1  0.1775046E-008  0.1478929E+03  0.7546771E-02  0.1099918E+00
        -11   -1    0    0    0    0  0.00000000000E+00  0.00000000000E+00  0.18250000000E+03  0.18250000000E+03  0.00000000000E+00 0. -1.
         11   -1    0    0    0    0 -0.00000000000E+00 -0.00000000000E+00 -0.18250000000E+03  0.18250000000E+03  0.00000000000E+00 0.  1.
        -11    1    1    2    0    0 -0.40927803430E+02  0.26874903434E+02  0.15182714429E+03  0.15952688574E+03  0.00000000000E+00 0. -1.
         11    1    1    2    0    0  0.16043473330E+01  0.15390127111E+02 -0.18215305808E+01  0.15580369588E+02  0.00000000000E+00 0.  1.
        -15    1    1    2    0    0  0.45552962015E+02  0.38686094559E+01 -0.16737849036E+02  0.48717058684E+02  0.17770000000E+01 0. -1.
         15    1    1    2    0    0 -0.62295059179E+01 -0.46133640001E+02 -0.13326776468E+03  0.14117568599E+03  0.17770000000E+01 0.  1.
</event>
<event>
 6    1  0.1775046E-008  0.9750623E+02  0.7546771E-02  0.1168201E+00
        -11   -1    0    0    0    0  0.00000000000E+00  0.00000000000E+00  0.18250000000E+03  0.18250000000E+03  0.00000000000E+00 0. -1.
         11   -1    0    0    0    0 -0.00000000000E+00 -0.00000000000E+00 -0.18250000000E+03  0.18250000000E+03  0.00000000000E+00 0.  1.
        -11    1    1    2    0    0 -0.68098515136E+02 -0.49034224920E+01  0.60335728441E+02  0.91114496335E+02  0.00000000000E+00 0. -1.
         11    1    1    2    0    0  0.89546658833E+02 -0.76535947312E+01 -0.71334263277E+02  0.11474214020E+03  0.00000000000E+00 0.  1.
        -15    1    1    2    0    0 -0.72075625260E+02 -0.30130091076E+02  0.38869136631E+02  0.87273625204E+02  0.17770000000E+01 0. -1.
         15    1    1    2    0    0  0.50627481563E+02  0.42687108299E+02 -0.27870601794E+02  0.71869738261E+02  0.17770000000E+01 0.  1.
</event>
<event>
 6    1  0.1775046E-008  0.1613056E+03  0.7546771E-02  0.1086701E+00
        -11   -1    0    0    0    0  0.00000000000E+00  0.00000000000E+00  0.18250000000E+03  0.18250000000E+03  0.00000000000E+00 0. -1.
         11   -1    0    0    0    0 -0.00000000000E+00 -0.00000000000E+00 -0.18250000000E+03  0.18250000000E+03  0.00000000000E+00 0. -1.
        -11    1    1    2    0    0 -0.72425267623E+02 -0.96934523512E+01  0.63467552845E+02  0.96785911541E+02  0.00000000000E+00 0. -1.
         11    1    1    2    0    0  0.45568136795E+02 -0.35666151235E+01 -0.11281479740E+03  0.12172244800E+03  0.00000000000E+00 0. -1.
        -15    1    1    2    0    0 -0.29579577559E+02  0.14401123457E+02 -0.33004597808E+02  0.46634804286E+02  0.17770000000E+01 0.  1.
         15    1    1    2    0    0  0.56436708386E+02 -0.11410559824E+01  0.82351842359E+02  0.99856836176E+02  0.17770000000E+01 0. -1.
</event>
<event>
 6    1  0.1775046E-008  0.1897280E+03  0.7546771E-02  0.1062843E+00
        -11   -1    0    0    0    0  0.00000000000E+00  0.00000000000E+00  0.18250000000E+03  0.18250000000E+03  0.00000000000E+00 0.  1.
         11   -1    0    0    0    0 -0.00000000000E+00 -0.00000000000E+00 -0.18250000000E+03  0.18250000000E+03  0.00000000000E+00 0.  1.
        -11    1    1    2    0    0 -0.88717201764E+01 -0.61465430107E+01  0.17493942254E+03  0.17527204275E+03  0.00000000000E+00 0.  1.
         11    1    1    2    0    0  0.50980964779E+01 -0.25594606576E+02 -0.52660249254E+02  0.58772241109E+02  0.00000000000E+00 0.  1.
        -15    1    1    2    0    0 -0.48545872443E+01  0.36149486704E+02 -0.10343935452E+03  0.10969598990E+03  0.17770000000E+01 0.  1.
         15    1    1    2    0    0  0.86282109428E+01 -0.44083371175E+01 -0.18839818764E+02  0.21259726251E+02  0.17770000000E+01 0. -1.
</event>
<event>
 6    1  0.1775046E-008  0.1979671E+03  0.7546771E-02  0.1056769E+00
        -11   -1    0    0    0    0  0.00000000000E+00  0.00000000000E+00  0.18250000000E+03  0.18250000000E+03  0.00000000000E+00 0.  1.
         11   -1    0    0    0    0 -0.00000000000E+00 -0.00000000000E+00 -0.18250000000E+03  0.18250000000E+03  0.00000000000E+00 0.  1.
        -11    1    1    2    0    0 -0.64449881890E+02 -0.10012449814E+02  0.15377235861E+03  0.16703285515E+03  0.00000000000E+00 0.  1.
         11    1    1    2    0    0  0.42140337180E+02 -0.47142341068E+01 -0.11586068765E+03  0.12337637927E+03  0.00000000000E+00 0.  1.
        -15    1    1    2    0    0 -0.13857775928E+02  0.18898328626E+01  0.67896437603E+01  0.15648207990E+02  0.17770000000E+01 0. -1.
         15    1    1    2    0    0  0.36167320638E+02  0.12836851059E+02 -0.44701314726E+02  0.58942557584E+02  0.17770000000E+01 0.  1.
</event>
<event>
 6    1  0.1775046E-008  0.1009771E+03  0.7546771E-02  0.1162136E+00
        -11   -1    0    0    0    0  0.00000000000E+00  0.00000000000E+00  0.18250000000E+03  0.18250000000E+03  0.00000000000E+00 0.  1.
         11   -1    0    0    0    0 -0.00000000000E+00 -0.00000000000E+00 -0.18250000000E+03  0.18250000000E+03  0.00000000000E+00 0. -1.
        -11    1    1    2    0    0  0.41356727874E+02  0.29738562060E+02  0.72624196378E+02  0.88707580924E+02  0.00000000000E+00 0.  1.
         11    1    1    2    0    0 -0.25647795387E+02  0.41232806809E+02 -0.61035564991E+02  0.77995473967E+02  0.00000000000E+00 0. -1.
        -15    1    1    2    0    0  0.51135421449E+01  0.95040743292E+01  0.76434957801E+02  0.77213575524E+02  0.17770000000E+01 0.  1.
         15    1    1    2    0    0 -0.20822474632E+02 -0.80475443198E+02 -0.88023589188E+02  0.12108336959E+03  0.17770000000E+01 0. -1.
</event>
<event>
 6    1  0.1775046E-008  0.9777188E+02  0.7546771E-02  0.1167727E+00
        -11   -1    0    0    0    0  0.00000000000E+00  0.00000000000E+00  0.18250000000E+03  0.18250000000E+03  0.00000000000E+00 0. -1.
         11   -1    0    0    0    0 -0.00000000000E+00 -0.00000000000E+00 -0.18250000000E+03  0.18250000000E+03  0.00000000000E+00 0.  1.
        -11    1    1    2    0    0 -0.93076936017E+02  0.44142457825E+02  0.77823072109E+02  0.12910578280E+03  0.00000000000E+00 0. -1.
         11    1    1    2    0    0  0.45909843507E+02 -0.14538751979E+02 -0.36736753478E+02  0.60569613636E+02  0.00000000000E+00 0.  1.
        -15    1    1    2    0    0 -0.17603773798E+02 -0.37387087884E+02 -0.86457032129E+02  0.95841866248E+02  0.17770000000E+01 0.  1.
         15    1    1    2    0    0  0.64770866308E+02  0.77833820381E+01  0.45370713497E+02  0.79482737311E+02  0.17770000000E+01 0. -1.
</event>
<event>
 6    1  0.1775046E-008  0.1146217E+03  0.7546771E-02  0.1140687E+00
        -11   -1    0    0    0    0  0.00000000000E+00  0.00000000000E+00  0.18250000000E+03  0.18250000000E+03  0.00000000000E+00 0.  1.
         11   -1    0    0    0    0 -0.00000000000E+00 -0.00000000000E+00 -0.18250000000E+03  0.18250000000E+03  0.00000000000E+00 0.  1.
        -11    1    1    2    0    0  0.81007344779E-01 -0.14202416598E+02  0.10387154034E+02  0.17595686072E+02  0.00000000000E+00 0.  1.
         11    1    1    2    0    0 -0.19651540052E+02  0.11688857362E+03 -0.10361817529E+03  0.15743521817E+03  0.00000000000E+00 0.  1.
        -15    1    1    2    0    0  0.44648529786E+02 -0.82819576255E+02  0.29289420338E+01  0.94150463905E+02  0.17770000000E+01 0.  1.
         15    1    1    2    0    0 -0.25077997080E+02 -0.19866580763E+02  0.90302079226E+02  0.95818631854E+02  0.17770000000E+01 0. -1.
</event>
<event>
 6    1  0.1775046E-008  0.1414610E+03  0.7546771E-02  0.1106815E+00
        -11   -1    0    0    0    0  0.00000000000E+00  0.00000000000E+00  0.18250000000E+03  0.18250000000E+03  0.00000000000E+00 0.  1.
         11   -1    0    0    0    0 -0.00000000000E+00 -0.00000000000E+00 -0.18250000000E+03  0.18250000000E+03  0.00000000000E+00 0. -1.
        -11    1    1    2    0    0  0.26316577981E+02  0.11085379458E+02  0.41878436909E+02  0.50687783462E+02  0.00000000000E+00 0.  1.
         11    1    1    2    0    0 -0.11482905986E+03  0.62338700573E+02 -0.74536531178E+02  0.15042446961E+03  0.00000000000E+00 0. -1.
        -15    1    1    2    0    0  0.11237434330E+03 -0.59420567945E+02  0.43137296465E+02  0.13424895159E+03  0.17770000000E+01 0.  1.
         15    1    1    2    0    0 -0.23861861424E+02 -0.14003512087E+02 -0.10479202196E+02  0.29638795337E+02  0.17770000000E+01 0. -1.
</event>
<event>
 6    1  0.1775046E-008  0.1756581E+03  0.7546771E-02  0.1074035E+00
        -11   -1    0    0    0    0  0.00000000000E+00  0.00000000000E+00  0.18250000000E+03  0.18250000000E+03  0.00000000000E+00 0.  1.
         11   -1    0    0    0    0 -0.00000000000E+00 -0.00000000000E+00 -0.18250000000E+03  0.18250000000E+03  0.00000000000E+00 0. -1.
        -11    1    1    2    0    0  0.26528092658E+02 -0.19866020460E+02  0.20159898084E+02  0.38792008968E+02  0.00000000000E+00 0.  1.
         11    1    1    2    0    0 -0.30031308737E+02 -0.72452435304E+02 -0.13178509269E+03  0.15335757413E+03  0.00000000000E+00 0. -1.
        -15    1    1    2    0    0 -0.17669570370E+02  0.92796617914E+02  0.11752548240E+03  0.15079397454E+03  0.17770000000E+01 0.  1.
         15    1    1    2    0    0  0.21172786448E+02 -0.47816214972E+00 -0.59002877959E+01  0.22056442372E+02  0.17770000000E+01 0. -1.
</event>
<event>
 6    1  0.1775046E-008  0.1086519E+03  0.7546771E-02  0.1149639E+00
        -11   -1    0    0    0    0  0.00000000000E+00  0.00000000000E+00  0.18250000000E+03  0.18250000000E+03  0.00000000000E+00 0.  1.
         11   -1    0    0    0    0 -0.00000000000E+00 -0.00000000000E+00 -0.18250000000E+03  0.18250000000E+03  0.00000000000E+00 0. -1.
        -11    1    1    2    0    0 -0.25946930382E+02 -0.25635269563E+02  0.10392150788E+02  0.37926337021E+02  0.00000000000E+00 0.  1.
         11    1    1    2    0    0 -0.65566844978E+02  0.16997839698E+02 -0.54626738480E+02  0.87017344660E+02  0.00000000000E+00 0. -1.
        -15    1    1    2    0    0  0.81041890045E+02 -0.71199111819E+00 -0.80663440655E+02  0.11435927274E+03  0.17770000000E+01 0. -1.
         15    1    1    2    0    0  0.10471885315E+02  0.93494209827E+01  0.12489802835E+03  0.12569704558E+03  0.17770000000E+01 0.  1.
</event>
<event>
 6    1  0.1775046E-008  0.1444972E+03  0.7546771E-02  0.1103510E+00
        -11   -1    0    0    0    0  0.00000000000E+00  0.00000000000E+00  0.18250000000E+03  0.18250000000E+03  0.00000000000E+00 0. -1.
         11   -1    0    0    0    0 -0.00000000000E+00 -0.00000000000E+00 -0.18250000000E+03  0.18250000000E+03  0.00000000000E+00 0.  1.
        -11    1    1    2    0    0  0.24916353639E+02  0.21001287725E+02  0.63133421428E+01  0.33192424644E+02  0.00000000000E+00 0. -1.
         11    1    1    2    0    0 -0.13377825387E+03 -0.14470090839E+02 -0.83198275361E+02  0.15820226851E+03  0.00000000000E+00 0.  1.
        -15    1    1    2    0    0  0.87254797112E+02  0.12343864867E+02  0.10244190133E+03  0.13514167195E+03  0.17770000000E+01 0. -1.
         15    1    1    2    0    0  0.21607103121E+02 -0.18875061753E+02 -0.25556968116E+02  0.38463634900E+02  0.17770000000E+01 0.  1.
</event>
<event>
 6    1  0.1775046E-008  0.1252857E+03  0.7546771E-02  0.1126110E+00
        -11   -1    0    0    0    0  0.00000000000E+00  0.00000000000E+00  0.18250000000E+03  0.18250000000E+03  0.00000000000E+00 0. -1.
         11   -1    0    0    0    0 -0.00000000000E+00 -0.00000000000E+00 -0.18250000000E+03  0.18250000000E+03  0.00000000000E+00 0.  1.
        -11    1    1    2    0    0 -0.21446188131E+02  0.34637968632E+02  0.98747982830E+02  0.10682177666E+03  0.00000000000E+00 0. -1.
         11    1    1    2    0    0 -0.39030384574E+02 -0.32603377838E+02 -0.14684394068E+03  0.15540107490E+03  0.00000000000E+00 0.  1.
        -15    1    1    2    0    0  0.54798421796E+01 -0.25410698791E+02  0.13033945203E-01  0.26055521147E+02  0.17770000000E+01 0. -1.
         15    1    1    2    0    0  0.54996730526E+02  0.23376107998E+02  0.48082923904E+02  0.76721627288E+02  0.17770000000E+01 0.  1.
</event>
<event>
 6    1  0.1775046E-008  0.9495647E+02  0.7546771E-02  0.1172839E+00
        -11   -1    0    0    0    0  0.00000000000E+00  0.00000000000E+00  0.18250000000E+03  0.18250000000E+03  0.00000000000E+00 0. -1.
         11   -1    0    0    0    0 -0.00000000000E+00 -0.00000000000E+00 -0.18250000000E+03  0.18250000000E+03  0.00000000000E+00 0.  1.
        -11    1    1    2    0    0  0.53766474581E+02  0.17774246128E+02  0.65382525260E+02  0.86496428965E+02  0.00000000000E+00 0. -1.
         11    1    1    2    0    0  0.25792681084E+02 -0.37522979791E+02 -0.54988905067E+02  0.71393389683E+02  0.00000000000E+00 0.  1.
        -15    1    1    2    0    0 -0.98525772619E+02  0.24191394502E+02  0.70713618306E+02  0.12367750394E+03  0.17770000000E+01 0. -1.
         15    1    1    2    0    0  0.18966616954E+02 -0.44426608389E+01 -0.81107238500E+02  0.83432677411E+02  0.17770000000E+01 0.  1.
</event>
<event>
 6    1  0.1775046E-008  0.1420155E+03  0.7546771E-02  0.1106205E+00
        -11   -1    0    0    0    0  0.00000000000E+00  0.00000000000E+00  0.18250000000E+03  0.18250000000E+03  0.00000000000E+00 0. -1.
         11   -1    0    0    0    0 -0.00000000000E+00 -0.00000000000E+00 -0.18250000000E+03  0.18250000000E+03  0.00000000000E+00 0.  1.
        -11    1    1    2    0    0  0.32014428048E+02 -0.64872724429E+01  0.14992610297E+03  0.15344329460E+03  0.00000000000E+00 0. -1.
         11    1    1    2    0    0 -0.48249451950E+02 -0.25075332945E+02 -0.12258071727E+03  0.13410001559E+03  0.00000000000E+00 0.  1.
        -15    1    1    2    0    0  0.18908278361E+02  0.19026169762E+02  0.16634105966E+02  0.31612803366E+02  0.17770000000E+01 0.  1.
         15    1    1    2    0    0 -0.26732544588E+01  0.12536435626E+02 -0.43979491666E+02  0.45843886438E+02  0.17770000000E+01 0. -1.
</event>
<event>
 6    1  0.1775046E-008  0.2229752E+03  0.7546771E-02  0.1040142E+00
        -11   -1    0    0    0    0  0.00000000000E+00  0.00000000000E+00  0.18250000000E+03  0.18250000000E+03  0.00000000000E+00 0.  1.
         11   -1    0    0    0    0 -0.00000000000E+00 -0.00000000000E+00 -0.18250000000E+03  0.18250000000E+03  0.00000000000E+00 0. -1.
        -11    1    1    2    0    0 -0.77956511684E+02 -0.16691211647E+02  0.11753821780E+03  0.14202481087E+03  0.00000000000E+00 0.  1.
         11    1    1    2    0    0  0.79233647967E+02 -0.10379623038E+02 -0.77819158658E+02  0.11154160210E+03  0.00000000000E+00 0. -1.
        -15    1    1    2    0    0 -0.10982810587E+02  0.35201116850E+02  0.25567773880E+02  0.44906675963E+02  0.17770000000E+01 0.  1.
         15    1    1    2    0    0  0.97056743030E+01 -0.81302821654E+01 -0.65286833018E+02  0.66526911068E+02  0.17770000000E+01 0. -1.
</event>
<event>
 6    1  0.1775046E-008  0.1089448E+03  0.7546771E-02  0.1149186E+00
        -11   -1    0    0    0    0  0.00000000000E+00  0.00000000000E+00  0.18250000000E+03  0.18250000000E+03  0.00000000000E+00 0.  1.
         11   -1    0    0    0    0 -0.00000000000E+00 -0.00000000000E+00 -0.18250000000E+03  0.18250000000E+03  0.00000000000E+00 0.  1.
        -11    1    1    2    0    0  0.69934938492E+02 -0.43983517110E+01  0.91129708613E+02  0.11495592595E+03  0.00000000000E+00 0.  1.
         11    1    1    2    0    0  0.11911668852E+02  0.25122251167E+02 -0.39926677803E+02  0.48653416724E+02  0.00000000000E+00 0.  1.
        -15    1    1    2    0    0 -0.50090898457E+02  0.59220840201E+02 -0.79240677780E+02  0.11089837134E+03  0.17770000000E+01 0.  1.
         15    1    1    2    0    0 -0.31755708887E+02 -0.79944739656E+02  0.28037646970E+02  0.90492285982E+02  0.17770000000E+01 0. -1.
</event>
<event>
 6    1  0.1775046E-008  0.1329806E+03  0.7546771E-02  0.1116553E+00
        -11   -1    0    0    0    0  0.00000000000E+00  0.00000000000E+00  0.18250000000E+03  0.18250000000E+03  0.00000000000E+00 0.  1.
         11   -1    0    0    0    0 -0.00000000000E+00 -0.00000000000E+00 -0.18250000000E+03  0.18250000000E+03  0.00000000000E+00 0. -1.
        -11    1    1    2    0    0 -0.30628413539E+02 -0.43931234940E+02  0.12157829466E+03  0.13285079922E+03  0.00000000000E+00 0.  1.
         11    1    1    2    0    0  0.39632302037E+02 -0.16954710659E+01 -0.13147306059E+03  0.13732719923E+03  0.00000000000E+00 0. -1.
        -15    1    1    2    0    0  0.24674025052E+01  0.49520030555E+02  0.39090544741E+02  0.63162884026E+02  0.17770000000E+01 0.  1.
         15    1    1    2    0    0 -0.11471291002E+02 -0.38933245492E+01 -0.29195778811E+02  0.31659117529E+02  0.17770000000E+01 0. -1.
</event>
<event>
 6    1  0.1775046E-008  0.1944180E+03  0.7546771E-02  0.1059345E+00
        -11   -1    0    0    0    0  0.00000000000E+00  0.00000000000E+00  0.18250000000E+03  0.18250000000E+03  0.00000000000E+00 0. -1.
         11   -1    0    0    0    0 -0.00000000000E+00 -0.00000000000E+00 -0.18250000000E+03  0.18250000000E+03  0.00000000000E+00 0.  1.
        -11    1    1    2    0    0  0.24310192973E+02  0.31722790890E+02  0.16583394023E+03  0.17058199400E+03  0.00000000000E+00 0. -1.
         11    1    1    2    0    0 -0.89065841377E+00  0.21491870904E+02 -0.41140087169E+02  0.46424137683E+02  0.00000000000E+00 0.  1.
        -15    1    1    2    0    0 -0.34011971038E+02 -0.14713023996E+02 -0.79040880865E+02  0.87314980536E+02  0.17770000000E+01 0.  1.
         15    1    1    2    0    0  0.10592436479E+02 -0.38501637798E+02 -0.45652972194E+02  0.60678887785E+02  0.17770000000E+01 0. -1.
</event>
<event>
 6    1  0.1775046E-008  0.1298848E+03  0.7546771E-02  0.1120310E+00
        -11   -1    0    0    0    0  0.00000000000E+00  0.00000000000E+00  0.18250000000E+03  0.18250000000E+03  0.00000000000E+00 0.  1.
         11   -1    0    0    0    0 -0.00000000000E+00 -0.00000000000E+00 -0.18250000000E+03  0.18250000000E+03  0.00000000000E+00 0.  1.
        -11    1    1    2    0    0  0.35157001547E+02  0.69988642626E+01  0.13145260489E+03  0.13625265572E+03  0.00000000000E+00 0.  1.
         11    1    1    2    0    0 -0.79624095285E+02  0.34119898329E+02 -0.10003253607E+03  0.13232789685E+03  0.00000000000E+00 0.  1.
        -15    1    1    2    0    0  0.16012998696E+02 -0.20116783115E+02  0.20941565743E+02  0.33208553039E+02  0.17770000000E+01 0.  1.
         15    1    1    2    0    0  0.28454095042E+02 -0.21001979477E+02 -0.52361634562E+02  0.63210894390E+02  0.17770000000E+01 0. -1.
</event>
<event>
 6    1  0.1775046E-008  0.1807309E+03  0.7546771E-02  0.1069872E+00
        -11   -1    0    0    0    0  0.00000000000E+00  0.00000000000E+00  0.18250000000E+03  0.18250000000E+03  0.00000000000E+00 0. -1.
         11   -1    0    0    0    0 -0.00000000000E+00 -0.00000000000E+00 -0.18250000000E+03  0.18250000000E+03  0.00000000000E+00 0.  1.
        -11    1    1    2    0    0 -0.52316613112E+02 -0.14402340620E+02  0.14920825035E+03  0.15876888043E+03  0.00000000000E+00 0. -1.
         11    1    1    2    0    0  0.24800070229E+01 -0.23148847075E+02  0.99247349635E+00  0.23302458226E+02  0.00000000000E+00 0.  1.
        -15    1    1    2    0    0  0.53586377375E+02  0.61825835932E+01 -0.37119043401E+02  0.65503475420E+02  0.17770000000E+01 0. -1.
         15    1    1    2    0    0 -0.37497712861E+01  0.31368604102E+02 -0.11308168044E+03  0.11742518592E+03  0.17770000000E+01 0.  1.
</event>
<event>
 6    1  0.1775046E-008  0.1093759E+03  0.7546771E-02  0.1148520E+00
        -11   -1    0    0    0    0  0.00000000000E+00  0.00000000000E+00  0.18250000000E+03  0.18250000000E+03  0.00000000000E+00 0.  1.
         11   -1    0    0    0    0 -0.00000000000E+00 -0.00000000000E+00 -0.18250000000E+03  0.18250000000E+03  0.00000000000E+00 0.  1.
        -11    1    1    2    0    0 -0.43813832090E+02 -0.32516493614E+02  0.57789362951E+02  0.79476944516E+02  0.00000000000E+00 0.  1.
         11    1    1    2    0    0  0.47893095073E+02  0.52303634570E+02 -0.11741504430E+03  0.13717037353E+03  0.00000000000E+00 0.  1.
        -15    1    1    2    0    0  0.34328029695E+02 -0.30842375757E+02  0.87947782956E+02  0.99335975462E+02  0.17770000000E+01 0.  1.
         15    1    1    2    0    0 -0.38407292678E+02  0.11055234801E+02 -0.28322101604E+02  0.49016706495E+02  0.17770000000E+01 0. -1.
</event>
<event>
 6    1  0.1775046E-008  0.1820319E+03  0.7546771E-02  0.1068828E+00
        -11   -1    0    0    0    0  0.00000000000E+00  0.00000000000E+00  0.18250000000E+03  0.18250000000E+03  0.00000000000E+00 0.  1.
         11   -1    0    0    0    0 -0.00000000000E+00 -0.00000000000E+00 -0.18250000000E+03  0.18250000000E+03  0.00000000000E+00 0.  1.
        -11    1    1    2    0    0 -0.28980638744E+02 -0.78022833618E+02  0.15706630890E+03  0.17775619646E+03  0.00000000000E+00 0.  1.
         11    1    1    2    0    0  0.27077208422E+01  0.67514612197E+01 -0.57496490082E+01  0.92721326823E+01  0.00000000000E+00 0.  1.
        -15    1    1    2    0    0  0.13689690862E+02  0.11032952923E+02 -0.37326307854E+01  0.18061670678E+02  0.17770000000E+01 0. -1.
         15    1    1    2    0    0  0.12583227040E+02  0.60238419475E+02 -0.14758402910E+03  0.15991000018E+03  0.17770000000E+01 0.  1.
</event>
<event>
 6    1  0.1775046E-008  0.1918668E+03  0.7546771E-02  0.1061234E+00
        -11   -1    0    0    0    0  0.00000000000E+00  0.00000000000E+00  0.18250000000E+03  0.18250000000E+03  0.00000000000E+00 0. -1.
         11   -1    0    0    0    0 -0.00000000000E+00 -0.00000000000E+00 -0.18250000000E+03  0.18250000000E+03  0.00000000000E+00 0. -1.
        -11    1    1    2    0    0  0.49996602465E+02 -0.39806979897E+01  0.16570935647E+03  0.17313317717E+03  0.00000000000E+00 0. -1.
         11    1    1    2    0    0 -0.42964921947E+02  0.44774643715E+01 -0.76638669242E+02  0.87974529430E+02  0.00000000000E+00 0. -1.
        -15    1    1    2    0    0  0.12295877103E+01  0.14284111948E+02 -0.85220727601E+02  0.86436554085E+02  0.17770000000E+01 0. -1.
         15    1    1    2    0    0 -0.82612682280E+01 -0.14780878330E+02 -0.38499596281E+01  0.17455739316E+02  0.17770000000E+01 0.  1.
</event>
<event>
 6    1  0.1775046E-008  0.1896780E+03  0.7546771E-02  0.1062880E+00
        -11   -1    0    0    0    0  0.00000000000E+00  0.00000000000E+00  0.18250000000E+03  0.18250000000E+03  0.00000000000E+00 0. -1.
         11   -1    0    0    0    0 -0.00000000000E+00 -0.00000000000E+00 -0.18250000000E+03  0.18250000000E+03  0.00000000000E+00 0. -1.
        -11    1    1    2    0    0 -0.26051200197E+02 -0.14564135727E+02  0.17276290297E+03  0.17532198870E+03  0.00000000000E+00 0. -1.
         11    1    1    2    0    0  0.64305124981E+01 -0.99238862601E+01 -0.58793570699E+02  0.59970984359E+02  0.00000000000E+00 0. -1.
        -15    1    1    2    0    0  0.15494457952E+02 -0.23196758074E+01 -0.37796305587E+01  0.16214267151E+02  0.17770000000E+01 0.  1.
         15    1    1    2    0    0  0.41262297469E+01  0.26807697794E+02 -0.11018970171E+03  0.11349275979E+03  0.17770000000E+01 0. -1.
</event>
<event>
 6    1  0.1775046E-008  0.1217433E+03  0.7546771E-02  0.1130768E+00
        -11   -1    0    0    0    0  0.00000000000E+00  0.00000000000E+00  0.18250000000E+03  0.18250000000E+03  0.00000000000E+00 0. -1.
         11   -1    0    0    0    0 -0.00000000000E+00 -0.00000000000E+00 -0.18250000000E+03  0.18250000000E+03  0.00000000000E+00 0.  1.
        -11    1    1    2    0    0  0.19423645259E+02 -0.38053360120E+01  0.12925382393E+02  0.23639460385E+02  0.00000000000E+00 0. -1.
         11    1    1    2    0    0  0.64570503246E+02 -0.26153029818E+02 -0.40520269770E+02  0.80592947088E+02  0.00000000000E+00 0.  1.
        -15    1    1    2    0    0 -0.16264726008E+03  0.10010013555E+01 -0.20774399008E+02  0.16398129953E+03  0.17770000000E+01 0. -1.
         15    1    1    2    0    0  0.78653111570E+02  0.28957364475E+02  0.48369286384E+02  0.96786292993E+02  0.17770000000E+01 0.  1.
</event>
<event>
 6    1  0.1775046E-008  0.1420993E+03  0.7546771E-02  0.1106113E+00
        -11   -1    0    0    0    0  0.00000000000E+00  0.00000000000E+00  0.18250000000E+03  0.18250000000E+03  0.00000000000E+00 0.  1.
         11   -1    0    0    0    0 -0.00000000000E+00 -0.00000000000E+00 -0.18250000000E+03  0.18250000000E+03  0.00000000000E+00 0.  1.
        -11    1    1    2    0    0  0.57373327088E+02 -0.21069384655E+02  0.11912669687E+03  0.13389095391E+03  0.00000000000E+00 0.  1.
         11    1    1    2    0    0 -0.37358094262E+02 -0.23684882692E+02 -0.99510761028E+02  0.10889900108E+03  0.00000000000E+00 0.  1.
        -15    1    1    2    0    0  0.36783564907E+02 -0.67482558993E+01  0.11913085841E+02  0.39289298138E+02  0.17770000000E+01 0. -1.
         15    1    1    2    0    0 -0.56798797733E+02  0.51502523247E+02 -0.31529021688E+02  0.82920746875E+02  0.17770000000E+01 0.  1.
</event>
<event>
 6    1  0.2011206E-008  0.8756360E+02  0.7546771E-02  0.1187263E+00
        -11   -1    0    0    0    0  0.00000000000E+00  0.00000000000E+00  0.18250000000E+03  0.18250000000E+03  0.00000000000E+00 0. -1.
         11   -1    0    0    0    0 -0.00000000000E+00 -0.00000000000E+00 -0.18250000000E+03  0.18250000000E+03  0.00000000000E+00 0. -1.
        -11    1    1    2    0    0 -0.26268972780E+02  0.53761510324E+02  0.71019646896E+02  0.92866297269E+02  0.00000000000E+00 0. -1.
         11    1    1    2    0    0  0.31995990839E+02 -0.68640871091E+02 -0.94302226324E+02  0.12094718890E+03  0.00000000000E+00 0. -1.
        -15    1    1    2    0    0  0.70555504754E+01  0.80632780749E+02  0.23848764478E+01  0.80995502890E+02  0.17770000000E+01 0.  1.
         15    1    1    2    0    0 -0.12782568534E+02 -0.65753419981E+02  0.20897702980E+02  0.70191010937E+02  0.17770000000E+01 0. -1.
</event>
<event>
 6    1  0.1775046E-008  0.1527851E+03  0.7546771E-02  0.1094925E+00
        -11   -1    0    0    0    0  0.00000000000E+00  0.00000000000E+00  0.18250000000E+03  0.18250000000E+03  0.00000000000E+00 0. -1.
         11   -1    0    0    0    0 -0.00000000000E+00 -0.00000000000E+00 -0.18250000000E+03  0.18250000000E+03  0.00000000000E+00 0.  1.
        -11    1    1    2    0    0 -0.13444023568E+01  0.39564536615E+02  0.78624493658E+02  0.88028239663E+02  0.00000000000E+00 0. -1.
         11    1    1    2    0    0  0.65752042580E+02 -0.27481043623E+01 -0.12343528629E+03  0.13988264039E+03  0.00000000000E+00 0.  1.
        -15    1    1    2    0    0 -0.31157412099E+02  0.34540628794E+02  0.12801266166E+00  0.46551192063E+02  0.17770000000E+01 0. -1.
         15    1    1    2    0    0 -0.33250228124E+02 -0.71357061046E+02  0.44682779968E+02  0.90537927887E+02  0.17770000000E+01 0.  1.
</event>
<event>
 6    1  0.1775046E-008  0.1078156E+03  0.7546771E-02  0.1150945E+00
        -11   -1    0    0    0    0  0.00000000000E+00  0.00000000000E+00  0.18250000000E+03  0.18250000000E+03  0.00000000000E+00 0.  1.
         11   -1    0    0    0    0 -0.00000000000E+00 -0.00000000000E+00 -0.18250000000E+03  0.18250000000E+03  0.00000000000E+00 0. -1.
        -11    1    1    2    0    0  0.12446329195E+02 -0.62508827396E+02  0.12636121853E+02  0.64976427944E+02  0.00000000000E+00 0.  1.
         11    1    1    2    0    0  0.58811575162E+02  0.57372950216E+02 -0.89919730650E+02  0.12180318038E+03  0.00000000000E+00 0. -1.
        -15    1    1    2    0    0  0.27550563722E+01  0.64444059134E+02  0.42092334008E+02  0.77042516862E+02  0.17770000000E+01 0.  1.
         15    1    1    2    0    0 -0.74012960729E+02 -0.59308181953E+02  0.35191274788E+02  0.10117787482E+03  0.17770000000E+01 0. -1.
</event>
<event>
 6    1  0.1775046E-008  0.2118210E+03  0.7546771E-02  0.1047249E+00
        -11   -1    0    0    0    0  0.00000000000E+00  0.00000000000E+00  0.18250000000E+03  0.18250000000E+03  0.00000000000E+00 0.  1.
         11   -1    0    0    0    0 -0.00000000000E+00 -0.00000000000E+00 -0.18250000000E+03  0.18250000000E+03  0.00000000000E+00 0.  1.
        -11    1    1    2    0    0  0.60592179991E+02  0.16313353786E+02  0.67290460779E+02  0.92008390376E+02  0.00000000000E+00 0.  1.
         11    1    1    2    0    0 -0.49386644651E+02 -0.34987717153E+02 -0.14071466560E+03  0.15317897420E+03  0.00000000000E+00 0.  1.
        -15    1    1    2    0    0 -0.33036025684E+02  0.42730115508E+02  0.67954466496E+02  0.86822859951E+02  0.17770000000E+01 0.  1.
         15    1    1    2    0    0  0.21830490345E+02 -0.24055752140E+02  0.54697383218E+01  0.32989775477E+02  0.17770000000E+01 0. -1.
</event>
<event>
 6    1  0.1775046E-008  0.1165127E+03  0.7546771E-02  0.1137977E+00
        -11   -1    0    0    0    0  0.00000000000E+00  0.00000000000E+00  0.18250000000E+03  0.18250000000E+03  0.00000000000E+00 0.  1.
         11   -1    0    0    0    0 -0.00000000000E+00 -0.00000000000E+00 -0.18250000000E+03  0.18250000000E+03  0.00000000000E+00 0.  1.
        -11    1    1    2    0    0 -0.57459951991E+02 -0.90667859262E+01  0.51665242534E+02  0.77801992107E+02  0.00000000000E+00 0.  1.
         11    1    1    2    0    0 -0.35107643697E+02 -0.27311831487E+02 -0.98730959870E+02  0.10828797358E+03  0.00000000000E+00 0.  1.
        -15    1    1    2    0    0  0.76910626677E+02  0.45294176537E+02  0.93376268848E+02  0.12918626954E+03  0.17770000000E+01 0.  1.
         15    1    1    2    0    0  0.15656969010E+02 -0.89155591239E+01 -0.46310551512E+02  0.49723764776E+02  0.17770000000E+01 0. -1.
</event>
<event>
 6    1  0.1775046E-008  0.1237104E+03  0.7546771E-02  0.1128160E+00
        -11   -1    0    0    0    0  0.00000000000E+00  0.00000000000E+00  0.18250000000E+03  0.18250000000E+03  0.00000000000E+00 0.  1.
         11   -1    0    0    0    0 -0.00000000000E+00 -0.00000000000E+00 -0.18250000000E+03  0.18250000000E+03  0.00000000000E+00 0. -1.
        -11    1    1    2    0    0  0.47849823536E+02 -0.49644729008E+00 -0.26065081469E+02  0.54490738152E+02  0.00000000000E+00 0.  1.
         11    1    1    2    0    0 -0.56615976075E+02 -0.19293402640E+02 -0.58627121755E+01  0.60099713197E+02  0.00000000000E+00 0. -1.
        -15    1    1    2    0    0 -0.27883231322E+02  0.84060732751E+01  0.13619744390E+03  0.13928760932E+03  0.17770000000E+01 0.  1.
         15    1    1    2    0    0  0.36649383860E+02  0.11383776655E+02 -0.10426965025E+03  0.11112193933E+03  0.17770000000E+01 0. -1.
</event>
<event>
 6    1  0.1775046E-008  0.1199810E+03  0.7546771E-02  0.1133151E+00
        -11   -1    0    0    0    0  0.00000000000E+00  0.00000000000E+00  0.18250000000E+03  0.18250000000E+03  0.00000000000E+00 0. -1.
         11   -1    0    0    0    0 -0.00000000000E+00 -0.00000000000E+00 -0.18250000000E+03  0.18250000000E+03  0.00000000000E+00 0. -1.
        -11    1    1    2    0    0  0.12323179749E+02  0.22606489230E+02 -0.12715840358E+01  0.25778499576E+02  0.00000000000E+00 0. -1.
         11    1    1    2    0    0  0.96299186810E+02 -0.42340396078E+01 -0.49390005359E+02  0.10830897055E+03  0.00000000000E+00 0. -1.
        -15    1    1    2    0    0  0.12957023791E+02 -0.85402175534E+02  0.21669076810E+02  0.89073692358E+02  0.17770000000E+01 0.  1.
         15    1    1    2    0    0 -0.12157939035E+03  0.67029725912E+02  0.28992512584E+02  0.14183883752E+03  0.17770000000E+01 0. -1.
</event>
<event>
 6    1  0.1968924E-008  0.2630344E+03  0.7546771E-02  0.1017916E+00
        -11   -1    0    0    0    0  0.00000000000E+00  0.00000000000E+00  0.18250000000E+03  0.18250000000E+03  0.00000000000E+00 0. -1.
         11   -1    0    0    0    0 -0.00000000000E+00 -0.00000000000E+00 -0.18250000000E+03  0.18250000000E+03  0.00000000000E+00 0.  1.
        -11    1    1    2    0    0 -0.41534479031E+02  0.22857761501E+02 -0.24065771762E+01  0.47469799061E+02  0.00000000000E+00 0.  1.
         11    1    1    2    0    0  0.73934458943E+01 -0.11445321723E+02  0.50732752482E+02  0.52530663483E+02  0.00000000000E+00 0. -1.
        -15    1    1    2    0    0  0.94848445417E+02 -0.86691648556E+00  0.79053102058E+02  0.12348898662E+03  0.17770000000E+01 0. -1.
         15    1    1    2    0    0 -0.60707412281E+02 -0.10545523292E+02 -0.12737927736E+03  0.14151055084E+03  0.17770000000E+01 0.  1.
</event>
<event>
 6    1  0.1775046E-008  0.1807555E+03  0.7546771E-02  0.1069852E+00
        -11   -1    0    0    0    0  0.00000000000E+00  0.00000000000E+00  0.18250000000E+03  0.18250000000E+03  0.00000000000E+00 0.  1.
         11   -1    0    0    0    0 -0.00000000000E+00 -0.00000000000E+00 -0.18250000000E+03  0.18250000000E+03  0.00000000000E+00 0.  1.
        -11    1    1    2    0    0 -0.14550579818E+02 -0.52298222449E+01 -0.11356637876E+01  0.15503552690E+02  0.00000000000E+00 0.  1.
         11    1    1    2    0    0 -0.47059536732E+02 -0.53115812358E+02 -0.14895243676E+03  0.16499308451E+03  0.00000000000E+00 0.  1.
        -15    1    1    2    0    0  0.82595022472E+01  0.24451163870E+02  0.10154065437E+03  0.10478425937E+03  0.17770000000E+01 0.  1.
         15    1    1    2    0    0  0.53350614303E+02  0.33894470733E+02  0.48547446173E+02  0.79719103430E+02  0.17770000000E+01 0. -1.
</event>
<event>
 6    1  0.1775046E-008  0.1403520E+03  0.7546771E-02  0.1108045E+00
        -11   -1    0    0    0    0  0.00000000000E+00  0.00000000000E+00  0.18250000000E+03  0.18250000000E+03  0.00000000000E+00 0.  1.
         11   -1    0    0    0    0 -0.00000000000E+00 -0.00000000000E+00 -0.18250000000E+03  0.18250000000E+03  0.00000000000E+00 0. -1.
        -11    1    1    2    0    0 -0.20736675867E+02 -0.30097188936E+02 -0.62394561062E+01  0.37078043642E+02  0.00000000000E+00 0.  1.
         11    1    1    2    0    0  0.77899615406E+02  0.81715819608E+02 -0.91151645139E+02  0.14510150815E+03  0.00000000000E+00 0. -1.
        -15    1    1    2    0    0 -0.28301233808E+02 -0.75534049951E+02  0.11571127664E+03  0.14106243231E+03  0.17770000000E+01 0.  1.
         15    1    1    2    0    0 -0.28861705731E+02  0.23915419278E+02 -0.18320175396E+02  0.41758015907E+02  0.17770000000E+01 0. -1.
</event>
<event>
 6    1  0.1775046E-008  0.1557366E+03  0.7546771E-02  0.1092011E+00
        -11   -1    0    0    0    0  0.00000000000E+00  0.00000000000E+00  0.18250000000E+03  0.18250000000E+03  0.00000000000E+00 0. -1.
         11   -1    0    0    0    0 -0.00000000000E+00 -0.00000000000E+00 -0.18250000000E+03  0.18250000000E+03  0.00000000000E+00 0.  1.
        -11    1    1    2    0    0  0.39653283270E+02  0.16493047076E+02  0.14418840448E+03  0.15044832822E+03  0.00000000000E+00 0. -1.
         11    1    1    2    0    0  0.44699290656E+02 -0.29881402580E+01 -0.47808765599E+02  0.65518193163E+02  0.00000000000E+00 0.  1.
        -15    1    1    2    0    0 -0.81244041627E+02  0.38005310564E+01 -0.10201855668E+03  0.13048364638E+03  0.17770000000E+01 0.  1.
         15    1    1    2    0    0 -0.31085322987E+01 -0.17305437875E+02  0.56389178011E+01  0.18549832238E+02  0.17770000000E+01 0. -1.
</event>
<event>
 6    1  0.1775046E-008  0.1971341E+03  0.7546771E-02  0.1057368E+00
        -11   -1    0    0    0    0  0.00000000000E+00  0.00000000000E+00  0.18250000000E+03  0.18250000000E+03  0.00000000000E+00 0.  1.
         11   -1    0    0    0    0 -0.00000000000E+00 -0.00000000000E+00 -0.18250000000E+03  0.18250000000E+03  0.00000000000E+00 0. -1.
        -11    1    1    2    0    0 -0.85466253483E+01 -0.24519441146E+02  0.16584544231E+03  0.16786589449E+03  0.00000000000E+00 0.  1.
         11    1    1    2    0    0 -0.25620473935E+02 -0.10572031258E+01 -0.48227126300E+02  0.54620344875E+02  0.00000000000E+00 0. -1.
        -15    1    1    2    0    0  0.12676068777E+02  0.26001105152E+02 -0.70027702038E+01  0.29815041645E+02  0.17770000000E+01 0.  1.
         15    1    1    2    0    0  0.21491030506E+02 -0.42446087998E+00 -0.11061554580E+03  0.11269871899E+03  0.17770000000E+01 0. -1.
</event>
<event>
 6    1  0.1775046E-008  0.1194031E+03  0.7546771E-02  0.1133943E+00
        -11   -1    0    0    0    0  0.00000000000E+00  0.00000000000E+00  0.18250000000E+03  0.18250000000E+03  0.00000000000E+00 0. -1.
         11   -1    0    0    0    0 -0.00000000000E+00 -0.00000000000E+00 -0.18250000000E+03  0.18250000000E+03  0.00000000000E+00 0.  1.
        -11    1    1    2    0    0 -0.14073866763E+02 -0.64500744117E+02  0.12007657893E+03  0.13702848071E+03  0.00000000000E+00 0. -1.
         11    1    1    2    0    0 -0.35562867839E+02  0.41268265562E+01 -0.67531988473E+01  0.36432869240E+02  0.00000000000E+00 0.  1.
        -15    1    1    2    0    0  0.82517900704E+02  0.71410222571E+02 -0.51619455455E+02  0.12073255458E+03  0.17770000000E+01 0. -1.
         15    1    1    2    0    0 -0.32881166101E+02 -0.11036305010E+02 -0.61703924630E+02  0.70806095474E+02  0.17770000000E+01 0.  1.
</event>
<event>
 6    1  0.1775046E-008  0.1006701E+03  0.7546771E-02  0.1162661E+00
        -11   -1    0    0    0    0  0.00000000000E+00  0.00000000000E+00  0.18250000000E+03  0.18250000000E+03  0.00000000000E+00 0. -1.
         11   -1    0    0    0    0 -0.00000000000E+00 -0.00000000000E+00 -0.18250000000E+03  0.18250000000E+03  0.00000000000E+00 0.  1.
        -11    1    1    2    0    0  0.54317539880E+02 -0.10114660308E+02  0.50929014227E+02  0.75142970276E+02  0.00000000000E+00 0. -1.
         11    1    1    2    0    0 -0.41095873195E+02 -0.60695859207E+02 -0.11842893846E+03  0.13927767798E+03  0.00000000000E+00 0.  1.
        -15    1    1    2    0    0 -0.60709970362E+02  0.42859359268E+02  0.58767760665E+02  0.94759868092E+02  0.17770000000E+01 0. -1.
         15    1    1    2    0    0  0.47488303677E+02  0.27951160247E+02  0.87321635721E+01  0.55819483649E+02  0.17770000000E+01 0.  1.
</event>
<event>
 6    1  0.1775046E-008  0.8963991E+02  0.7546771E-02  0.1183055E+00
        -11   -1    0    0    0    0  0.00000000000E+00  0.00000000000E+00  0.18250000000E+03  0.18250000000E+03  0.00000000000E+00 0.  1.
         11   -1    0    0    0    0 -0.00000000000E+00 -0.00000000000E+00 -0.18250000000E+03  0.18250000000E+03  0.00000000000E+00 0.  1.
        -11    1    1    2    0    0 -0.52527543718E+02 -0.92812931174E+01  0.12094885358E+03  0.13218891948E+03  0.00000000000E+00 0.  1.
         11    1    1    2    0    0  0.40104939441E+01  0.25625217926E+02 -0.94114649119E+02  0.97623270967E+02  0.00000000000E+00 0.  1.
        -15    1    1    2    0    0 -0.83095184244E+01 -0.44264619680E+01 -0.64986708254E+02  0.65689204902E+02  0.17770000000E+01 0. -1.
         15    1    1    2    0    0  0.56826568199E+02 -0.11917462840E+02  0.38152503792E+02  0.69498604651E+02  0.17770000000E+01 0.  1.
</event>
<event>
 6    1  0.1775046E-008  0.1257092E+03  0.7546771E-02  0.1125564E+00
        -11   -1    0    0    0    0  0.00000000000E+00  0.00000000000E+00  0.18250000000E+03  0.18250000000E+03  0.00000000000E+00 0. -1.
         11   -1    0    0    0    0 -0.00000000000E+00 -0.00000000000E+00 -0.18250000000E+03  0.18250000000E+03  0.00000000000E+00 0.  1.
        -11    1    1    2    0    0 -0.39095035970E+02  0.51555596940E+02  0.11397822312E+03  0.13106272070E+03  0.00000000000E+00 0. -1.
         11    1    1    2    0    0  0.10236260640E+02 -0.74771615538E+02 -0.97859081517E+02  0.12357983394E+03  0.00000000000E+00 0.  1.
        -15    1    1    2    0    0 -0.16006943568E+02 -0.14522761526E+02 -0.41205517455E+02  0.46563776076E+02  0.17770000000E+01 0. -1.
         15    1    1    2    0    0  0.44865718898E+02  0.37738780124E+02  0.25086375856E+02  0.63793669279E+02  0.17770000000E+01 0.  1.
</event>
<event>
 6    1  0.1775046E-008  0.8238195E+02  0.7546771E-02  0.1198359E+00
        -11   -1    0    0    0    0  0.00000000000E+00  0.00000000000E+00  0.18250000000E+03  0.18250000000E+03  0.00000000000E+00 0. -1.
         11   -1    0    0    0    0 -0.00000000000E+00 -0.00000000000E+00 -0.18250000000E+03  0.18250000000E+03  0.00000000000E+00 0.  1.
        -11    1    1    2    0    0  0.30021305530E+01  0.63771511022E+02  0.53377489310E+02  0.83216433298E+02  0.00000000000E+00 0. -1.
         11    1    1    2    0    0 -0.21200080289E+01  0.23805155804E+02 -0.10601263193E+03  0.10867317059E+03  0.00000000000E+00 0.  1.
        -15    1    1    2    0    0  0.21858537622E+01  0.18356627122E+02  0.63878233007E+02  0.66523154593E+02  0.17770000000E+01 0. -1.
         15    1    1    2    0    0 -0.30679762863E+01 -0.10593329395E+03 -0.11243090389E+02  0.10658724152E+03  0.17770000000E+01 0.  1.
</event>
<event>
 6    1  0.1775046E-008  0.1356404E+03  0.7546771E-02  0.1113415E+00
        -11   -1    0    0    0    0  0.00000000000E+00  0.00000000000E+00  0.18250000000E+03  0.18250000000E+03  0.00000000000E+00 0. -1.
         11   -1    0    0    0    0 -0.00000000000E+00 -0.00000000000E+00 -0.18250000000E+03  0.18250000000E+03  0.00000000000E+00 0. -1.
        -11    1    1    2    0    0  0.40636889745E+01  0.39344364425E+01  0.15500379398E+02  0.16500155141E+02  0.00000000000E+00 0. -1.
         11    1    1    2    0    0  0.12134787191E+03  0.29456422002E+02 -0.96043904686E+02  0.15753545138E+03  0.00000000000E+00 0. -1.
        -15    1    1    2    0    0 -0.41890525055E+01 -0.49728891727E+01  0.65146697969E+02  0.65494486584E+02  0.17770000000E+01 0.  1.
         15    1    1    2    0    0 -0.12122250838E+03 -0.28417969271E+02  0.15396827318E+02  0.12546990689E+03  0.17770000000E+01 0. -1.
</event>
<event>
 6    1  0.1775046E-008  0.1490716E+03  0.7546771E-02  0.1098696E+00
        -11   -1    0    0    0    0  0.00000000000E+00  0.00000000000E+00  0.18250000000E+03  0.18250000000E+03  0.00000000000E+00 0. -1.
         11   -1    0    0    0    0 -0.00000000000E+00 -0.00000000000E+00 -0.18250000000E+03  0.18250000000E+03  0.00000000000E+00 0. -1.
        -11    1    1    2    0    0 -0.13366049478E+02  0.13510795616E+02  0.73502279173E+01  0.20376916530E+02  0.00000000000E+00 0. -1.
         11    1    1    2    0    0  0.29966010014E+02 -0.38257984884E+02 -0.14841313522E+03  0.15616687827E+03  0.00000000000E+00 0. -1.
        -15    1    1    2    0    0  0.61613522245E+01  0.40836061150E+02 -0.32512684844E+01  0.41464136640E+02  0.17770000000E+01 0.  1.
         15    1    1    2    0    0 -0.22761312760E+02 -0.16088871883E+02  0.14431417579E+03  0.14699206856E+03  0.17770000000E+01 0. -1.
</event>
<event>
 6    1  0.1775046E-008  0.1357804E+03  0.7546771E-02  0.1113252E+00
        -11   -1    0    0    0    0  0.00000000000E+00  0.00000000000E+00  0.18250000000E+03  0.18250000000E+03  0.00000000000E+00 0.  1.
         11   -1    0    0    0    0 -0.00000000000E+00 -0.00000000000E+00 -0.18250000000E+03  0.18250000000E+03  0.00000000000E+00 0.  1.
        -11    1    1    2    0    0  0.26062737320E+02 -0.16874529899E+02  0.35869713248E+02  0.47441040929E+02  0.00000000000E+00 0.  1.
         11    1    1    2    0    0 -0.25787898034E+02 -0.70885800058E+01 -0.14604929693E+03  0.14847781244E+03  0.00000000000E+00 0.  1.
        -15    1    1    2    0    0 -0.34924300926E+02  0.16897590286E+02  0.12485280562E+03  0.13075402921E+03  0.17770000000E+01 0.  1.
         15    1    1    2    0    0  0.34649461640E+02  0.70655196185E+01 -0.14673221939E+02  0.38327117430E+02  0.17770000000E+01 0. -1.
</event>
<event>
 6    1  0.1775046E-008  0.1394226E+03  0.7546771E-02  0.1109086E+00
        -11   -1    0    0    0    0  0.00000000000E+00  0.00000000000E+00  0.18250000000E+03  0.18250000000E+03  0.00000000000E+00 0.  1.
         11   -1    0    0    0    0 -0.00000000000E+00 -0.00000000000E+00 -0.18250000000E+03  0.18250000000E+03  0.00000000000E+00 0.  1.
        -11    1    1    2    0    0  0.22692755844E+02  0.35353078175E+02  0.13532353382E+03  0.14169424869E+03  0.00000000000E+00 0.  1.
         11    1    1    2    0    0  0.22937826324E+02 -0.36370878076E+02 -0.13414057484E+03  0.14086404249E+03  0.00000000000E+00 0.  1.
        -15    1    1    2    0    0  0.67468648761E+01 -0.23070021027E+02 -0.50817991780E+01  0.24631858796E+02  0.17770000000E+01 0. -1.
         15    1    1    2    0    0 -0.52377447043E+02  0.24087820928E+02  0.38988401973E+01  0.57809850024E+02  0.17770000000E+01 0.  1.
</event>
<event>
 6    1  0.1775046E-008  0.1446050E+03  0.7546771E-02  0.1103394E+00
        -11   -1    0    0    0    0  0.00000000000E+00  0.00000000000E+00  0.18250000000E+03  0.18250000000E+03  0.00000000000E+00 0. -1.
         11   -1    0    0    0    0 -0.00000000000E+00 -0.00000000000E+00 -0.18250000000E+03  0.18250000000E+03  0.00000000000E+00 0.  1.
        -11    1    1    2    0    0 -0.40460219075E+02  0.30453609415E+02  0.13105776326E+03  0.14050120627E+03  0.00000000000E+00 0. -1.
         11    1    1    2    0    0 -0.12396165088E+02  0.39548487890E+01 -0.98767080406E+01  0.16335700155E+02  0.00000000000E+00 0.  1.
        -15    1    1    2    0    0  0.50112949177E+02  0.21464388515E+01  0.25965215450E+02  0.56508981740E+02  0.17770000000E+01 0. -1.
         15    1    1    2    0    0  0.27434349856E+01 -0.36554897056E+02 -0.14714627067E+03  0.15165411183E+03  0.17770000000E+01 0.  1.
</event>
<event>
 6    1  0.1775046E-008  0.2064727E+03  0.7546771E-02  0.1050828E+00
        -11   -1    0    0    0    0  0.00000000000E+00  0.00000000000E+00  0.18250000000E+03  0.18250000000E+03  0.00000000000E+00 0.  1.
         11   -1    0    0    0    0 -0.00000000000E+00 -0.00000000000E+00 -0.18250000000E+03  0.18250000000E+03  0.00000000000E+00 0. -1.
        -11    1    1    2    0    0 -0.13866838808E+02  0.21596151851E+02  0.15643596167E+03  0.15852726294E+03  0.00000000000E+00 0.  1.
         11    1    1    2    0    0  0.37785176000E+02 -0.29929951450E+02 -0.45868362927E+02  0.66538922720E+02  0.00000000000E+00 0. -1.
        -15    1    1    2    0    0  0.26760989567E+01  0.34101243477E+02 -0.92609336079E+02  0.98740585224E+02  0.17770000000E+01 0. -1.
         15    1    1    2    0    0 -0.26594436149E+02 -0.25767443879E+02 -0.17958262660E+02  0.41193229115E+02  0.17770000000E+01 0.  1.
</event>
<event>
 6    1  0.1775046E-008  0.1557497E+03  0.7546771E-02  0.1091998E+00
        -11   -1    0    0    0    0  0.00000000000E+00  0.00000000000E+00  0.18250000000E+03  0.18250000000E+03  0.00000000000E+00 0. -1.
         11   -1    0    0    0    0 -0.00000000000E+00 -0.00000000000E+00 -0.18250000000E+03  0.18250000000E+03  0.00000000000E+00 0.  1.
        -11    1    1    2    0    0  0.10608425412E+02  0.57148983361E+01  0.32780324158E+01  0.12487763981E+02  0.00000000000E+00 0. -1.
         11    1    1    2    0    0  0.50427767428E+02  0.21810066600E+02 -0.13793882788E+03  0.14847814308E+03  0.00000000000E+00 0.  1.
        -15    1    1    2    0    0 -0.85960042706E+02  0.45477317598E+00  0.14181669700E+03  0.16584471363E+03  0.17770000000E+01 0. -1.
         15    1    1    2    0    0  0.24923849865E+02 -0.27979738112E+02 -0.71559015318E+01  0.38189379317E+02  0.17770000000E+01 0.  1.
</event>
<event>
 6    1  0.1775046E-008  0.1327057E+03  0.7546771E-02  0.1116882E+00
        -11   -1    0    0    0    0  0.00000000000E+00  0.00000000000E+00  0.18250000000E+03  0.18250000000E+03  0.00000000000E+00 0.  1.
         11   -1    0    0    0    0 -0.00000000000E+00 -0.00000000000E+00 -0.18250000000E+03  0.18250000000E+03  0.00000000000E+00 0.  1.
        -11    1    1    2    0    0  0.32813107561E+02  0.31272766284E+02  0.34298712002E+02  0.56842656376E+02  0.00000000000E+00 0.  1.
         11    1    1    2    0    0 -0.31392171600E+02 -0.20166550168E+02 -0.14754884059E+03  0.15219335906E+03  0.00000000000E+00 0.  1.
        -15    1    1    2    0    0 -0.25824234687E+02  0.13443068320E+02  0.11747967838E+03  0.12104643632E+03  0.17770000000E+01 0.  1.
         15    1    1    2    0    0  0.24403298726E+02 -0.24549284436E+02 -0.42295497945E+01  0.34917548246E+02  0.17770000000E+01 0. -1.
</event>
<event>
 6    1  0.1775046E-008  0.1228525E+03  0.7546771E-02  0.1129291E+00
        -11   -1    0    0    0    0  0.00000000000E+00  0.00000000000E+00  0.18250000000E+03  0.18250000000E+03  0.00000000000E+00 0.  1.
         11   -1    0    0    0    0 -0.00000000000E+00 -0.00000000000E+00 -0.18250000000E+03  0.18250000000E+03  0.00000000000E+00 0.  1.
        -11    1    1    2    0    0 -0.47144240235E+02 -0.88462151317E+01  0.65158300321E+01  0.48407550553E+02  0.00000000000E+00 0.  1.
         11    1    1    2    0    0  0.58240108002E+02 -0.28298293102E+02 -0.91422165529E+02  0.11202997779E+03  0.00000000000E+00 0.  1.
        -15    1    1    2    0    0 -0.74063821102E+02  0.22495369203E+02  0.11056987798E+03  0.13498276511E+03  0.17770000000E+01 0.  1.
         15    1    1    2    0    0  0.62967953335E+02  0.14649139031E+02 -0.25663542484E+02  0.69579706548E+02  0.17770000000E+01 0. -1.
</event>
<event>
 6    1  0.1775046E-008  0.2071057E+03  0.7546771E-02  0.1050398E+00
        -11   -1    0    0    0    0  0.00000000000E+00  0.00000000000E+00  0.18250000000E+03  0.18250000000E+03  0.00000000000E+00 0. -1.
         11   -1    0    0    0    0 -0.00000000000E+00 -0.00000000000E+00 -0.18250000000E+03  0.18250000000E+03  0.00000000000E+00 0.  1.
        -11    1    1    2    0    0 -0.42276034070E+02  0.59196978979E+02  0.14013948325E+03  0.15789433221E+03  0.00000000000E+00 0. -1.
         11    1    1    2    0    0 -0.61345851086E+01 -0.24776001216E+02 -0.62083237386E+02  0.67125343463E+02  0.00000000000E+00 0.  1.
        -15    1    1    2    0    0  0.38561990165E+02 -0.33365086879E+02 -0.10197674222E+03  0.11402924971E+03  0.17770000000E+01 0.  1.
         15    1    1    2    0    0  0.98486290139E+01 -0.10558908831E+01  0.23920496350E+02  0.25951074614E+02  0.17770000000E+01 0. -1.
</event>
<event>
 6    1  0.1775046E-008  0.2703422E+03  0.7546771E-02  0.1014322E+00
        -11   -1    0    0    0    0  0.00000000000E+00  0.00000000000E+00  0.18250000000E+03  0.18250000000E+03  0.00000000000E+00 0. -1.
         11   -1    0    0    0    0 -0.00000000000E+00 -0.00000000000E+00 -0.18250000000E+03  0.18250000000E+03  0.00000000000E+00 0.  1.
        -11    1    1    2    0    0  0.33803822250E+02  0.28801761454E+02 -0.38233076501E+02  0.58600409557E+02  0.00000000000E+00 0.  1.
         11    1    1    2    0    0  0.82334989185E+01 -0.15010226969E+02 -0.26650733396E+02  0.31675842667E+02  0.00000000000E+00 0. -1.
        -15    1    1    2    0    0  0.37747422152E+02 -0.20568830789E+02 -0.90336125956E+02  0.10005857315E+03  0.17770000000E+01 0.  1.
         15    1    1    2    0    0 -0.79784743320E+02  0.67772963035E+01  0.15521993585E+03  0.17466517463E+03  0.17770000000E+01 0. -1.
</event>
<event>
 6    1  0.1775046E-008  0.1560253E+03  0.7546771E-02  0.1091729E+00
        -11   -1    0    0    0    0  0.00000000000E+00  0.00000000000E+00  0.18250000000E+03  0.18250000000E+03  0.00000000000E+00 0.  1.
         11   -1    0    0    0    0 -0.00000000000E+00 -0.00000000000E+00 -0.18250000000E+03  0.18250000000E+03  0.00000000000E+00 0.  1.
        -11    1    1    2    0    0  0.20307645101E+02  0.42586181851E+02  0.29387880767E+02  0.55584448096E+02  0.00000000000E+00 0.  1.
         11    1    1    2    0    0 -0.55782342441E+02  0.38316074504E+02 -0.14263853709E+03  0.15787825549E+03  0.00000000000E+00 0.  1.
        -15    1    1    2    0    0  0.24535706111E+02 -0.23339234237E+02  0.72815165975E+02  0.80323887195E+02  0.17770000000E+01 0. -1.
         15    1    1    2    0    0  0.10938991229E+02 -0.57563022118E+02  0.40435490345E+02  0.71213409221E+02  0.17770000000E+01 0.  1.
</event>
<event>
 6    1  0.1775046E-008  0.1207585E+03  0.7546771E-02  0.1132094E+00
        -11   -1    0    0    0    0  0.00000000000E+00  0.00000000000E+00  0.18250000000E+03  0.18250000000E+03  0.00000000000E+00 0.  1.
         11   -1    0    0    0    0 -0.00000000000E+00 -0.00000000000E+00 -0.18250000000E+03  0.18250000000E+03  0.00000000000E+00 0. -1.
        -11    1    1    2    0    0  0.26451966957E+02  0.12649010069E-01  0.99914537702E+02  0.10335676833E+03  0.00000000000E+00 0.  1.
         11    1    1    2    0    0 -0.35093777632E+02  0.17310007622E+02 -0.15375735132E+02  0.42043106727E+02  0.00000000000E+00 0. -1.
        -15    1    1    2    0    0 -0.21796201275E+02  0.26635449002E+02  0.57936874440E+02  0.67411873453E+02  0.17770000000E+01 0.  1.
         15    1    1    2    0    0  0.30438011951E+02 -0.43958105634E+02 -0.14247567701E+03  0.15218825149E+03  0.17770000000E+01 0. -1.
</event>
<event>
 6    1  0.1775046E-008  0.9992457E+02  0.7546771E-02  0.1163946E+00
        -11   -1    0    0    0    0  0.00000000000E+00  0.00000000000E+00  0.18250000000E+03  0.18250000000E+03  0.00000000000E+00 0. -1.
         11   -1    0    0    0    0 -0.00000000000E+00 -0.00000000000E+00 -0.18250000000E+03  0.18250000000E+03  0.00000000000E+00 0.  1.
        -11    1    1    2    0    0  0.29808992933E+02 -0.41265425578E+02  0.13915413926E+02  0.52773574377E+02  0.00000000000E+00 0. -1.
         11    1    1    2    0    0 -0.48559196775E+02 -0.14989983305E+02 -0.78918406561E+02  0.93865915459E+02  0.00000000000E+00 0.  1.
        -15    1    1    2    0    0  0.28628593146E+02 -0.52702212627E+02  0.88040194016E+02  0.10654272877E+03  0.17770000000E+01 0. -1.
         15    1    1    2    0    0 -0.98783893039E+01  0.10895762151E+03 -0.23037201382E+02  0.11181778140E+03  0.17770000000E+01 0.  1.
</event>
