<event>
 8    1  0.7045625E-009  0.5036342E+03  0.7546771E-02  0.9391714E-01
        -11   -1    0    0    0    0  0.00000000000E+00  0.00000000000E+00  0.50000000000E+03  0.50000000000E+03  0.00000000000E+00 0.  1.
         11   -1    0    0    0    0 -0.00000000000E+00 -0.00000000000E+00 -0.50000000000E+03  0.50000000000E+03  0.00000000000E+00 0. -1.
         25    2    1    2    0    0  0.31264525873E+03  0.26261885744E+03  0.26705748779E+03  0.50363420548E+03  0.12494794539E+03 0.  0.
         23    2    1    2    0    0 -0.31264525873E+03 -0.26261885744E+03 -0.26705748779E+03  0.49636579452E+03  0.91343188573E+02 0.  0.
        -11    1    4    4    0    0 -0.25833175528E+03 -0.19728326368E+03 -0.16811191822E+03  0.36594753580E+03  0.00000000000E+00 0.  1.
         11    1    4    4    0    0 -0.54313503449E+02 -0.65335593754E+02 -0.98945569578E+02  0.13041825872E+03  0.00000000000E+00 0. -1.
        -15    1    3    3    0    0  0.22618798910E+03  0.20603977822E+03  0.13112849952E+03  0.33288321937E+03  0.17770000000E+01 0. -1.
         15    1    3    3    0    0  0.86457269626E+02  0.56579079221E+02  0.13592898827E+03  0.17075098611E+03  0.17770000000E+01 0. -1.
</event>
<event>
 8    1  0.7045625E-009  0.5035264E+03  0.7546771E-02  0.9391953E-01
        -11   -1    0    0    0    0  0.00000000000E+00  0.00000000000E+00  0.50000000000E+03  0.50000000000E+03  0.00000000000E+00 0. -1.
         11   -1    0    0    0    0 -0.00000000000E+00 -0.00000000000E+00 -0.50000000000E+03  0.50000000000E+03  0.00000000000E+00 0.  1.
         25    2    1    2    0    0 -0.16861665451E+03  0.12756772130E+03  0.43953151228E+03  0.50352642246E+03  0.12508320485E+03 0.  0.
         23    2    1    2    0    0  0.16861665451E+03 -0.12756772130E+03 -0.43953151228E+03  0.49647357754E+03  0.92698237365E+02 0.  0.
        -11    1    4    4    0    0  0.71209644209E+02 -0.32671382900E+02 -0.79511562940E+02  0.11162580943E+03  0.00000000000E+00 0. -1.
         11    1    4    4    0    0  0.97407010297E+02 -0.94896338401E+02 -0.36001994934E+03  0.38484776811E+03  0.00000000000E+00 0.  1.
        -15    1    3    3    0    0 -0.17512772836E+03  0.10610588191E+03  0.30652873740E+03  0.36863424149E+03  0.17770000000E+01 0. -1.
         15    1    3    3    0    0  0.65110738558E+01  0.21461839395E+02  0.13300277488E+03  0.13489218097E+03  0.17770000000E+01 0. -1.
</event>
<event>
 8    1  0.7045625E-009  0.5035066E+03  0.7546771E-02  0.9391998E-01
        -11   -1    0    0    0    0  0.00000000000E+00  0.00000000000E+00  0.50000000000E+03  0.50000000000E+03  0.00000000000E+00 0.  1.
         11   -1    0    0    0    0 -0.00000000000E+00 -0.00000000000E+00 -0.50000000000E+03  0.50000000000E+03  0.00000000000E+00 0. -1.
         25    2    1    2    0    0 -0.35323425198E+03  0.20189085449E+03  0.26901276513E+03  0.50350655532E+03  0.12496651371E+03 0.  0.
         23    2    1    2    0    0  0.35323425198E+03 -0.20189085449E+03 -0.26901276513E+03  0.49649344468E+03  0.92755155731E+02 0.  0.
        -11    1    4    4    0    0  0.23495031745E+03 -0.11539121595E+03 -0.12154785647E+03  0.28860122279E+03  0.00000000000E+00 0.  1.
         11    1    4    4    0    0  0.11828393453E+03 -0.86499638541E+02 -0.14746490866E+03  0.20789222189E+03  0.00000000000E+00 0. -1.
        -15    1    3    3    0    0 -0.17204621584E+03  0.16265332266E+03  0.18238219846E+03  0.29886857948E+03  0.17770000000E+01 0.  1.
         15    1    3    3    0    0 -0.18118803614E+03  0.39237531829E+02  0.86630566671E+02  0.20463797584E+03  0.17770000000E+01 0.  1.
</event>
<event>
 8    1  0.7045625E-009  0.5034074E+03  0.7546771E-02  0.9392217E-01
        -11   -1    0    0    0    0  0.00000000000E+00  0.00000000000E+00  0.50000000000E+03  0.50000000000E+03  0.00000000000E+00 0. -1.
         11   -1    0    0    0    0 -0.00000000000E+00 -0.00000000000E+00 -0.50000000000E+03  0.50000000000E+03  0.00000000000E+00 0.  1.
         25    2    1    2    0    0 -0.27057760558E+02 -0.46346596654E+03 -0.14915643374E+03  0.50340740888E+03  0.12505420041E+03 0.  0.
         23    2    1    2    0    0  0.27057760558E+02  0.46346596654E+03  0.14915643374E+03  0.49659259112E+03  0.93934739471E+02 0.  0.
        -11    1    4    4    0    0 -0.68833780032E+01  0.34086596050E+02  0.38513359086E+02  0.51889842465E+02  0.00000000000E+00 0. -1.
         11    1    4    4    0    0  0.33941138562E+02  0.42937937049E+03  0.11064307465E+03  0.44470274865E+03  0.00000000000E+00 0.  1.
        -15    1    3    3    0    0  0.40581915794E+02 -0.15710002660E+03 -0.84941932867E+02  0.18315457935E+03  0.17770000000E+01 0.  1.
         15    1    3    3    0    0 -0.67639676352E+02 -0.30636593994E+03 -0.64214500869E+02  0.32025282953E+03  0.17770000000E+01 0.  1.
</event>
<event>
 8    1  0.7045625E-009  0.5036132E+03  0.7546771E-02  0.9391761E-01
        -11   -1    0    0    0    0  0.00000000000E+00  0.00000000000E+00  0.50000000000E+03  0.50000000000E+03  0.00000000000E+00 0.  1.
         11   -1    0    0    0    0 -0.00000000000E+00 -0.00000000000E+00 -0.50000000000E+03  0.50000000000E+03  0.00000000000E+00 0. -1.
         25    2    1    2    0    0  0.47727595010E+03  0.58630554163E+02 -0.82230169276E+02  0.50361319514E+03  0.12503829476E+03 0.  0.
         23    2    1    2    0    0 -0.47727595010E+03 -0.58630554163E+02  0.82230169276E+02  0.49638680486E+03  0.91696155207E+02 0.  0.
        -11    1    4    4    0    0 -0.33565812876E+03 -0.60666943892E+02  0.95280840841E+02  0.35415433940E+03  0.00000000000E+00 0.  1.
         11    1    4    4    0    0 -0.14161782134E+03  0.20363897289E+01 -0.13050671565E+02  0.14223246547E+03  0.00000000000E+00 0. -1.
        -15    1    3    3    0    0  0.46151289710E+03  0.81535167760E+02 -0.73334063725E+02  0.47436608269E+03  0.17770000000E+01 0. -1.
         15    1    3    3    0    0  0.15763052993E+02 -0.22904613597E+02 -0.88961055507E+01  0.29247112450E+02  0.17770000000E+01 0. -1.
</event>
<event>
 8    1  0.7045625E-009  0.5036787E+03  0.7546771E-02  0.9391616E-01
        -11   -1    0    0    0    0  0.00000000000E+00  0.00000000000E+00  0.50000000000E+03  0.50000000000E+03  0.00000000000E+00 0. -1.
         11   -1    0    0    0    0 -0.00000000000E+00 -0.00000000000E+00 -0.50000000000E+03  0.50000000000E+03  0.00000000000E+00 0.  1.
         25    2    1    2    0    0 -0.90997958087E+02  0.36566462238E+03 -0.30994364644E+03  0.50367872327E+03  0.12504378381E+03 0.  0.
         23    2    1    2    0    0  0.90997958087E+02 -0.36566462238E+03  0.30994364644E+03  0.49632127673E+03  0.90986270032E+02 0.  0.
        -11    1    4    4    0    0  0.30892810028E+02 -0.25976121085E+03  0.17593710968E+03  0.31525246857E+03  0.00000000000E+00 0.  1.
         11    1    4    4    0    0  0.60105148059E+02 -0.10590341152E+03  0.13400653676E+03  0.18106880817E+03  0.00000000000E+00 0. -1.
        -15    1    3    3    0    0 -0.43178374830E+01  0.42506749278E+02  0.63793176764E+01  0.43235643603E+02  0.17770000000E+01 0.  1.
         15    1    3    3    0    0 -0.86680120604E+02  0.32315787310E+03 -0.31632296412E+03  0.46044307966E+03  0.17770000000E+01 0.  1.
</event>
<event>
 8    1  0.7045625E-009  0.5034306E+03  0.7546771E-02  0.9392166E-01
        -11   -1    0    0    0    0  0.00000000000E+00  0.00000000000E+00  0.50000000000E+03  0.50000000000E+03  0.00000000000E+00 0. -1.
         11   -1    0    0    0    0 -0.00000000000E+00 -0.00000000000E+00 -0.50000000000E+03  0.50000000000E+03  0.00000000000E+00 0.  1.
         25    2    1    2    0    0  0.33452715708E+03  0.29051871789E+03  0.20375508613E+03  0.50343062995E+03  0.12496687472E+03 0.  0.
         23    2    1    2    0    0 -0.33452715708E+03 -0.29051871789E+03 -0.20375508613E+03  0.49656937005E+03  0.93570614372E+02 0.  0.
        -11    1    4    4    0    0 -0.26791054710E+03 -0.20367414861E+03 -0.18941216307E+03  0.38618154743E+03  0.00000000000E+00 0.  1.
         11    1    4    4    0    0 -0.66616609981E+02 -0.86844569286E+02 -0.14342923062E+02  0.11038782262E+03  0.00000000000E+00 0. -1.
        -15    1    3    3    0    0  0.20224481987E+03  0.25062709900E+03  0.13727651783E+03  0.35009271628E+03  0.17770000000E+01 0.  1.
         15    1    3    3    0    0  0.13228233721E+03  0.39891618895E+02  0.66478568304E+02  0.15333791367E+03  0.17770000000E+01 0.  1.
</event>
<event>
 8    1  0.7045625E-009  0.5036881E+03  0.7546771E-02  0.9391595E-01
        -11   -1    0    0    0    0  0.00000000000E+00  0.00000000000E+00  0.50000000000E+03  0.50000000000E+03  0.00000000000E+00 0.  1.
         11   -1    0    0    0    0 -0.00000000000E+00 -0.00000000000E+00 -0.50000000000E+03  0.50000000000E+03  0.00000000000E+00 0. -1.
         25    2    1    2    0    0 -0.96647895643E+02 -0.41704863285E+02  0.47645222696E+03  0.50368806337E+03  0.12495931039E+03 0.  0.
         23    2    1    2    0    0  0.96647895643E+02  0.41704863285E+02 -0.47645222696E+03  0.49631193663E+03  0.90767298660E+02 0.  0.
        -11    1    4    4    0    0  0.35623151142E+02  0.46323972815E+02 -0.10785543419E+03  0.12266912423E+03  0.00000000000E+00 0.  1.
         11    1    4    4    0    0  0.61024744501E+02 -0.46191095298E+01 -0.36859679277E+03  0.37364281240E+03  0.00000000000E+00 0. -1.
        -15    1    3    3    0    0 -0.69029088653E+02 -0.32777871989E+02  0.98790776365E+02  0.12490868343E+03  0.17770000000E+01 0. -1.
         15    1    3    3    0    0 -0.27618806990E+02 -0.89269912961E+01  0.37766145060E+03  0.37877937994E+03  0.17770000000E+01 0. -1.
</event>
<event>
 8    1  0.7045625E-009  0.5035268E+03  0.7546771E-02  0.9391953E-01
        -11   -1    0    0    0    0  0.00000000000E+00  0.00000000000E+00  0.50000000000E+03  0.50000000000E+03  0.00000000000E+00 0.  1.
         11   -1    0    0    0    0 -0.00000000000E+00 -0.00000000000E+00 -0.50000000000E+03  0.50000000000E+03  0.00000000000E+00 0. -1.
         25    2    1    2    0    0 -0.25959009838E+03 -0.37369770660E+03  0.17569242134E+03  0.50352683364E+03  0.12503779500E+03 0.  0.
         23    2    1    2    0    0  0.25959009838E+03  0.37369770660E+03 -0.17569242134E+03  0.49647316636E+03  0.92632515371E+02 0.  0.
        -11    1    4    4    0    0  0.37901785444E+02  0.12448275826E+03 -0.61440226816E+02  0.14390067378E+03  0.00000000000E+00 0. -1.
         11    1    4    4    0    0  0.22168831294E+03  0.24921494834E+03 -0.11425219453E+03  0.35257249258E+03  0.00000000000E+00 0.  1.
        -15    1    3    3    0    0 -0.14566690443E+03 -0.17528419220E+03  0.24378943242E+02  0.22921798726E+03  0.17770000000E+01 0.  1.
         15    1    3    3    0    0 -0.11392319396E+03 -0.19841351440E+03  0.15131347810E+03  0.27430884638E+03  0.17770000000E+01 0.  1.
</event>
<event>
 7    1  0.7045625E-009  0.5037689E+03  0.7546771E-02  0.9391416E-01
        -11   -1    0    0    0    0  0.00000000000E+00  0.00000000000E+00  0.50000000000E+03  0.50000000000E+03  0.00000000000E+00 0. -1.
         11   -1    0    0    0    0 -0.00000000000E+00 -0.00000000000E+00 -0.50000000000E+03  0.50000000000E+03  0.00000000000E+00 0.  1.
         23    2    1    2    0    0  0.32148180258E+03  0.30946303415E+03 -0.19767493478E+03  0.49623111885E+03  0.89733074024E+02 0.  0.
        -11    1    3    3    0    0  0.25830615703E+03  0.25076221401E+03 -0.19616305105E+03  0.40998012309E+03  0.00000000000E+00 0.  1.
         11    1    3    3    0    0  0.63175645557E+02  0.58700820143E+02 -0.15118837350E+01  0.86250995760E+02  0.00000000000E+00 0. -1.
        -15    1    1    2    0    0 -0.30462426292E+03 -0.29619995686E+03  0.21495128121E+03  0.47616968302E+03  0.17770000000E+01 0.  1.
         15    1    1    2    0    0 -0.16857539664E+02 -0.13263077287E+02 -0.17276346428E+02  0.27599198132E+02  0.17770000000E+01 0.  1.
</event>
<event>
 8    1  0.7045625E-009  0.5035840E+03  0.7546771E-02  0.9391826E-01
        -11   -1    0    0    0    0  0.00000000000E+00  0.00000000000E+00  0.50000000000E+03  0.50000000000E+03  0.00000000000E+00 0. -1.
         11   -1    0    0    0    0 -0.00000000000E+00 -0.00000000000E+00 -0.50000000000E+03  0.50000000000E+03  0.00000000000E+00 0.  1.
         25    2    1    2    0    0 -0.39670813949E+03  0.23967227465E+03 -0.15219095374E+03  0.50358397842E+03  0.12495835208E+03 0.  0.
         23    2    1    2    0    0  0.39670813949E+03 -0.23967227465E+03  0.15219095374E+03  0.49641602158E+03  0.91905565173E+02 0.  0.
        -11    1    4    4    0    0  0.24740710021E+03 -0.19317803630E+03  0.12413380973E+03  0.33754589267E+03  0.00000000000E+00 0.  1.
         11    1    4    4    0    0  0.14930103927E+03 -0.46494238350E+02  0.28057144009E+02  0.15887012890E+03  0.00000000000E+00 0. -1.
        -15    1    3    3    0    0 -0.34458177184E+03  0.25042062485E+03 -0.12584293966E+03  0.44416966356E+03  0.17770000000E+01 0. -1.
         15    1    3    3    0    0 -0.52126367643E+02 -0.10748350201E+02 -0.26348014077E+02  0.59414314862E+02  0.17770000000E+01 0. -1.
</event>
<event>
 8    1  0.7045625E-009  0.5036987E+03  0.7546771E-02  0.9391571E-01
        -11   -1    0    0    0    0  0.00000000000E+00  0.00000000000E+00  0.50000000000E+03  0.50000000000E+03  0.00000000000E+00 0. -1.
         11   -1    0    0    0    0 -0.00000000000E+00 -0.00000000000E+00 -0.50000000000E+03  0.50000000000E+03  0.00000000000E+00 0.  1.
         25    2    1    2    0    0 -0.17431827670E+01  0.13789412496E+02  0.48775282067E+03  0.50369872444E+03  0.12496561267E+03 0.  0.
         23    2    1    2    0    0  0.17431827670E+01 -0.13789412496E+02 -0.48775282067E+03  0.49630127556E+03  0.90658455048E+02 0.  0.
        -11    1    4    4    0    0 -0.22975172342E+02  0.14249603484E+02 -0.49036077032E+02  0.55995058660E+02  0.00000000000E+00 0. -1.
         11    1    4    4    0    0  0.24718355109E+02 -0.28039015979E+02 -0.43871674363E+03  0.44030621690E+03  0.00000000000E+00 0.  1.
        -15    1    3    3    0    0 -0.52221187442E+02 -0.19008203579E+02  0.33355917121E+03  0.33816156294E+03  0.17770000000E+01 0.  1.
         15    1    3    3    0    0  0.50478004675E+02  0.32797616075E+02  0.15419364945E+03  0.16553716150E+03  0.17770000000E+01 0.  1.
</event>
<event>
 8    1  0.7045625E-009  0.5035556E+03  0.7546771E-02  0.9391889E-01
        -11   -1    0    0    0    0  0.00000000000E+00  0.00000000000E+00  0.50000000000E+03  0.50000000000E+03  0.00000000000E+00 0.  1.
         11   -1    0    0    0    0 -0.00000000000E+00 -0.00000000000E+00 -0.50000000000E+03  0.50000000000E+03  0.00000000000E+00 0. -1.
         25    2    1    2    0    0 -0.74757473037E+02  0.47027958977E+03  0.10583194391E+03  0.50355564927E+03  0.12496527213E+03 0.  0.
         23    2    1    2    0    0  0.74757473037E+02 -0.47027958977E+03 -0.10583194391E+03  0.49644435073E+03  0.92222669086E+02 0.  0.
        -11    1    4    4    0    0  0.96591297097E+02 -0.37075963674E+03 -0.82269536614E+02  0.39186842635E+03  0.00000000000E+00 0.  1.
         11    1    4    4    0    0 -0.21833824060E+02 -0.99519953022E+02 -0.23562407295E+02  0.10457592438E+03  0.00000000000E+00 0. -1.
        -15    1    3    3    0    0 -0.96291004181E+02  0.35469316145E+03  0.42466496675E+02  0.36998075266E+03  0.17770000000E+01 0.  1.
         15    1    3    3    0    0  0.21533531145E+02  0.11558642831E+03  0.63365447234E+02  0.13357489662E+03  0.17770000000E+01 0.  1.
</event>
<event>
 8    1  0.7045625E-009  0.5035319E+03  0.7546771E-02  0.9391941E-01
        -11   -1    0    0    0    0  0.00000000000E+00  0.00000000000E+00  0.50000000000E+03  0.50000000000E+03  0.00000000000E+00 0.  1.
         11   -1    0    0    0    0 -0.00000000000E+00 -0.00000000000E+00 -0.50000000000E+03  0.50000000000E+03  0.00000000000E+00 0. -1.
         25    2    1    2    0    0  0.45615353148E+03  0.11517761847E+03 -0.12872120141E+03  0.50353187273E+03  0.12503307997E+03 0.  0.
         23    2    1    2    0    0 -0.45615353148E+03 -0.11517761847E+03  0.12872120141E+03  0.49646812727E+03  0.92571732295E+02 0.  0.
        -11    1    4    4    0    0 -0.35869688290E+03 -0.10826261934E+03  0.66220979232E+02  0.38048582975E+03  0.00000000000E+00 0. -1.
         11    1    4    4    0    0 -0.97456648584E+02 -0.69149991301E+01  0.62500222176E+02  0.11598229752E+03  0.00000000000E+00 0.  1.
        -15    1    3    3    0    0  0.17101946507E+02 -0.15316489633E+02  0.97726495142E+01  0.25014672425E+02  0.17770000000E+01 0.  1.
         15    1    3    3    0    0  0.43905158498E+03  0.13049410810E+03 -0.13849385092E+03  0.47851720031E+03  0.17770000000E+01 0.  1.
</event>
<event>
 8    1  0.7045625E-009  0.5038128E+03  0.7546771E-02  0.9391318E-01
        -11   -1    0    0    0    0  0.00000000000E+00  0.00000000000E+00  0.50000000000E+03  0.50000000000E+03  0.00000000000E+00 0.  1.
         11   -1    0    0    0    0 -0.00000000000E+00 -0.00000000000E+00 -0.50000000000E+03  0.50000000000E+03  0.00000000000E+00 0. -1.
         25    2    1    2    0    0  0.19872628555E+03 -0.13775289276E+03 -0.42396840029E+03  0.50381280108E+03  0.12494053809E+03 0.  0.
         23    2    1    2    0    0 -0.19872628555E+03  0.13775289276E+03  0.42396840029E+03  0.49618719892E+03  0.89356230305E+02 0.  0.
        -11    1    4    4    0    0 -0.38408230647E+02 -0.94516994450E+01  0.53826989126E+02  0.66797242175E+02  0.00000000000E+00 0. -1.
         11    1    4    4    0    0 -0.16031805491E+03  0.14720459220E+03  0.37014141116E+03  0.42938995674E+03  0.00000000000E+00 0.  1.
        -15    1    3    3    0    0 -0.42802660411E+01 -0.45906949213E+02 -0.10533130174E+03  0.11499395427E+03  0.17770000000E+01 0.  1.
         15    1    3    3    0    0  0.20300655159E+03 -0.91845943546E+02 -0.31863709855E+03  0.38881884681E+03  0.17770000000E+01 0. -1.
</event>
<event>
 8    1  0.7978158E-009  0.5034238E+03  0.7546771E-02  0.9392181E-01
        -11   -1    0    0    0    0  0.00000000000E+00  0.00000000000E+00  0.50000000000E+03  0.50000000000E+03  0.00000000000E+00 0. -1.
         11   -1    0    0    0    0 -0.00000000000E+00 -0.00000000000E+00 -0.50000000000E+03  0.50000000000E+03  0.00000000000E+00 0.  1.
         25    2    1    2    0    0 -0.70196817397E+02  0.45980134821E+03 -0.14648350497E+03  0.50342378299E+03  0.12503285594E+03 0.  0.
         23    2    1    2    0    0  0.70196817397E+02 -0.45980134821E+03  0.14648350497E+03  0.49657621701E+03  0.93731793312E+02 0.  0.
        -11    1    4    4    0    0  0.34444099255E+02 -0.48619162517E+02  0.31658367573E+01  0.59667758963E+02  0.00000000000E+00 0.  1.
         11    1    4    4    0    0  0.35752718143E+02 -0.41118218569E+03  0.14331766822E+03  0.43690845804E+03  0.00000000000E+00 0. -1.
        -15    1    3    3    0    0 -0.97594362285E+01  0.49523555650E+01 -0.27125216624E+02  0.29303711831E+02  0.17770000000E+01 0.  1.
         15    1    3    3    0    0 -0.60437381169E+02  0.45484899265E+03 -0.11935828835E+03  0.47412007116E+03  0.17770000000E+01 0.  1.
</event>
<event>
 8    1  0.7045625E-009  0.5031037E+03  0.7546771E-02  0.9392892E-01
        -11   -1    0    0    0    0  0.00000000000E+00  0.00000000000E+00  0.50000000000E+03  0.50000000000E+03  0.00000000000E+00 0. -1.
         11   -1    0    0    0    0 -0.00000000000E+00 -0.00000000000E+00 -0.50000000000E+03  0.50000000000E+03  0.00000000000E+00 0.  1.
         25    2    1    2    0    0  0.36886512339E+03  0.21012423186E+03  0.23936100814E+03  0.50310365347E+03  0.12492366410E+03 0.  0.
         23    2    1    2    0    0 -0.36886512339E+03 -0.21012423186E+03 -0.23936100814E+03  0.49689634653E+03  0.96946453815E+02 0.  0.
        -11    1    4    4    0    0 -0.22385331444E+03 -0.77581123310E+02 -0.15483976394E+03  0.28302736542E+03  0.00000000000E+00 0.  1.
         11    1    4    4    0    0 -0.14501180895E+03 -0.13254310855E+03 -0.84521244199E+02  0.21386898111E+03  0.00000000000E+00 0. -1.
        -15    1    3    3    0    0 -0.79273646574E+01 -0.16295392154E+01 -0.13175967878E+01  0.83900118452E+01  0.17770000000E+01 0. -1.
         15    1    3    3    0    0  0.37679248805E+03  0.21175377108E+03  0.24067860493E+03  0.49471364163E+03  0.17770000000E+01 0. -1.
</event>
<event>
 7    1  0.7045625E-009  0.5037261E+03  0.7546771E-02  0.9391511E-01
        -11   -1    0    0    0    0  0.00000000000E+00  0.00000000000E+00  0.50000000000E+03  0.50000000000E+03  0.00000000000E+00 0.  1.
         11   -1    0    0    0    0 -0.00000000000E+00 -0.00000000000E+00 -0.50000000000E+03  0.50000000000E+03  0.00000000000E+00 0. -1.
         23    2    1    2    0    0  0.31206464137E+03  0.37985464214E+01  0.37517230069E+03  0.49627392844E+03  0.90193056833E+02 0.  0.
        -11    1    3    3    0    0  0.11586586513E+03 -0.80331175173E+01  0.20805378836E+03  0.23827674777E+03  0.00000000000E+00 0.  1.
         11    1    3    3    0    0  0.19619877625E+03  0.11831663939E+02  0.16711851233E+03  0.25799718067E+03  0.00000000000E+00 0. -1.
        -15    1    1    2    0    0 -0.10435406833E+03  0.35894069835E+02 -0.64272826403E+02  0.12771965302E+03  0.17770000000E+01 0.  1.
         15    1    1    2    0    0 -0.20771057305E+03 -0.39692616256E+02 -0.31089947428E+03  0.37600641853E+03  0.17770000000E+01 0.  1.
</event>
<event>
 8    1  0.7045625E-009  0.5038202E+03  0.7546771E-02  0.9391302E-01
        -11   -1    0    0    0    0  0.00000000000E+00  0.00000000000E+00  0.50000000000E+03  0.50000000000E+03  0.00000000000E+00 0.  1.
         11   -1    0    0    0    0 -0.00000000000E+00 -0.00000000000E+00 -0.50000000000E+03  0.50000000000E+03  0.00000000000E+00 0. -1.
         25    2    1    2    0    0  0.31841883928E+03  0.95657054651E+02  0.35732209530E+03  0.50382017587E+03  0.12495943546E+03 0.  0.
         23    2    1    2    0    0 -0.31841883928E+03 -0.95657054651E+02 -0.35732209530E+03  0.49617982413E+03  0.89300105110E+02 0.  0.
        -11    1    4    4    0    0 -0.30393113980E+03 -0.86098612642E+02 -0.29763534559E+03  0.43402063060E+03  0.00000000000E+00 0.  1.
         11    1    4    4    0    0 -0.14487699478E+02 -0.95584420087E+01 -0.59686749711E+02  0.62159193535E+02  0.00000000000E+00 0. -1.
        -15    1    3    3    0    0  0.23776065265E+03  0.20260869900E+02  0.28549749373E+03  0.37209220289E+03  0.17770000000E+01 0. -1.
         15    1    3    3    0    0  0.80658186628E+02  0.75396184751E+02  0.71824601571E+02  0.13172797298E+03  0.17770000000E+01 0. -1.
</event>
<event>
 8    1  0.7045625E-009  0.5038365E+03  0.7546771E-02  0.9391266E-01
        -11   -1    0    0    0    0  0.00000000000E+00  0.00000000000E+00  0.50000000000E+03  0.50000000000E+03  0.00000000000E+00 0. -1.
         11   -1    0    0    0    0 -0.00000000000E+00 -0.00000000000E+00 -0.50000000000E+03  0.50000000000E+03  0.00000000000E+00 0.  1.
         25    2    1    2    0    0  0.29527721847E+03  0.61388925223E+02 -0.38374261914E+03  0.50383646238E+03  0.12504218164E+03 0.  0.
         23    2    1    2    0    0 -0.29527721847E+03 -0.61388925223E+02  0.38374261914E+03  0.49616353762E+03  0.89233527464E+02 0.  0.
        -11    1    4    4    0    0 -0.10127154730E+03 -0.59906349716E+02  0.11344471041E+03  0.16344540174E+03  0.00000000000E+00 0.  1.
         11    1    4    4    0    0 -0.19400567117E+03 -0.14825755074E+01  0.27029790874E+03  0.33271813588E+03  0.00000000000E+00 0. -1.
        -15    1    3    3    0    0 -0.18795057405E+01  0.14170923814E+02 -0.60640289116E+02  0.62327762808E+02  0.17770000000E+01 0.  1.
         15    1    3    3    0    0  0.29715672421E+03  0.47218001409E+02 -0.32310233003E+03  0.44150869958E+03  0.17770000000E+01 0.  1.
</event>
<event>
 7    1  0.7045625E-009  0.5036400E+03  0.7546771E-02  0.9391702E-01
        -11   -1    0    0    0    0  0.00000000000E+00  0.00000000000E+00  0.50000000000E+03  0.50000000000E+03  0.00000000000E+00 0. -1.
         11   -1    0    0    0    0 -0.00000000000E+00 -0.00000000000E+00 -0.50000000000E+03  0.50000000000E+03  0.00000000000E+00 0.  1.
         23    2    1    2    0    0  0.76174033754E+02  0.20808843656E+02  0.48147687558E+03  0.49635998941E+03  0.91201787122E+02 0.  0.
        -11    1    3    3    0    0  0.86743610905E+02 -0.10687622982E+02  0.34537584218E+03  0.35626275652E+03  0.00000000000E+00 0. -1.
         11    1    3    3    0    0 -0.10569577151E+02  0.31496466638E+02  0.13610103340E+03  0.14009723289E+03  0.00000000000E+00 0.  1.
        -15    1    1    2    0    0  0.28758578891E+02  0.19623254057E+02 -0.13106757938E+03  0.13562446702E+03  0.17770000000E+01 0. -1.
         15    1    1    2    0    0 -0.10493261265E+03 -0.40432097714E+02 -0.35040929620E+03  0.36801554358E+03  0.17770000000E+01 0.  1.
</event>
<event>
 8    1  0.8498264E-009  0.5036782E+03  0.7546771E-02  0.9391617E-01
        -11   -1    0    0    0    0  0.00000000000E+00  0.00000000000E+00  0.50000000000E+03  0.50000000000E+03  0.00000000000E+00 0.  1.
         11   -1    0    0    0    0 -0.00000000000E+00 -0.00000000000E+00 -0.50000000000E+03  0.50000000000E+03  0.00000000000E+00 0. -1.
         25    2    1    2    0    0 -0.19574313583E+03  0.30710562163E+03  0.32472390533E+03  0.50367822305E+03  0.12496759427E+03 0.  0.
         23    2    1    2    0    0  0.19574313583E+03 -0.30710562163E+03 -0.32472390533E+03  0.49632177695E+03  0.90887037155E+02 0.  0.
        -11    1    4    4    0    0  0.17108656830E+03 -0.25604119404E+03 -0.31165754122E+03  0.43813026591E+03  0.00000000000E+00 0.  1.
         11    1    4    4    0    0  0.24656567525E+02 -0.51064427588E+02 -0.13066364108E+02  0.58191511048E+02  0.00000000000E+00 0. -1.
        -15    1    3    3    0    0  0.14878589268E+02  0.12254512210E+02  0.39884194858E+01  0.19763873788E+02  0.17770000000E+01 0. -1.
         15    1    3    3    0    0 -0.21062172510E+03  0.29485110942E+03  0.32073548585E+03  0.48391434926E+03  0.17770000000E+01 0. -1.
</event>
<event>
 8    1  0.1066277E-008  0.5034895E+03  0.7546771E-02  0.9392035E-01
        -11   -1    0    0    0    0  0.00000000000E+00  0.00000000000E+00  0.50000000000E+03  0.50000000000E+03  0.00000000000E+00 0. -1.
         11   -1    0    0    0    0 -0.00000000000E+00 -0.00000000000E+00 -0.50000000000E+03  0.50000000000E+03  0.00000000000E+00 0.  1.
         25    2    1    2    0    0 -0.24477103229E+03 -0.39029650029E+03 -0.16007645171E+03  0.50348954452E+03  0.12503213453E+03 0.  0.
         23    2    1    2    0    0  0.24477103229E+03  0.39029650029E+03  0.16007645171E+03  0.49651045548E+03  0.93026585528E+02 0.  0.
        -11    1    4    4    0    0  0.16856210354E+03  0.20300408194E+03  0.58685571908E+02  0.27031062943E+03  0.00000000000E+00 0.  1.
         11    1    4    4    0    0  0.76208928744E+02  0.18729241835E+03  0.10139087980E+03  0.22619982604E+03  0.00000000000E+00 0. -1.
        -15    1    3    3    0    0 -0.15818639847E+03 -0.31027326596E+03 -0.16518865881E+03  0.38546450805E+03  0.17770000000E+01 0.  1.
         15    1    3    3    0    0 -0.86584633814E+02 -0.80023234331E+02  0.51122071004E+01  0.11802503648E+03  0.17770000000E+01 0.  1.
</event>
<event>
 8    1  0.7045625E-009  0.5036071E+03  0.7546771E-02  0.9391775E-01
        -11   -1    0    0    0    0  0.00000000000E+00  0.00000000000E+00  0.50000000000E+03  0.50000000000E+03  0.00000000000E+00 0.  1.
         11   -1    0    0    0    0 -0.00000000000E+00 -0.00000000000E+00 -0.50000000000E+03  0.50000000000E+03  0.00000000000E+00 0. -1.
         25    2    1    2    0    0  0.47563268362E+03 -0.93627548188E+02  0.54943866870E+02  0.50360707369E+03  0.12493473760E+03 0.  0.
         23    2    1    2    0    0 -0.47563268362E+03  0.93627548188E+02 -0.54943866870E+02  0.49639292631E+03  0.91621729305E+02 0.  0.
        -11    1    4    4    0    0 -0.31682730044E+03  0.98776184907E+02 -0.13285155198E+02  0.33213366038E+03  0.00000000000E+00 0.  1.
         11    1    4    4    0    0 -0.15880538318E+03 -0.51486367189E+01 -0.41658711672E+02  0.16425926593E+03  0.00000000000E+00 0. -1.
        -15    1    3    3    0    0  0.35564191999E+03 -0.69997750090E+02 -0.14874022714E+02  0.36277438519E+03  0.17770000000E+01 0.  1.
         15    1    3    3    0    0  0.11999076363E+03 -0.23629798098E+02  0.69817889585E+02  0.14083268849E+03  0.17770000000E+01 0.  1.
</event>
<event>
 8    1  0.7045625E-009  0.5032130E+03  0.7546771E-02  0.9392649E-01
        -11   -1    0    0    0    0  0.00000000000E+00  0.00000000000E+00  0.50000000000E+03  0.50000000000E+03  0.00000000000E+00 0. -1.
         11   -1    0    0    0    0 -0.00000000000E+00 -0.00000000000E+00 -0.50000000000E+03  0.50000000000E+03  0.00000000000E+00 0.  1.
         25    2    1    2    0    0 -0.16589340986E+03 -0.43968401129E+03 -0.12940960093E+03  0.50321299452E+03  0.12503527431E+03 0.  0.
         23    2    1    2    0    0  0.16589340986E+03  0.43968401129E+03  0.12940960093E+03  0.49678700548E+03  0.95957442569E+02 0.  0.
        -11    1    4    4    0    0  0.28248467906E+02  0.57864425540E+02 -0.14775051002E+02  0.66064890935E+02  0.00000000000E+00 0.  1.
         11    1    4    4    0    0  0.13764494195E+03  0.38181958575E+03  0.14418465193E+03  0.43072211455E+03  0.00000000000E+00 0. -1.
        -15    1    3    3    0    0 -0.14538224093E+03 -0.24794914425E+03 -0.11584328995E+03  0.30989933796E+03  0.17770000000E+01 0.  1.
         15    1    3    3    0    0 -0.20511168928E+02 -0.19173486703E+03 -0.13566310978E+02  0.19331365655E+03  0.17770000000E+01 0.  1.
</event>
<event>
 8    1  0.7045625E-009  0.5035852E+03  0.7546771E-02  0.9391823E-01
        -11   -1    0    0    0    0  0.00000000000E+00  0.00000000000E+00  0.50000000000E+03  0.50000000000E+03  0.00000000000E+00 0. -1.
         11   -1    0    0    0    0 -0.00000000000E+00 -0.00000000000E+00 -0.50000000000E+03  0.50000000000E+03  0.00000000000E+00 0.  1.
         25    2    1    2    0    0  0.46841591316E+03 -0.15234073180E+02  0.13544242473E+03  0.50358520635E+03  0.12493144100E+03 0.  0.
         23    2    1    2    0    0 -0.46841591316E+03  0.15234073180E+02 -0.13544242473E+03  0.49641479365E+03  0.91855605400E+02 0.  0.
        -11    1    4    4    0    0 -0.40674220073E+02 -0.16297376473E+00 -0.41697423812E+02  0.58250269455E+02  0.00000000000E+00 0.  1.
         11    1    4    4    0    0 -0.42774169309E+03  0.15397046945E+02 -0.93745000918E+02  0.43816452419E+03  0.00000000000E+00 0. -1.
        -15    1    3    3    0    0  0.12424668931E+03 -0.37395530879E+02 -0.81059859547E+01  0.13001742295E+03  0.17770000000E+01 0. -1.
         15    1    3    3    0    0  0.34416922386E+03  0.22161457699E+02  0.14354841068E+03  0.37356778340E+03  0.17770000000E+01 0. -1.
</event>
<event>
 8    1  0.7045625E-009  0.5025169E+03  0.7546771E-02  0.9394196E-01
        -11   -1    0    0    0    0  0.00000000000E+00  0.00000000000E+00  0.50000000000E+03  0.50000000000E+03  0.00000000000E+00 0.  1.
         11   -1    0    0    0    0 -0.00000000000E+00 -0.00000000000E+00 -0.50000000000E+03  0.50000000000E+03  0.00000000000E+00 0. -1.
         25    2    1    2    0    0  0.26422539920E+03  0.35337213245E+03  0.20547982008E+03  0.50251688933E+03  0.12495736086E+03 0.  0.
         23    2    1    2    0    0 -0.26422539920E+03 -0.35337213245E+03 -0.20547982008E+03  0.49748311067E+03  0.10286186545E+03 0.  0.
        -11    1    4    4    0    0 -0.19574544656E+03 -0.24699834210E+03 -0.19484755172E+03  0.37052669170E+03  0.00000000000E+00 0. -1.
         11    1    4    4    0    0 -0.68479952644E+02 -0.10637379035E+03 -0.10632268358E+02  0.12695641897E+03  0.00000000000E+00 0.  1.
        -15    1    3    3    0    0  0.21215752941E+01  0.28893236770E+01  0.31175469562E+02  0.31431145453E+02  0.17770000000E+01 0. -1.
         15    1    3    3    0    0  0.26210382391E+03  0.35048280877E+03  0.17430435051E+03  0.47108574388E+03  0.17770000000E+01 0. -1.
</event>
<event>
 8    1  0.7045625E-009  0.5034422E+03  0.7546771E-02  0.9392140E-01
        -11   -1    0    0    0    0  0.00000000000E+00  0.00000000000E+00  0.50000000000E+03  0.50000000000E+03  0.00000000000E+00 0. -1.
         11   -1    0    0    0    0 -0.00000000000E+00 -0.00000000000E+00 -0.50000000000E+03  0.50000000000E+03  0.00000000000E+00 0.  1.
         25    2    1    2    0    0  0.40120917254E+03 -0.81356854310E+01  0.27714821118E+03  0.50344223471E+03  0.12493183432E+03 0.  0.
         23    2    1    2    0    0 -0.40120917254E+03  0.81356854310E+01 -0.27714821118E+03  0.49655776529E+03  0.93399645591E+02 0.  0.
        -11    1    4    4    0    0 -0.21467613993E+03 -0.33473961145E+02 -0.18010965619E+03  0.28221594459E+03  0.00000000000E+00 0.  1.
         11    1    4    4    0    0 -0.18653303261E+03  0.41609646576E+02 -0.97038554995E+02  0.21434182069E+03  0.00000000000E+00 0. -1.
        -15    1    3    3    0    0  0.17909241858E+03  0.38003347080E+02  0.17967314233E+03  0.25652279545E+03  0.17770000000E+01 0. -1.
         15    1    3    3    0    0  0.22211675396E+03 -0.46139032512E+02  0.97475068857E+02  0.24691943927E+03  0.17770000000E+01 0. -1.
</event>
<event>
 8    1  0.7045625E-009  0.5038436E+03  0.7546771E-02  0.9391250E-01
        -11   -1    0    0    0    0  0.00000000000E+00  0.00000000000E+00  0.50000000000E+03  0.50000000000E+03  0.00000000000E+00 0.  1.
         11   -1    0    0    0    0 -0.00000000000E+00 -0.00000000000E+00 -0.50000000000E+03  0.50000000000E+03  0.00000000000E+00 0. -1.
         25    2    1    2    0    0 -0.40059543826E+03  0.60567502254E+02  0.27220652288E+03  0.50384360331E+03  0.12496742780E+03 0.  0.
         23    2    1    2    0    0  0.40059543826E+03 -0.60567502254E+02 -0.27220652288E+03  0.49615639669E+03  0.89048590104E+02 0.  0.
        -11    1    4    4    0    0  0.10393576249E+03 -0.50849596414E+02 -0.53578242399E+02  0.12751059657E+03  0.00000000000E+00 0.  1.
         11    1    4    4    0    0  0.29665967577E+03 -0.97179058409E+01 -0.21862828049E+03  0.36864580013E+03  0.00000000000E+00 0. -1.
        -15    1    3    3    0    0 -0.16426802286E+03  0.72594593593E+02  0.70644297646E+02  0.19299671725E+03  0.17770000000E+01 0.  1.
         15    1    3    3    0    0 -0.23632741540E+03 -0.12027091339E+02  0.20156222524E+03  0.31084688605E+03  0.17770000000E+01 0.  1.
</event>
<event>
 8    1  0.7045625E-009  0.5034973E+03  0.7546771E-02  0.9392018E-01
        -11   -1    0    0    0    0  0.00000000000E+00  0.00000000000E+00  0.50000000000E+03  0.50000000000E+03  0.00000000000E+00 0.  1.
         11   -1    0    0    0    0 -0.00000000000E+00 -0.00000000000E+00 -0.50000000000E+03  0.50000000000E+03  0.00000000000E+00 0. -1.
         25    2    1    2    0    0 -0.32664929942E+03  0.33880676335E+03  0.12807787059E+03  0.50349730050E+03  0.12496320644E+03 0.  0.
         23    2    1    2    0    0  0.32664929942E+03 -0.33880676335E+03 -0.12807787059E+03  0.49650269950E+03  0.92850427963E+02 0.  0.
        -11    1    4    4    0    0  0.10931829049E+03 -0.65160939024E+02 -0.59066176745E+02  0.14030413339E+03  0.00000000000E+00 0. -1.
         11    1    4    4    0    0  0.21733100893E+03 -0.27364582433E+03 -0.69011693846E+02  0.35619856612E+03  0.00000000000E+00 0.  1.
        -15    1    3    3    0    0 -0.22949572278E+03  0.26434151135E+03  0.14689248125E+03  0.37963835446E+03  0.17770000000E+01 0. -1.
         15    1    3    3    0    0 -0.97153576641E+02  0.74465252007E+02 -0.18814610663E+02  0.12385894604E+03  0.17770000000E+01 0. -1.
</event>
<event>
 8    1  0.7045625E-009  0.5036642E+03  0.7546771E-02  0.9391648E-01
        -11   -1    0    0    0    0  0.00000000000E+00  0.00000000000E+00  0.50000000000E+03  0.50000000000E+03  0.00000000000E+00 0.  1.
         11   -1    0    0    0    0 -0.00000000000E+00 -0.00000000000E+00 -0.50000000000E+03  0.50000000000E+03  0.00000000000E+00 0. -1.
         25    2    1    2    0    0 -0.42087479284E+03 -0.24681534278E+02  0.24559295893E+03  0.50366418454E+03  0.12496775554E+03 0.  0.
         23    2    1    2    0    0  0.42087479284E+03  0.24681534278E+02 -0.24559295893E+03  0.49633581546E+03  0.91041588565E+02 0.  0.
        -11    1    4    4    0    0  0.21297313647E+03 -0.14394234987E+02 -0.81024214688E+02  0.22831923753E+03  0.00000000000E+00 0. -1.
         11    1    4    4    0    0  0.20790165637E+03  0.39075769265E+02 -0.16456874424E+03  0.26801657793E+03  0.00000000000E+00 0.  1.
        -15    1    3    3    0    0 -0.40327268456E+03  0.57824207424E+01  0.23540826696E+03  0.46699304533E+03  0.17770000000E+01 0. -1.
         15    1    3    3    0    0 -0.17602108287E+02 -0.30463955020E+02  0.10184691967E+02  0.36671139212E+02  0.17770000000E+01 0. -1.
</event>
<event>
 8    1  0.7045625E-009  0.5034957E+03  0.7546771E-02  0.9392022E-01
        -11   -1    0    0    0    0  0.00000000000E+00  0.00000000000E+00  0.50000000000E+03  0.50000000000E+03  0.00000000000E+00 0.  1.
         11   -1    0    0    0    0 -0.00000000000E+00 -0.00000000000E+00 -0.50000000000E+03  0.50000000000E+03  0.00000000000E+00 0. -1.
         25    2    1    2    0    0  0.41110355126E+03  0.40176535185E+02  0.25932773548E+03  0.50349566785E+03  0.12504690846E+03 0.  0.
         23    2    1    2    0    0 -0.41110355126E+03 -0.40176535185E+02 -0.25932773548E+03  0.49650433215E+03  0.92980608855E+02 0.  0.
        -11    1    4    4    0    0 -0.23008372051E+03 -0.68410279147E+02 -0.14049526084E+03  0.27813198855E+03  0.00000000000E+00 0.  1.
         11    1    4    4    0    0 -0.18101983074E+03  0.28233743962E+02 -0.11883247464E+03  0.21837234360E+03  0.00000000000E+00 0. -1.
        -15    1    3    3    0    0  0.69493318669E+02  0.42566564926E+02  0.92574963889E+02  0.12334713396E+03  0.17770000000E+01 0.  1.
         15    1    3    3    0    0  0.34161023259E+03 -0.23900297402E+01  0.16675277159E+03  0.38014853388E+03  0.17770000000E+01 0.  1.
</event>
<event>
 8    1  0.7045625E-009  0.5036138E+03  0.7546771E-02  0.9391760E-01
        -11   -1    0    0    0    0  0.00000000000E+00  0.00000000000E+00  0.50000000000E+03  0.50000000000E+03  0.00000000000E+00 0.  1.
         11   -1    0    0    0    0 -0.00000000000E+00 -0.00000000000E+00 -0.50000000000E+03  0.50000000000E+03  0.00000000000E+00 0. -1.
         25    2    1    2    0    0  0.38527429435E+03  0.23323667505E+03 -0.18756315220E+03  0.50361375045E+03  0.12494496832E+03 0.  0.
         23    2    1    2    0    0 -0.38527429435E+03 -0.23323667505E+03  0.18756315220E+03  0.49638624955E+03  0.91562788349E+02 0.  0.
        -11    1    4    4    0    0 -0.10442983748E+03 -0.26735822585E+02  0.69876959099E+02  0.12846472115E+03  0.00000000000E+00 0.  1.
         11    1    4    4    0    0 -0.28084445686E+03 -0.20650085246E+03  0.11768619310E+03  0.36792152840E+03  0.00000000000E+00 0. -1.
        -15    1    3    3    0    0  0.35880594101E+03  0.22307678040E+03 -0.20569498579E+03  0.46991333048E+03  0.17770000000E+01 0. -1.
         15    1    3    3    0    0  0.26468353337E+02  0.10159894649E+02  0.18131833592E+02  0.33700419969E+02  0.17770000000E+01 0. -1.
</event>
<event>
 8    1  0.7045625E-009  0.5035859E+03  0.7546771E-02  0.9391822E-01
        -11   -1    0    0    0    0  0.00000000000E+00  0.00000000000E+00  0.50000000000E+03  0.50000000000E+03  0.00000000000E+00 0. -1.
         11   -1    0    0    0    0 -0.00000000000E+00 -0.00000000000E+00 -0.50000000000E+03  0.50000000000E+03  0.00000000000E+00 0.  1.
         25    2    1    2    0    0  0.48707594739E+03  0.60458903820E+01  0.26175830349E+02  0.50358586205E+03  0.12503605499E+03 0.  0.
         23    2    1    2    0    0 -0.48707594739E+03 -0.60458903820E+01 -0.26175830349E+02  0.49641413795E+03  0.91990711228E+02 0.  0.
        -11    1    4    4    0    0 -0.12004285958E+03 -0.23442396352E+02  0.26681152483E+02  0.12518673245E+03  0.00000000000E+00 0. -1.
         11    1    4    4    0    0 -0.36703308781E+03  0.17396505970E+02 -0.52856982832E+02  0.37122740551E+03  0.00000000000E+00 0.  1.
        -15    1    3    3    0    0  0.11103807649E+03  0.24162041062E+02  0.54502700470E+02  0.12604348752E+03  0.17770000000E+01 0.  1.
         15    1    3    3    0    0  0.37603787090E+03 -0.18116150680E+02 -0.28326870121E+02  0.37754237453E+03  0.17770000000E+01 0.  1.
</event>
<event>
 8    1  0.7045625E-009  0.5036354E+03  0.7546771E-02  0.9391712E-01
        -11   -1    0    0    0    0  0.00000000000E+00  0.00000000000E+00  0.50000000000E+03  0.50000000000E+03  0.00000000000E+00 0. -1.
         11   -1    0    0    0    0 -0.00000000000E+00 -0.00000000000E+00 -0.50000000000E+03  0.50000000000E+03  0.00000000000E+00 0.  1.
         25    2    1    2    0    0 -0.47229148331E+03 -0.11017996403E+03  0.53069134924E+02  0.50363538249E+03  0.12503357844E+03 0.  0.
         23    2    1    2    0    0  0.47229148331E+03  0.11017996403E+03 -0.53069134924E+02  0.49636461751E+03  0.91447420682E+02 0.  0.
        -11    1    4    4    0    0  0.39724750572E+03  0.56589198518E+02 -0.40484647361E+02  0.40329508411E+03  0.00000000000E+00 0.  1.
         11    1    4    4    0    0  0.75043977587E+02  0.53590765509E+02 -0.12584487563E+02  0.93069533399E+02  0.00000000000E+00 0. -1.
        -15    1    3    3    0    0 -0.43376538328E+03 -0.99802711453E+02  0.84200800482E+02  0.45299660206E+03  0.17770000000E+01 0.  1.
         15    1    3    3    0    0 -0.38526100030E+02 -0.10377252574E+02 -0.31131665558E+02  0.50638780435E+02  0.17770000000E+01 0.  1.
</event>
<event>
 8    1  0.7045625E-009  0.5038027E+03  0.7546771E-02  0.9391341E-01
        -11   -1    0    0    0    0  0.00000000000E+00  0.00000000000E+00  0.50000000000E+03  0.50000000000E+03  0.00000000000E+00 0. -1.
         11   -1    0    0    0    0 -0.00000000000E+00 -0.00000000000E+00 -0.50000000000E+03  0.50000000000E+03  0.00000000000E+00 0.  1.
         25    2    1    2    0    0  0.35306459582E+03  0.16103282775E+03  0.29596859607E+03  0.50380270642E+03  0.12503430212E+03 0.  0.
         23    2    1    2    0    0 -0.35306459582E+03 -0.16103282775E+03 -0.29596859607E+03  0.49619729358E+03  0.89600021555E+02 0.  0.
        -11    1    4    4    0    0 -0.61193650062E+02 -0.20188084257E+02 -0.95242378475E+02  0.11499274852E+03  0.00000000000E+00 0.  1.
         11    1    4    4    0    0 -0.29187094576E+03 -0.14084474349E+03 -0.20072621759E+03  0.38120454506E+03  0.00000000000E+00 0. -1.
        -15    1    3    3    0    0  0.32835033373E+03  0.12859629847E+03  0.21469100547E+03  0.41285146869E+03  0.17770000000E+01 0. -1.
         15    1    3    3    0    0  0.24714262084E+02  0.32436529285E+02  0.81277590594E+02  0.90951237728E+02  0.17770000000E+01 0. -1.
</event>
<event>
 8    1  0.7045625E-009  0.5033914E+03  0.7546771E-02  0.9392253E-01
        -11   -1    0    0    0    0  0.00000000000E+00  0.00000000000E+00  0.50000000000E+03  0.50000000000E+03  0.00000000000E+00 0.  1.
         11   -1    0    0    0    0 -0.00000000000E+00 -0.00000000000E+00 -0.50000000000E+03  0.50000000000E+03  0.00000000000E+00 0. -1.
         25    2    1    2    0    0 -0.77557953207E+02  0.37396607893E+03 -0.30315281656E+03  0.50339139782E+03  0.12504161274E+03 0.  0.
         23    2    1    2    0    0  0.77557953207E+02 -0.37396607893E+03  0.30315281656E+03  0.49660860218E+03  0.94088305744E+02 0.  0.
        -11    1    4    4    0    0 -0.15013764050E+01 -0.21936662336E+03  0.15909259364E+03  0.27098786491E+03  0.00000000000E+00 0.  1.
         11    1    4    4    0    0  0.79059329612E+02 -0.15459945557E+03  0.14406022291E+03  0.22562073727E+03  0.00000000000E+00 0. -1.
        -15    1    3    3    0    0 -0.23238417769E+02  0.99245300684E-01 -0.25459955797E+02  0.34516676958E+02  0.17770000000E+01 0.  1.
         15    1    3    3    0    0 -0.54319535439E+02  0.37386683363E+03 -0.27769286076E+03  0.46887472086E+03  0.17770000000E+01 0.  1.
</event>
<event>
 8    1  0.7045625E-009  0.5036098E+03  0.7546771E-02  0.9391769E-01
        -11   -1    0    0    0    0  0.00000000000E+00  0.00000000000E+00  0.50000000000E+03  0.50000000000E+03  0.00000000000E+00 0.  1.
         11   -1    0    0    0    0 -0.00000000000E+00 -0.00000000000E+00 -0.50000000000E+03  0.50000000000E+03  0.00000000000E+00 0. -1.
         25    2    1    2    0    0 -0.40940329928E+03  0.48562556791E+02  0.26080633897E+03  0.50360981214E+03  0.12503404757E+03 0.  0.
         23    2    1    2    0    0  0.40940329928E+03 -0.48562556791E+02 -0.26080633897E+03  0.49639018786E+03  0.91727252102E+02 0.  0.
        -11    1    4    4    0    0  0.26387543569E+03 -0.35895840579E+02 -0.11525470391E+03  0.29017650440E+03  0.00000000000E+00 0. -1.
         11    1    4    4    0    0  0.14552786359E+03 -0.12666716213E+02 -0.14555163505E+03  0.20621368346E+03  0.00000000000E+00 0.  1.
        -15    1    3    3    0    0 -0.26335163619E+03 -0.27185179826E+02  0.18121190701E+03  0.32083333876E+03  0.17770000000E+01 0. -1.
         15    1    3    3    0    0 -0.14605166308E+03  0.75747736618E+02  0.79594431953E+02  0.18277647338E+03  0.17770000000E+01 0. -1.
</event>
<event>
 8    1  0.7045625E-009  0.5036752E+03  0.7546771E-02  0.9391624E-01
        -11   -1    0    0    0    0  0.00000000000E+00  0.00000000000E+00  0.50000000000E+03  0.50000000000E+03  0.00000000000E+00 0. -1.
         11   -1    0    0    0    0 -0.00000000000E+00 -0.00000000000E+00 -0.50000000000E+03  0.50000000000E+03  0.00000000000E+00 0.  1.
         25    2    1    2    0    0 -0.34991734460E+03 -0.22003998631E+03 -0.25925635016E+03  0.50367520415E+03  0.12496044396E+03 0.  0.
         23    2    1    2    0    0  0.34991734460E+03  0.22003998631E+03  0.25925635016E+03  0.49632479585E+03  0.90910418811E+02 0.  0.
        -11    1    4    4    0    0  0.20285805200E+03  0.10596635255E+03  0.93963884745E+02  0.24740547442E+03  0.00000000000E+00 0.  1.
         11    1    4    4    0    0  0.14705929259E+03  0.11407363376E+03  0.16529246542E+03  0.24891932143E+03  0.00000000000E+00 0. -1.
        -15    1    3    3    0    0 -0.86190584668E+02 -0.92209489255E+02 -0.13651212089E+03  0.18593042697E+03  0.17770000000E+01 0.  1.
         15    1    3    3    0    0 -0.26372675993E+03 -0.12783049705E+03 -0.12274422927E+03  0.31774477719E+03  0.17770000000E+01 0.  1.
</event>
<event>
 8    1  0.7045625E-009  0.5036300E+03  0.7546771E-02  0.9391724E-01
        -11   -1    0    0    0    0  0.00000000000E+00  0.00000000000E+00  0.50000000000E+03  0.50000000000E+03  0.00000000000E+00 0.  1.
         11   -1    0    0    0    0 -0.00000000000E+00 -0.00000000000E+00 -0.50000000000E+03  0.50000000000E+03  0.00000000000E+00 0. -1.
         25    2    1    2    0    0 -0.32517519913E+03  0.19199671245E+03 -0.30888165912E+03  0.50362996376E+03  0.12503444860E+03 0.  0.
         23    2    1    2    0    0  0.32517519913E+03 -0.19199671245E+03  0.30888165912E+03  0.49637003624E+03  0.91507845622E+02 0.  0.
        -11    1    4    4    0    0  0.16448842506E+03 -0.11610242056E+03  0.21807827218E+03  0.29680691845E+03  0.00000000000E+00 0. -1.
         11    1    4    4    0    0  0.16068677408E+03 -0.75894291881E+02  0.90803386938E+02  0.19956311779E+03  0.00000000000E+00 0.  1.
        -15    1    3    3    0    0 -0.21720164734E+03  0.14705688549E+03 -0.13756387285E+03  0.29619125581E+03  0.17770000000E+01 0.  1.
         15    1    3    3    0    0 -0.10797355179E+03  0.44939826953E+02 -0.17131778627E+03  0.20743870795E+03  0.17770000000E+01 0.  1.
</event>
<event>
 8    1  0.7045625E-009  0.5036587E+03  0.7546771E-02  0.9391660E-01
        -11   -1    0    0    0    0  0.00000000000E+00  0.00000000000E+00  0.50000000000E+03  0.50000000000E+03  0.00000000000E+00 0.  1.
         11   -1    0    0    0    0 -0.00000000000E+00 -0.00000000000E+00 -0.50000000000E+03  0.50000000000E+03  0.00000000000E+00 0. -1.
         25    2    1    2    0    0  0.41987207389E+03  0.21597529856E+03  0.12286734412E+03  0.50365865159E+03  0.12505104978E+03 0.  0.
         23    2    1    2    0    0 -0.41987207389E+03 -0.21597529856E+03 -0.12286734412E+03  0.49634134841E+03  0.91216565772E+02 0.  0.
        -11    1    4    4    0    0 -0.53779602454E+02 -0.10555692620E+02  0.10653793958E+02  0.55831636305E+02  0.00000000000E+00 0.  1.
         11    1    4    4    0    0 -0.36609247144E+03 -0.20541960594E+03 -0.13352113808E+03  0.44050971211E+03  0.00000000000E+00 0. -1.
        -15    1    3    3    0    0  0.10623827839E+02 -0.38601143742E+01 -0.15192338856E+02  0.19019229476E+02  0.17770000000E+01 0. -1.
         15    1    3    3    0    0  0.40924824605E+03  0.21983541293E+03  0.13805968298E+03  0.48463942211E+03  0.17770000000E+01 0. -1.
</event>
<event>
 7    1  0.7045625E-009  0.5037259E+03  0.7546771E-02  0.9391511E-01
        -11   -1    0    0    0    0  0.00000000000E+00  0.00000000000E+00  0.50000000000E+03  0.50000000000E+03  0.00000000000E+00 0.  1.
         11   -1    0    0    0    0 -0.00000000000E+00 -0.00000000000E+00 -0.50000000000E+03  0.50000000000E+03  0.00000000000E+00 0. -1.
         23    2    1    2    0    0 -0.42415071710E+02  0.31771704679E+03  0.36797579266E+03  0.49627405924E+03  0.90214177197E+02 0.  0.
        -11    1    3    3    0    0  0.18650759733E+02  0.18261605582E+03  0.22402346448E+03  0.28962559852E+03  0.00000000000E+00 0.  1.
         11    1    3    3    0    0 -0.61065831443E+02  0.13510099097E+03  0.14395232818E+03  0.20664846072E+03  0.00000000000E+00 0. -1.
        -15    1    1    2    0    0 -0.58769394710E+01  0.83693467566E+01 -0.29399322587E+02  0.31177913341E+02  0.17770000000E+01 0.  1.
         15    1    1    2    0    0  0.48292011181E+02 -0.32608639354E+03 -0.33857647007E+03  0.47254802742E+03  0.17770000000E+01 0. -1.
</event>
<event>
 8    1  0.7045625E-009  0.5037779E+03  0.7546771E-02  0.9391396E-01
        -11   -1    0    0    0    0  0.00000000000E+00  0.00000000000E+00  0.50000000000E+03  0.50000000000E+03  0.00000000000E+00 0.  1.
         11   -1    0    0    0    0 -0.00000000000E+00 -0.00000000000E+00 -0.50000000000E+03  0.50000000000E+03  0.00000000000E+00 0. -1.
         25    2    1    2    0    0  0.30347369803E+03 -0.32656176163E+03 -0.19853751394E+03  0.50377786448E+03  0.12504448306E+03 0.  0.
         23    2    1    2    0    0 -0.30347369803E+03  0.32656176163E+03  0.19853751394E+03  0.49622213552E+03  0.89891010609E+02 0.  0.
        -11    1    4    4    0    0 -0.14360413094E+03  0.16389225657E+03  0.14562502184E+03  0.26208675123E+03  0.00000000000E+00 0. -1.
         11    1    4    4    0    0 -0.15986956708E+03  0.16266950506E+03  0.52912492108E+02  0.23413538429E+03  0.00000000000E+00 0.  1.
        -15    1    3    3    0    0  0.21871956716E+03 -0.16060750437E+03 -0.79949113761E+02  0.28289227285E+03  0.17770000000E+01 0. -1.
         15    1    3    3    0    0  0.84754130864E+02 -0.16595425726E+03 -0.11858840018E+03  0.22088559163E+03  0.17770000000E+01 0. -1.
</event>
<event>
 8    1  0.7045625E-009  0.5038119E+03  0.7546771E-02  0.9391320E-01
        -11   -1    0    0    0    0  0.00000000000E+00  0.00000000000E+00  0.50000000000E+03  0.50000000000E+03  0.00000000000E+00 0. -1.
         11   -1    0    0    0    0 -0.00000000000E+00 -0.00000000000E+00 -0.50000000000E+03  0.50000000000E+03  0.00000000000E+00 0.  1.
         25    2    1    2    0    0 -0.42155034603E+03 -0.55268426995E+02 -0.23964813997E+03  0.50381189301E+03  0.12504358953E+03 0.  0.
         23    2    1    2    0    0  0.42155034603E+03  0.55268426995E+02  0.23964813997E+03  0.49618810699E+03  0.89510408735E+02 0.  0.
        -11    1    4    4    0    0  0.26949791991E+03  0.67275329077E+02  0.12114032439E+03  0.30303477842E+03  0.00000000000E+00 0.  1.
         11    1    4    4    0    0  0.15205242612E+03 -0.12006902082E+02  0.11850781558E+03  0.19315332857E+03  0.00000000000E+00 0. -1.
        -15    1    3    3    0    0 -0.40004063061E+03 -0.47378961060E+02 -0.25445551994E+03  0.47647459685E+03  0.17770000000E+01 0. -1.
         15    1    3    3    0    0 -0.21509715423E+02 -0.78894659354E+01  0.14807379972E+02  0.27337296153E+02  0.17770000000E+01 0. -1.
</event>
<event>
 8    1  0.7045625E-009  0.5036421E+03  0.7546771E-02  0.9391697E-01
        -11   -1    0    0    0    0  0.00000000000E+00  0.00000000000E+00  0.50000000000E+03  0.50000000000E+03  0.00000000000E+00 0. -1.
         11   -1    0    0    0    0 -0.00000000000E+00 -0.00000000000E+00 -0.50000000000E+03  0.50000000000E+03  0.00000000000E+00 0.  1.
         25    2    1    2    0    0 -0.33669810976E+03 -0.75940240828E+02  0.34479487763E+03  0.50364206814E+03  0.12505713841E+03 0.  0.
         23    2    1    2    0    0  0.33669810976E+03  0.75940240828E+02 -0.34479487763E+03  0.49635793186E+03  0.91406518275E+02 0.  0.
        -11    1    4    4    0    0  0.15403068543E+03  0.97983084732E+01 -0.10027155180E+03  0.18405391330E+03  0.00000000000E+00 0. -1.
         11    1    4    4    0    0  0.18266742433E+03  0.66141932355E+02 -0.24452332584E+03  0.31230401856E+03  0.00000000000E+00 0.  1.
        -15    1    3    3    0    0 -0.11554909992E+03 -0.56954584616E+02  0.20239706066E+03  0.23992321083E+03  0.17770000000E+01 0. -1.
         15    1    3    3    0    0 -0.22114900984E+03 -0.18985656212E+02  0.14239781697E+03  0.26371885731E+03  0.17770000000E+01 0. -1.
</event>
<event>
 8    1  0.8660069E-009  0.5036502E+03  0.7546771E-02  0.9391679E-01
        -11   -1    0    0    0    0  0.00000000000E+00  0.00000000000E+00  0.50000000000E+03  0.50000000000E+03  0.00000000000E+00 0.  1.
         11   -1    0    0    0    0 -0.00000000000E+00 -0.00000000000E+00 -0.50000000000E+03  0.50000000000E+03  0.00000000000E+00 0. -1.
         25    2    1    2    0    0  0.37812908904E+03  0.26888138553E+03 -0.15089303040E+03  0.50365019505E+03  0.12496401437E+03 0.  0.
         23    2    1    2    0    0 -0.37812908904E+03 -0.26888138553E+03  0.15089303040E+03  0.49634980495E+03  0.91189992783E+02 0.  0.
        -11    1    4    4    0    0 -0.24886959501E+03 -0.20137125813E+03  0.63598946193E+02  0.32639130638E+03  0.00000000000E+00 0. -1.
         11    1    4    4    0    0 -0.12925949404E+03 -0.67510127400E+02  0.87294084206E+02  0.16995849857E+03  0.00000000000E+00 0.  1.
        -15    1    3    3    0    0  0.10313051507E+03  0.14011806918E+03 -0.81669618733E+02  0.19220317583E+03  0.17770000000E+01 0. -1.
         15    1    3    3    0    0  0.27499857398E+03  0.12876331635E+03 -0.69223411666E+02  0.31144701922E+03  0.17770000000E+01 0. -1.
</event>
<event>
 8    1  0.7045625E-009  0.5029737E+03  0.7546771E-02  0.9393180E-01
        -11   -1    0    0    0    0  0.00000000000E+00  0.00000000000E+00  0.50000000000E+03  0.50000000000E+03  0.00000000000E+00 0. -1.
         11   -1    0    0    0    0 -0.00000000000E+00 -0.00000000000E+00 -0.50000000000E+03  0.50000000000E+03  0.00000000000E+00 0.  1.
         25    2    1    2    0    0  0.43710082156E+03 -0.20917180657E+03 -0.50605826043E+02  0.50297368261E+03  0.12494640012E+03 0.  0.
         23    2    1    2    0    0 -0.43710082156E+03  0.20917180657E+03  0.50605826043E+02  0.49702631739E+03  0.98306854670E+02 0.  0.
        -11    1    4    4    0    0 -0.78215920782E+02  0.72509193213E+02 -0.14117851257E+02  0.10758544087E+03  0.00000000000E+00 0. -1.
         11    1    4    4    0    0 -0.35888490078E+03  0.13666261335E+03  0.64723677300E+02  0.38944087651E+03  0.00000000000E+00 0.  1.
        -15    1    3    3    0    0  0.21549584380E+03 -0.57497290370E+02  0.23806526999E+02  0.22430850530E+03  0.17770000000E+01 0. -1.
         15    1    3    3    0    0  0.22160497776E+03 -0.15167451620E+03 -0.74412353042E+02  0.27866517731E+03  0.17770000000E+01 0. -1.
</event>
<event>
 8    1  0.7045625E-009  0.5039775E+03  0.7546771E-02  0.9390953E-01
        -11   -1    0    0    0    0  0.00000000000E+00  0.00000000000E+00  0.50000000000E+03  0.50000000000E+03  0.00000000000E+00 0. -1.
         11   -1    0    0    0    0 -0.00000000000E+00 -0.00000000000E+00 -0.50000000000E+03  0.50000000000E+03  0.00000000000E+00 0.  1.
         25    2    1    2    0    0  0.39792758742E+02 -0.11476425009E+03  0.47286966401E+03  0.50397749410E+03  0.12503319028E+03 0.  0.
         23    2    1    2    0    0 -0.39792758742E+02  0.11476425009E+03 -0.47286966401E+03  0.49602250590E+03  0.87625969126E+02 0.  0.
        -11    1    4    4    0    0  0.24937023716E+02  0.50184907162E+02 -0.13934004623E+03  0.15018664568E+03  0.00000000000E+00 0. -1.
         11    1    4    4    0    0 -0.64729782458E+02  0.64579342930E+02 -0.33352961778E+03  0.34583586021E+03  0.00000000000E+00 0.  1.
        -15    1    3    3    0    0 -0.10421908626E+02 -0.40825876780E+02  0.34722054327E+03  0.34977225703E+03  0.17770000000E+01 0. -1.
         15    1    3    3    0    0  0.50214667368E+02 -0.73938373312E+02  0.12564912074E+03  0.15420523707E+03  0.17770000000E+01 0.  1.
</event>
<event>
 8    1  0.7045625E-009  0.5035437E+03  0.7546771E-02  0.9391915E-01
        -11   -1    0    0    0    0  0.00000000000E+00  0.00000000000E+00  0.50000000000E+03  0.50000000000E+03  0.00000000000E+00 0.  1.
         11   -1    0    0    0    0 -0.00000000000E+00 -0.00000000000E+00 -0.50000000000E+03  0.50000000000E+03  0.00000000000E+00 0. -1.
         25    2    1    2    0    0  0.56512989516E+02  0.10141434246E+03  0.47377615294E+03  0.50354367263E+03  0.12495519319E+03 0.  0.
         23    2    1    2    0    0 -0.56512989516E+02 -0.10141434246E+03 -0.47377615294E+03  0.49645632737E+03  0.92338805756E+02 0.  0.
        -11    1    4    4    0    0  0.21360693136E+02 -0.12314492359E+01 -0.73255855834E+02  0.76316551891E+02  0.00000000000E+00 0.  1.
         11    1    4    4    0    0 -0.77873682652E+02 -0.10018289322E+03 -0.40052029711E+03  0.42013977548E+03  0.00000000000E+00 0. -1.
        -15    1    3    3    0    0  0.81560799506E+01  0.11834485607E+03  0.35042665297E+03  0.36996489487E+03  0.17770000000E+01 0.  1.
         15    1    3    3    0    0  0.48356909565E+02 -0.16930513608E+02  0.12334949997E+03  0.13357877776E+03  0.17770000000E+01 0. -1.
</event>
<event>
 7    1  0.7045625E-009  0.5037859E+03  0.7546771E-02  0.9391378E-01
        -11   -1    0    0    0    0  0.00000000000E+00  0.00000000000E+00  0.50000000000E+03  0.50000000000E+03  0.00000000000E+00 0.  1.
         11   -1    0    0    0    0 -0.00000000000E+00 -0.00000000000E+00 -0.50000000000E+03  0.50000000000E+03  0.00000000000E+00 0. -1.
         23    2    1    2    0    0  0.23114001520E+03 -0.18704901573E+03  0.38704692067E+03  0.49621406270E+03  0.89498806178E+02 0.  0.
        -11    1    3    3    0    0  0.39228686637E+02 -0.27147255618E+02  0.12682590285E+03  0.13550156079E+03  0.00000000000E+00 0. -1.
         11    1    3    3    0    0  0.19191132856E+03 -0.15990176012E+03  0.26022101782E+03  0.36071250191E+03  0.00000000000E+00 0.  1.
        -15    1    1    2    0    0  0.85078518300E+01 -0.87686474642E+01 -0.21807401821E+02  0.25059792982E+02  0.17770000000E+01 0.  1.
         15    1    1    2    0    0 -0.23964786703E+03  0.19581766320E+03 -0.36523951885E+03  0.47872614432E+03  0.17770000000E+01 0. -1.
</event>
<event>
 8    1  0.7045625E-009  0.5036641E+03  0.7546771E-02  0.9391648E-01
        -11   -1    0    0    0    0  0.00000000000E+00  0.00000000000E+00  0.50000000000E+03  0.50000000000E+03  0.00000000000E+00 0. -1.
         11   -1    0    0    0    0 -0.00000000000E+00 -0.00000000000E+00 -0.50000000000E+03  0.50000000000E+03  0.00000000000E+00 0.  1.
         25    2    1    2    0    0 -0.43259612075E+03 -0.91885267702E+02 -0.20604657630E+03  0.50366410655E+03  0.12506012360E+03 0.  0.
         23    2    1    2    0    0  0.43259612075E+03  0.91885267702E+02  0.20604657630E+03  0.49633589345E+03  0.91169191130E+02 0.  0.
        -11    1    4    4    0    0  0.18984354984E+03 -0.56404449869E+01  0.88172815654E+02  0.20939635493E+03  0.00000000000E+00 0.  1.
         11    1    4    4    0    0  0.24275257091E+03  0.97525712689E+02  0.11787376064E+03  0.28693953852E+03  0.00000000000E+00 0. -1.
        -15    1    3    3    0    0 -0.30758117686E+03 -0.48382207126E+02 -0.81390043802E+02  0.32182994777E+03  0.17770000000E+01 0. -1.
         15    1    3    3    0    0 -0.12501494389E+03 -0.43503060575E+02 -0.12465653250E+03  0.18183415878E+03  0.17770000000E+01 0. -1.
</event>
<event>
 8    1  0.7045625E-009  0.5033743E+03  0.7546771E-02  0.9392291E-01
        -11   -1    0    0    0    0  0.00000000000E+00  0.00000000000E+00  0.50000000000E+03  0.50000000000E+03  0.00000000000E+00 0. -1.
         11   -1    0    0    0    0 -0.00000000000E+00 -0.00000000000E+00 -0.50000000000E+03  0.50000000000E+03  0.00000000000E+00 0.  1.
         25    2    1    2    0    0 -0.44294085940E+03  0.19535556487E+03  0.58382488762E+02  0.50337430985E+03  0.12496711237E+03 0.  0.
         23    2    1    2    0    0  0.44294085940E+03 -0.19535556487E+03 -0.58382488762E+02  0.49662569015E+03  0.94170905630E+02 0.  0.
        -11    1    4    4    0    0  0.36837682066E+03 -0.18906655639E+03 -0.72819737822E+02  0.42041688711E+03  0.00000000000E+00 0.  1.
         11    1    4    4    0    0  0.74564038736E+02 -0.62890084797E+01  0.14437249061E+02  0.76208803040E+02  0.00000000000E+00 0. -1.
        -15    1    3    3    0    0 -0.22567508159E+03  0.33571783911E+02  0.41918684701E+02  0.23198413950E+03  0.17770000000E+01 0.  1.
         15    1    3    3    0    0 -0.21726577781E+03  0.16178378096E+03  0.16463804060E+02  0.27139017035E+03  0.17770000000E+01 0.  1.
</event>
<event>
 8    1  0.7045625E-009  0.5038392E+03  0.7546771E-02  0.9391260E-01
        -11   -1    0    0    0    0  0.00000000000E+00  0.00000000000E+00  0.50000000000E+03  0.50000000000E+03  0.00000000000E+00 0.  1.
         11   -1    0    0    0    0 -0.00000000000E+00 -0.00000000000E+00 -0.50000000000E+03  0.50000000000E+03  0.00000000000E+00 0. -1.
         25    2    1    2    0    0 -0.42808569626E+03  0.44112869159E+02  0.23022942748E+03  0.50383919957E+03  0.12508013903E+03 0.  0.
         23    2    1    2    0    0  0.42808569626E+03 -0.44112869159E+02 -0.23022942748E+03  0.49616080043E+03  0.89256047657E+02 0.  0.
        -11    1    4    4    0    0  0.31503368893E+03 -0.49735038307E+02 -0.12808195900E+03  0.34369286786E+03  0.00000000000E+00 0.  1.
         11    1    4    4    0    0  0.11305200733E+03  0.56221691474E+01 -0.10214746848E+03  0.15246793258E+03  0.00000000000E+00 0. -1.
        -15    1    3    3    0    0  0.67949923924E+01 -0.36024295569E+00  0.15018670785E+02  0.16583723881E+02  0.17770000000E+01 0.  1.
         15    1    3    3    0    0 -0.43488068865E+03  0.44473112115E+02  0.21521075670E+03  0.48725547569E+03  0.17770000000E+01 0.  1.
</event>
<event>
 8    1  0.7045625E-009  0.5038686E+03  0.7546771E-02  0.9391195E-01
        -11   -1    0    0    0    0  0.00000000000E+00  0.00000000000E+00  0.50000000000E+03  0.50000000000E+03  0.00000000000E+00 0. -1.
         11   -1    0    0    0    0 -0.00000000000E+00 -0.00000000000E+00 -0.50000000000E+03  0.50000000000E+03  0.00000000000E+00 0.  1.
         25    2    1    2    0    0  0.53341896851E+02 -0.39944374813E+03 -0.27544036249E+03  0.50386855845E+03  0.12496185430E+03 0.  0.
         23    2    1    2    0    0 -0.53341896851E+02  0.39944374813E+03  0.27544036249E+03  0.49613144155E+03  0.88760059261E+02 0.  0.
        -11    1    4    4    0    0 -0.58817210197E+02  0.12688600831E+03  0.10038210249E+03  0.17215135730E+03  0.00000000000E+00 0.  1.
         11    1    4    4    0    0  0.54753133460E+01  0.27255773982E+03  0.17505826000E+03  0.32398008425E+03  0.00000000000E+00 0. -1.
        -15    1    3    3    0    0  0.25377521724E+02 -0.46058563001E+01 -0.21066715537E+02  0.33349613995E+02  0.17770000000E+01 0. -1.
         15    1    3    3    0    0  0.27964375127E+02 -0.39483789183E+03 -0.25437364696E+03  0.47051894446E+03  0.17770000000E+01 0. -1.
</event>
<event>
 8    1  0.7045625E-009  0.5032927E+03  0.7546771E-02  0.9392472E-01
        -11   -1    0    0    0    0  0.00000000000E+00  0.00000000000E+00  0.50000000000E+03  0.50000000000E+03  0.00000000000E+00 0. -1.
         11   -1    0    0    0    0 -0.00000000000E+00 -0.00000000000E+00 -0.50000000000E+03  0.50000000000E+03  0.00000000000E+00 0.  1.
         25    2    1    2    0    0  0.41451446353E+03 -0.18492512206E+03  0.17789791715E+03  0.50329269998E+03  0.12504531851E+03 0.  0.
         23    2    1    2    0    0 -0.41451446353E+03  0.18492512206E+03 -0.17789791715E+03  0.49670730002E+03  0.95136384871E+02 0.  0.
        -11    1    4    4    0    0 -0.15494239134E+03  0.11000737023E+03 -0.10397491980E+03  0.21660921053E+03  0.00000000000E+00 0.  1.
         11    1    4    4    0    0 -0.25957207219E+03  0.74917751829E+02 -0.73922997346E+02  0.28009808949E+03  0.00000000000E+00 0. -1.
        -15    1    3    3    0    0  0.42272049382E+03 -0.18182325088E+03  0.16782386217E+03  0.48981661558E+03  0.17770000000E+01 0.  1.
         15    1    3    3    0    0 -0.82060302926E+01 -0.31018711841E+01  0.10074054974E+02  0.13476084395E+02  0.17770000000E+01 0.  1.
</event>
<event>
 8    1  0.7045625E-009  0.5034317E+03  0.7546771E-02  0.9392164E-01
        -11   -1    0    0    0    0  0.00000000000E+00  0.00000000000E+00  0.50000000000E+03  0.50000000000E+03  0.00000000000E+00 0. -1.
         11   -1    0    0    0    0 -0.00000000000E+00 -0.00000000000E+00 -0.50000000000E+03  0.50000000000E+03  0.00000000000E+00 0.  1.
         25    2    1    2    0    0  0.20347833776E+03 -0.40683416235E+03 -0.17581477506E+03  0.50343173728E+03  0.12496083135E+03 0.  0.
         23    2    1    2    0    0 -0.20347833776E+03  0.40683416235E+03  0.17581477506E+03  0.49656826272E+03  0.93550707224E+02 0.  0.
        -11    1    4    4    0    0 -0.12429503877E+03  0.26336881041E+03  0.15910028842E+03  0.33185130516E+03  0.00000000000E+00 0.  1.
         11    1    4    4    0    0 -0.79183298996E+02  0.14346535194E+03  0.16714486643E+02  0.16471695757E+03  0.00000000000E+00 0. -1.
        -15    1    3    3    0    0 -0.50675291415E+01 -0.92879957807E+02 -0.17721754397E+02  0.94707891549E+02  0.17770000000E+01 0. -1.
         15    1    3    3    0    0  0.20854586691E+03 -0.31395420454E+03 -0.15809302067E+03  0.40872384573E+03  0.17770000000E+01 0. -1.
</event>
<event>
 8    1  0.7045625E-009  0.5041117E+03  0.7546771E-02  0.9390656E-01
        -11   -1    0    0    0    0  0.00000000000E+00  0.00000000000E+00  0.50000000000E+03  0.50000000000E+03  0.00000000000E+00 0. -1.
         11   -1    0    0    0    0 -0.00000000000E+00 -0.00000000000E+00 -0.50000000000E+03  0.50000000000E+03  0.00000000000E+00 0.  1.
         25    2    1    2    0    0 -0.40417874700E+03 -0.12509125132E+03 -0.24389423682E+03  0.50411170578E+03  0.12504372223E+03 0.  0.
         23    2    1    2    0    0  0.40417874700E+03  0.12509125132E+03  0.24389423682E+03  0.49588829422E+03  0.86095998216E+02 0.  0.
        -11    1    4    4    0    0  0.97017206300E+02  0.70165311041E+02  0.67636274456E+02  0.13751427131E+03  0.00000000000E+00 0. -1.
         11    1    4    4    0    0  0.30716154070E+03  0.54925940276E+02  0.17625796236E+03  0.35837402291E+03  0.00000000000E+00 0.  1.
        -15    1    3    3    0    0 -0.21367062885E+03 -0.26961050375E+01 -0.13576704106E+03  0.25317632942E+03  0.17770000000E+01 0. -1.
         15    1    3    3    0    0 -0.19050811815E+03 -0.12239514628E+03 -0.10812719576E+03  0.25093537636E+03  0.17770000000E+01 0. -1.
</event>
<event>
 8    1  0.7045625E-009  0.5036675E+03  0.7546771E-02  0.9391641E-01
        -11   -1    0    0    0    0  0.00000000000E+00  0.00000000000E+00  0.50000000000E+03  0.50000000000E+03  0.00000000000E+00 0. -1.
         11   -1    0    0    0    0 -0.00000000000E+00 -0.00000000000E+00 -0.50000000000E+03  0.50000000000E+03  0.00000000000E+00 0.  1.
         25    2    1    2    0    0  0.12621226613E+02  0.54570184870E+02 -0.48469539261E+03  0.50366753801E+03  0.12495665164E+03 0.  0.
         23    2    1    2    0    0 -0.12621226613E+02 -0.54570184870E+02  0.48469539261E+03  0.49633246199E+03  0.90989498099E+02 0.  0.
        -11    1    4    4    0    0  0.15631253497E+02  0.19524719186E+02  0.16844494664E+03  0.17029166390E+03  0.00000000000E+00 0.  1.
         11    1    4    4    0    0 -0.28252480110E+02 -0.74094904057E+02  0.31625044597E+03  0.32604079808E+03  0.00000000000E+00 0. -1.
        -15    1    3    3    0    0  0.46601380709E+02  0.18183911049E+02 -0.70361675962E+02  0.86349675611E+02  0.17770000000E+01 0. -1.
         15    1    3    3    0    0 -0.33980154096E+02  0.36386273821E+02 -0.41433371665E+03  0.41731786240E+03  0.17770000000E+01 0.  1.
</event>
<event>
 8    1  0.7045625E-009  0.5037272E+03  0.7546771E-02  0.9391508E-01
        -11   -1    0    0    0    0  0.00000000000E+00  0.00000000000E+00  0.50000000000E+03  0.50000000000E+03  0.00000000000E+00 0.  1.
         11   -1    0    0    0    0 -0.00000000000E+00 -0.00000000000E+00 -0.50000000000E+03  0.50000000000E+03  0.00000000000E+00 0. -1.
         25    2    1    2    0    0 -0.25156703982E+03  0.28318979037E+03  0.30760530486E+03  0.50372715089E+03  0.12505033414E+03 0.  0.
         23    2    1    2    0    0  0.25156703982E+03 -0.28318979037E+03 -0.30760530486E+03  0.49627284911E+03  0.90461507271E+02 0.  0.
        -11    1    4    4    0    0  0.11734355566E+03 -0.15193637576E+03 -0.21057021782E+03  0.28494558948E+03  0.00000000000E+00 0.  1.
         11    1    4    4    0    0  0.13422348415E+03 -0.13125341461E+03 -0.97035087042E+02  0.21132725963E+03  0.00000000000E+00 0. -1.
        -15    1    3    3    0    0 -0.19334285535E+03  0.14445001764E+03  0.23420453529E+03  0.33630668948E+03  0.17770000000E+01 0.  1.
         15    1    3    3    0    0 -0.58224184464E+02  0.13873977273E+03  0.73400769576E+02  0.16742046140E+03  0.17770000000E+01 0.  1.
</event>
<event>
 8    1  0.7045625E-009  0.5037131E+03  0.7546771E-02  0.9391539E-01
        -11   -1    0    0    0    0  0.00000000000E+00  0.00000000000E+00  0.50000000000E+03  0.50000000000E+03  0.00000000000E+00 0. -1.
         11   -1    0    0    0    0 -0.00000000000E+00 -0.00000000000E+00 -0.50000000000E+03  0.50000000000E+03  0.00000000000E+00 0.  1.
         25    2    1    2    0    0 -0.34905096669E+03 -0.28779918701E+03  0.18283510901E+03  0.50371310097E+03  0.12503304209E+03 0.  0.
         23    2    1    2    0    0  0.34905096669E+03  0.28779918701E+03 -0.18283510901E+03  0.49628689903E+03  0.90592823520E+02 0.  0.
        -11    1    4    4    0    0  0.29161577449E+03  0.26984021816E+03 -0.17961919922E+03  0.43602357735E+03  0.00000000000E+00 0. -1.
         11    1    4    4    0    0  0.57435192198E+02  0.17958968843E+02 -0.32159097861E+01  0.60263321685E+02  0.00000000000E+00 0.  1.
        -15    1    3    3    0    0 -0.10204445057E+03 -0.27016286875E+02  0.12948530399E+02  0.10636621558E+03  0.17770000000E+01 0. -1.
         15    1    3    3    0    0 -0.24700651612E+03 -0.26078290013E+03  0.16988657861E+03  0.39734688539E+03  0.17770000000E+01 0. -1.
</event>
<event>
 8    1  0.7045625E-009  0.5035790E+03  0.7546771E-02  0.9391837E-01
        -11   -1    0    0    0    0  0.00000000000E+00  0.00000000000E+00  0.50000000000E+03  0.50000000000E+03  0.00000000000E+00 0.  1.
         11   -1    0    0    0    0 -0.00000000000E+00 -0.00000000000E+00 -0.50000000000E+03  0.50000000000E+03  0.00000000000E+00 0. -1.
         25    2    1    2    0    0 -0.11855969862E+03 -0.47317060183E+03  0.53338997133E+01  0.50357898151E+03  0.12496607362E+03 0.  0.
         23    2    1    2    0    0  0.11855969862E+03  0.47317060183E+03 -0.53338997133E+01  0.49642101849E+03  0.91970411253E+02 0.  0.
        -11    1    4    4    0    0  0.20371807079E+02  0.82550393227E+02  0.34341078539E+02  0.91699987027E+02  0.00000000000E+00 0. -1.
         11    1    4    4    0    0  0.98187891540E+02  0.39062020860E+03 -0.39674978252E+02  0.40472103147E+03  0.00000000000E+00 0.  1.
        -15    1    3    3    0    0 -0.62682044497E+02 -0.41594661759E+03  0.24345082373E+02  0.42135076617E+03  0.17770000000E+01 0.  1.
         15    1    3    3    0    0 -0.55877654122E+02 -0.57223984240E+02 -0.19011182660E+02  0.82228215337E+02  0.17770000000E+01 0.  1.
</event>
<event>
 8    1  0.7045625E-009  0.5038018E+03  0.7546771E-02  0.9391343E-01
        -11   -1    0    0    0    0  0.00000000000E+00  0.00000000000E+00  0.50000000000E+03  0.50000000000E+03  0.00000000000E+00 0.  1.
         11   -1    0    0    0    0 -0.00000000000E+00 -0.00000000000E+00 -0.50000000000E+03  0.50000000000E+03  0.00000000000E+00 0. -1.
         25    2    1    2    0    0 -0.12398981337E+02 -0.41282884248E+03  0.26003556903E+03  0.50380176207E+03  0.12496531670E+03 0.  0.
         23    2    1    2    0    0  0.12398981337E+02  0.41282884248E+03 -0.26003556903E+03  0.49619823793E+03  0.89514279546E+02 0.  0.
        -11    1    4    4    0    0 -0.27413762083E+02  0.46431451138E+02 -0.29143826197E+02  0.61292386246E+02  0.00000000000E+00 0. -1.
         11    1    4    4    0    0  0.39812743419E+02  0.36639739134E+03 -0.23089174284E+03  0.43490585169E+03  0.00000000000E+00 0.  1.
        -15    1    3    3    0    0 -0.38303463999E+02 -0.42653357737E+02  0.56739807323E+02  0.80678545752E+02  0.17770000000E+01 0.  1.
         15    1    3    3    0    0  0.25904482662E+02 -0.37017548474E+03  0.20329576171E+03  0.42312321632E+03  0.17770000000E+01 0.  1.
</event>
<event>
 8    1  0.7045625E-009  0.5035865E+03  0.7546771E-02  0.9391820E-01
        -11   -1    0    0    0    0  0.00000000000E+00  0.00000000000E+00  0.50000000000E+03  0.50000000000E+03  0.00000000000E+00 0.  1.
         11   -1    0    0    0    0 -0.00000000000E+00 -0.00000000000E+00 -0.50000000000E+03  0.50000000000E+03  0.00000000000E+00 0. -1.
         25    2    1    2    0    0  0.29601443792E+03  0.21916302723E+02 -0.38710012876E+03  0.50358646631E+03  0.12509175666E+03 0.  0.
         23    2    1    2    0    0 -0.29601443792E+03 -0.21916302723E+02  0.38710012876E+03  0.49641353369E+03  0.92059844481E+02 0.  0.
        -11    1    4    4    0    0 -0.30711818124E+00 -0.14318051704E+02  0.25389458711E+02  0.29150052141E+02  0.00000000000E+00 0.  1.
         11    1    4    4    0    0 -0.29570731973E+03 -0.75982510192E+01  0.36171067005E+03  0.46726348155E+03  0.00000000000E+00 0. -1.
        -15    1    3    3    0    0  0.32878465625E+02 -0.12184261883E+02 -0.12798426710E+03  0.13271239615E+03  0.17770000000E+01 0. -1.
         15    1    3    3    0    0  0.26313597229E+03  0.34100564606E+02 -0.25911586166E+03  0.37087407016E+03  0.17770000000E+01 0. -1.
</event>
<event>
 8    1  0.7045625E-009  0.5038861E+03  0.7546771E-02  0.9391156E-01
        -11   -1    0    0    0    0  0.00000000000E+00  0.00000000000E+00  0.50000000000E+03  0.50000000000E+03  0.00000000000E+00 0.  1.
         11   -1    0    0    0    0 -0.00000000000E+00 -0.00000000000E+00 -0.50000000000E+03  0.50000000000E+03  0.00000000000E+00 0. -1.
         25    2    1    2    0    0  0.40648414485E+03  0.17314274869E+03  0.20750937689E+03  0.50388610734E+03  0.12503318051E+03 0.  0.
         23    2    1    2    0    0 -0.40648414485E+03 -0.17314274869E+03 -0.20750937689E+03  0.49611389266E+03  0.88662740488E+02 0.  0.
        -11    1    4    4    0    0 -0.24747118605E+03 -0.81498728642E+02 -0.16276320488E+03  0.30720659427E+03  0.00000000000E+00 0. -1.
         11    1    4    4    0    0 -0.15901295880E+03 -0.91644020047E+02 -0.44746172009E+02  0.18890729839E+03  0.00000000000E+00 0.  1.
        -15    1    3    3    0    0  0.27775689631E+03  0.11379991110E+03  0.20240425440E+03  0.36203584510E+03  0.17770000000E+01 0. -1.
         15    1    3    3    0    0  0.12872724855E+03  0.59342837590E+02  0.51051224969E+01  0.14185026224E+03  0.17770000000E+01 0. -1.
</event>
<event>
 8    1  0.7045625E-009  0.5032330E+03  0.7546771E-02  0.9392605E-01
        -11   -1    0    0    0    0  0.00000000000E+00  0.00000000000E+00  0.50000000000E+03  0.50000000000E+03  0.00000000000E+00 0. -1.
         11   -1    0    0    0    0 -0.00000000000E+00 -0.00000000000E+00 -0.50000000000E+03  0.50000000000E+03  0.00000000000E+00 0.  1.
         25    2    1    2    0    0 -0.46269495881E+03 -0.56376794766E+02  0.14269722568E+03  0.50323297461E+03  0.12496383726E+03 0.  0.
         23    2    1    2    0    0  0.46269495881E+03  0.56376794766E+02 -0.14269722568E+03  0.49676702539E+03  0.95655691961E+02 0.  0.
        -11    1    4    4    0    0  0.14517567157E+03  0.47837789577E+02 -0.12098739338E+02  0.15333234890E+03  0.00000000000E+00 0.  1.
         11    1    4    4    0    0  0.31751928724E+03  0.85390051885E+01 -0.13059848634E+03  0.34343467649E+03  0.00000000000E+00 0. -1.
        -15    1    3    3    0    0 -0.11207607838E+03  0.32131485684E+02  0.64492286814E+02  0.13325123829E+03  0.17770000000E+01 0.  1.
         15    1    3    3    0    0 -0.35061888043E+03 -0.88508280450E+02  0.78204938864E+02  0.36998173632E+03  0.17770000000E+01 0.  1.
</event>
<event>
 8    1  0.7045625E-009  0.5039632E+03  0.7546771E-02  0.9390985E-01
        -11   -1    0    0    0    0  0.00000000000E+00  0.00000000000E+00  0.50000000000E+03  0.50000000000E+03  0.00000000000E+00 0.  1.
         11   -1    0    0    0    0 -0.00000000000E+00 -0.00000000000E+00 -0.50000000000E+03  0.50000000000E+03  0.00000000000E+00 0. -1.
         25    2    1    2    0    0 -0.34958539921E+03  0.19246012307E+03  0.28126881245E+03  0.50396319773E+03  0.12496363270E+03 0.  0.
         23    2    1    2    0    0  0.34958539921E+03 -0.19246012307E+03 -0.28126881245E+03  0.49603680227E+03  0.87689874213E+02 0.  0.
        -11    1    4    4    0    0  0.58050436199E+02 -0.47214955847E+02 -0.94630601119E+02  0.12064019175E+03  0.00000000000E+00 0.  1.
         11    1    4    4    0    0  0.29153496301E+03 -0.14524516722E+03 -0.18663821133E+03  0.37539661052E+03  0.00000000000E+00 0. -1.
        -15    1    3    3    0    0 -0.30937115855E+03  0.19776463838E+03  0.21288490281E+03  0.42443433592E+03  0.17770000000E+01 0. -1.
         15    1    3    3    0    0 -0.40214240659E+02 -0.53045153079E+01  0.68383909636E+02  0.79528861809E+02  0.17770000000E+01 0. -1.
</event>
<event>
 8    1  0.7045625E-009  0.5039142E+03  0.7546771E-02  0.9391094E-01
        -11   -1    0    0    0    0  0.00000000000E+00  0.00000000000E+00  0.50000000000E+03  0.50000000000E+03  0.00000000000E+00 0. -1.
         11   -1    0    0    0    0 -0.00000000000E+00 -0.00000000000E+00 -0.50000000000E+03  0.50000000000E+03  0.00000000000E+00 0.  1.
         25    2    1    2    0    0 -0.41296114023E+03 -0.77979984850E+02  0.24838449757E+03  0.50391422527E+03  0.12496762148E+03 0.  0.
         23    2    1    2    0    0  0.41296114023E+03  0.77979984850E+02 -0.24838449757E+03  0.49608577473E+03  0.88252228711E+02 0.  0.
        -11    1    4    4    0    0  0.97561251822E+02  0.29973318875E+02 -0.20700915936E+02  0.10413993289E+03  0.00000000000E+00 0. -1.
         11    1    4    4    0    0  0.31539988841E+03  0.48006665975E+02 -0.22768358164E+03  0.39194584184E+03  0.00000000000E+00 0.  1.
        -15    1    3    3    0    0 -0.90760296763E+02  0.25411525484E+02  0.22054937226E+02  0.96812990249E+02  0.17770000000E+01 0. -1.
         15    1    3    3    0    0 -0.32220084347E+03 -0.10339151033E+03  0.22632956035E+03  0.40710123502E+03  0.17770000000E+01 0. -1.
</event>
<event>
 8    1  0.7045625E-009  0.5038328E+03  0.7546771E-02  0.9391274E-01
        -11   -1    0    0    0    0  0.00000000000E+00  0.00000000000E+00  0.50000000000E+03  0.50000000000E+03  0.00000000000E+00 0.  1.
         11   -1    0    0    0    0 -0.00000000000E+00 -0.00000000000E+00 -0.50000000000E+03  0.50000000000E+03  0.00000000000E+00 0. -1.
         25    2    1    2    0    0  0.30933189245E+03  0.18994613896E+03  0.32625971186E+03  0.50383279584E+03  0.12504531653E+03 0.  0.
         23    2    1    2    0    0 -0.30933189245E+03 -0.18994613896E+03 -0.32625971186E+03  0.49616720416E+03  0.89278998150E+02 0.  0.
        -11    1    4    4    0    0 -0.24050649625E+03 -0.13847028414E+03 -0.19464199264E+03  0.33897330223E+03  0.00000000000E+00 0.  1.
         11    1    4    4    0    0 -0.68825396202E+02 -0.51475854825E+02 -0.13161771922E+03  0.15719390193E+03  0.00000000000E+00 0. -1.
        -15    1    3    3    0    0  0.31110884156E+03  0.20235751216E+03  0.31776017074E+03  0.48858157749E+03  0.17770000000E+01 0.  1.
         15    1    3    3    0    0 -0.17769491153E+01 -0.12411373198E+02  0.84995411237E+01  0.15251218349E+02  0.17770000000E+01 0.  1.
</event>
<event>
 8    1  0.7045625E-009  0.5039345E+03  0.7546771E-02  0.9391049E-01
        -11   -1    0    0    0    0  0.00000000000E+00  0.00000000000E+00  0.50000000000E+03  0.50000000000E+03  0.00000000000E+00 0.  1.
         11   -1    0    0    0    0 -0.00000000000E+00 -0.00000000000E+00 -0.50000000000E+03  0.50000000000E+03  0.00000000000E+00 0. -1.
         25    2    1    2    0    0  0.28408760527E+03  0.39478831981E+03  0.42095248345E+02  0.50393449803E+03  0.12495752656E+03 0.  0.
         23    2    1    2    0    0 -0.28408760527E+03 -0.39478831981E+03 -0.42095248345E+02  0.49606550197E+03  0.88007882557E+02 0.  0.
        -11    1    4    4    0    0 -0.44815779968E+02 -0.12575573933E+03 -0.23412733984E+02  0.13554009083E+03  0.00000000000E+00 0.  1.
         11    1    4    4    0    0 -0.23927182530E+03 -0.26903258048E+03 -0.18682514361E+02  0.36052541115E+03  0.00000000000E+00 0. -1.
        -15    1    3    3    0    0  0.12565711335E+03  0.17701336136E+03  0.81244034957E+02  0.23179126640E+03  0.17770000000E+01 0.  1.
         15    1    3    3    0    0  0.15843049192E+03  0.21777495844E+03 -0.39148786612E+02  0.27214323162E+03  0.17770000000E+01 0.  1.
</event>
<event>
 8    1  0.7045625E-009  0.5035397E+03  0.7546771E-02  0.9391924E-01
        -11   -1    0    0    0    0  0.00000000000E+00  0.00000000000E+00  0.50000000000E+03  0.50000000000E+03  0.00000000000E+00 0. -1.
         11   -1    0    0    0    0 -0.00000000000E+00 -0.00000000000E+00 -0.50000000000E+03  0.50000000000E+03  0.00000000000E+00 0.  1.
         25    2    1    2    0    0  0.38350835487E+03 -0.66672135352E+02  0.29396998492E+03  0.50353971847E+03  0.12494024235E+03 0.  0.
         23    2    1    2    0    0 -0.38350835487E+03  0.66672135352E+02 -0.29396998492E+03  0.49646028153E+03  0.92361394624E+02 0.  0.
        -11    1    4    4    0    0 -0.15120437022E+03  0.53219916920E+02 -0.75138218222E+02  0.17703353628E+03  0.00000000000E+00 0. -1.
         11    1    4    4    0    0 -0.23230398465E+03  0.13452218432E+02 -0.21883176670E+03  0.31942674525E+03  0.00000000000E+00 0.  1.
        -15    1    3    3    0    0  0.31915622199E+03 -0.69026722892E+02  0.18062550597E+03  0.37316767498E+03  0.17770000000E+01 0.  1.
         15    1    3    3    0    0  0.64352132874E+02  0.23545875394E+01  0.11334447895E+03  0.13037204349E+03  0.17770000000E+01 0.  1.
</event>
<event>
 8    1  0.7045625E-009  0.5025948E+03  0.7546771E-02  0.9394022E-01
        -11   -1    0    0    0    0  0.00000000000E+00  0.00000000000E+00  0.50000000000E+03  0.50000000000E+03  0.00000000000E+00 0.  1.
         11   -1    0    0    0    0 -0.00000000000E+00 -0.00000000000E+00 -0.50000000000E+03  0.50000000000E+03  0.00000000000E+00 0. -1.
         25    2    1    2    0    0 -0.41547914833E+03  0.25276639682E+03 -0.21273205719E+02  0.50259475667E+03  0.12504065776E+03 0.  0.
         23    2    1    2    0    0  0.41547914833E+03 -0.25276639682E+03  0.21273205719E+02  0.49740524333E+03  0.10220397619E+03 0.  0.
        -11    1    4    4    0    0  0.10839907446E+03 -0.76302032185E+02 -0.38916389791E+02  0.13815514777E+03  0.00000000000E+00 0. -1.
         11    1    4    4    0    0  0.30708007386E+03 -0.17646436464E+03  0.60189595510E+02  0.35925009556E+03  0.00000000000E+00 0.  1.
        -15    1    3    3    0    0 -0.39158013768E+03  0.22408310810E+03 -0.52073911654E+02  0.45416196843E+03  0.17770000000E+01 0.  1.
         15    1    3    3    0    0 -0.23899010645E+02  0.28683288725E+02  0.30800705935E+02  0.48432788243E+02  0.17770000000E+01 0.  1.
</event>
<event>
 8    1  0.7045625E-009  0.5035300E+03  0.7546771E-02  0.9391946E-01
        -11   -1    0    0    0    0  0.00000000000E+00  0.00000000000E+00  0.50000000000E+03  0.50000000000E+03  0.00000000000E+00 0.  1.
         11   -1    0    0    0    0 -0.00000000000E+00 -0.00000000000E+00 -0.50000000000E+03  0.50000000000E+03  0.00000000000E+00 0. -1.
         25    2    1    2    0    0 -0.41871984799E+03  0.85609041934E+02 -0.23503523589E+03  0.50353000133E+03  0.12508269654E+03 0.  0.
         23    2    1    2    0    0  0.41871984799E+03 -0.85609041934E+02  0.23503523589E+03  0.49646999867E+03  0.92658935386E+02 0.  0.
        -11    1    4    4    0    0  0.24312777260E+03 -0.27308281643E+02  0.17902095739E+03  0.30315896694E+03  0.00000000000E+00 0.  1.
         11    1    4    4    0    0  0.17559207539E+03 -0.58300760291E+02  0.56014278508E+02  0.19331103172E+03  0.00000000000E+00 0. -1.
        -15    1    3    3    0    0 -0.81317398043E+02 -0.22388271989E+02 -0.81907637522E+02  0.11758304623E+03  0.17770000000E+01 0.  1.
         15    1    3    3    0    0 -0.33740244994E+03  0.10799731392E+03 -0.15312759837E+03  0.38594695510E+03  0.17770000000E+01 0.  1.
</event>
<event>
 8    1  0.7045625E-009  0.5036165E+03  0.7546771E-02  0.9391754E-01
        -11   -1    0    0    0    0  0.00000000000E+00  0.00000000000E+00  0.50000000000E+03  0.50000000000E+03  0.00000000000E+00 0.  1.
         11   -1    0    0    0    0 -0.00000000000E+00 -0.00000000000E+00 -0.50000000000E+03  0.50000000000E+03  0.00000000000E+00 0. -1.
         25    2    1    2    0    0 -0.38849346533E+03 -0.26423796484E+02 -0.29391971897E+03  0.50361648855E+03  0.12496150097E+03 0.  0.
         23    2    1    2    0    0  0.38849346533E+03  0.26423796484E+02  0.29391971897E+03  0.49638351145E+03  0.91555445574E+02 0.  0.
        -11    1    4    4    0    0  0.28667988222E+03 -0.21285223196E+02  0.21632247131E+03  0.35976913040E+03  0.00000000000E+00 0.  1.
         11    1    4    4    0    0  0.10181358311E+03  0.47709019680E+02  0.77597247654E+02  0.13661438104E+03  0.00000000000E+00 0. -1.
        -15    1    3    3    0    0  0.34893487246E+01  0.89338267900E+01 -0.25280209327E+02  0.27096780773E+02  0.17770000000E+01 0.  1.
         15    1    3    3    0    0 -0.39198281405E+03 -0.35357623274E+02 -0.26863950964E+03  0.47651970778E+03  0.17770000000E+01 0.  1.
</event>
<event>
 7    1  0.7045625E-009  0.5040807E+03  0.7546771E-02  0.9390725E-01
        -11   -1    0    0    0    0  0.00000000000E+00  0.00000000000E+00  0.50000000000E+03  0.50000000000E+03  0.00000000000E+00 0.  1.
         11   -1    0    0    0    0 -0.00000000000E+00 -0.00000000000E+00 -0.50000000000E+03  0.50000000000E+03  0.00000000000E+00 0. -1.
         23    2    1    2    0    0  0.37606565151E+03  0.48110386058E+02  0.30774023644E+03  0.49591934849E+03  0.86556129696E+02 0.  0.
        -11    1    3    3    0    0  0.15466821438E+02 -0.98857573652E+01  0.53056305698E-01  0.18356295352E+02  0.00000000000E+00 0. -1.
         11    1    3    3    0    0  0.36059883007E+03  0.57996143423E+02  0.30768718013E+03  0.47756305314E+03  0.00000000000E+00 0.  1.
        -15    1    1    2    0    0 -0.27206044412E+02 -0.18110086376E+02  0.67641470320E+01  0.33422380154E+02  0.17770000000E+01 0.  1.
         15    1    1    2    0    0 -0.34885960710E+03 -0.30000299681E+02 -0.31450438347E+03  0.47065827136E+03  0.17770000000E+01 0. -1.
</event>
<event>
 7    1  0.7045625E-009  0.5036353E+03  0.7546771E-02  0.9391712E-01
        -11   -1    0    0    0    0  0.00000000000E+00  0.00000000000E+00  0.50000000000E+03  0.50000000000E+03  0.00000000000E+00 0.  1.
         11   -1    0    0    0    0 -0.00000000000E+00 -0.00000000000E+00 -0.50000000000E+03  0.50000000000E+03  0.00000000000E+00 0. -1.
         23    2    1    2    0    0 -0.37816625030E+03  0.21297612055E+03 -0.22264401896E+03  0.49636466668E+03  0.91863933937E+02 0.  0.
        -11    1    3    3    0    0 -0.19595368188E+03  0.58452178127E+02 -0.11068425153E+03  0.23251990475E+03  0.00000000000E+00 0.  1.
         11    1    3    3    0    0 -0.18221256842E+03  0.15452394243E+03 -0.11195976743E+03  0.26384476193E+03  0.00000000000E+00 0. -1.
        -15    1    1    2    0    0  0.20334828010E+03 -0.17771002347E+03  0.16367396947E+03  0.31579059751E+03  0.17770000000E+01 0. -1.
         15    1    1    2    0    0  0.17481797019E+03 -0.35266097083E+02  0.58970049489E+02  0.18784473581E+03  0.17770000000E+01 0. -1.
</event>
<event>
 8    1  0.7045625E-009  0.5036908E+03  0.7546771E-02  0.9391589E-01
        -11   -1    0    0    0    0  0.00000000000E+00  0.00000000000E+00  0.50000000000E+03  0.50000000000E+03  0.00000000000E+00 0.  1.
         11   -1    0    0    0    0 -0.00000000000E+00 -0.00000000000E+00 -0.50000000000E+03  0.50000000000E+03  0.00000000000E+00 0. -1.
         25    2    1    2    0    0  0.25536039803E+03 -0.32258391340E+03 -0.26229997891E+03  0.50369080353E+03  0.12503532524E+03 0.  0.
         23    2    1    2    0    0 -0.25536039803E+03  0.32258391340E+03  0.26229997891E+03  0.49630919647E+03  0.90841760784E+02 0.  0.
        -11    1    4    4    0    0 -0.51273539202E+02  0.11947388309E+03  0.53267036858E+02  0.14050039779E+03  0.00000000000E+00 0. -1.
         11    1    4    4    0    0 -0.20408685883E+03  0.20311003030E+03  0.20903294205E+03  0.35580879868E+03  0.00000000000E+00 0.  1.
        -15    1    3    3    0    0  0.28566885909E+02 -0.21657261954E+02 -0.74429694439E+02  0.82631961789E+02  0.17770000000E+01 0. -1.
         15    1    3    3    0    0  0.22679351213E+03 -0.30092665144E+03 -0.18787028447E+03  0.42105884174E+03  0.17770000000E+01 0. -1.
</event>
<event>
 8    1  0.7045627E-009  0.5036322E+03  0.7546771E-02  0.9391719E-01
        -11   -1    0    0    0    0  0.00000000000E+00  0.00000000000E+00  0.50000000000E+03  0.50000000000E+03  0.00000000000E+00 0.  1.
         11   -1    0    0    0    0 -0.00000000000E+00 -0.00000000000E+00 -0.50000000000E+03  0.50000000000E+03  0.00000000000E+00 0. -1.
         25    2    1    2    0    0  0.31066282877E+03 -0.27634348085E+03  0.25525199344E+03  0.50363222379E+03  0.12495888963E+03 0.  0.
         23    2    1    2    0    0 -0.31066282877E+03  0.27634348085E+03 -0.25525199344E+03  0.49636777621E+03  0.91379847410E+02 0.  0.
        -11    1    4    4    0    0 -0.20262958551E+03  0.12959742185E+03 -0.17390083586E+03  0.29680926769E+03  0.00000000000E+00 0.  1.
         11    1    4    4    0    0 -0.10803324325E+03  0.14674605900E+03 -0.81351157589E+02  0.19955850852E+03  0.00000000000E+00 0. -1.
        -15    1    3    3    0    0  0.30889140598E+03 -0.22508860121E+03  0.21594963258E+03  0.43899451092E+03  0.17770000000E+01 0.  1.
         15    1    3    3    0    0  0.17714227854E+01 -0.51254879643E+02  0.39302360869E+02  0.64637712868E+02  0.17770000000E+01 0.  1.
</event>
<event>
 8    1  0.7583053E-009  0.5033363E+03  0.7546771E-02  0.9392375E-01
        -11   -1    0    0    0    0  0.00000000000E+00  0.00000000000E+00  0.50000000000E+03  0.50000000000E+03  0.00000000000E+00 0.  1.
         11   -1    0    0    0    0 -0.00000000000E+00 -0.00000000000E+00 -0.50000000000E+03  0.50000000000E+03  0.00000000000E+00 0. -1.
         25    2    1    2    0    0  0.39201782840E+03 -0.25241923649E+03 -0.14261319463E+03  0.50333634760E+03  0.12496202143E+03 0.  0.
         23    2    1    2    0    0 -0.39201782840E+03  0.25241923649E+03  0.14261319463E+03  0.49666365240E+03  0.94566440118E+02 0.  0.
        -11    1    4    4    0    0 -0.15025387561E+03  0.93141771150E+02  0.10259659283E+03  0.20439588433E+03  0.00000000000E+00 0. -1.
         11    1    4    4    0    0 -0.24176395279E+03  0.15927746534E+03  0.40016601799E+02  0.29226776807E+03  0.00000000000E+00 0.  1.
        -15    1    3    3    0    0  0.10481486232E+02  0.52987960012E+00 -0.30117328747E+02  0.31942973342E+02  0.17770000000E+01 0. -1.
         15    1    3    3    0    0  0.38153634217E+03 -0.25294911609E+03 -0.11249586589E+03  0.47139337426E+03  0.17770000000E+01 0. -1.
</event>
<event>
 7    1  0.7045625E-009  0.5035694E+03  0.7546771E-02  0.9391858E-01
        -11   -1    0    0    0    0  0.00000000000E+00  0.00000000000E+00  0.50000000000E+03  0.50000000000E+03  0.00000000000E+00 0. -1.
         11   -1    0    0    0    0 -0.00000000000E+00 -0.00000000000E+00 -0.50000000000E+03  0.50000000000E+03  0.00000000000E+00 0.  1.
         23    2    1    2    0    0  0.46735324126E+03 -0.40000357225E+02 -0.13383738110E+03  0.49643062519E+03  0.92259635555E+02 0.  0.
        -11    1    3    3    0    0  0.30810956618E+03  0.15741059390E+02 -0.72556982386E+02  0.31692870084E+03  0.00000000000E+00 0.  1.
         11    1    3    3    0    0  0.15924367508E+03 -0.55741416615E+02 -0.61280398718E+02  0.17950192435E+03  0.00000000000E+00 0. -1.
        -15    1    1    2    0    0 -0.42232369011E+03  0.74313776765E+02  0.11786628568E+03  0.44471952473E+03  0.17770000000E+01 0.  1.
         15    1    1    2    0    0 -0.45029551144E+02 -0.34313419541E+02  0.15971095422E+02  0.58849850083E+02  0.17770000000E+01 0.  1.
</event>
<event>
 8    1  0.7045625E-009  0.5037894E+03  0.7546771E-02  0.9391370E-01
        -11   -1    0    0    0    0  0.00000000000E+00  0.00000000000E+00  0.50000000000E+03  0.50000000000E+03  0.00000000000E+00 0. -1.
         11   -1    0    0    0    0 -0.00000000000E+00 -0.00000000000E+00 -0.50000000000E+03  0.50000000000E+03  0.00000000000E+00 0.  1.
         25    2    1    2    0    0  0.21304435583E+03  0.43123854436E+03  0.82516636065E+02  0.50378943835E+03  0.12506087825E+03 0.  0.
         23    2    1    2    0    0 -0.21304435583E+03 -0.43123854436E+03 -0.82516636065E+02  0.49621056165E+03  0.89785001963E+02 0.  0.
        -11    1    4    4    0    0 -0.12848824187E+03 -0.31885616460E+03 -0.26381598354E+02  0.34478177262E+03  0.00000000000E+00 0. -1.
         11    1    4    4    0    0 -0.84556113962E+02 -0.11238237976E+03 -0.56135037711E+02  0.15142878903E+03  0.00000000000E+00 0.  1.
        -15    1    3    3    0    0  0.23901056413E+02  0.46253525723E+01  0.22649844698E+02  0.33299062718E+02  0.17770000000E+01 0. -1.
         15    1    3    3    0    0  0.18914329942E+03  0.42661319178E+03  0.59866791368E+02  0.47049037563E+03  0.17770000000E+01 0. -1.
</event>
<event>
 8    1  0.7045625E-009  0.5037800E+03  0.7546771E-02  0.9391391E-01
        -11   -1    0    0    0    0  0.00000000000E+00  0.00000000000E+00  0.50000000000E+03  0.50000000000E+03  0.00000000000E+00 0.  1.
         11   -1    0    0    0    0 -0.00000000000E+00 -0.00000000000E+00 -0.50000000000E+03  0.50000000000E+03  0.00000000000E+00 0. -1.
         25    2    1    2    0    0 -0.37457914725E+03  0.11337296413E+03 -0.29154469705E+03  0.50378001568E+03  0.12503210495E+03 0.  0.
         23    2    1    2    0    0  0.37457914725E+03 -0.11337296413E+03  0.29154469705E+03  0.49621998432E+03  0.89849852035E+02 0.  0.
        -11    1    4    4    0    0  0.33558941464E+03 -0.89488221606E+02  0.28647072072E+03  0.45021536053E+03  0.00000000000E+00 0.  1.
         11    1    4    4    0    0  0.38989732613E+02 -0.23884742524E+02  0.50739763285E+01  0.46004623795E+02  0.00000000000E+00 0. -1.
        -15    1    3    3    0    0 -0.43960609626E+02 -0.16839022888E+02 -0.51427992918E+01  0.47388753983E+02  0.17770000000E+01 0. -1.
         15    1    3    3    0    0 -0.33061853762E+03  0.13021198702E+03 -0.28640189776E+03  0.45639126170E+03  0.17770000000E+01 0. -1.
</event>
<event>
 8    1  0.7045625E-009  0.5037275E+03  0.7546771E-02  0.9391508E-01
        -11   -1    0    0    0    0  0.00000000000E+00  0.00000000000E+00  0.50000000000E+03  0.50000000000E+03  0.00000000000E+00 0.  1.
         11   -1    0    0    0    0 -0.00000000000E+00 -0.00000000000E+00 -0.50000000000E+03  0.50000000000E+03  0.00000000000E+00 0. -1.
         25    2    1    2    0    0 -0.29985823276E+03  0.30657932155E+03 -0.23279271539E+03  0.50372752575E+03  0.12507250578E+03 0.  0.
         23    2    1    2    0    0  0.29985823276E+03 -0.30657932155E+03  0.23279271539E+03  0.49627247425E+03  0.90488011371E+02 0.  0.
        -11    1    4    4    0    0  0.15408044574E+03 -0.18918895808E+03  0.17542178534E+03  0.30050964774E+03  0.00000000000E+00 0. -1.
         11    1    4    4    0    0  0.14577778703E+03 -0.11739036347E+03  0.57370930056E+02  0.19576282651E+03  0.00000000000E+00 0.  1.
        -15    1    3    3    0    0 -0.14285438391E+03  0.18694243933E+03 -0.63562405327E+02  0.24371743418E+03  0.17770000000E+01 0. -1.
         15    1    3    3    0    0 -0.15700384886E+03  0.11963688221E+03 -0.16923031007E+03  0.26001009157E+03  0.17770000000E+01 0. -1.
</event>
<event>
 8    1  0.7045625E-009  0.5036015E+03  0.7546771E-02  0.9391787E-01
        -11   -1    0    0    0    0  0.00000000000E+00  0.00000000000E+00  0.50000000000E+03  0.50000000000E+03  0.00000000000E+00 0.  1.
         11   -1    0    0    0    0 -0.00000000000E+00 -0.00000000000E+00 -0.50000000000E+03  0.50000000000E+03  0.00000000000E+00 0. -1.
         25    2    1    2    0    0  0.26814112087E+03 -0.38779284330E+03 -0.12539415766E+03  0.50360150888E+03  0.12493132094E+03 0.  0.
         23    2    1    2    0    0 -0.26814112087E+03  0.38779284330E+03  0.12539415766E+03  0.49639849112E+03  0.91677790102E+02 0.  0.
        -11    1    4    4    0    0 -0.21046033191E+02  0.23271657492E+01  0.13325639013E+02  0.25018470549E+02  0.00000000000E+00 0. -1.
         11    1    4    4    0    0 -0.24709508767E+03  0.38546567756E+03  0.11206851864E+03  0.47138002057E+03  0.00000000000E+00 0.  1.
        -15    1    3    3    0    0  0.17463238840E+03 -0.28385636487E+03 -0.14303008478E+03  0.36267295162E+03  0.17770000000E+01 0.  1.
         15    1    3    3    0    0  0.93508732461E+02 -0.10393647843E+03  0.17635927119E+02  0.14092855725E+03  0.17770000000E+01 0. -1.
</event>
<event>
 8    1  0.7045625E-009  0.5030594E+03  0.7546771E-02  0.9392990E-01
        -11   -1    0    0    0    0  0.00000000000E+00  0.00000000000E+00  0.50000000000E+03  0.50000000000E+03  0.00000000000E+00 0.  1.
         11   -1    0    0    0    0 -0.00000000000E+00 -0.00000000000E+00 -0.50000000000E+03  0.50000000000E+03  0.00000000000E+00 0. -1.
         25    2    1    2    0    0 -0.96968575626E+02  0.47446299715E+03  0.54014218295E+02  0.50305943737E+03  0.12503288135E+03 0.  0.
         23    2    1    2    0    0  0.96968575626E+02 -0.47446299715E+03 -0.54014218295E+02  0.49694056263E+03  0.97541512636E+02 0.  0.
        -11    1    4    4    0    0  0.76603829909E+02 -0.17185841935E+03  0.37702469943E+01  0.18819584964E+03  0.00000000000E+00 0.  1.
         11    1    4    4    0    0  0.20364745717E+02 -0.30260457780E+03 -0.57784465290E+02  0.30874471299E+03  0.00000000000E+00 0. -1.
        -15    1    3    3    0    0  0.26896330578E+02  0.96803085705E+02  0.30036885719E+02  0.10487908387E+03  0.17770000000E+01 0. -1.
         15    1    3    3    0    0 -0.12386490620E+03  0.37765991145E+03  0.23977332576E+02  0.39818035350E+03  0.17770000000E+01 0. -1.
</event>
<event>
 8    1  0.7045625E-009  0.5033850E+03  0.7546771E-02  0.9392267E-01
        -11   -1    0    0    0    0  0.00000000000E+00  0.00000000000E+00  0.50000000000E+03  0.50000000000E+03  0.00000000000E+00 0.  1.
         11   -1    0    0    0    0 -0.00000000000E+00 -0.00000000000E+00 -0.50000000000E+03  0.50000000000E+03  0.00000000000E+00 0. -1.
         25    2    1    2    0    0 -0.34511565643E+03  0.33803740219E+02 -0.34280284999E+03  0.50338502650E+03  0.12504072047E+03 0.  0.
         23    2    1    2    0    0  0.34511565643E+03 -0.33803740219E+02  0.34280284999E+03  0.49661497350E+03  0.94154812833E+02 0.  0.
        -11    1    4    4    0    0  0.27912039762E+03  0.47005342538E+01  0.23754313526E+03  0.36654744918E+03  0.00000000000E+00 0. -1.
         11    1    4    4    0    0  0.65995258801E+02 -0.38504274473E+02  0.10525971474E+03  0.13006752432E+03  0.00000000000E+00 0.  1.
        -15    1    3    3    0    0 -0.22602602033E+03  0.52725566060E+02 -0.15125691267E+03  0.27703710680E+03  0.17770000000E+01 0. -1.
         15    1    3    3    0    0 -0.11908963609E+03 -0.18921825842E+02 -0.19154593732E+03  0.22634791970E+03  0.17770000000E+01 0. -1.
</event>
<event>
 8    1  0.7045625E-009  0.5036160E+03  0.7546771E-02  0.9391755E-01
        -11   -1    0    0    0    0  0.00000000000E+00  0.00000000000E+00  0.50000000000E+03  0.50000000000E+03  0.00000000000E+00 0. -1.
         11   -1    0    0    0    0 -0.00000000000E+00 -0.00000000000E+00 -0.50000000000E+03  0.50000000000E+03  0.00000000000E+00 0.  1.
         25    2    1    2    0    0  0.28127087879E+03 -0.33215128343E+03  0.22041775776E+03  0.50361595297E+03  0.12492901110E+03 0.  0.
         23    2    1    2    0    0 -0.28127087879E+03  0.33215128343E+03 -0.22041775776E+03  0.49638404703E+03  0.91516948510E+02 0.  0.
        -11    1    4    4    0    0 -0.21674220303E+03  0.29201855395E+03 -0.15207323659E+03  0.39418052681E+03  0.00000000000E+00 0. -1.
         11    1    4    4    0    0 -0.64528675761E+02  0.40132729478E+02 -0.68344521174E+02  0.10220352022E+03  0.00000000000E+00 0.  1.
        -15    1    3    3    0    0  0.92041332145E+02 -0.31041488808E+02  0.49693431593E+02  0.10912275529E+03  0.17770000000E+01 0.  1.
         15    1    3    3    0    0  0.18922954665E+03 -0.30110979462E+03  0.17072432617E+03  0.39449319768E+03  0.17770000000E+01 0.  1.
</event>
<event>
 8    1  0.7045625E-009  0.5036345E+03  0.7546771E-02  0.9391714E-01
        -11   -1    0    0    0    0  0.00000000000E+00  0.00000000000E+00  0.50000000000E+03  0.50000000000E+03  0.00000000000E+00 0. -1.
         11   -1    0    0    0    0 -0.00000000000E+00 -0.00000000000E+00 -0.50000000000E+03  0.50000000000E+03  0.00000000000E+00 0.  1.
         25    2    1    2    0    0 -0.32112983572E+03  0.31622949368E+03  0.18678533861E+03  0.50363446824E+03  0.12503379867E+03 0.  0.
         23    2    1    2    0    0  0.32112983572E+03 -0.31622949368E+03 -0.18678533861E+03  0.49636553176E+03  0.91457718855E+02 0.  0.
        -11    1    4    4    0    0  0.29335234115E+03 -0.30619874680E+03 -0.15136798997E+03  0.45025052691E+03  0.00000000000E+00 0. -1.
         11    1    4    4    0    0  0.27777494573E+02 -0.10030746885E+02 -0.35417348636E+02  0.46115004849E+02  0.00000000000E+00 0.  1.
        -15    1    3    3    0    0 -0.24059374876E+03  0.29485378408E+03  0.17702864003E+03  0.41972181627E+03  0.17770000000E+01 0. -1.
         15    1    3    3    0    0 -0.80536086965E+02  0.21375709601E+02  0.97566985758E+01  0.83912651970E+02  0.17770000000E+01 0. -1.
</event>
<event>
 7    1  0.7045625E-009  0.5039226E+03  0.7546771E-02  0.9391075E-01
        -11   -1    0    0    0    0  0.00000000000E+00  0.00000000000E+00  0.50000000000E+03  0.50000000000E+03  0.00000000000E+00 0. -1.
         11   -1    0    0    0    0 -0.00000000000E+00 -0.00000000000E+00 -0.50000000000E+03  0.50000000000E+03  0.00000000000E+00 0.  1.
         23    2    1    2    0    0 -0.18192722376E+03  0.28095056124E+03  0.35539798738E+03  0.49607738341E+03  0.88058550335E+02 0.  0.
        -11    1    3    3    0    0 -0.14602241281E+03  0.18539026836E+03  0.19588987924E+03  0.30670008384E+03  0.00000000000E+00 0. -1.
         11    1    3    3    0    0 -0.35904810956E+02  0.95560292883E+02  0.15950810815E+03  0.18937729956E+03  0.00000000000E+00 0.  1.
        -15    1    1    2    0    0 -0.57600661231E+01  0.71846273860E+01 -0.26381373813E+02  0.27998782932E+02  0.17770000000E+01 0. -1.
         15    1    1    2    0    0  0.18768728988E+03 -0.28813518863E+03 -0.32901661357E+03  0.47592383366E+03  0.17770000000E+01 0.  1.
</event>
<event>
 8    1  0.7045625E-009  0.5041323E+03  0.7546771E-02  0.9390611E-01
        -11   -1    0    0    0    0  0.00000000000E+00  0.00000000000E+00  0.50000000000E+03  0.50000000000E+03  0.00000000000E+00 0. -1.
         11   -1    0    0    0    0 -0.00000000000E+00 -0.00000000000E+00 -0.50000000000E+03  0.50000000000E+03  0.00000000000E+00 0.  1.
         25    2    1    2    0    0 -0.33796267424E+03  0.33165312391E+03 -0.11957009538E+03  0.50413230648E+03  0.12505922977E+03 0.  0.
         23    2    1    2    0    0  0.33796267424E+03 -0.33165312391E+03  0.11957009538E+03  0.49586769352E+03  0.85878972935E+02 0.  0.
        -11    1    4    4    0    0  0.79865318014E+02 -0.35430157322E+02  0.97215812366E+01  0.87910603519E+02  0.00000000000E+00 0.  1.
         11    1    4    4    0    0  0.25809735622E+03 -0.29622296659E+03  0.10984851414E+03  0.40795709000E+03  0.00000000000E+00 0. -1.
        -15    1    3    3    0    0 -0.51838380519E+02  0.17238028449E+02 -0.48577579206E+02  0.73125277779E+02  0.17770000000E+01 0. -1.
         15    1    3    3    0    0 -0.28612429372E+03  0.31441509546E+03 -0.70992516174E+02  0.43100702870E+03  0.17770000000E+01 0.  1.
</event>
<event>
 8    1  0.7045625E-009  0.5036208E+03  0.7546771E-02  0.9391744E-01
        -11   -1    0    0    0    0  0.00000000000E+00  0.00000000000E+00  0.50000000000E+03  0.50000000000E+03  0.00000000000E+00 0.  1.
         11   -1    0    0    0    0 -0.00000000000E+00 -0.00000000000E+00 -0.50000000000E+03  0.50000000000E+03  0.00000000000E+00 0. -1.
         25    2    1    2    0    0 -0.53406435000E+02 -0.25045571743E+03  0.41523009891E+03  0.50362078220E+03  0.12505016405E+03 0.  0.
         23    2    1    2    0    0  0.53406435000E+02  0.25045571743E+03 -0.41523009891E+03  0.49637921780E+03  0.91629575646E+02 0.  0.
        -11    1    4    4    0    0  0.30351058676E+01  0.10605992533E+03 -0.99024075657E+02  0.14513334279E+03  0.00000000000E+00 0.  1.
         11    1    4    4    0    0  0.50371329133E+02  0.14439579210E+03 -0.31620602325E+03  0.35124587502E+03  0.00000000000E+00 0. -1.
        -15    1    3    3    0    0 -0.23722183224E+02 -0.50813008347E+02  0.20351097861E+03  0.21110324474E+03  0.17770000000E+01 0. -1.
         15    1    3    3    0    0 -0.29684251776E+02 -0.19964270908E+03  0.21171912030E+03  0.29251753746E+03  0.17770000000E+01 0. -1.
</event>
<event>
 8    1  0.7045625E-009  0.5037099E+03  0.7546771E-02  0.9391547E-01
        -11   -1    0    0    0    0  0.00000000000E+00  0.00000000000E+00  0.50000000000E+03  0.50000000000E+03  0.00000000000E+00 0.  1.
         11   -1    0    0    0    0 -0.00000000000E+00 -0.00000000000E+00 -0.50000000000E+03  0.50000000000E+03  0.00000000000E+00 0. -1.
         25    2    1    2    0    0  0.40150659816E+03 -0.24735539293E+03 -0.12539398606E+03  0.50370993228E+03  0.12493120251E+03 0.  0.
         23    2    1    2    0    0 -0.40150659816E+03  0.24735539293E+03  0.12539398606E+03  0.49629006772E+03  0.90487241058E+02 0.  0.
        -11    1    4    4    0    0 -0.11973881447E+03  0.91407960366E+02 -0.14621199913E+00  0.15064136313E+03  0.00000000000E+00 0. -1.
         11    1    4    4    0    0 -0.28176778369E+03  0.15594743256E+03  0.12554019806E+03  0.34564870458E+03  0.00000000000E+00 0.  1.
        -15    1    3    3    0    0  0.12173936759E+03 -0.24661466637E+02 -0.67787564655E+02  0.14151668880E+03  0.17770000000E+01 0. -1.
         15    1    3    3    0    0  0.27976723057E+03 -0.22269392629E+03 -0.57606421410E+02  0.36219324349E+03  0.17770000000E+01 0. -1.
</event>
<event>
 8    1  0.7045625E-009  0.5038036E+03  0.7546771E-02  0.9391339E-01
        -11   -1    0    0    0    0  0.00000000000E+00  0.00000000000E+00  0.50000000000E+03  0.50000000000E+03  0.00000000000E+00 0. -1.
         11   -1    0    0    0    0 -0.00000000000E+00 -0.00000000000E+00 -0.50000000000E+03  0.50000000000E+03  0.00000000000E+00 0.  1.
         25    2    1    2    0    0 -0.39980986984E+03 -0.27385646140E+03  0.57780016529E+02  0.50380360544E+03  0.12503699080E+03 0.  0.
         23    2    1    2    0    0  0.39980986984E+03  0.27385646140E+03 -0.57780016529E+02  0.49619639456E+03  0.89593739676E+02 0.  0.
        -11    1    4    4    0    0  0.31011455232E+03  0.16902536402E+03 -0.23117931367E+02  0.35394215346E+03  0.00000000000E+00 0.  1.
         11    1    4    4    0    0  0.89695317521E+02  0.10483109739E+03 -0.34662085162E+02  0.14225424110E+03  0.00000000000E+00 0. -1.
        -15    1    3    3    0    0 -0.36506396629E+03 -0.25319144620E+03  0.14441477106E+02  0.44451020450E+03  0.17770000000E+01 0. -1.
         15    1    3    3    0    0 -0.34745903555E+02 -0.20665015199E+02  0.43338539423E+02  0.59293400942E+02  0.17770000000E+01 0. -1.
</event>
<event>
 8    1  0.7045625E-009  0.5041335E+03  0.7546771E-02  0.9390608E-01
        -11   -1    0    0    0    0  0.00000000000E+00  0.00000000000E+00  0.50000000000E+03  0.50000000000E+03  0.00000000000E+00 0.  1.
         11   -1    0    0    0    0 -0.00000000000E+00 -0.00000000000E+00 -0.50000000000E+03  0.50000000000E+03  0.00000000000E+00 0. -1.
         25    2    1    2    0    0 -0.28914200827E+03 -0.29549815916E+03 -0.26002654702E+03  0.50413348527E+03  0.12495800413E+03 0.  0.
         23    2    1    2    0    0  0.28914200827E+03  0.29549815916E+03  0.26002654702E+03  0.49586651473E+03  0.85717747664E+02 0.  0.
        -11    1    4    4    0    0  0.23738607593E+03  0.18973506962E+03  0.19889930254E+03  0.36319757466E+03  0.00000000000E+00 0.  1.
         11    1    4    4    0    0  0.51755932336E+02  0.10576308954E+03  0.61127244483E+02  0.13266894007E+03  0.00000000000E+00 0. -1.
        -15    1    3    3    0    0 -0.91199803522E+02 -0.43654323970E+02 -0.11310339692E+03  0.15171895164E+03  0.17770000000E+01 0. -1.
         15    1    3    3    0    0 -0.19794220475E+03 -0.25184383519E+03 -0.14692315010E+03  0.35241453362E+03  0.17770000000E+01 0. -1.
</event>
<event>
 8    1  0.7045625E-009  0.5036192E+03  0.7546771E-02  0.9391748E-01
        -11   -1    0    0    0    0  0.00000000000E+00  0.00000000000E+00  0.50000000000E+03  0.50000000000E+03  0.00000000000E+00 0. -1.
         11   -1    0    0    0    0 -0.00000000000E+00 -0.00000000000E+00 -0.50000000000E+03  0.50000000000E+03  0.00000000000E+00 0.  1.
         25    2    1    2    0    0  0.45382625333E+03  0.15575311685E+02  0.17830610492E+03  0.50361921088E+03  0.12505352441E+03 0.  0.
         23    2    1    2    0    0 -0.45382625333E+03 -0.15575311685E+02 -0.17830610492E+03  0.49638078912E+03  0.91651307712E+02 0.  0.
        -11    1    4    4    0    0 -0.10367070112E+03  0.91734224317E+01 -0.81666481531E+02  0.13229202605E+03  0.00000000000E+00 0.  1.
         11    1    4    4    0    0 -0.35015555222E+03 -0.24748734116E+02 -0.96639623389E+02  0.36408876307E+03  0.00000000000E+00 0. -1.
        -15    1    3    3    0    0  0.74263005466E+02 -0.43428107326E+02  0.44362431716E+02  0.96810007558E+02  0.17770000000E+01 0. -1.
         15    1    3    3    0    0  0.37956324787E+03  0.59003419010E+02  0.13394367320E+03  0.40680920332E+03  0.17770000000E+01 0. -1.
</event>
<event>
 8    1  0.7045625E-009  0.5037740E+03  0.7546771E-02  0.9391405E-01
        -11   -1    0    0    0    0  0.00000000000E+00  0.00000000000E+00  0.50000000000E+03  0.50000000000E+03  0.00000000000E+00 0.  1.
         11   -1    0    0    0    0 -0.00000000000E+00 -0.00000000000E+00 -0.50000000000E+03  0.50000000000E+03  0.00000000000E+00 0. -1.
         25    2    1    2    0    0  0.88968411627E+02  0.62447450169E+02  0.47574855141E+03  0.50377396474E+03  0.12504583591E+03 0.  0.
         23    2    1    2    0    0 -0.88968411627E+02 -0.62447450169E+02 -0.47574855141E+03  0.49622603526E+03  0.89936264138E+02 0.  0.
        -11    1    4    4    0    0 -0.73444190449E+02 -0.32867948999E+02 -0.44000690998E+03  0.44730351218E+03  0.00000000000E+00 0. -1.
         11    1    4    4    0    0 -0.15524221178E+02 -0.29579501170E+02 -0.35741641432E+02  0.48922523085E+02  0.00000000000E+00 0.  1.
        -15    1    3    3    0    0  0.92429408364E+02  0.52655694771E+02  0.48055642717E+03  0.49219249806E+03  0.17770000000E+01 0.  1.
         15    1    3    3    0    0 -0.34609967369E+01  0.97917553973E+01 -0.48078757583E+01  0.11581466681E+02  0.17770000000E+01 0. -1.
</event>
<event>
 8    1  0.7045625E-009  0.5040689E+03  0.7546771E-02  0.9390751E-01
        -11   -1    0    0    0    0  0.00000000000E+00  0.00000000000E+00  0.50000000000E+03  0.50000000000E+03  0.00000000000E+00 0.  1.
         11   -1    0    0    0    0 -0.00000000000E+00 -0.00000000000E+00 -0.50000000000E+03  0.50000000000E+03  0.00000000000E+00 0. -1.
         25    2    1    2    0    0  0.18105019373E+03 -0.34014961083E+03  0.29998626983E+03  0.50406887279E+03  0.12495093450E+03 0.  0.
         23    2    1    2    0    0 -0.18105019373E+03  0.34014961083E+03 -0.29998626983E+03  0.49593112721E+03  0.86458027113E+02 0.  0.
        -11    1    4    4    0    0 -0.12992318706E+03  0.17292246157E+03 -0.19949045229E+03  0.29424250680E+03  0.00000000000E+00 0.  1.
         11    1    4    4    0    0 -0.51127006665E+02  0.16722714926E+03 -0.10049581754E+03  0.20168862041E+03  0.00000000000E+00 0. -1.
        -15    1    3    3    0    0  0.13692443053E+03 -0.18074357606E+03  0.23439128877E+03  0.32612723582E+03  0.17770000000E+01 0. -1.
         15    1    3    3    0    0  0.44125763197E+02 -0.15940603477E+03  0.65594981065E+02  0.17794163697E+03  0.17770000000E+01 0. -1.
</event>
<event>
 8    1  0.7045625E-009  0.5026488E+03  0.7546771E-02  0.9393902E-01
        -11   -1    0    0    0    0  0.00000000000E+00  0.00000000000E+00  0.50000000000E+03  0.50000000000E+03  0.00000000000E+00 0.  1.
         11   -1    0    0    0    0 -0.00000000000E+00 -0.00000000000E+00 -0.50000000000E+03  0.50000000000E+03  0.00000000000E+00 0. -1.
         25    2    1    2    0    0  0.25295909013E+03  0.35377342033E+03 -0.21880971090E+03  0.50264881454E+03  0.12503682240E+03 0.  0.
         23    2    1    2    0    0 -0.25295909013E+03 -0.35377342033E+03  0.21880971090E+03  0.49735118546E+03  0.10166896225E+03 0.  0.
        -11    1    4    4    0    0 -0.57225056835E+02 -0.85123546938E+02  0.10300323775E+03  0.14536296764E+03  0.00000000000E+00 0.  1.
         11    1    4    4    0    0 -0.19573403330E+03 -0.26864987339E+03  0.11580647315E+03  0.35198821783E+03  0.00000000000E+00 0. -1.
        -15    1    3    3    0    0 -0.81764513831E+01  0.87349477869E+01 -0.26480063823E+02  0.29111942208E+02  0.17770000000E+01 0.  1.
         15    1    3    3    0    0  0.26113554152E+03  0.34503847254E+03 -0.19232964708E+03  0.47353687233E+03  0.17770000000E+01 0.  1.
</event>
<event>
 8    1  0.7045625E-009  0.5036637E+03  0.7546771E-02  0.9391649E-01
        -11   -1    0    0    0    0  0.00000000000E+00  0.00000000000E+00  0.50000000000E+03  0.50000000000E+03  0.00000000000E+00 0. -1.
         11   -1    0    0    0    0 -0.00000000000E+00 -0.00000000000E+00 -0.50000000000E+03  0.50000000000E+03  0.00000000000E+00 0.  1.
         25    2    1    2    0    0  0.37795505704E+03 -0.30166123991E+02  0.30704532737E+03  0.50366368022E+03  0.12506098327E+03 0.  0.
         23    2    1    2    0    0 -0.37795505704E+03  0.30166123991E+02 -0.30704532737E+03  0.49633631978E+03  0.91175046428E+02 0.  0.
        -11    1    4    4    0    0 -0.33625463461E+03  0.55358703542E+02 -0.26034021517E+03  0.42884588489E+03  0.00000000000E+00 0.  1.
         11    1    4    4    0    0 -0.41700422432E+02 -0.25192579552E+02 -0.46705112197E+02  0.67490434884E+02  0.00000000000E+00 0. -1.
        -15    1    3    3    0    0  0.14162259232E+02 -0.28740182867E+02  0.45189372779E+02  0.55423865247E+02  0.17770000000E+01 0. -1.
         15    1    3    3    0    0  0.36379279781E+03 -0.14259411237E+01  0.26185595459E+03  0.44823981498E+03  0.17770000000E+01 0. -1.
</event>
<event>
 8    1  0.7045625E-009  0.5036347E+03  0.7546771E-02  0.9391713E-01
        -11   -1    0    0    0    0  0.00000000000E+00  0.00000000000E+00  0.50000000000E+03  0.50000000000E+03  0.00000000000E+00 0. -1.
         11   -1    0    0    0    0 -0.00000000000E+00 -0.00000000000E+00 -0.50000000000E+03  0.50000000000E+03  0.00000000000E+00 0.  1.
         25    2    1    2    0    0 -0.43981154493E+02  0.19448614079E+02  0.48551685984E+03  0.50363474397E+03  0.12493495748E+03 0.  0.
         23    2    1    2    0    0  0.43981154493E+02 -0.19448614079E+02 -0.48551685984E+03  0.49636525603E+03  0.91319525128E+02 0.  0.
        -11    1    4    4    0    0  0.61247591846E+02 -0.39625239710E+02 -0.28910607251E+03  0.29816731593E+03  0.00000000000E+00 0. -1.
         11    1    4    4    0    0 -0.17266437353E+02  0.20176625631E+02 -0.19641078733E+03  0.19819794010E+03  0.00000000000E+00 0.  1.
        -15    1    3    3    0    0 -0.70867107568E+02 -0.28280361904E+01  0.44274235998E+03  0.44839056611E+03  0.17770000000E+01 0. -1.
         15    1    3    3    0    0  0.26885953074E+02  0.22276650269E+02  0.42774499857E+02  0.55244177855E+02  0.17770000000E+01 0.  1.
</event>
<event>
 8    1  0.7045625E-009  0.5036190E+03  0.7546771E-02  0.9391748E-01
        -11   -1    0    0    0    0  0.00000000000E+00  0.00000000000E+00  0.50000000000E+03  0.50000000000E+03  0.00000000000E+00 0. -1.
         11   -1    0    0    0    0 -0.00000000000E+00 -0.00000000000E+00 -0.50000000000E+03  0.50000000000E+03  0.00000000000E+00 0.  1.
         25    2    1    2    0    0 -0.41666087568E+03  0.23719723413E+03 -0.90257183631E+02  0.50361895805E+03  0.12496752583E+03 0.  0.
         23    2    1    2    0    0  0.41666087568E+03 -0.23719723413E+03  0.90257183631E+02  0.49638104195E+03  0.91536694359E+02 0.  0.
        -11    1    4    4    0    0  0.28978211170E+03 -0.14417420526E+03  0.20591784489E+02  0.32432066742E+03  0.00000000000E+00 0. -1.
         11    1    4    4    0    0  0.12687876397E+03 -0.93023028870E+02  0.69665399142E+02  0.17206037454E+03  0.00000000000E+00 0.  1.
        -15    1    3    3    0    0 -0.12443961906E+03  0.12305042347E+03  0.70209094634E+01  0.17515443588E+03  0.17770000000E+01 0.  1.
         15    1    3    3    0    0 -0.29222125661E+03  0.11414681066E+03 -0.97278093094E+02  0.32846452217E+03  0.17770000000E+01 0.  1.
</event>
<event>
 8    1  0.7045625E-009  0.5036105E+03  0.7546771E-02  0.9391767E-01
        -11   -1    0    0    0    0  0.00000000000E+00  0.00000000000E+00  0.50000000000E+03  0.50000000000E+03  0.00000000000E+00 0.  1.
         11   -1    0    0    0    0 -0.00000000000E+00 -0.00000000000E+00 -0.50000000000E+03  0.50000000000E+03  0.00000000000E+00 0. -1.
         25    2    1    2    0    0 -0.22463011603E+03 -0.30536708811E+03  0.30705428798E+03  0.50361053562E+03  0.12503394858E+03 0.  0.
         23    2    1    2    0    0  0.22463011603E+03  0.30536708811E+03 -0.30705428798E+03  0.49638946438E+03  0.91719229485E+02 0.  0.
        -11    1    4    4    0    0  0.12572524571E+03  0.10414097540E+03 -0.10168937569E+03  0.19233540832E+03  0.00000000000E+00 0.  1.
         11    1    4    4    0    0  0.98904870319E+02  0.20122611271E+03 -0.20536491228E+03  0.30405405606E+03  0.00000000000E+00 0. -1.
        -15    1    3    3    0    0 -0.15969213607E+03 -0.21852953772E+03  0.14075952029E+03  0.30507890366E+03  0.17770000000E+01 0. -1.
         15    1    3    3    0    0 -0.64937979957E+02 -0.86837550388E+02  0.16629476769E+03  0.19853163196E+03  0.17770000000E+01 0. -1.
</event>
<event>
 8    1  0.7045625E-009  0.5034572E+03  0.7546771E-02  0.9392107E-01
        -11   -1    0    0    0    0  0.00000000000E+00  0.00000000000E+00  0.50000000000E+03  0.50000000000E+03  0.00000000000E+00 0. -1.
         11   -1    0    0    0    0 -0.00000000000E+00 -0.00000000000E+00 -0.50000000000E+03  0.50000000000E+03  0.00000000000E+00 0.  1.
         25    2    1    2    0    0  0.17909472051E+03 -0.33302764260E+03 -0.30796763076E+03  0.50345716650E+03  0.12507088894E+03 0.  0.
         23    2    1    2    0    0 -0.17909472051E+03  0.33302764260E+03  0.30796763076E+03  0.49654283350E+03  0.93425875726E+02 0.  0.
        -11    1    4    4    0    0 -0.13112001052E+03  0.21573200087E+03  0.25610303004E+03  0.35961300777E+03  0.00000000000E+00 0. -1.
         11    1    4    4    0    0 -0.47974709985E+02  0.11729564173E+03  0.51864600711E+02  0.13692982573E+03  0.00000000000E+00 0.  1.
        -15    1    3    3    0    0 -0.15160536829E+02 -0.56279247877E+02 -0.63505670191E+02  0.86216723980E+02  0.17770000000E+01 0. -1.
         15    1    3    3    0    0  0.19425525734E+03 -0.27674839472E+03 -0.24446196056E+03  0.41724044252E+03  0.17770000000E+01 0. -1.
</event>
<event>
 8    1  0.7045625E-009  0.5039563E+03  0.7546771E-02  0.9391001E-01
        -11   -1    0    0    0    0  0.00000000000E+00  0.00000000000E+00  0.50000000000E+03  0.50000000000E+03  0.00000000000E+00 0.  1.
         11   -1    0    0    0    0 -0.00000000000E+00 -0.00000000000E+00 -0.50000000000E+03  0.50000000000E+03  0.00000000000E+00 0. -1.
         25    2    1    2    0    0  0.13171194115E+03 -0.41197415284E+03 -0.22646443783E+03  0.50395625747E+03  0.12496011282E+03 0.  0.
         23    2    1    2    0    0 -0.13171194115E+03  0.41197415284E+03  0.22646443783E+03  0.49604374253E+03  0.87763972422E+02 0.  0.
        -11    1    4    4    0    0 -0.12852905683E+03  0.27265875065E+03  0.16623129320E+03  0.34423154358E+03  0.00000000000E+00 0.  1.
         11    1    4    4    0    0 -0.31828843217E+01  0.13931540219E+03  0.60233144635E+02  0.15181219895E+03  0.00000000000E+00 0. -1.
        -15    1    3    3    0    0  0.27555545627E+02 -0.44981016051E+01 -0.43054304486E+01  0.28306103109E+02  0.17770000000E+01 0. -1.
         15    1    3    3    0    0  0.10415639552E+03 -0.40747605123E+03 -0.22215900738E+03  0.47565015436E+03  0.17770000000E+01 0. -1.
</event>
<event>
 8    1  0.7045625E-009  0.5037490E+03  0.7546771E-02  0.9391460E-01
        -11   -1    0    0    0    0  0.00000000000E+00  0.00000000000E+00  0.50000000000E+03  0.50000000000E+03  0.00000000000E+00 0.  1.
         11   -1    0    0    0    0 -0.00000000000E+00 -0.00000000000E+00 -0.50000000000E+03  0.50000000000E+03  0.00000000000E+00 0. -1.
         25    2    1    2    0    0  0.37920538472E+03  0.24161844228E+03 -0.18965876948E+03  0.50374898320E+03  0.12496557038E+03 0.  0.
         23    2    1    2    0    0 -0.37920538472E+03 -0.24161844228E+03  0.18965876948E+03  0.49625101680E+03  0.90102316202E+02 0.  0.
        -11    1    4    4    0    0 -0.28577130688E+03 -0.16437523957E+03  0.17748245591E+03  0.37441218113E+03  0.00000000000E+00 0.  1.
         11    1    4    4    0    0 -0.93434077840E+02 -0.77243202709E+02  0.12176313572E+02  0.12183883568E+03  0.00000000000E+00 0. -1.
        -15    1    3    3    0    0  0.16372961862E+02  0.25392864840E+02 -0.50795699353E+02  0.59128946098E+02  0.17770000000E+01 0. -1.
         15    1    3    3    0    0  0.36283242286E+03  0.21622557744E+03 -0.13886307013E+03  0.44462003710E+03  0.17770000000E+01 0. -1.
</event>
<event>
 8    1  0.7045625E-009  0.5036116E+03  0.7546771E-02  0.9391765E-01
        -11   -1    0    0    0    0  0.00000000000E+00  0.00000000000E+00  0.50000000000E+03  0.50000000000E+03  0.00000000000E+00 0.  1.
         11   -1    0    0    0    0 -0.00000000000E+00 -0.00000000000E+00 -0.50000000000E+03  0.50000000000E+03  0.00000000000E+00 0. -1.
         25    2    1    2    0    0  0.21361620797E+03 -0.33112389908E+02 -0.43732634692E+03  0.50361157442E+03  0.12506785964E+03 0.  0.
         23    2    1    2    0    0 -0.21361620797E+03  0.33112389908E+02  0.43732634692E+03  0.49638842558E+03  0.91754131615E+02 0.  0.
        -11    1    4    4    0    0 -0.11230132698E+03 -0.27774918841E+02  0.19407253290E+03  0.22593623478E+03  0.00000000000E+00 0.  1.
         11    1    4    4    0    0 -0.10131488098E+03  0.60887308749E+02  0.24325381401E+03  0.27045219080E+03  0.00000000000E+00 0. -1.
        -15    1    3    3    0    0  0.22858583337E+03 -0.35643268658E+02 -0.38566341748E+03  0.44973476086E+03  0.17770000000E+01 0.  1.
         15    1    3    3    0    0 -0.14969625408E+02  0.25308787504E+01 -0.51662929441E+02  0.53876813561E+02  0.17770000000E+01 0.  1.
</event>
<event>
 8    1  0.7045625E-009  0.5035560E+03  0.7546771E-02  0.9391888E-01
        -11   -1    0    0    0    0  0.00000000000E+00  0.00000000000E+00  0.50000000000E+03  0.50000000000E+03  0.00000000000E+00 0.  1.
         11   -1    0    0    0    0 -0.00000000000E+00 -0.00000000000E+00 -0.50000000000E+03  0.50000000000E+03  0.00000000000E+00 0. -1.
         25    2    1    2    0    0 -0.42561647991E+03  0.19953489589E+03  0.13034654897E+03  0.50355600142E+03  0.12495943777E+03 0.  0.
         23    2    1    2    0    0  0.42561647991E+03 -0.19953489589E+03 -0.13034654897E+03  0.49644399858E+03  0.92210944258E+02 0.  0.
        -11    1    4    4    0    0  0.89060639825E+02 -0.70300709549E+02 -0.11241995655E+01  0.11346916389E+03  0.00000000000E+00 0.  1.
         11    1    4    4    0    0  0.33655584009E+03 -0.12923418635E+03 -0.12922234941E+03  0.38297483469E+03  0.00000000000E+00 0. -1.
        -15    1    3    3    0    0 -0.48783383568E+02  0.67742483707E+02  0.46691235838E+02  0.95666565968E+02  0.17770000000E+01 0.  1.
         15    1    3    3    0    0 -0.37683309635E+03  0.13179241219E+03  0.83655313133E+02  0.40788943545E+03  0.17770000000E+01 0.  1.
</event>
<event>
 8    1  0.7045625E-009  0.5034762E+03  0.7546771E-02  0.9392065E-01
        -11   -1    0    0    0    0  0.00000000000E+00  0.00000000000E+00  0.50000000000E+03  0.50000000000E+03  0.00000000000E+00 0.  1.
         11   -1    0    0    0    0 -0.00000000000E+00 -0.00000000000E+00 -0.50000000000E+03  0.50000000000E+03  0.00000000000E+00 0. -1.
         25    2    1    2    0    0 -0.31355489907E+03 -0.29322327544E+03 -0.23146991010E+03  0.50347623575E+03  0.12495373823E+03 0.  0.
         23    2    1    2    0    0  0.31355489907E+03  0.29322327544E+03  0.23146991010E+03  0.49652376425E+03  0.93064306743E+02 0.  0.
        -11    1    4    4    0    0  0.72593877404E+02  0.20814289274E+02  0.36659996975E+02  0.83946775118E+02  0.00000000000E+00 0. -1.
         11    1    4    4    0    0  0.24096102166E+03  0.27240898617E+03  0.19480991312E+03  0.41257698913E+03  0.00000000000E+00 0.  1.
        -15    1    3    3    0    0 -0.31544858468E+03 -0.30035144913E+03 -0.23520674941E+03  0.49501936858E+03  0.17770000000E+01 0.  1.
         15    1    3    3    0    0  0.18936856161E+01  0.71281736880E+01  0.37368393104E+01  0.84568671724E+01  0.17770000000E+01 0.  1.
</event>
<event>
 8    1  0.7045625E-009  0.5036480E+03  0.7546771E-02  0.9391684E-01
        -11   -1    0    0    0    0  0.00000000000E+00  0.00000000000E+00  0.50000000000E+03  0.50000000000E+03  0.00000000000E+00 0.  1.
         11   -1    0    0    0    0 -0.00000000000E+00 -0.00000000000E+00 -0.50000000000E+03  0.50000000000E+03  0.00000000000E+00 0. -1.
         25    2    1    2    0    0 -0.31520595396E+03  0.10457744006E+03  0.35739915950E+03  0.50364804644E+03  0.12504383670E+03 0.  0.
         23    2    1    2    0    0  0.31520595396E+03 -0.10457744006E+03 -0.35739915950E+03  0.49635195356E+03  0.91322878918E+02 0.  0.
        -11    1    4    4    0    0  0.15508488595E+03 -0.37438292304E+01 -0.15591566403E+03  0.21994324813E+03  0.00000000000E+00 0. -1.
         11    1    4    4    0    0  0.16012106800E+03 -0.10083361083E+03 -0.20148349547E+03  0.27640870543E+03  0.00000000000E+00 0.  1.
        -15    1    3    3    0    0 -0.25541439293E+03  0.12852186210E+03  0.25760500987E+03  0.38486085797E+03  0.17770000000E+01 0. -1.
         15    1    3    3    0    0 -0.59791561026E+02 -0.23944422049E+02  0.99794149627E+02  0.11878718848E+03  0.17770000000E+01 0. -1.
</event>
<event>
 8    1  0.7045625E-009  0.5031496E+03  0.7546771E-02  0.9392790E-01
        -11   -1    0    0    0    0  0.00000000000E+00  0.00000000000E+00  0.50000000000E+03  0.50000000000E+03  0.00000000000E+00 0.  1.
         11   -1    0    0    0    0 -0.00000000000E+00 -0.00000000000E+00 -0.50000000000E+03  0.50000000000E+03  0.00000000000E+00 0. -1.
         25    2    1    2    0    0  0.38367571085E+03  0.30001962255E+03 -0.18135131231E+02  0.50314958437E+03  0.12494717388E+03 0.  0.
         23    2    1    2    0    0 -0.38367571085E+03 -0.30001962255E+03  0.18135131231E+02  0.49685041563E+03  0.96501956001E+02 0.  0.
        -11    1    4    4    0    0 -0.11796468138E+03 -0.13735743889E+03  0.36735015700E+02  0.18474900122E+03  0.00000000000E+00 0.  1.
         11    1    4    4    0    0 -0.26571102947E+03 -0.16266218366E+03 -0.18599884469E+02  0.31210141441E+03  0.00000000000E+00 0. -1.
        -15    1    3    3    0    0  0.77996136575E+02  0.29723929474E+02 -0.43831635747E+02  0.94293580509E+02  0.17770000000E+01 0. -1.
         15    1    3    3    0    0  0.30567957427E+03  0.27029569308E+03  0.25696504516E+02  0.40885600387E+03  0.17770000000E+01 0. -1.
</event>
<event>
 8    1  0.7045625E-009  0.5038739E+03  0.7546771E-02  0.9391183E-01
        -11   -1    0    0    0    0  0.00000000000E+00  0.00000000000E+00  0.50000000000E+03  0.50000000000E+03  0.00000000000E+00 0. -1.
         11   -1    0    0    0    0 -0.00000000000E+00 -0.00000000000E+00 -0.50000000000E+03  0.50000000000E+03  0.00000000000E+00 0.  1.
         25    2    1    2    0    0  0.44272803795E+03  0.15163134739E+03 -0.13876063131E+03  0.50387394693E+03  0.12503703648E+03 0.  0.
         23    2    1    2    0    0 -0.44272803795E+03 -0.15163134739E+03  0.13876063131E+03  0.49612605307E+03  0.88805217418E+02 0.  0.
        -11    1    4    4    0    0 -0.30272473245E+03 -0.12155175502E+03  0.13452435585E+03  0.35286526480E+03  0.00000000000E+00 0. -1.
         11    1    4    4    0    0 -0.14000330550E+03 -0.30079592371E+02  0.42362754641E+01  0.14326078828E+03  0.00000000000E+00 0.  1.
        -15    1    3    3    0    0  0.37587398027E+03  0.13682403042E+03 -0.16196515323E+03  0.43155293179E+03  0.17770000000E+01 0. -1.
         15    1    3    3    0    0  0.66854057676E+02  0.14807316962E+02  0.23204521921E+02  0.72321015133E+02  0.17770000000E+01 0. -1.
</event>
<event>
 8    1  0.7045625E-009  0.5036403E+03  0.7546771E-02  0.9391701E-01
        -11   -1    0    0    0    0  0.00000000000E+00  0.00000000000E+00  0.50000000000E+03  0.50000000000E+03  0.00000000000E+00 0.  1.
         11   -1    0    0    0    0 -0.00000000000E+00 -0.00000000000E+00 -0.50000000000E+03  0.50000000000E+03  0.00000000000E+00 0. -1.
         25    2    1    2    0    0 -0.85882102217E+01 -0.42598802297E+03  0.23769846578E+03  0.50364033202E+03  0.12495387283E+03 0.  0.
         23    2    1    2    0    0  0.85882102217E+01  0.42598802297E+03 -0.23769846578E+03  0.49635966798E+03  0.91284206183E+02 0.  0.
        -11    1    4    4    0    0  0.29062369943E+02  0.42198768166E+02 -0.23560485954E+02  0.56395512941E+02  0.00000000000E+00 0. -1.
         11    1    4    4    0    0 -0.20474159722E+02  0.38378925480E+03 -0.21413797982E+03  0.43996415504E+03  0.00000000000E+00 0.  1.
        -15    1    3    3    0    0 -0.51956933929E+02 -0.92091664633E+02  0.39228985201E+02  0.11279392132E+03  0.17770000000E+01 0. -1.
         15    1    3    3    0    0  0.43368723707E+02 -0.33389635833E+03  0.19846948058E+03  0.39084641070E+03  0.17770000000E+01 0. -1.
</event>
<event>
 8    1  0.7045625E-009  0.5036807E+03  0.7546771E-02  0.9391611E-01
        -11   -1    0    0    0    0  0.00000000000E+00  0.00000000000E+00  0.50000000000E+03  0.50000000000E+03  0.00000000000E+00 0.  1.
         11   -1    0    0    0    0 -0.00000000000E+00 -0.00000000000E+00 -0.50000000000E+03  0.50000000000E+03  0.00000000000E+00 0. -1.
         25    2    1    2    0    0 -0.46674146049E+03  0.57728717622E+02  0.12999899560E+03  0.50368066527E+03  0.12495710436E+03 0.  0.
         23    2    1    2    0    0  0.46674146049E+03 -0.57728717622E+02 -0.12999899560E+03  0.49631933473E+03  0.90845734048E+02 0.  0.
        -11    1    4    4    0    0  0.37725933585E+03 -0.51919997714E+02 -0.14077793305E+03  0.40600334861E+03  0.00000000000E+00 0. -1.
         11    1    4    4    0    0  0.89482124641E+02 -0.58087199083E+01  0.10778937449E+02  0.90315986126E+02  0.00000000000E+00 0.  1.
        -15    1    3    3    0    0 -0.12979134878E+02  0.27735551763E+02  0.17107044391E+02  0.35121609738E+02  0.17770000000E+01 0. -1.
         15    1    3    3    0    0 -0.45376232561E+03  0.29993165859E+02  0.11289195121E+03  0.46855905553E+03  0.17770000000E+01 0. -1.
</event>
<event>
 8    1  0.7045625E-009  0.5041808E+03  0.7546771E-02  0.9390503E-01
        -11   -1    0    0    0    0  0.00000000000E+00  0.00000000000E+00  0.50000000000E+03  0.50000000000E+03  0.00000000000E+00 0.  1.
         11   -1    0    0    0    0 -0.00000000000E+00 -0.00000000000E+00 -0.50000000000E+03  0.50000000000E+03  0.00000000000E+00 0. -1.
         25    2    1    2    0    0  0.15519256707E+03 -0.45737101151E+03  0.72862187647E+02  0.50418078844E+03  0.12496557126E+03 0.  0.
         23    2    1    2    0    0 -0.15519256707E+03  0.45737101151E+03 -0.72862187647E+02  0.49581921156E+03  0.85175214229E+02 0.  0.
        -11    1    4    4    0    0 -0.10749162438E+02  0.10770710262E+03 -0.42473500660E+02  0.11627709451E+03  0.00000000000E+00 0. -1.
         11    1    4    4    0    0 -0.14444340463E+03  0.34966390889E+03 -0.30388686987E+02  0.37954211705E+03  0.00000000000E+00 0.  1.
        -15    1    3    3    0    0  0.56784038229E+02 -0.16939350673E+03 -0.33532767227E+02  0.18178611423E+03  0.17770000000E+01 0.  1.
         15    1    3    3    0    0  0.98408528845E+02 -0.28797750478E+03  0.10639495487E+03  0.32239467421E+03  0.17770000000E+01 0.  1.
</event>
<event>
 8    1  0.7045625E-009  0.5036396E+03  0.7546771E-02  0.9391702E-01
        -11   -1    0    0    0    0  0.00000000000E+00  0.00000000000E+00  0.50000000000E+03  0.50000000000E+03  0.00000000000E+00 0. -1.
         11   -1    0    0    0    0 -0.00000000000E+00 -0.00000000000E+00 -0.50000000000E+03  0.50000000000E+03  0.00000000000E+00 0.  1.
         25    2    1    2    0    0 -0.15280473552E-02 -0.41623458983E+03  0.25453113655E+03  0.50363960363E+03  0.12496206266E+03 0.  0.
         23    2    1    2    0    0  0.15280473552E-02  0.41623458983E+03 -0.25453113655E+03  0.49636039637E+03  0.91303394466E+02 0.  0.
        -11    1    4    4    0    0  0.28036951291E+02  0.27704651731E+03 -0.20575987712E+03  0.34623398219E+03  0.00000000000E+00 0.  1.
         11    1    4    4    0    0 -0.28035423244E+02  0.13918807252E+03 -0.48771259423E+02  0.15012641418E+03  0.00000000000E+00 0. -1.
        -15    1    3    3    0    0  0.23818273603E+02 -0.29957617253E+03  0.11900458392E+03  0.32323125163E+03  0.17770000000E+01 0. -1.
         15    1    3    3    0    0 -0.23819801650E+02 -0.11665841730E+03  0.13552655263E+03  0.18040835201E+03  0.17770000000E+01 0. -1.
</event>
<event>
 8    1  0.7045625E-009  0.5036095E+03  0.7546771E-02  0.9391769E-01
        -11   -1    0    0    0    0  0.00000000000E+00  0.00000000000E+00  0.50000000000E+03  0.50000000000E+03  0.00000000000E+00 0. -1.
         11   -1    0    0    0    0 -0.00000000000E+00 -0.00000000000E+00 -0.50000000000E+03  0.50000000000E+03  0.00000000000E+00 0.  1.
         25    2    1    2    0    0  0.41658082953E+02  0.31038402482E+03  0.37407985393E+03  0.50360948431E+03  0.12495253833E+03 0.  0.
         23    2    1    2    0    0 -0.41658082953E+02 -0.31038402482E+03 -0.37407985393E+03  0.49639051569E+03  0.91619693393E+02 0.  0.
        -11    1    4    4    0    0 -0.36371937528E+02 -0.65052307448E+02 -0.13260762529E+03  0.15211674079E+03  0.00000000000E+00 0.  1.
         11    1    4    4    0    0 -0.52861454250E+01 -0.24533171737E+03 -0.24147222863E+03  0.34427377490E+03  0.00000000000E+00 0. -1.
        -15    1    3    3    0    0  0.10113234706E+02  0.26756627069E+02  0.11382413737E+03  0.11737668672E+03  0.17770000000E+01 0. -1.
         15    1    3    3    0    0  0.31544848247E+02  0.28362739775E+03  0.26025571655E+03  0.38623279759E+03  0.17770000000E+01 0. -1.
</event>
<event>
 8    1  0.7045625E-009  0.5036837E+03  0.7546771E-02  0.9391605E-01
        -11   -1    0    0    0    0  0.00000000000E+00  0.00000000000E+00  0.50000000000E+03  0.50000000000E+03  0.00000000000E+00 0. -1.
         11   -1    0    0    0    0 -0.00000000000E+00 -0.00000000000E+00 -0.50000000000E+03  0.50000000000E+03  0.00000000000E+00 0.  1.
         25    2    1    2    0    0 -0.35089060909E+03  0.32980770494E+03 -0.78642280623E+02  0.50368370387E+03  0.12496128784E+03 0.  0.
         23    2    1    2    0    0  0.35089060909E+03 -0.32980770494E+03  0.78642280623E+02  0.49631629613E+03  0.90818036259E+02 0.  0.
        -11    1    4    4    0    0  0.23299764574E+03 -0.24734447476E+03  0.18281918228E+02  0.34029607792E+03  0.00000000000E+00 0.  1.
         11    1    4    4    0    0  0.11789296335E+03 -0.82463230182E+02  0.60360362394E+02  0.15602021820E+03  0.00000000000E+00 0. -1.
        -15    1    3    3    0    0 -0.23620095963E+03  0.22460856257E+03 -0.11172697555E+03  0.34456635718E+03  0.17770000000E+01 0.  1.
         15    1    3    3    0    0 -0.11468964947E+03  0.10519914238E+03  0.33084694928E+02  0.15911734669E+03  0.17770000000E+01 0.  1.
</event>
<event>
 7    1  0.7045625E-009  0.5039326E+03  0.7546771E-02  0.9391053E-01
        -11   -1    0    0    0    0  0.00000000000E+00  0.00000000000E+00  0.50000000000E+03  0.50000000000E+03  0.00000000000E+00 0.  1.
         11   -1    0    0    0    0 -0.00000000000E+00 -0.00000000000E+00 -0.50000000000E+03  0.50000000000E+03  0.00000000000E+00 0. -1.
         23    2    1    2    0    0 -0.20149161939E+03  0.27477895634E+03  0.34945513375E+03  0.49606738700E+03  0.88665745416E+02 0.  0.
        -11    1    3    3    0    0 -0.39054228584E+02  0.61842863939E+02  0.13270422448E+03  0.15152618185E+03  0.00000000000E+00 0. -1.
         11    1    3    3    0    0 -0.16243739081E+03  0.21293609240E+03  0.21675090927E+03  0.34454120515E+03  0.00000000000E+00 0.  1.
        -15    1    1    2    0    0  0.34217916862E+02  0.66453598756E+01 -0.44134652997E+02  0.56267681367E+02  0.17770000000E+01 0.  1.
         15    1    1    2    0    0  0.16727370253E+03 -0.28142431621E+03 -0.30532048076E+03  0.44766493163E+03  0.17770000000E+01 0. -1.
</event>
<event>
 8    1  0.7045625E-009  0.5036363E+03  0.7546771E-02  0.9391710E-01
        -11   -1    0    0    0    0  0.00000000000E+00  0.00000000000E+00  0.50000000000E+03  0.50000000000E+03  0.00000000000E+00 0.  1.
         11   -1    0    0    0    0 -0.00000000000E+00 -0.00000000000E+00 -0.50000000000E+03  0.50000000000E+03  0.00000000000E+00 0. -1.
         25    2    1    2    0    0  0.41138547709E+03  0.69783512363E+02 -0.25284453598E+03  0.50363626350E+03  0.12494549682E+03 0.  0.
         23    2    1    2    0    0 -0.41138547709E+03 -0.69783512363E+02  0.25284453598E+03  0.49636373650E+03  0.91317304952E+02 0.  0.
        -11    1    4    4    0    0 -0.16395515141E+03 -0.52767446276E+02  0.14803439277E+03  0.22711203513E+03  0.00000000000E+00 0.  1.
         11    1    4    4    0    0 -0.24743032568E+03 -0.17016066086E+02  0.10481014321E+03  0.26925170137E+03  0.00000000000E+00 0. -1.
        -15    1    3    3    0    0  0.35798690171E+03  0.14002457723E+02 -0.20472961677E+03  0.41263551027E+03  0.17770000000E+01 0. -1.
         15    1    3    3    0    0  0.53398575376E+02  0.55781054640E+02 -0.48114919206E+02  0.91000753229E+02  0.17770000000E+01 0. -1.
</event>
<event>
 8    1  0.7045625E-009  0.5039092E+03  0.7546771E-02  0.9391105E-01
        -11   -1    0    0    0    0  0.00000000000E+00  0.00000000000E+00  0.50000000000E+03  0.50000000000E+03  0.00000000000E+00 0. -1.
         11   -1    0    0    0    0 -0.00000000000E+00 -0.00000000000E+00 -0.50000000000E+03  0.50000000000E+03  0.00000000000E+00 0.  1.
         25    2    1    2    0    0 -0.24353691478E+03  0.25477438613E+03  0.33777102394E+03  0.50390920673E+03  0.12496002293E+03 0.  0.
         23    2    1    2    0    0  0.24353691478E+03 -0.25477438613E+03 -0.33777102394E+03  0.49609079327E+03  0.88298323105E+02 0.  0.
        -11    1    4    4    0    0  0.17515363268E+03 -0.12735107285E+03 -0.17558958891E+03  0.27879884241E+03  0.00000000000E+00 0. -1.
         11    1    4    4    0    0  0.68383282096E+02 -0.12742331328E+03 -0.16218143503E+03  0.21729195085E+03  0.00000000000E+00 0.  1.
        -15    1    3    3    0    0 -0.12288548530E+03  0.43120069737E+02  0.11309899087E+03  0.17249557205E+03  0.17770000000E+01 0. -1.
         15    1    3    3    0    0 -0.12065142948E+03  0.21165431639E+03  0.22467203307E+03  0.33141363469E+03  0.17770000000E+01 0. -1.
</event>
<event>
 8    1  0.7045625E-009  0.5039567E+03  0.7546771E-02  0.9391000E-01
        -11   -1    0    0    0    0  0.00000000000E+00  0.00000000000E+00  0.50000000000E+03  0.50000000000E+03  0.00000000000E+00 0.  1.
         11   -1    0    0    0    0 -0.00000000000E+00 -0.00000000000E+00 -0.50000000000E+03  0.50000000000E+03  0.00000000000E+00 0. -1.
         25    2    1    2    0    0  0.23653163155E+02 -0.42442262867E+03 -0.24013407263E+03  0.50395669785E+03  0.12495575465E+03 0.  0.
         23    2    1    2    0    0 -0.23653163155E+02  0.42442262867E+03  0.24013407263E+03  0.49604330215E+03  0.87752748761E+02 0.  0.
        -11    1    4    4    0    0 -0.19187883280E+02  0.26815997670E+03  0.10237018071E+03  0.28767621011E+03  0.00000000000E+00 0. -1.
         11    1    4    4    0    0 -0.44652798750E+01  0.15626265197E+03  0.13776389192E+03  0.20836709203E+03  0.00000000000E+00 0.  1.
        -15    1    3    3    0    0 -0.27520999429E+02 -0.34143731296E+03 -0.16160776835E+03  0.37875727401E+03  0.17770000000E+01 0. -1.
         15    1    3    3    0    0  0.51174162584E+02 -0.82985315706E+02 -0.78526304279E+02  0.12519942385E+03  0.17770000000E+01 0. -1.
</event>
<event>
 8    1  0.7045625E-009  0.5035897E+03  0.7546771E-02  0.9391813E-01
        -11   -1    0    0    0    0  0.00000000000E+00  0.00000000000E+00  0.50000000000E+03  0.50000000000E+03  0.00000000000E+00 0.  1.
         11   -1    0    0    0    0 -0.00000000000E+00 -0.00000000000E+00 -0.50000000000E+03  0.50000000000E+03  0.00000000000E+00 0. -1.
         25    2    1    2    0    0  0.32602383656E+03 -0.30838031693E+03 -0.19124738517E+03  0.50358965960E+03  0.12504807495E+03 0.  0.
         23    2    1    2    0    0 -0.32602383656E+03  0.30838031693E+03  0.19124738517E+03  0.49641034040E+03  0.91965764528E+02 0.  0.
        -11    1    4    4    0    0 -0.24810214598E+03  0.18384828127E+03  0.15294884526E+03  0.34459862831E+03  0.00000000000E+00 0.  1.
         11    1    4    4    0    0 -0.77921690581E+02  0.12453203566E+03  0.38298539907E+02  0.15181171209E+03  0.00000000000E+00 0. -1.
        -15    1    3    3    0    0  0.20120955995E+03 -0.26340089095E+03 -0.15579152231E+03  0.36625055976E+03  0.17770000000E+01 0. -1.
         15    1    3    3    0    0  0.12481427661E+03 -0.44979425982E+02 -0.35455862856E+02  0.13733909984E+03  0.17770000000E+01 0. -1.
</event>
<event>
 8    1  0.7045625E-009  0.5029371E+03  0.7546771E-02  0.9393262E-01
        -11   -1    0    0    0    0  0.00000000000E+00  0.00000000000E+00  0.50000000000E+03  0.50000000000E+03  0.00000000000E+00 0.  1.
         11   -1    0    0    0    0 -0.00000000000E+00 -0.00000000000E+00 -0.50000000000E+03  0.50000000000E+03  0.00000000000E+00 0. -1.
         25    2    1    2    0    0  0.33480524301E+03 -0.80325684302E+02  0.34461097791E+03  0.50293711155E+03  0.12506896406E+03 0.  0.
         23    2    1    2    0    0 -0.33480524301E+03  0.80325684302E+02 -0.34461097791E+03  0.49706288845E+03  0.98833307545E+02 0.  0.
        -11    1    4    4    0    0 -0.15876205070E+03  0.39040201925E+02 -0.95814274210E+02  0.18949907982E+03  0.00000000000E+00 0. -1.
         11    1    4    4    0    0 -0.17604319231E+03  0.41285482377E+02 -0.24879670370E+03  0.30756380864E+03  0.00000000000E+00 0.  1.
        -15    1    3    3    0    0  0.48623630908E+02 -0.33290968778E+02  0.12807799428E+03  0.14099530642E+03  0.17770000000E+01 0. -1.
         15    1    3    3    0    0  0.28618161210E+03 -0.47034715524E+02  0.21653298362E+03  0.36194180512E+03  0.17770000000E+01 0. -1.
</event>
<event>
 8    1  0.7045625E-009  0.5037019E+03  0.7546771E-02  0.9391564E-01
        -11   -1    0    0    0    0  0.00000000000E+00  0.00000000000E+00  0.50000000000E+03  0.50000000000E+03  0.00000000000E+00 0.  1.
         11   -1    0    0    0    0 -0.00000000000E+00 -0.00000000000E+00 -0.50000000000E+03  0.50000000000E+03  0.00000000000E+00 0. -1.
         25    2    1    2    0    0 -0.46362409329E+03  0.55660017057E+02  0.14161672219E+03  0.50370192928E+03  0.12495999430E+03 0.  0.
         23    2    1    2    0    0  0.46362409329E+03 -0.55660017057E+02 -0.14161672219E+03  0.49629807072E+03  0.90615349821E+02 0.  0.
        -11    1    4    4    0    0  0.61972293912E+02 -0.17719878749E+02  0.10162682837E+02  0.65252122096E+02  0.00000000000E+00 0.  1.
         11    1    4    4    0    0  0.40165179938E+03 -0.37940138308E+02 -0.15177940503E+03  0.43104594863E+03  0.00000000000E+00 0. -1.
        -15    1    3    3    0    0 -0.25065869478E+03 -0.28114400660E+02  0.98676444316E+02  0.27085124919E+03  0.17770000000E+01 0. -1.
         15    1    3    3    0    0 -0.21296539850E+03  0.83774417717E+02  0.42940277879E+02  0.23285068009E+03  0.17770000000E+01 0. -1.
</event>
<event>
 8    1  0.7045625E-009  0.5035001E+03  0.7546771E-02  0.9392012E-01
        -11   -1    0    0    0    0  0.00000000000E+00  0.00000000000E+00  0.50000000000E+03  0.50000000000E+03  0.00000000000E+00 0.  1.
         11   -1    0    0    0    0 -0.00000000000E+00 -0.00000000000E+00 -0.50000000000E+03  0.50000000000E+03  0.00000000000E+00 0. -1.
         25    2    1    2    0    0 -0.25049625329E+02 -0.42138936097E+03  0.24433423823E+03  0.50350010425E+03  0.12496662649E+03 0.  0.
         23    2    1    2    0    0  0.25049625329E+02  0.42138936097E+03 -0.24433423823E+03  0.49649989575E+03  0.92824830916E+02 0.  0.
        -11    1    4    4    0    0  0.25214706660E+02  0.22233136421E+03 -0.77577498094E+02  0.23682332055E+03  0.00000000000E+00 0.  1.
         11    1    4    4    0    0 -0.16508133116E+00  0.19905799676E+03 -0.16675674014E+03  0.25967657520E+03  0.00000000000E+00 0. -1.
        -15    1    3    3    0    0  0.39998746839E+02 -0.26773553637E+03  0.17768523066E+03  0.32381694845E+03  0.17770000000E+01 0.  1.
         15    1    3    3    0    0 -0.65048372167E+02 -0.15365382460E+03  0.66649007580E+02  0.17968315580E+03  0.17770000000E+01 0.  1.
</event>
<event>
 8    1  0.7045625E-009  0.5036370E+03  0.7546771E-02  0.9391708E-01
        -11   -1    0    0    0    0  0.00000000000E+00  0.00000000000E+00  0.50000000000E+03  0.50000000000E+03  0.00000000000E+00 0. -1.
         11   -1    0    0    0    0 -0.00000000000E+00 -0.00000000000E+00 -0.50000000000E+03  0.50000000000E+03  0.00000000000E+00 0.  1.
         25    2    1    2    0    0  0.31030932790E+03  0.17292360143E+03  0.33439838909E+03  0.50363699986E+03  0.12503397174E+03 0.  0.
         23    2    1    2    0    0 -0.31030932790E+03 -0.17292360143E+03 -0.33439838909E+03  0.49636300014E+03  0.91430270495E+02 0.  0.
        -11    1    4    4    0    0 -0.10508989380E+03 -0.87860948989E+02 -0.17834892108E+03  0.22488167953E+03  0.00000000000E+00 0. -1.
         11    1    4    4    0    0 -0.20521943410E+03 -0.85062652442E+02 -0.15604946801E+03  0.27148132061E+03  0.00000000000E+00 0.  1.
        -15    1    3    3    0    0 -0.26338859955E+01  0.23895856595E+02  0.49120376218E+02  0.54716710488E+02  0.17770000000E+01 0. -1.
         15    1    3    3    0    0  0.31294321390E+03  0.14902774484E+03  0.28527801287E+03  0.44892028938E+03  0.17770000000E+01 0. -1.
</event>
<event>
 8    1  0.7045625E-009  0.5037818E+03  0.7546771E-02  0.9391387E-01
        -11   -1    0    0    0    0  0.00000000000E+00  0.00000000000E+00  0.50000000000E+03  0.50000000000E+03  0.00000000000E+00 0.  1.
         11   -1    0    0    0    0 -0.00000000000E+00 -0.00000000000E+00 -0.50000000000E+03  0.50000000000E+03  0.00000000000E+00 0. -1.
         25    2    1    2    0    0 -0.34341428974E+03  0.10927116504E+03 -0.32907216770E+03  0.50378177202E+03  0.12503607622E+03 0.  0.
         23    2    1    2    0    0  0.34341428974E+03 -0.10927116504E+03  0.32907216770E+03  0.49621822798E+03  0.89835829792E+02 0.  0.
        -11    1    4    4    0    0  0.23427674303E+03 -0.53329158472E+02  0.26551022673E+03  0.35808556515E+03  0.00000000000E+00 0.  1.
         11    1    4    4    0    0  0.10913754671E+03 -0.55942006571E+02  0.63561940972E+02  0.13813266283E+03  0.00000000000E+00 0. -1.
        -15    1    3    3    0    0 -0.35030662925E+03  0.11215781713E+03 -0.30286072390E+03  0.47646813770E+03  0.17770000000E+01 0.  1.
         15    1    3    3    0    0  0.68923395113E+01 -0.28866520828E+01 -0.26211443807E+02  0.27313634318E+02  0.17770000000E+01 0.  1.
</event>
<event>
 8    1  0.7045625E-009  0.5038293E+03  0.7546771E-02  0.9391282E-01
        -11   -1    0    0    0    0  0.00000000000E+00  0.00000000000E+00  0.50000000000E+03  0.50000000000E+03  0.00000000000E+00 0.  1.
         11   -1    0    0    0    0 -0.00000000000E+00 -0.00000000000E+00 -0.50000000000E+03  0.50000000000E+03  0.00000000000E+00 0. -1.
         25    2    1    2    0    0 -0.40947730221E+03  0.11889442088E+03 -0.23754182613E+03  0.50382933168E+03  0.12494131409E+03 0.  0.
         23    2    1    2    0    0  0.40947730221E+03 -0.11889442088E+03  0.23754182613E+03  0.49617066832E+03  0.89172129047E+02 0.  0.
        -11    1    4    4    0    0  0.18844457551E+03 -0.63283071252E+02  0.61193407967E+02  0.20799215928E+03  0.00000000000E+00 0. -1.
         11    1    4    4    0    0  0.22103272670E+03 -0.55611349623E+02  0.17634841817E+03  0.28817850903E+03  0.00000000000E+00 0.  1.
        -15    1    3    3    0    0 -0.24961314093E+03  0.51789179397E+02 -0.20563241150E+03  0.32753119793E+03  0.17770000000E+01 0. -1.
         15    1    3    3    0    0 -0.15986416127E+03  0.67105241478E+02 -0.31909414629E+02  0.17629813375E+03  0.17770000000E+01 0. -1.
</event>
<event>
 8    1  0.7045625E-009  0.5035812E+03  0.7546771E-02  0.9391832E-01
        -11   -1    0    0    0    0  0.00000000000E+00  0.00000000000E+00  0.50000000000E+03  0.50000000000E+03  0.00000000000E+00 0.  1.
         11   -1    0    0    0    0 -0.00000000000E+00 -0.00000000000E+00 -0.50000000000E+03  0.50000000000E+03  0.00000000000E+00 0. -1.
         25    2    1    2    0    0  0.26441027655E+03 -0.60762836795E+02 -0.40540494212E+03  0.50358115972E+03  0.12504359498E+03 0.  0.
         23    2    1    2    0    0 -0.26441027655E+03  0.60762836795E+02  0.40540494212E+03  0.49641884028E+03  0.92052057072E+02 0.  0.
        -11    1    4    4    0    0 -0.71528212448E+02  0.24835113042E+02  0.50877960234E+02  0.91222995200E+02  0.00000000000E+00 0. -1.
         11    1    4    4    0    0 -0.19288206411E+03  0.35927723753E+02  0.35452698188E+03  0.40519584508E+03  0.00000000000E+00 0.  1.
        -15    1    3    3    0    0  0.27099401207E+03 -0.47090282065E+02 -0.34476335396E+03  0.44104441636E+03  0.17770000000E+01 0.  1.
         15    1    3    3    0    0 -0.65837355135E+01 -0.13672554730E+02 -0.60641588160E+02  0.62536743358E+02  0.17770000000E+01 0.  1.
</event>
<event>
 8    1  0.7045625E-009  0.5038447E+03  0.7546771E-02  0.9391248E-01
        -11   -1    0    0    0    0  0.00000000000E+00  0.00000000000E+00  0.50000000000E+03  0.50000000000E+03  0.00000000000E+00 0.  1.
         11   -1    0    0    0    0 -0.00000000000E+00 -0.00000000000E+00 -0.50000000000E+03  0.50000000000E+03  0.00000000000E+00 0. -1.
         25    2    1    2    0    0 -0.70459790615E+02  0.42033347142E+03 -0.23792871490E+03  0.50384473195E+03  0.12491849843E+03 0.  0.
         23    2    1    2    0    0  0.70459790615E+02 -0.42033347142E+03  0.23792871490E+03  0.49615526805E+03  0.88967226262E+02 0.  0.
        -11    1    4    4    0    0 -0.53338763342E+01 -0.23002857355E+03  0.13713175275E+03  0.26785576809E+03  0.00000000000E+00 0. -1.
         11    1    4    4    0    0  0.75793666949E+02 -0.19030489787E+03  0.10079696214E+03  0.22829949996E+03  0.00000000000E+00 0.  1.
        -15    1    3    3    0    0 -0.86655092423E+02  0.41553310767E+03 -0.23842275885E+03  0.48685258373E+03  0.17770000000E+01 0.  1.
         15    1    3    3    0    0  0.16195301808E+02  0.48003637554E+01  0.49404395971E+00  0.16992148224E+02  0.17770000000E+01 0.  1.
</event>
<event>
 8    1  0.7045625E-009  0.5028038E+03  0.7546771E-02  0.9393558E-01
        -11   -1    0    0    0    0  0.00000000000E+00  0.00000000000E+00  0.50000000000E+03  0.50000000000E+03  0.00000000000E+00 0.  1.
         11   -1    0    0    0    0 -0.00000000000E+00 -0.00000000000E+00 -0.50000000000E+03  0.50000000000E+03  0.00000000000E+00 0. -1.
         25    2    1    2    0    0  0.11158807348E+03  0.23965858569E+03 -0.40899585372E+03  0.50280377722E+03  0.12508354883E+03 0.  0.
         23    2    1    2    0    0 -0.11158807348E+03 -0.23965858569E+03  0.40899585372E+03  0.49719622278E+03  0.10019151540E+03 0.  0.
        -11    1    4    4    0    0 -0.99653149316E+02 -0.98817379356E+02  0.22492984164E+03  0.26512083715E+03  0.00000000000E+00 0.  1.
         11    1    4    4    0    0 -0.11934924162E+02 -0.14084120633E+03  0.18406601207E+03  0.23207538563E+03  0.00000000000E+00 0. -1.
        -15    1    3    3    0    0  0.66251125226E+02  0.66852268993E+02 -0.62611037131E+02  0.11305634508E+03  0.17770000000E+01 0. -1.
         15    1    3    3    0    0  0.45336948252E+02  0.17280631669E+03 -0.34638481659E+03  0.38974743214E+03  0.17770000000E+01 0. -1.
</event>
<event>
 8    1  0.7045625E-009  0.5034722E+03  0.7546771E-02  0.9392074E-01
        -11   -1    0    0    0    0  0.00000000000E+00  0.00000000000E+00  0.50000000000E+03  0.50000000000E+03  0.00000000000E+00 0.  1.
         11   -1    0    0    0    0 -0.00000000000E+00 -0.00000000000E+00 -0.50000000000E+03  0.50000000000E+03  0.00000000000E+00 0. -1.
         25    2    1    2    0    0 -0.16666986044E+03  0.18028347839E+03 -0.42141438280E+03  0.50347220511E+03  0.12495280837E+03 0.  0.
         23    2    1    2    0    0  0.16666986044E+03 -0.18028347839E+03  0.42141438280E+03  0.49652779489E+03  0.93106359100E+02 0.  0.
        -11    1    4    4    0    0  0.36503496694E+02 -0.94081311102E+02  0.21696306814E+03  0.23928387180E+03  0.00000000000E+00 0.  1.
         11    1    4    4    0    0  0.13016636375E+03 -0.86202167293E+02  0.20445131467E+03  0.25724392309E+03  0.00000000000E+00 0. -1.
        -15    1    3    3    0    0 -0.12096282195E+02 -0.28902776067E+01  0.56264745998E+01  0.13765489204E+02  0.17770000000E+01 0. -1.
         15    1    3    3    0    0 -0.15457357825E+03  0.18317375600E+03 -0.42704085740E+03  0.48970671590E+03  0.17770000000E+01 0. -1.
</event>
<event>
 8    1  0.7141424E-009  0.5037638E+03  0.7546771E-02  0.9391427E-01
        -11   -1    0    0    0    0  0.00000000000E+00  0.00000000000E+00  0.50000000000E+03  0.50000000000E+03  0.00000000000E+00 0. -1.
         11   -1    0    0    0    0 -0.00000000000E+00 -0.00000000000E+00 -0.50000000000E+03  0.50000000000E+03  0.00000000000E+00 0.  1.
         25    2    1    2    0    0 -0.32038408961E+03 -0.17915572250E+03 -0.32155987566E+03  0.50376384492E+03  0.12503807432E+03 0.  0.
         23    2    1    2    0    0  0.32038408961E+03  0.17915572250E+03  0.32155987566E+03  0.49623615508E+03  0.90037937546E+02 0.  0.
        -11    1    4    4    0    0  0.10807103456E+03  0.85181802621E+02  0.17108978751E+03  0.21956093323E+03  0.00000000000E+00 0. -1.
         11    1    4    4    0    0  0.21231305505E+03  0.93973919880E+02  0.15047008815E+03  0.27667522186E+03  0.00000000000E+00 0.  1.
        -15    1    3    3    0    0 -0.25079895701E+01 -0.39895039637E+02 -0.43117715991E+02  0.58823459271E+02  0.17770000000E+01 0.  1.
         15    1    3    3    0    0 -0.31787610004E+03 -0.13926068286E+03 -0.27844215967E+03  0.44494038565E+03  0.17770000000E+01 0.  1.
</event>
<event>
 8    1  0.7045625E-009  0.5036593E+03  0.7546771E-02  0.9391659E-01
        -11   -1    0    0    0    0  0.00000000000E+00  0.00000000000E+00  0.50000000000E+03  0.50000000000E+03  0.00000000000E+00 0. -1.
         11   -1    0    0    0    0 -0.00000000000E+00 -0.00000000000E+00 -0.50000000000E+03  0.50000000000E+03  0.00000000000E+00 0.  1.
         25    2    1    2    0    0  0.39883704576E+03 -0.22564756484E+03  0.16754573437E+03  0.50365932731E+03  0.12495332047E+03 0.  0.
         23    2    1    2    0    0 -0.39883704576E+03  0.22564756484E+03 -0.16754573437E+03  0.49634067269E+03  0.91075121037E+02 0.  0.
        -11    1    4    4    0    0 -0.63333684872E+02  0.64064804811E+01 -0.50180378942E+01  0.63854360352E+02  0.00000000000E+00 0. -1.
         11    1    4    4    0    0 -0.33550336088E+03  0.21924108435E+03 -0.16252769648E+03  0.43248631234E+03  0.00000000000E+00 0.  1.
        -15    1    3    3    0    0  0.36176675371E+03 -0.23835532363E+03  0.16734453596E+03  0.46443061466E+03  0.17770000000E+01 0. -1.
         15    1    3    3    0    0  0.37070292050E+02  0.12707758799E+02  0.20119841930E+00  0.39228712650E+02  0.17770000000E+01 0. -1.
</event>
<event>
 8    1  0.7045625E-009  0.5035959E+03  0.7546771E-02  0.9391799E-01
        -11   -1    0    0    0    0  0.00000000000E+00  0.00000000000E+00  0.50000000000E+03  0.50000000000E+03  0.00000000000E+00 0.  1.
         11   -1    0    0    0    0 -0.00000000000E+00 -0.00000000000E+00 -0.50000000000E+03  0.50000000000E+03  0.00000000000E+00 0. -1.
         25    2    1    2    0    0 -0.18580738918E+03  0.22253220606E+03  0.39236486467E+03  0.50359590226E+03  0.12495470035E+03 0.  0.
         23    2    1    2    0    0  0.18580738918E+03 -0.22253220606E+03 -0.39236486467E+03  0.49640409774E+03  0.91770761223E+02 0.  0.
        -11    1    4    4    0    0  0.44021182276E+02 -0.61606531367E+02 -0.17673300238E+03  0.19227007912E+03  0.00000000000E+00 0. -1.
         11    1    4    4    0    0  0.14178620690E+03 -0.16092567470E+03 -0.21563186229E+03  0.30413401861E+03  0.00000000000E+00 0.  1.
        -15    1    3    3    0    0 -0.17972286973E+03  0.18223884282E+03  0.38473581770E+03  0.46209967852E+03  0.17770000000E+01 0. -1.
         15    1    3    3    0    0 -0.60845194492E+01  0.40293363244E+02  0.76290469704E+01  0.41496223745E+02  0.17770000000E+01 0. -1.
</event>
<event>
 8    1  0.7045625E-009  0.5034701E+03  0.7546771E-02  0.9392078E-01
        -11   -1    0    0    0    0  0.00000000000E+00  0.00000000000E+00  0.50000000000E+03  0.50000000000E+03  0.00000000000E+00 0. -1.
         11   -1    0    0    0    0 -0.00000000000E+00 -0.00000000000E+00 -0.50000000000E+03  0.50000000000E+03  0.00000000000E+00 0.  1.
         25    2    1    2    0    0  0.46540052163E+03 -0.13727113275E+03  0.49029396047E+02  0.50347013477E+03  0.12504913240E+03 0.  0.
         23    2    1    2    0    0 -0.46540052163E+03  0.13727113275E+03 -0.49029396047E+02  0.49652986523E+03  0.93257793079E+02 0.  0.
        -11    1    4    4    0    0 -0.32123852866E+03  0.13851700441E+03 -0.30047384492E+02  0.35111821103E+03  0.00000000000E+00 0. -1.
         11    1    4    4    0    0 -0.14416199297E+03 -0.12458716590E+01 -0.18982011555E+02  0.14541165420E+03  0.00000000000E+00 0.  1.
        -15    1    3    3    0    0  0.50311575690E+02 -0.55160146821E+02  0.28183433478E+02  0.79820799904E+02  0.17770000000E+01 0.  1.
         15    1    3    3    0    0  0.41508894594E+03 -0.82110985926E+02  0.20845962569E+02  0.42364933487E+03  0.17770000000E+01 0.  1.
</event>
<event>
 8    1  0.7045625E-009  0.5035081E+03  0.7546771E-02  0.9391994E-01
        -11   -1    0    0    0    0  0.00000000000E+00  0.00000000000E+00  0.50000000000E+03  0.50000000000E+03  0.00000000000E+00 0.  1.
         11   -1    0    0    0    0 -0.00000000000E+00 -0.00000000000E+00 -0.50000000000E+03  0.50000000000E+03  0.00000000000E+00 0. -1.
         25    2    1    2    0    0 -0.29784275824E+03  0.10838865823E+03 -0.37074388767E+03  0.50350808634E+03  0.12494379898E+03 0.  0.
         23    2    1    2    0    0  0.29784275824E+03 -0.10838865823E+03  0.37074388767E+03  0.49649191366E+03  0.92708037486E+02 0.  0.
        -11    1    4    4    0    0  0.25438526712E+03 -0.78150748926E+02  0.34988312318E+03  0.43958799298E+03  0.00000000000E+00 0.  1.
         11    1    4    4    0    0  0.43457491121E+02 -0.30237909301E+02  0.20860764488E+02  0.56903920677E+02  0.00000000000E+00 0. -1.
        -15    1    3    3    0    0 -0.29807191069E+03  0.12478812132E+03 -0.34310838843E+03  0.47132309842E+03  0.17770000000E+01 0. -1.
         15    1    3    3    0    0  0.22915245259E+00 -0.16399463090E+02 -0.27635499244E+02  0.32184987928E+02  0.17770000000E+01 0. -1.
</event>
<event>
 8    1  0.7045625E-009  0.5037605E+03  0.7546771E-02  0.9391434E-01
        -11   -1    0    0    0    0  0.00000000000E+00  0.00000000000E+00  0.50000000000E+03  0.50000000000E+03  0.00000000000E+00 0.  1.
         11   -1    0    0    0    0 -0.00000000000E+00 -0.00000000000E+00 -0.50000000000E+03  0.50000000000E+03  0.00000000000E+00 0. -1.
         25    2    1    2    0    0 -0.40701093810E+03  0.73631009793E+02  0.25899734704E+03  0.50376050371E+03  0.12496235430E+03 0.  0.
         23    2    1    2    0    0  0.40701093810E+03 -0.73631009793E+02 -0.25899734704E+03  0.49623949629E+03  0.89969898136E+02 0.  0.
        -11    1    4    4    0    0  0.29356404628E+03 -0.22958761197E+02 -0.14768100949E+03  0.32941863114E+03  0.00000000000E+00 0.  1.
         11    1    4    4    0    0  0.11344689182E+03 -0.50672248596E+02 -0.11131633755E+03  0.16682086514E+03  0.00000000000E+00 0. -1.
        -15    1    3    3    0    0 -0.57806580739E+02 -0.29195983947E+02  0.18200310427E+02  0.67293501053E+02  0.17770000000E+01 0. -1.
         15    1    3    3    0    0 -0.34920435736E+03  0.10282699374E+03  0.24079703661E+03  0.43646700266E+03  0.17770000000E+01 0. -1.
</event>
<event>
 8    1  0.7045625E-009  0.5038562E+03  0.7546771E-02  0.9391222E-01
        -11   -1    0    0    0    0  0.00000000000E+00  0.00000000000E+00  0.50000000000E+03  0.50000000000E+03  0.00000000000E+00 0.  1.
         11   -1    0    0    0    0 -0.00000000000E+00 -0.00000000000E+00 -0.50000000000E+03  0.50000000000E+03  0.00000000000E+00 0. -1.
         25    2    1    2    0    0  0.42462300911E+03  0.52208690813E+02  0.23501027736E+03  0.50385622790E+03  0.12494326979E+03 0.  0.
         23    2    1    2    0    0 -0.42462300911E+03 -0.52208690813E+02 -0.23501027736E+03  0.49614377210E+03  0.88872745383E+02 0.  0.
        -11    1    4    4    0    0 -0.19070850283E+03 -0.26859431946E+02 -0.56195784462E+02  0.20062185406E+03  0.00000000000E+00 0.  1.
         11    1    4    4    0    0 -0.23391450628E+03 -0.25349258867E+02 -0.17881449290E+03  0.29552191804E+03  0.00000000000E+00 0. -1.
        -15    1    3    3    0    0  0.13822179882E+03  0.76743871829E+01  0.13590897217E+02  0.13911158149E+03  0.17770000000E+01 0. -1.
         15    1    3    3    0    0  0.28640121029E+03  0.44534303630E+02  0.22141938014E+03  0.36474464641E+03  0.17770000000E+01 0. -1.
</event>
<event>
 7    1  0.7045625E-009  0.5033320E+03  0.7546771E-02  0.9392385E-01
        -11   -1    0    0    0    0  0.00000000000E+00  0.00000000000E+00  0.50000000000E+03  0.50000000000E+03  0.00000000000E+00 0.  1.
         11   -1    0    0    0    0 -0.00000000000E+00 -0.00000000000E+00 -0.50000000000E+03  0.50000000000E+03  0.00000000000E+00 0. -1.
         23    2    1    2    0    0  0.38411072150E+03  0.15006244641E+03 -0.26005300393E+03  0.49666802204E+03  0.94824970721E+02 0.  0.
        -11    1    3    3    0    0  0.12751467582E+03  0.99166333431E+02 -0.10121611881E+03  0.19062701000E+03  0.00000000000E+00 0.  1.
         11    1    3    3    0    0  0.25659604568E+03  0.50896112977E+02 -0.15883688512E+03  0.30604101204E+03  0.00000000000E+00 0. -1.
        -15    1    1    2    0    0 -0.18201445867E+01  0.10828793174E+02 -0.37935643502E+01  0.11752640018E+02  0.17770000000E+01 0. -1.
         15    1    1    2    0    0 -0.38229057691E+03 -0.16089123958E+03  0.26384656828E+03  0.49157933794E+03  0.17770000000E+01 0. -1.
</event>
<event>
 8    1  0.7045625E-009  0.5036099E+03  0.7546771E-02  0.9391768E-01
        -11   -1    0    0    0    0  0.00000000000E+00  0.00000000000E+00  0.50000000000E+03  0.50000000000E+03  0.00000000000E+00 0. -1.
         11   -1    0    0    0    0 -0.00000000000E+00 -0.00000000000E+00 -0.50000000000E+03  0.50000000000E+03  0.00000000000E+00 0.  1.
         25    2    1    2    0    0 -0.40266348966E+03 -0.27486752574E+03  0.17089857432E+02  0.50360986509E+03  0.12506314556E+03 0.  0.
         23    2    1    2    0    0  0.40266348966E+03  0.27486752574E+03 -0.17089857432E+02  0.49639013491E+03  0.91766334803E+02 0.  0.
        -11    1    4    4    0    0  0.30208806282E+02  0.13501939870E+02 -0.24740451262E+02  0.41315424310E+02  0.00000000000E+00 0. -1.
         11    1    4    4    0    0  0.37245468338E+03  0.26136558587E+03  0.76505938299E+01  0.45507471060E+03  0.00000000000E+00 0.  1.
        -15    1    3    3    0    0 -0.32177173335E+03 -0.24483040894E+03 -0.29731251341E+02  0.40542087089E+03  0.17770000000E+01 0. -1.
         15    1    3    3    0    0 -0.80891756311E+02 -0.30037116802E+02  0.46821108774E+02  0.98188994193E+02  0.17770000000E+01 0. -1.
</event>
<event>
 8    1  0.7045625E-009  0.5033829E+03  0.7546771E-02  0.9392272E-01
        -11   -1    0    0    0    0  0.00000000000E+00  0.00000000000E+00  0.50000000000E+03  0.50000000000E+03  0.00000000000E+00 0.  1.
         11   -1    0    0    0    0 -0.00000000000E+00 -0.00000000000E+00 -0.50000000000E+03  0.50000000000E+03  0.00000000000E+00 0. -1.
         25    2    1    2    0    0 -0.39657575026E+03  0.28297490012E+03 -0.20770167123E+02  0.50338288682E+03  0.12496323905E+03 0.  0.
         23    2    1    2    0    0  0.39657575026E+03 -0.28297490012E+03  0.20770167123E+02  0.49661711318E+03  0.94074637786E+02 0.  0.
        -11    1    4    4    0    0  0.35420536525E+03 -0.21133173507E+03  0.25513677343E+02  0.41324749333E+03  0.00000000000E+00 0. -1.
         11    1    4    4    0    0  0.42370385011E+02 -0.71643165048E+02 -0.47435102201E+01  0.83369619846E+02  0.00000000000E+00 0.  1.
        -15    1    3    3    0    0 -0.15431293050E+03  0.79158278897E+02  0.46818404421E+02  0.17964864141E+03  0.17770000000E+01 0.  1.
         15    1    3    3    0    0 -0.24226281976E+03  0.20381662122E+03 -0.67588571543E+02  0.32373424541E+03  0.17770000000E+01 0.  1.
</event>
<event>
 8    1  0.7045625E-009  0.5039251E+03  0.7546771E-02  0.9391069E-01
        -11   -1    0    0    0    0  0.00000000000E+00  0.00000000000E+00  0.50000000000E+03  0.50000000000E+03  0.00000000000E+00 0.  1.
         11   -1    0    0    0    0 -0.00000000000E+00 -0.00000000000E+00 -0.50000000000E+03  0.50000000000E+03  0.00000000000E+00 0. -1.
         25    2    1    2    0    0  0.47405149135E+03 -0.53935761777E+02  0.10329983136E+03  0.50392514432E+03  0.12504324480E+03 0.  0.
         23    2    1    2    0    0 -0.47405149135E+03  0.53935761777E+02 -0.10329983136E+03  0.49607485568E+03  0.88235618837E+02 0.  0.
        -11    1    4    4    0    0 -0.12670645291E+03  0.33322091684E+02 -0.64290402526E+02  0.14593883260E+03  0.00000000000E+00 0.  1.
         11    1    4    4    0    0 -0.34734503843E+03  0.20613670093E+02 -0.39009428837E+02  0.35013602308E+03  0.00000000000E+00 0. -1.
        -15    1    3    3    0    0  0.47328824685E+03 -0.35615042167E+02  0.96881131865E+02  0.48441646057E+03  0.17770000000E+01 0.  1.
         15    1    3    3    0    0  0.76324449706E+00 -0.18320719611E+02  0.64186994986E+01  0.19508683745E+02  0.17770000000E+01 0.  1.
</event>
<event>
 8    1  0.7045625E-009  0.5036176E+03  0.7546771E-02  0.9391751E-01
        -11   -1    0    0    0    0  0.00000000000E+00  0.00000000000E+00  0.50000000000E+03  0.50000000000E+03  0.00000000000E+00 0. -1.
         11   -1    0    0    0    0 -0.00000000000E+00 -0.00000000000E+00 -0.50000000000E+03  0.50000000000E+03  0.00000000000E+00 0.  1.
         25    2    1    2    0    0 -0.16148777701E+03  0.45807885148E+03  0.45954282039E+02  0.50361764797E+03  0.12491758489E+03 0.  0.
         23    2    1    2    0    0  0.16148777701E+03 -0.45807885148E+03 -0.45954282039E+02  0.49638235203E+03  0.91482823918E+02 0.  0.
        -11    1    4    4    0    0  0.86154390007E+02 -0.12960805308E+03  0.41124490980E+01  0.15568474099E+03  0.00000000000E+00 0.  1.
         11    1    4    4    0    0  0.75333386999E+02 -0.32847079840E+03 -0.50066731137E+02  0.34069761103E+03  0.00000000000E+00 0. -1.
        -15    1    3    3    0    0  0.11149908600E+02  0.33580013432E+02  0.27732893362E+02  0.44991208775E+02  0.17770000000E+01 0. -1.
         15    1    3    3    0    0 -0.17263768561E+03  0.42449883805E+03  0.18221388678E+02  0.45862643920E+03  0.17770000000E+01 0. -1.
</event>
<event>
 8    1  0.7045625E-009  0.5036543E+03  0.7546771E-02  0.9391670E-01
        -11   -1    0    0    0    0  0.00000000000E+00  0.00000000000E+00  0.50000000000E+03  0.50000000000E+03  0.00000000000E+00 0.  1.
         11   -1    0    0    0    0 -0.00000000000E+00 -0.00000000000E+00 -0.50000000000E+03  0.50000000000E+03  0.00000000000E+00 0. -1.
         25    2    1    2    0    0  0.33795277398E+03  0.28998351107E+03 -0.19932303348E+03  0.50365432971E+03  0.12504198504E+03 0.  0.
         23    2    1    2    0    0 -0.33795277398E+03 -0.28998351107E+03  0.19932303348E+03  0.49634567029E+03  0.91251512921E+02 0.  0.
        -11    1    4    4    0    0 -0.94888372409E+01 -0.34267854579E+02  0.18300812313E+01  0.35604397017E+02  0.00000000000E+00 0.  1.
         11    1    4    4    0    0 -0.32846393674E+03 -0.25571565649E+03  0.19749295225E+03  0.46074127328E+03  0.00000000000E+00 0. -1.
        -15    1    3    3    0    0  0.38705492841E+02  0.61548692951E+02  0.91638175321E+01  0.73304093070E+02  0.17770000000E+01 0.  1.
         15    1    3    3    0    0  0.29924728114E+03  0.22843481812E+03 -0.20848685101E+03  0.43035023664E+03  0.17770000000E+01 0.  1.
</event>
<event>
 8    1  0.7045625E-009  0.5038044E+03  0.7546771E-02  0.9391337E-01
        -11   -1    0    0    0    0  0.00000000000E+00  0.00000000000E+00  0.50000000000E+03  0.50000000000E+03  0.00000000000E+00 0.  1.
         11   -1    0    0    0    0 -0.00000000000E+00 -0.00000000000E+00 -0.50000000000E+03  0.50000000000E+03  0.00000000000E+00 0. -1.
         25    2    1    2    0    0  0.89434804076E+02 -0.47916052227E+03  0.24718432668E+02  0.50380443879E+03  0.12495807839E+03 0.  0.
         23    2    1    2    0    0 -0.89434804076E+02  0.47916052227E+03 -0.24718432668E+02  0.49619556121E+03  0.89474263168E+02 0.  0.
        -11    1    4    4    0    0 -0.81654023891E+02  0.43304245068E+03 -0.49189943079E+02  0.44341041283E+03  0.00000000000E+00 0. -1.
         11    1    4    4    0    0 -0.77807801851E+01  0.46118071591E+02  0.24471510411E+02  0.52785148379E+02  0.00000000000E+00 0.  1.
        -15    1    3    3    0    0 -0.10366200720E+02 -0.12651020113E+03  0.49978029588E+02  0.13643038620E+03  0.17770000000E+01 0. -1.
         15    1    3    3    0    0  0.99801004796E+02 -0.35265032114E+03 -0.25259596920E+02  0.36737405260E+03  0.17770000000E+01 0. -1.
</event>
<event>
 7    1  0.7045625E-009  0.5035319E+03  0.7546771E-02  0.9391941E-01
        -11   -1    0    0    0    0  0.00000000000E+00  0.00000000000E+00  0.50000000000E+03  0.50000000000E+03  0.00000000000E+00 0.  1.
         11   -1    0    0    0    0 -0.00000000000E+00 -0.00000000000E+00 -0.50000000000E+03  0.50000000000E+03  0.00000000000E+00 0. -1.
         23    2    1    2    0    0  0.48002680772E+03  0.76030483755E+02  0.41748778177E+02  0.49646811802E+03  0.92364826317E+02 0.  0.
        -11    1    3    3    0    0  0.40870190134E+03  0.36632469610E+02  0.14665773903E+02  0.41060232209E+03  0.00000000000E+00 0.  1.
         11    1    3    3    0    0  0.71324906385E+02  0.39398014146E+02  0.27083004274E+02  0.85865795926E+02  0.00000000000E+00 0. -1.
        -15    1    1    2    0    0 -0.89616281205E+02  0.34133318398E+02 -0.20558679783E+01  0.95935111424E+02  0.17770000000E+01 0.  1.
         15    1    1    2    0    0 -0.39041052652E+03 -0.11016380215E+03 -0.39692910199E+02  0.40759677056E+03  0.17770000000E+01 0.  1.
</event>
<event>
 8    1  0.7045625E-009  0.5036494E+03  0.7546771E-02  0.9391681E-01
        -11   -1    0    0    0    0  0.00000000000E+00  0.00000000000E+00  0.50000000000E+03  0.50000000000E+03  0.00000000000E+00 0.  1.
         11   -1    0    0    0    0 -0.00000000000E+00 -0.00000000000E+00 -0.50000000000E+03  0.50000000000E+03  0.00000000000E+00 0. -1.
         25    2    1    2    0    0 -0.36748763424E+03  0.31528335362E+03 -0.59972361646E+02  0.50364935493E+03  0.12496093061E+03 0.  0.
         23    2    1    2    0    0  0.36748763424E+03 -0.31528335362E+03  0.59972361646E+02  0.49635064507E+03  0.91194979646E+02 0.  0.
        -11    1    4    4    0    0  0.98920895212E+02 -0.10720851716E+03 -0.20238185489E+02  0.14727047842E+03  0.00000000000E+00 0.  1.
         11    1    4    4    0    0  0.26856673903E+03 -0.20807483645E+03  0.80210547135E+02  0.34908016665E+03  0.00000000000E+00 0. -1.
        -15    1    3    3    0    0 -0.95372270626E+02  0.94926432089E+02 -0.73302665968E+02  0.15324273582E+03  0.17770000000E+01 0. -1.
         15    1    3    3    0    0 -0.27211536361E+03  0.22035692153E+03  0.13330304322E+02  0.35040661912E+03  0.17770000000E+01 0. -1.
</event>
<event>
 8    1  0.7045625E-009  0.5038439E+03  0.7546771E-02  0.9391250E-01
        -11   -1    0    0    0    0  0.00000000000E+00  0.00000000000E+00  0.50000000000E+03  0.50000000000E+03  0.00000000000E+00 0.  1.
         11   -1    0    0    0    0 -0.00000000000E+00 -0.00000000000E+00 -0.50000000000E+03  0.50000000000E+03  0.00000000000E+00 0. -1.
         25    2    1    2    0    0  0.22780499298E+03  0.30194324056E+03 -0.30851324617E+03  0.50384389082E+03  0.12495362303E+03 0.  0.
         23    2    1    2    0    0 -0.22780499298E+03 -0.30194324056E+03  0.30851324617E+03  0.49615610918E+03  0.89025986479E+02 0.  0.
        -11    1    4    4    0    0 -0.51497858956E+02 -0.47522933979E+02  0.10310490592E+03  0.12466386949E+03  0.00000000000E+00 0.  1.
         11    1    4    4    0    0 -0.17630713402E+03 -0.25442030658E+03  0.20540834026E+03  0.37149223969E+03  0.00000000000E+00 0. -1.
        -15    1    3    3    0    0  0.93710546070E+01  0.91143271788E+02 -0.99548757533E+02  0.13530715248E+03  0.17770000000E+01 0. -1.
         15    1    3    3    0    0  0.21843393837E+03  0.21079996877E+03 -0.20896448864E+03  0.36853673834E+03  0.17770000000E+01 0. -1.
</event>
<event>
 8    1  0.7045625E-009  0.5035206E+03  0.7546771E-02  0.9391966E-01
        -11   -1    0    0    0    0  0.00000000000E+00  0.00000000000E+00  0.50000000000E+03  0.50000000000E+03  0.00000000000E+00 0.  1.
         11   -1    0    0    0    0 -0.00000000000E+00 -0.00000000000E+00 -0.50000000000E+03  0.50000000000E+03  0.00000000000E+00 0. -1.
         25    2    1    2    0    0 -0.41477167298E+03  0.24907613249E+03  0.61981119172E+02  0.50352062819E+03  0.12496760938E+03 0.  0.
         23    2    1    2    0    0  0.41477167298E+03 -0.24907613249E+03 -0.61981119172E+02  0.49647937181E+03  0.92604789409E+02 0.  0.
        -11    1    4    4    0    0  0.33678238370E+03 -0.18569900251E+03 -0.83880283760E+02  0.39362722912E+03  0.00000000000E+00 0.  1.
         11    1    4    4    0    0  0.77989289282E+02 -0.63377129973E+02  0.21899164588E+02  0.10285214269E+03  0.00000000000E+00 0. -1.
        -15    1    3    3    0    0 -0.34105242528E+03  0.19626057525E+03 -0.29647152162E+00  0.39349487393E+03  0.17770000000E+01 0. -1.
         15    1    3    3    0    0 -0.73719247699E+02  0.52815557238E+02  0.62277590694E+02  0.11002575425E+03  0.17770000000E+01 0. -1.
</event>
<event>
 8    1  0.9950615E-009  0.5034625E+03  0.7546771E-02  0.9392095E-01
        -11   -1    0    0    0    0  0.00000000000E+00  0.00000000000E+00  0.50000000000E+03  0.50000000000E+03  0.00000000000E+00 0.  1.
         11   -1    0    0    0    0 -0.00000000000E+00 -0.00000000000E+00 -0.50000000000E+03  0.50000000000E+03  0.00000000000E+00 0. -1.
         25    2    1    2    0    0 -0.26494189181E+03  0.38966095371E+03 -0.12573748677E+03  0.50346246035E+03  0.12503866809E+03 0.  0.
         23    2    1    2    0    0  0.26494189181E+03 -0.38966095371E+03  0.12573748677E+03  0.49653753965E+03  0.93326029702E+02 0.  0.
        -11    1    4    4    0    0  0.76317412305E+02 -0.14513048202E+03  0.23962457990E+01  0.16399068945E+03  0.00000000000E+00 0. -1.
         11    1    4    4    0    0  0.18862447951E+03 -0.24453047169E+03  0.12334124097E+03  0.33254685020E+03  0.00000000000E+00 0.  1.
        -15    1    3    3    0    0  0.35970725754E+01 -0.97955003650E+00 -0.16483181149E+02  0.16992687815E+02  0.17770000000E+01 0. -1.
         15    1    3    3    0    0 -0.26853896439E+03  0.39064050375E+03 -0.10925430562E+03  0.48646977253E+03  0.17770000000E+01 0. -1.
</event>
<event>
 7    1  0.7045625E-009  0.5038237E+03  0.7546771E-02  0.9391294E-01
        -11   -1    0    0    0    0  0.00000000000E+00  0.00000000000E+00  0.50000000000E+03  0.50000000000E+03  0.00000000000E+00 0. -1.
         11   -1    0    0    0    0 -0.00000000000E+00 -0.00000000000E+00 -0.50000000000E+03  0.50000000000E+03  0.00000000000E+00 0.  1.
         23    2    1    2    0    0  0.12082578884E+02 -0.45887903924E+03  0.16590852550E+03  0.49617629853E+03  0.89158953679E+02 0.  0.
        -11    1    3    3    0    0  0.20361689178E+02 -0.15064168252E+03  0.96681583124E+02  0.18015227840E+03  0.00000000000E+00 0.  1.
         11    1    3    3    0    0 -0.82791102936E+01 -0.30823735672E+03  0.69226942381E+02  0.31602402013E+03  0.00000000000E+00 0. -1.
        -15    1    1    2    0    0 -0.57342492342E+01  0.36052313438E+02  0.20250168825E+02  0.41783704778E+02  0.17770000000E+01 0. -1.
         15    1    1    2    0    0 -0.63483296498E+01  0.42282672580E+03 -0.18615869433E+03  0.46203999669E+03  0.17770000000E+01 0. -1.
</event>
<event>
 7    1  0.7045625E-009  0.5040765E+03  0.7546771E-02  0.9390734E-01
        -11   -1    0    0    0    0  0.00000000000E+00  0.00000000000E+00  0.50000000000E+03  0.50000000000E+03  0.00000000000E+00 0.  1.
         11   -1    0    0    0    0 -0.00000000000E+00 -0.00000000000E+00 -0.50000000000E+03  0.50000000000E+03  0.00000000000E+00 0. -1.
         23    2    1    2    0    0 -0.37374336140E+03 -0.11045352808E+03  0.29417605826E+03  0.49592349162E+03  0.86697602236E+02 0.  0.
        -11    1    3    3    0    0 -0.12614098112E+03 -0.42141716068E+01  0.12584025108E+03  0.17822759369E+03  0.00000000000E+00 0. -1.
         11    1    3    3    0    0 -0.24760238028E+03 -0.10623935647E+03  0.16833580717E+03  0.31769589793E+03  0.00000000000E+00 0.  1.
        -15    1    1    2    0    0  0.33427259052E+03  0.92332919497E+02 -0.19995181663E+03  0.40030915490E+03  0.17770000000E+01 0. -1.
         15    1    1    2    0    0  0.39470770880E+02  0.18120608585E+02 -0.94224241624E+02  0.10376735348E+03  0.17770000000E+01 0. -1.
</event>
<event>
 8    1  0.7045625E-009  0.5035770E+03  0.7546771E-02  0.9391841E-01
        -11   -1    0    0    0    0  0.00000000000E+00  0.00000000000E+00  0.50000000000E+03  0.50000000000E+03  0.00000000000E+00 0. -1.
         11   -1    0    0    0    0 -0.00000000000E+00 -0.00000000000E+00 -0.50000000000E+03  0.50000000000E+03  0.00000000000E+00 0.  1.
         25    2    1    2    0    0 -0.68407932495E+02  0.29847093442E+03 -0.37972427848E+03  0.50357696802E+03  0.12503875852E+03 0.  0.
         23    2    1    2    0    0  0.68407932495E+02 -0.29847093442E+03  0.37972427848E+03  0.49642303198E+03  0.92091015234E+02 0.  0.
        -11    1    4    4    0    0  0.80124303207E+02 -0.16232296968E+03  0.18800462869E+03  0.26098733851E+03  0.00000000000E+00 0.  1.
         11    1    4    4    0    0 -0.11716370711E+02 -0.13614796474E+03  0.19171964979E+03  0.23543569347E+03  0.00000000000E+00 0. -1.
        -15    1    3    3    0    0 -0.52815796285E+02  0.24177536466E+03 -0.21212224750E+03  0.32595067251E+03  0.17770000000E+01 0.  1.
         15    1    3    3    0    0 -0.15592136211E+02  0.56695569764E+02 -0.16760203097E+03  0.17762629551E+03  0.17770000000E+01 0.  1.
</event>
<event>
 8    1  0.7045625E-009  0.5034228E+03  0.7546771E-02  0.9392183E-01
        -11   -1    0    0    0    0  0.00000000000E+00  0.00000000000E+00  0.50000000000E+03  0.50000000000E+03  0.00000000000E+00 0.  1.
         11   -1    0    0    0    0 -0.00000000000E+00 -0.00000000000E+00 -0.50000000000E+03  0.50000000000E+03  0.00000000000E+00 0. -1.
         25    2    1    2    0    0  0.37829828400E+03  0.44191020731E+02  0.30452976206E+03  0.50342278556E+03  0.12503474336E+03 0.  0.
         23    2    1    2    0    0 -0.37829828400E+03 -0.44191020731E+02 -0.30452976206E+03  0.49657721444E+03  0.93744951526E+02 0.  0.
        -11    1    4    4    0    0 -0.16459692538E+03 -0.25348614138E+02 -0.75775218710E+02  0.18296607296E+03  0.00000000000E+00 0. -1.
         11    1    4    4    0    0 -0.21370135862E+03 -0.18842406593E+02 -0.22875454335E+03  0.31361114149E+03  0.00000000000E+00 0.  1.
        -15    1    3    3    0    0  0.12909484356E+03 -0.23322742792E+02  0.16213402793E+03  0.20856660737E+03  0.17770000000E+01 0. -1.
         15    1    3    3    0    0  0.24920344044E+03  0.67513763523E+02  0.14239573413E+03  0.29485617819E+03  0.17770000000E+01 0. -1.
</event>
<event>
 8    1  0.7045625E-009  0.5037977E+03  0.7546771E-02  0.9391352E-01
        -11   -1    0    0    0    0  0.00000000000E+00  0.00000000000E+00  0.50000000000E+03  0.50000000000E+03  0.00000000000E+00 0.  1.
         11   -1    0    0    0    0 -0.00000000000E+00 -0.00000000000E+00 -0.50000000000E+03  0.50000000000E+03  0.00000000000E+00 0. -1.
         25    2    1    2    0    0  0.33922469058E+03  0.28267478296E+03  0.20781441852E+03  0.50379771301E+03  0.12508748728E+03 0.  0.
         23    2    1    2    0    0 -0.33922469058E+03 -0.28267478296E+03 -0.20781441852E+03  0.49620228699E+03  0.89729891612E+02 0.  0.
        -11    1    4    4    0    0 -0.24373925885E+03 -0.14713200348E+03 -0.13596608577E+03  0.31550503836E+03  0.00000000000E+00 0. -1.
         11    1    4    4    0    0 -0.95485431726E+02 -0.13554277948E+03 -0.71848332743E+02  0.18069724862E+03  0.00000000000E+00 0.  1.
        -15    1    3    3    0    0  0.34752916940E+03  0.28564900557E+03  0.20501108995E+03  0.49437291865E+03  0.17770000000E+01 0. -1.
         15    1    3    3    0    0 -0.83044788244E+01 -0.29742226070E+01  0.28033285670E+01  0.94247943593E+01  0.17770000000E+01 0. -1.
</event>
<event>
 8    1  0.7045625E-009  0.5035212E+03  0.7546771E-02  0.9391965E-01
        -11   -1    0    0    0    0  0.00000000000E+00  0.00000000000E+00  0.50000000000E+03  0.50000000000E+03  0.00000000000E+00 0.  1.
         11   -1    0    0    0    0 -0.00000000000E+00 -0.00000000000E+00 -0.50000000000E+03  0.50000000000E+03  0.00000000000E+00 0. -1.
         25    2    1    2    0    0 -0.42071300322E+01 -0.41574210855E+03 -0.25506757547E+03  0.50352116141E+03  0.12495955811E+03 0.  0.
         23    2    1    2    0    0  0.42071300322E+01  0.41574210855E+03  0.25506757547E+03  0.49647883859E+03  0.92588165244E+02 0.  0.
        -11    1    4    4    0    0  0.35277635617E+02  0.66071452310E+02  0.44696376876E+02  0.87222213288E+02  0.00000000000E+00 0.  1.
         11    1    4    4    0    0 -0.31070505584E+02  0.34967065624E+03  0.21037119860E+03  0.40925662530E+03  0.00000000000E+00 0. -1.
        -15    1    3    3    0    0  0.22579165621E+01 -0.42339915626E+03 -0.25265481294E+03  0.49306141193E+03  0.17770000000E+01 0. -1.
         15    1    3    3    0    0 -0.64650465944E+01  0.76570477063E+01 -0.24127625349E+01  0.10459749476E+02  0.17770000000E+01 0. -1.
</event>
<event>
 8    1  0.7045625E-009  0.5035885E+03  0.7546771E-02  0.9391816E-01
        -11   -1    0    0    0    0  0.00000000000E+00  0.00000000000E+00  0.50000000000E+03  0.50000000000E+03  0.00000000000E+00 0.  1.
         11   -1    0    0    0    0 -0.00000000000E+00 -0.00000000000E+00 -0.50000000000E+03  0.50000000000E+03  0.00000000000E+00 0. -1.
         25    2    1    2    0    0  0.13375819568E+03  0.40856496604E+03 -0.23054640111E+03  0.50358847524E+03  0.12503248752E+03 0.  0.
         23    2    1    2    0    0 -0.13375819568E+03 -0.40856496604E+03  0.23054640111E+03  0.49641152476E+03  0.91957449185E+02 0.  0.
        -11    1    4    4    0    0 -0.46192571005E+02 -0.24260251688E+03  0.16770915538E+03  0.29852319107E+03  0.00000000000E+00 0.  1.
         11    1    4    4    0    0 -0.87565624677E+02 -0.16596244917E+03  0.62837245732E+02  0.19788833369E+03  0.00000000000E+00 0. -1.
        -15    1    3    3    0    0  0.10373919449E+03  0.39293105867E+03 -0.23492504573E+03  0.46941407327E+03  0.17770000000E+01 0. -1.
         15    1    3    3    0    0  0.30019001194E+02  0.15633907372E+02  0.43786446158E+01  0.34174401971E+02  0.17770000000E+01 0. -1.
</event>
<event>
 8    1  0.7045625E-009  0.5036602E+03  0.7546771E-02  0.9391657E-01
        -11   -1    0    0    0    0  0.00000000000E+00  0.00000000000E+00  0.50000000000E+03  0.50000000000E+03  0.00000000000E+00 0. -1.
         11   -1    0    0    0    0 -0.00000000000E+00 -0.00000000000E+00 -0.50000000000E+03  0.50000000000E+03  0.00000000000E+00 0.  1.
         25    2    1    2    0    0  0.33139153537E+03 -0.13170744468E+02 -0.35782885667E+03  0.50366021783E+03  0.12505321321E+03 0.  0.
         23    2    1    2    0    0 -0.33139153537E+03  0.13170744468E+02  0.35782885667E+03  0.49633978217E+03  0.91202360029E+02 0.  0.
        -11    1    4    4    0    0 -0.26709643543E+03 -0.26399127297E+02  0.27506188371E+03  0.38431297092E+03  0.00000000000E+00 0. -1.
         11    1    4    4    0    0 -0.64295099942E+02  0.39569871765E+02  0.82766972954E+02  0.11202681125E+03  0.00000000000E+00 0.  1.
        -15    1    3    3    0    0  0.31831930790E+03 -0.13543734899E+02 -0.36817184274E+03  0.48689247073E+03  0.17770000000E+01 0.  1.
         15    1    3    3    0    0  0.13072227472E+02  0.37299043162E+00  0.10342986072E+02  0.16767747100E+02  0.17770000000E+01 0.  1.
</event>
<event>
 8    1  0.7045625E-009  0.5036060E+03  0.7546771E-02  0.9391777E-01
        -11   -1    0    0    0    0  0.00000000000E+00  0.00000000000E+00  0.50000000000E+03  0.50000000000E+03  0.00000000000E+00 0.  1.
         11   -1    0    0    0    0 -0.00000000000E+00 -0.00000000000E+00 -0.50000000000E+03  0.50000000000E+03  0.00000000000E+00 0. -1.
         25    2    1    2    0    0 -0.46145559895E+03 -0.13300101869E+03 -0.85761118579E+02  0.50360601081E+03  0.12503401092E+03 0.  0.
         23    2    1    2    0    0  0.46145559895E+03  0.13300101869E+03  0.85761118579E+02  0.49639398919E+03  0.91768634414E+02 0.  0.
        -11    1    4    4    0    0  0.43008197925E+03  0.12904263054E+03  0.10255823317E+03  0.46058734303E+03  0.00000000000E+00 0.  1.
         11    1    4    4    0    0  0.31373619704E+02  0.39583881545E+01 -0.16797114593E+02  0.35806646154E+02  0.00000000000E+00 0. -1.
        -15    1    3    3    0    0 -0.32159812505E+03 -0.64869844496E+02 -0.11025247994E+03  0.34611012384E+03  0.17770000000E+01 0. -1.
         15    1    3    3    0    0 -0.13985747390E+03 -0.68131174194E+02  0.24491361359E+02  0.15749588697E+03  0.17770000000E+01 0. -1.
</event>
<event>
 8    1  0.7045625E-009  0.5036864E+03  0.7546771E-02  0.9391599E-01
        -11   -1    0    0    0    0  0.00000000000E+00  0.00000000000E+00  0.50000000000E+03  0.50000000000E+03  0.00000000000E+00 0. -1.
         11   -1    0    0    0    0 -0.00000000000E+00 -0.00000000000E+00 -0.50000000000E+03  0.50000000000E+03  0.00000000000E+00 0.  1.
         25    2    1    2    0    0 -0.15362133484E+03 -0.43904560892E+03 -0.14738946692E+03  0.50368635428E+03  0.12496290368E+03 0.  0.
         23    2    1    2    0    0  0.15362133484E+03  0.43904560892E+03  0.14738946692E+03  0.49631364572E+03  0.90791071908E+02 0.  0.
        -11    1    4    4    0    0  0.88405891379E+02  0.31474072900E+03  0.64275332655E+02  0.33317960098E+03  0.00000000000E+00 0. -1.
         11    1    4    4    0    0  0.65215443466E+02  0.12430487992E+03  0.83114134267E+02  0.16313404474E+03  0.00000000000E+00 0.  1.
        -15    1    3    3    0    0 -0.13982389650E+03 -0.44503845580E+03 -0.14298376089E+03  0.48791132676E+03  0.17770000000E+01 0. -1.
         15    1    3    3    0    0 -0.13797438341E+02  0.59928468821E+01 -0.44057060329E+01  0.15775027517E+02  0.17770000000E+01 0. -1.
</event>
<event>
 8    1  0.7045625E-009  0.5036572E+03  0.7546771E-02  0.9391663E-01
        -11   -1    0    0    0    0  0.00000000000E+00  0.00000000000E+00  0.50000000000E+03  0.50000000000E+03  0.00000000000E+00 0.  1.
         11   -1    0    0    0    0 -0.00000000000E+00 -0.00000000000E+00 -0.50000000000E+03  0.50000000000E+03  0.00000000000E+00 0. -1.
         25    2    1    2    0    0 -0.17949975567E+03 -0.11667421076E+03  0.43841016303E+03  0.50365721844E+03  0.12503635031E+03 0.  0.
         23    2    1    2    0    0  0.17949975567E+03  0.11667421076E+03 -0.43841016303E+03  0.49634278156E+03  0.91212126493E+02 0.  0.
        -11    1    4    4    0    0  0.84744703539E+02  0.96408200278E+02 -0.30961135253E+03  0.33516472887E+03  0.00000000000E+00 0.  1.
         11    1    4    4    0    0  0.94755052135E+02  0.20266010485E+02 -0.12879881049E+03  0.16117805269E+03  0.00000000000E+00 0. -1.
        -15    1    3    3    0    0 -0.17630244382E+03 -0.89515114766E+02  0.43259332327E+03  0.47564235360E+03  0.17770000000E+01 0.  1.
         15    1    3    3    0    0 -0.31973118504E+01 -0.27159095997E+02  0.58168397571E+01  0.28014864844E+02  0.17770000000E+01 0. -1.
</event>
<event>
 8    1  0.7045625E-009  0.5036085E+03  0.7546771E-02  0.9391771E-01
        -11   -1    0    0    0    0  0.00000000000E+00  0.00000000000E+00  0.50000000000E+03  0.50000000000E+03  0.00000000000E+00 0.  1.
         11   -1    0    0    0    0 -0.00000000000E+00 -0.00000000000E+00 -0.50000000000E+03  0.50000000000E+03  0.00000000000E+00 0. -1.
         25    2    1    2    0    0  0.17150226287E+02  0.38794121006E+03 -0.29532540934E+03  0.50360853655E+03  0.12494778094E+03 0.  0.
         23    2    1    2    0    0 -0.17150226287E+02 -0.38794121006E+03  0.29532540934E+03  0.49639146345E+03  0.91623549720E+02 0.  0.
        -11    1    4    4    0    0  0.29761744800E+02 -0.18154714106E+03  0.16953937109E+03  0.25017738553E+03  0.00000000000E+00 0.  1.
         11    1    4    4    0    0 -0.46911971087E+02 -0.20639406900E+03  0.12578603825E+03  0.24621407792E+03  0.00000000000E+00 0. -1.
        -15    1    3    3    0    0  0.37016652848E+02  0.29704373385E+03 -0.27884556346E+03  0.40910049914E+03  0.17770000000E+01 0. -1.
         15    1    3    3    0    0 -0.19866426561E+02  0.90897476210E+02 -0.16479845876E+02  0.94508037408E+02  0.17770000000E+01 0. -1.
</event>
<event>
 8    1  0.7045625E-009  0.5039536E+03  0.7546771E-02  0.9391007E-01
        -11   -1    0    0    0    0  0.00000000000E+00  0.00000000000E+00  0.50000000000E+03  0.50000000000E+03  0.00000000000E+00 0. -1.
         11   -1    0    0    0    0 -0.00000000000E+00 -0.00000000000E+00 -0.50000000000E+03  0.50000000000E+03  0.00000000000E+00 0.  1.
         25    2    1    2    0    0 -0.70529207100E+02  0.42023641902E+03 -0.23829990399E+03  0.50395355034E+03  0.12493726320E+03 0.  0.
         23    2    1    2    0    0  0.70529207100E+02 -0.42023641902E+03  0.23829990399E+03  0.49604644966E+03  0.87762287238E+02 0.  0.
        -11    1    4    4    0    0  0.71473281282E+02 -0.34579921609E+03  0.22937965915E+03  0.42107072543E+03  0.00000000000E+00 0.  1.
         11    1    4    4    0    0 -0.94407418276E+00 -0.74437202929E+02  0.89202448361E+01  0.74975724231E+02  0.00000000000E+00 0. -1.
        -15    1    3    3    0    0 -0.29859184522E+02  0.35329039620E+03 -0.23533013465E+03  0.42554565554E+03  0.17770000000E+01 0. -1.
         15    1    3    3    0    0 -0.40670022578E+02  0.66946022814E+02 -0.29697693396E+01  0.78407894794E+02  0.17770000000E+01 0. -1.
</event>
<event>
 8    1  0.7045625E-009  0.5033016E+03  0.7546771E-02  0.9392452E-01
        -11   -1    0    0    0    0  0.00000000000E+00  0.00000000000E+00  0.50000000000E+03  0.50000000000E+03  0.00000000000E+00 0.  1.
         11   -1    0    0    0    0 -0.00000000000E+00 -0.00000000000E+00 -0.50000000000E+03  0.50000000000E+03  0.00000000000E+00 0. -1.
         25    2    1    2    0    0  0.30346073382E+03 -0.32188385526E+03  0.20488797618E+03  0.50330157000E+03  0.12504300995E+03 0.  0.
         23    2    1    2    0    0 -0.30346073382E+03  0.32188385526E+03 -0.20488797618E+03  0.49669843000E+03  0.95040067025E+02 0.  0.
        -11    1    4    4    0    0 -0.20702640380E+03  0.25820784447E+03 -0.11524983669E+03  0.35044792434E+03  0.00000000000E+00 0. -1.
         11    1    4    4    0    0 -0.96434330011E+02  0.63676010786E+02 -0.89638139492E+02  0.14625050566E+03  0.00000000000E+00 0.  1.
        -15    1    3    3    0    0  0.30954789227E+03 -0.32753669024E+03  0.19751177697E+03  0.49205105511E+03  0.17770000000E+01 0.  1.
         15    1    3    3    0    0 -0.60871584582E+01  0.56528349864E+01  0.73761992047E+01  0.11250514885E+02  0.17770000000E+01 0.  1.
</event>
<event>
 8    1  0.7045625E-009  0.5032869E+03  0.7546771E-02  0.9392485E-01
        -11   -1    0    0    0    0  0.00000000000E+00  0.00000000000E+00  0.50000000000E+03  0.50000000000E+03  0.00000000000E+00 0.  1.
         11   -1    0    0    0    0 -0.00000000000E+00 -0.00000000000E+00 -0.50000000000E+03  0.50000000000E+03  0.00000000000E+00 0. -1.
         25    2    1    2    0    0 -0.47094510517E+03 -0.11650832831E+03  0.48272782552E+02  0.50328690950E+03  0.12491584803E+03 0.  0.
         23    2    1    2    0    0  0.47094510517E+03  0.11650832831E+03 -0.48272782552E+02  0.49671309050E+03  0.95027101852E+02 0.  0.
        -11    1    4    4    0    0  0.31331207914E+03  0.80142886328E+02 -0.76923452103E+02  0.33242225956E+03  0.00000000000E+00 0.  1.
         11    1    4    4    0    0  0.15763302603E+03  0.36365441980E+02  0.28650669551E+02  0.16429083094E+03  0.00000000000E+00 0. -1.
        -15    1    3    3    0    0  0.78105824743E+01 -0.44220593518E+01  0.23221777331E+01  0.94398117525E+01  0.17770000000E+01 0. -1.
         15    1    3    3    0    0 -0.47875568765E+03 -0.11208626896E+03  0.45950604818E+02  0.49384709775E+03  0.17770000000E+01 0. -1.
</event>
<event>
 8    1  0.7045625E-009  0.5036735E+03  0.7546771E-02  0.9391627E-01
        -11   -1    0    0    0    0  0.00000000000E+00  0.00000000000E+00  0.50000000000E+03  0.50000000000E+03  0.00000000000E+00 0. -1.
         11   -1    0    0    0    0 -0.00000000000E+00 -0.00000000000E+00 -0.50000000000E+03  0.50000000000E+03  0.00000000000E+00 0.  1.
         25    2    1    2    0    0  0.31943325464E+03  0.35872804437E+03  0.85609803346E+02  0.50367347622E+03  0.12503806714E+03 0.  0.
         23    2    1    2    0    0 -0.31943325464E+03 -0.35872804437E+03 -0.85609803346E+02  0.49632652378E+03  0.91036068644E+02 0.  0.
        -11    1    4    4    0    0 -0.21302958160E+03 -0.29062460553E+03 -0.42477408625E+02  0.36283411391E+03  0.00000000000E+00 0.  1.
         11    1    4    4    0    0 -0.10640367304E+03 -0.68103438840E+02 -0.43132394721E+02  0.13349240987E+03  0.00000000000E+00 0. -1.
        -15    1    3    3    0    0  0.31630804407E+03  0.36015338486E+03  0.99242121163E+02  0.48950321318E+03  0.17770000000E+01 0.  1.
         15    1    3    3    0    0  0.31252105676E+01 -0.14253404924E+01 -0.13632317817E+02  0.14170263042E+02  0.17770000000E+01 0.  1.
</event>
<event>
 8    1  0.7045625E-009  0.5035978E+03  0.7546771E-02  0.9391795E-01
        -11   -1    0    0    0    0  0.00000000000E+00  0.00000000000E+00  0.50000000000E+03  0.50000000000E+03  0.00000000000E+00 0. -1.
         11   -1    0    0    0    0 -0.00000000000E+00 -0.00000000000E+00 -0.50000000000E+03  0.50000000000E+03  0.00000000000E+00 0.  1.
         25    2    1    2    0    0  0.30105244935E+03  0.37781514024E+03  0.68025628450E+02  0.50359775284E+03  0.12492539008E+03 0.  0.
         23    2    1    2    0    0 -0.30105244935E+03 -0.37781514024E+03 -0.68025628450E+02  0.49640224716E+03  0.91710672255E+02 0.  0.
        -11    1    4    4    0    0 -0.19110662084E+03 -0.29307494801E+03 -0.23681575361E+02  0.35067860313E+03  0.00000000000E+00 0. -1.
         11    1    4    4    0    0 -0.10994582851E+03 -0.84740192233E+02 -0.44344053089E+02  0.14572364403E+03  0.00000000000E+00 0.  1.
        -15    1    3    3    0    0  0.24962445161E+03  0.22283129797E+03  0.61077150610E+02  0.34014663052E+03  0.17770000000E+01 0. -1.
         15    1    3    3    0    0  0.51427997741E+02  0.15498384227E+03  0.69484778397E+01  0.16345112233E+03  0.17770000000E+01 0. -1.
</event>
<event>
 8    1  0.7045625E-009  0.5035377E+03  0.7546771E-02  0.9391929E-01
        -11   -1    0    0    0    0  0.00000000000E+00  0.00000000000E+00  0.50000000000E+03  0.50000000000E+03  0.00000000000E+00 0.  1.
         11   -1    0    0    0    0 -0.00000000000E+00 -0.00000000000E+00 -0.50000000000E+03  0.50000000000E+03  0.00000000000E+00 0. -1.
         25    2    1    2    0    0  0.46748661265E+02 -0.45125094570E+03 -0.17922638972E+03  0.50353765974E+03  0.12496088459E+03 0.  0.
         23    2    1    2    0    0 -0.46748661265E+02  0.45125094570E+03  0.17922638972E+03  0.49646234026E+03  0.92411596635E+02 0.  0.
        -11    1    4    4    0    0 -0.73485565284E+02  0.37517347809E+03  0.14549386513E+03  0.40905223598E+03  0.00000000000E+00 0.  1.
         11    1    4    4    0    0  0.26736904019E+02  0.76077467613E+02  0.33732524589E+02  0.87410104279E+02  0.00000000000E+00 0. -1.
        -15    1    3    3    0    0  0.75097548528E+02 -0.42564598374E+03 -0.16740847786E+03  0.46351149010E+03  0.17770000000E+01 0. -1.
         15    1    3    3    0    0 -0.28348887262E+02 -0.25604961962E+02 -0.11817911862E+02  0.40026169637E+02  0.17770000000E+01 0. -1.
</event>
<event>
 8    1  0.7045625E-009  0.5037696E+03  0.7546771E-02  0.9391414E-01
        -11   -1    0    0    0    0  0.00000000000E+00  0.00000000000E+00  0.50000000000E+03  0.50000000000E+03  0.00000000000E+00 0.  1.
         11   -1    0    0    0    0 -0.00000000000E+00 -0.00000000000E+00 -0.50000000000E+03  0.50000000000E+03  0.00000000000E+00 0. -1.
         25    2    1    2    0    0 -0.41968537034E+03 -0.91372806265E+01 -0.24885983264E+03  0.50376955829E+03  0.12503300197E+03 0.  0.
         23    2    1    2    0    0  0.41968537034E+03  0.91372806265E+01  0.24885983264E+03  0.49623044171E+03  0.89967410788E+02 0.  0.
        -11    1    4    4    0    0  0.20586570918E+03 -0.13506418300E+00  0.17382921307E+03  0.26943886834E+03  0.00000000000E+00 0.  1.
         11    1    4    4    0    0  0.21381966116E+03  0.92723448095E+01  0.75030619575E+02  0.22679157337E+03  0.00000000000E+00 0. -1.
        -15    1    3    3    0    0 -0.10097120543E+03  0.27556827966E+02 -0.11675796540E+03  0.15681244628E+03  0.17770000000E+01 0. -1.
         15    1    3    3    0    0 -0.31871416491E+03 -0.36694108593E+02 -0.13210186724E+03  0.34695711201E+03  0.17770000000E+01 0. -1.
</event>
<event>
 8    1  0.7045625E-009  0.5036166E+03  0.7546771E-02  0.9391753E-01
        -11   -1    0    0    0    0  0.00000000000E+00  0.00000000000E+00  0.50000000000E+03  0.50000000000E+03  0.00000000000E+00 0.  1.
         11   -1    0    0    0    0 -0.00000000000E+00 -0.00000000000E+00 -0.50000000000E+03  0.50000000000E+03  0.00000000000E+00 0. -1.
         25    2    1    2    0    0 -0.37588770414E+03  0.17841662103E+02  0.31051197583E+03  0.50361660146E+03  0.12490837883E+03 0.  0.
         23    2    1    2    0    0  0.37588770414E+03 -0.17841662103E+02 -0.31051197583E+03  0.49638339854E+03  0.91481693141E+02 0.  0.
        -11    1    4    4    0    0  0.23800486898E+03 -0.53918639121E+02 -0.18137476184E+03  0.30405647755E+03  0.00000000000E+00 0.  1.
         11    1    4    4    0    0  0.13788283516E+03  0.36076977017E+02 -0.12913721399E+03  0.19232692099E+03  0.00000000000E+00 0. -1.
        -15    1    3    3    0    0 -0.67352484752E+02  0.10610273564E+02  0.12806861022E+03  0.14509880000E+03  0.17770000000E+01 0.  1.
         15    1    3    3    0    0 -0.30853521939E+03  0.72313885392E+01  0.18244336561E+03  0.35851780146E+03  0.17770000000E+01 0.  1.
</event>
<event>
 8    1  0.7045625E-009  0.5030025E+03  0.7546771E-02  0.9393116E-01
        -11   -1    0    0    0    0  0.00000000000E+00  0.00000000000E+00  0.50000000000E+03  0.50000000000E+03  0.00000000000E+00 0. -1.
         11   -1    0    0    0    0 -0.00000000000E+00 -0.00000000000E+00 -0.50000000000E+03  0.50000000000E+03  0.00000000000E+00 0.  1.
         25    2    1    2    0    0 -0.40571400765E+02 -0.46623688151E+03  0.13556850054E+03  0.50300252478E+03  0.12493939874E+03 0.  0.
         23    2    1    2    0    0  0.40571400765E+02  0.46623688151E+03 -0.13556850054E+03  0.49699747522E+03  0.98004100880E+02 0.  0.
        -11    1    4    4    0    0  0.45838847057E+02  0.82528010267E+02 -0.26276905305E+02  0.97992592222E+02  0.00000000000E+00 0.  1.
         11    1    4    4    0    0 -0.52674462917E+01  0.38370887125E+03 -0.10929159524E+03  0.39900488299E+03  0.00000000000E+00 0. -1.
        -15    1    3    3    0    0 -0.10694872277E+02  0.51519964592E+01  0.22753605389E+01  0.12217133670E+02  0.17770000000E+01 0. -1.
         15    1    3    3    0    0 -0.29876528489E+02 -0.47138887797E+03  0.13329314000E+03  0.49078539111E+03  0.17770000000E+01 0. -1.
</event>
<event>
 8    1  0.7045625E-009  0.5037169E+03  0.7546771E-02  0.9391531E-01
        -11   -1    0    0    0    0  0.00000000000E+00  0.00000000000E+00  0.50000000000E+03  0.50000000000E+03  0.00000000000E+00 0.  1.
         11   -1    0    0    0    0 -0.00000000000E+00 -0.00000000000E+00 -0.50000000000E+03  0.50000000000E+03  0.00000000000E+00 0. -1.
         25    2    1    2    0    0 -0.16879072815E+03  0.40437279915E+03 -0.21472987764E+03  0.50371693562E+03  0.12495663356E+03 0.  0.
         23    2    1    2    0    0  0.16879072815E+03 -0.40437279915E+03  0.21472987764E+03  0.49628306438E+03  0.90444950293E+02 0.  0.
        -11    1    4    4    0    0  0.14557186848E+03 -0.25573859129E+03  0.16753556766E+03  0.33861713246E+03  0.00000000000E+00 0. -1.
         11    1    4    4    0    0  0.23218859667E+02 -0.14863420787E+03  0.47194309987E+02  0.15766593192E+03  0.00000000000E+00 0.  1.
        -15    1    3    3    0    0 -0.59196116192E+02  0.46679391415E+02 -0.68196455564E+01  0.75715329027E+02  0.17770000000E+01 0.  1.
         15    1    3    3    0    0 -0.10959461196E+03  0.35769340774E+03 -0.20791023209E+03  0.42800160659E+03  0.17770000000E+01 0.  1.
</event>
<event>
 8    1  0.7045625E-009  0.5036445E+03  0.7546771E-02  0.9391692E-01
        -11   -1    0    0    0    0  0.00000000000E+00  0.00000000000E+00  0.50000000000E+03  0.50000000000E+03  0.00000000000E+00 0.  1.
         11   -1    0    0    0    0 -0.00000000000E+00 -0.00000000000E+00 -0.50000000000E+03  0.50000000000E+03  0.00000000000E+00 0. -1.
         25    2    1    2    0    0  0.38271728758E+03  0.21593455022E+03  0.21199953953E+03  0.50364451390E+03  0.12495494959E+03 0.  0.
         23    2    1    2    0    0 -0.38271728758E+03 -0.21593455022E+03 -0.21199953953E+03  0.49635548610E+03  0.91239857712E+02 0.  0.
        -11    1    4    4    0    0 -0.30723790733E+03 -0.13407229908E+03 -0.18006396878E+03  0.38051747126E+03  0.00000000000E+00 0. -1.
         11    1    4    4    0    0 -0.75479380254E+02 -0.81862251138E+02 -0.31935570750E+02  0.11583801485E+03  0.00000000000E+00 0.  1.
        -15    1    3    3    0    0  0.12297556886E+03  0.13170876823E+02  0.86958109397E+02  0.15119964634E+03  0.17770000000E+01 0. -1.
         15    1    3    3    0    0  0.25974171872E+03  0.20276367339E+03  0.12504143013E+03  0.35244486756E+03  0.17770000000E+01 0. -1.
</event>
<event>
 8    1  0.7045625E-009  0.5036532E+03  0.7546771E-02  0.9391672E-01
        -11   -1    0    0    0    0  0.00000000000E+00  0.00000000000E+00  0.50000000000E+03  0.50000000000E+03  0.00000000000E+00 0.  1.
         11   -1    0    0    0    0 -0.00000000000E+00 -0.00000000000E+00 -0.50000000000E+03  0.50000000000E+03  0.00000000000E+00 0. -1.
         25    2    1    2    0    0 -0.42509619050E+03 -0.13318602449E+03 -0.19896315189E+03  0.50365315735E+03  0.12503950896E+03 0.  0.
         23    2    1    2    0    0  0.42509619050E+03  0.13318602449E+03  0.19896315189E+03  0.49634684265E+03  0.91260967043E+02 0.  0.
        -11    1    4    4    0    0  0.35347145436E+03  0.12489633337E+03  0.13059544424E+03  0.39698404652E+03  0.00000000000E+00 0. -1.
         11    1    4    4    0    0  0.71624736139E+02  0.82896911230E+01  0.68367707649E+02  0.99362796132E+02  0.00000000000E+00 0.  1.
        -15    1    3    3    0    0 -0.41719855539E+03 -0.11754863047E+03 -0.16203681450E+03  0.46274334368E+03  0.17770000000E+01 0.  1.
         15    1    3    3    0    0 -0.78976351129E+01 -0.15637394019E+02 -0.36926337389E+02  0.40909813665E+02  0.17770000000E+01 0.  1.
</event>
<event>
 8    1  0.7045625E-009  0.5036697E+03  0.7546771E-02  0.9391636E-01
        -11   -1    0    0    0    0  0.00000000000E+00  0.00000000000E+00  0.50000000000E+03  0.50000000000E+03  0.00000000000E+00 0.  1.
         11   -1    0    0    0    0 -0.00000000000E+00 -0.00000000000E+00 -0.50000000000E+03  0.50000000000E+03  0.00000000000E+00 0. -1.
         25    2    1    2    0    0 -0.18623336621E+03 -0.45075509765E+03  0.14446156389E+02  0.50366974763E+03  0.12494598232E+03 0.  0.
         23    2    1    2    0    0  0.18623336621E+03  0.45075509765E+03 -0.14446156389E+02  0.49633025237E+03  0.90950553839E+02 0.  0.
        -11    1    4    4    0    0  0.73888940034E+02  0.97148618049E+02 -0.27350562185E+02  0.12508190397E+03  0.00000000000E+00 0. -1.
         11    1    4    4    0    0  0.11234442617E+03  0.35360647960E+03  0.12904405797E+02  0.37124834841E+03  0.00000000000E+00 0.  1.
        -15    1    3    3    0    0 -0.18334330042E+02 -0.20488543383E+03  0.79613647854E+01  0.20586580511E+03  0.17770000000E+01 0.  1.
         15    1    3    3    0    0 -0.16789903616E+03 -0.24586966381E+03  0.64847916031E+01  0.29780394252E+03  0.17770000000E+01 0.  1.
</event>
<event>
 8    1  0.7045625E-009  0.5032226E+03  0.7546771E-02  0.9392628E-01
        -11   -1    0    0    0    0  0.00000000000E+00  0.00000000000E+00  0.50000000000E+03  0.50000000000E+03  0.00000000000E+00 0.  1.
         11   -1    0    0    0    0 -0.00000000000E+00 -0.00000000000E+00 -0.50000000000E+03  0.50000000000E+03  0.00000000000E+00 0. -1.
         25    2    1    2    0    0 -0.38409924536E+03 -0.18864835973E+03 -0.23344420753E+03  0.50322255224E+03  0.12496521572E+03 0.  0.
         23    2    1    2    0    0  0.38409924536E+03  0.18864835973E+03  0.23344420753E+03  0.49677744776E+03  0.95766385828E+02 0.  0.
        -11    1    4    4    0    0  0.20147074295E+03  0.14100926506E+03  0.16439532878E+03  0.29580381543E+03  0.00000000000E+00 0.  1.
         11    1    4    4    0    0  0.18262850241E+03  0.47639094663E+02  0.69048878752E+02  0.20097363233E+03  0.00000000000E+00 0. -1.
        -15    1    3    3    0    0 -0.55419383250E+02 -0.84102411313E+02 -0.58317884419E+02  0.11639869845E+03  0.17770000000E+01 0.  1.
         15    1    3    3    0    0 -0.32867986211E+03 -0.10454594841E+03 -0.17512632312E+03  0.38682385379E+03  0.17770000000E+01 0.  1.
</event>
<event>
 8    1  0.7045625E-009  0.5037990E+03  0.7546771E-02  0.9391349E-01
        -11   -1    0    0    0    0  0.00000000000E+00  0.00000000000E+00  0.50000000000E+03  0.50000000000E+03  0.00000000000E+00 0.  1.
         11   -1    0    0    0    0 -0.00000000000E+00 -0.00000000000E+00 -0.50000000000E+03  0.50000000000E+03  0.00000000000E+00 0. -1.
         25    2    1    2    0    0  0.13876204597E+03 -0.78495935376E+02 -0.46125856454E+03  0.50379900081E+03  0.12504980040E+03 0.  0.
         23    2    1    2    0    0 -0.13876204597E+03  0.78495935376E+02  0.46125856454E+03  0.49620099919E+03  0.89662985447E+02 0.  0.
        -11    1    4    4    0    0 -0.54127092649E+02  0.38417592862E+02  0.31938011441E+03  0.32620440077E+03  0.00000000000E+00 0.  1.
         11    1    4    4    0    0 -0.84634953320E+02  0.40078342514E+02  0.14187845013E+03  0.16999659842E+03  0.00000000000E+00 0. -1.
        -15    1    3    3    0    0  0.87207262718E+02 -0.20756151456E+02 -0.99885836868E+02  0.13422467221E+03  0.17770000000E+01 0.  1.
         15    1    3    3    0    0  0.51554783252E+02 -0.57739783921E+02 -0.36137272768E+03  0.36957432860E+03  0.17770000000E+01 0.  1.
</event>
<event>
 8    1  0.7045625E-009  0.5035423E+03  0.7546771E-02  0.9391918E-01
        -11   -1    0    0    0    0  0.00000000000E+00  0.00000000000E+00  0.50000000000E+03  0.50000000000E+03  0.00000000000E+00 0.  1.
         11   -1    0    0    0    0 -0.00000000000E+00 -0.00000000000E+00 -0.50000000000E+03  0.50000000000E+03  0.00000000000E+00 0. -1.
         25    2    1    2    0    0  0.47533367008E+03 -0.23899703056E+02  0.10689988262E+03  0.50354227341E+03  0.12495576212E+03 0.  0.
         23    2    1    2    0    0 -0.47533367008E+03  0.23899703056E+02 -0.10689988262E+03  0.49645772659E+03  0.92354727362E+02 0.  0.
        -11    1    4    4    0    0 -0.32639802009E+03  0.58715735945E+02 -0.66128036080E+02  0.33816582074E+03  0.00000000000E+00 0.  1.
         11    1    4    4    0    0 -0.14893565000E+03 -0.34816032889E+02 -0.40771846538E+02  0.15829190585E+03  0.00000000000E+00 0. -1.
        -15    1    3    3    0    0  0.45778961328E+03 -0.46088640917E+01  0.12141979007E+03  0.47364384806E+03  0.17770000000E+01 0. -1.
         15    1    3    3    0    0  0.17544056805E+02 -0.19290838964E+02 -0.14519907455E+02  0.29898425353E+02  0.17770000000E+01 0. -1.
</event>
<event>
 8    1  0.7045625E-009  0.5039941E+03  0.7546771E-02  0.9390917E-01
        -11   -1    0    0    0    0  0.00000000000E+00  0.00000000000E+00  0.50000000000E+03  0.50000000000E+03  0.00000000000E+00 0.  1.
         11   -1    0    0    0    0 -0.00000000000E+00 -0.00000000000E+00 -0.50000000000E+03  0.50000000000E+03  0.00000000000E+00 0. -1.
         25    2    1    2    0    0  0.19088168202E+03  0.37506486888E+03 -0.24755606632E+03  0.50399412704E+03  0.12496640236E+03 0.  0.
         23    2    1    2    0    0 -0.19088168202E+03 -0.37506486888E+03  0.24755606632E+03  0.49600587296E+03  0.87340412442E+02 0.  0.
        -11    1    4    4    0    0 -0.13360247111E+03 -0.16825257307E+03  0.13411145234E+03  0.25326750735E+03  0.00000000000E+00 0. -1.
         11    1    4    4    0    0 -0.57279210913E+02 -0.20681229580E+03  0.11344461398E+03  0.24273836561E+03  0.00000000000E+00 0.  1.
        -15    1    3    3    0    0  0.44134885274E+02  0.11669553909E+03 -0.14110707018E+03  0.18836162009E+03  0.17770000000E+01 0.  1.
         15    1    3    3    0    0  0.14674679675E+03  0.25836932979E+03 -0.10644899615E+03  0.31563250694E+03  0.17770000000E+01 0.  1.
</event>
<event>
 8    1  0.8334390E-009  0.5036244E+03  0.7546771E-02  0.9391736E-01
        -11   -1    0    0    0    0  0.00000000000E+00  0.00000000000E+00  0.50000000000E+03  0.50000000000E+03  0.00000000000E+00 0. -1.
         11   -1    0    0    0    0 -0.00000000000E+00 -0.00000000000E+00 -0.50000000000E+03  0.50000000000E+03  0.00000000000E+00 0.  1.
         25    2    1    2    0    0 -0.12349644420E+03 -0.45991001165E+03  0.10598373141E+03  0.50362435922E+03  0.12504540506E+03 0.  0.
         23    2    1    2    0    0  0.12349644420E+03  0.45991001165E+03 -0.10598373141E+03  0.49637564078E+03  0.91584031841E+02 0.  0.
        -11    1    4    4    0    0  0.61712836138E+02  0.13200043894E+03 -0.67156331026E+02  0.16044489029E+03  0.00000000000E+00 0.  1.
         11    1    4    4    0    0  0.61783608065E+02  0.32790957272E+03 -0.38827400384E+02  0.33593075049E+03  0.00000000000E+00 0. -1.
        -15    1    3    3    0    0 -0.13598487375E+03 -0.45381457499E+03  0.89748216330E+02  0.48217989841E+03  0.17770000000E+01 0. -1.
         15    1    3    3    0    0  0.12488429545E+02 -0.60954366588E+01  0.16235515080E+02  0.21444460811E+02  0.17770000000E+01 0. -1.
</event>
<event>
 8    1  0.7045625E-009  0.5035819E+03  0.7546771E-02  0.9391830E-01
        -11   -1    0    0    0    0  0.00000000000E+00  0.00000000000E+00  0.50000000000E+03  0.50000000000E+03  0.00000000000E+00 0. -1.
         11   -1    0    0    0    0 -0.00000000000E+00 -0.00000000000E+00 -0.50000000000E+03  0.50000000000E+03  0.00000000000E+00 0.  1.
         25    2    1    2    0    0 -0.13620854857E+03  0.95345474931E+02 -0.45859912258E+03  0.50358189386E+03  0.12505215032E+03 0.  0.
         23    2    1    2    0    0  0.13620854857E+03 -0.95345474931E+02  0.45859912258E+03  0.49641810614E+03  0.92055703644E+02 0.  0.
        -11    1    4    4    0    0  0.59132312089E+02 -0.33793685909E+02  0.79441707212E+02  0.10464047202E+03  0.00000000000E+00 0.  1.
         11    1    4    4    0    0  0.77076236482E+02 -0.61551789022E+02  0.37915741537E+03  0.39177763411E+03  0.00000000000E+00 0. -1.
        -15    1    3    3    0    0 -0.12365066929E+03  0.12171008404E+03 -0.34366593422E+03  0.38498346023E+03  0.17770000000E+01 0. -1.
         15    1    3    3    0    0 -0.12557879281E+02 -0.26364609110E+02 -0.11493318836E+03  0.11859843364E+03  0.17770000000E+01 0. -1.
</event>
<event>
 8    1  0.7045625E-009  0.5035936E+03  0.7546771E-02  0.9391804E-01
        -11   -1    0    0    0    0  0.00000000000E+00  0.00000000000E+00  0.50000000000E+03  0.50000000000E+03  0.00000000000E+00 0. -1.
         11   -1    0    0    0    0 -0.00000000000E+00 -0.00000000000E+00 -0.50000000000E+03  0.50000000000E+03  0.00000000000E+00 0.  1.
         25    2    1    2    0    0 -0.12357187058E+03  0.45868542957E+03  0.11094202746E+03  0.50359359742E+03  0.12504418179E+03 0.  0.
         23    2    1    2    0    0  0.12357187058E+03 -0.45868542957E+03 -0.11094202746E+03  0.49640640258E+03  0.91917640145E+02 0.  0.
        -11    1    4    4    0    0  0.12887196053E+03 -0.45830574272E+03 -0.11493787389E+03  0.48975795132E+03  0.00000000000E+00 0.  1.
         11    1    4    4    0    0 -0.53000899458E+01 -0.37968684780E+00  0.39958464328E+01  0.66484512670E+01  0.00000000000E+00 0. -1.
        -15    1    3    3    0    0 -0.67154418801E+02  0.71673865126E+02  0.48531791152E+01  0.98354308412E+02  0.17770000000E+01 0.  1.
         15    1    3    3    0    0 -0.56417451781E+02  0.38701156445E+03  0.10608884834E+03  0.40523928900E+03  0.17770000000E+01 0.  1.
</event>
<event>
 7    1  0.7045625E-009  0.5037934E+03  0.7546771E-02  0.9391361E-01
        -11   -1    0    0    0    0  0.00000000000E+00  0.00000000000E+00  0.50000000000E+03  0.50000000000E+03  0.00000000000E+00 0.  1.
         11   -1    0    0    0    0 -0.00000000000E+00 -0.00000000000E+00 -0.50000000000E+03  0.50000000000E+03  0.00000000000E+00 0. -1.
         23    2    1    2    0    0  0.15873067609E+03 -0.39598310449E+03 -0.23689344120E+03  0.49620656579E+03  0.90024479301E+02 0.  0.
        -11    1    3    3    0    0 -0.66392246742E+01 -0.35146811791E+02 -0.38182784687E+02  0.52319238620E+02  0.00000000000E+00 0.  1.
         11    1    3    3    0    0  0.16536990076E+03 -0.36083629270E+03 -0.19871065651E+03  0.44388732717E+03  0.00000000000E+00 0. -1.
        -15    1    1    2    0    0 -0.14201460739E+03  0.38870200273E+03  0.24791601638E+03  0.48241362392E+03  0.17770000000E+01 0.  1.
         15    1    1    2    0    0 -0.16716068699E+02  0.72811017652E+01 -0.11022575182E+02  0.21379810297E+02  0.17770000000E+01 0. -1.
</event>
<event>
 8    1  0.7045625E-009  0.5036642E+03  0.7546771E-02  0.9391648E-01
        -11   -1    0    0    0    0  0.00000000000E+00  0.00000000000E+00  0.50000000000E+03  0.50000000000E+03  0.00000000000E+00 0.  1.
         11   -1    0    0    0    0 -0.00000000000E+00 -0.00000000000E+00 -0.50000000000E+03  0.50000000000E+03  0.00000000000E+00 0. -1.
         25    2    1    2    0    0  0.26691641793E+03  0.40561491070E+03 -0.47966239518E+02  0.50366422000E+03  0.12493620943E+03 0.  0.
         23    2    1    2    0    0 -0.26691641793E+03 -0.40561491070E+03  0.47966239518E+02  0.49633578000E+03  0.90997892464E+02 0.  0.
        -11    1    4    4    0    0 -0.23356952664E+03 -0.37009449664E+03  0.15734018593E+02  0.43791805119E+03  0.00000000000E+00 0. -1.
         11    1    4    4    0    0 -0.33346891284E+02 -0.35520414065E+02  0.32232220925E+02  0.58417728811E+02  0.00000000000E+00 0.  1.
        -15    1    3    3    0    0  0.21373445861E+03  0.31002131101E+03  0.16053874826E+02  0.37690385605E+03  0.17770000000E+01 0. -1.
         15    1    3    3    0    0  0.53181959321E+02  0.95593599692E+02 -0.64020114343E+02  0.12676036395E+03  0.17770000000E+01 0. -1.
</event>
<event>
 8    1  0.7045625E-009  0.5031924E+03  0.7546771E-02  0.9392695E-01
        -11   -1    0    0    0    0  0.00000000000E+00  0.00000000000E+00  0.50000000000E+03  0.50000000000E+03  0.00000000000E+00 0. -1.
         11   -1    0    0    0    0 -0.00000000000E+00 -0.00000000000E+00 -0.50000000000E+03  0.50000000000E+03  0.00000000000E+00 0.  1.
         25    2    1    2    0    0  0.21293125003E+03  0.15083152516E+03 -0.41167472350E+03  0.50319239875E+03  0.12504657519E+03 0.  0.
         23    2    1    2    0    0 -0.21293125003E+03 -0.15083152516E+03  0.41167472350E+03  0.49680760125E+03  0.96186529538E+02 0.  0.
        -11    1    4    4    0    0 -0.14288213788E+03 -0.67571482773E+02  0.30962076617E+03  0.34762944273E+03  0.00000000000E+00 0. -1.
         11    1    4    4    0    0 -0.70049112153E+02 -0.83260042386E+02  0.10205395733E+03  0.14917815852E+03  0.00000000000E+00 0.  1.
        -15    1    3    3    0    0  0.18592993892E+02 -0.21774920400E+02 -0.30968243698E+02  0.42214173296E+02  0.17770000000E+01 0. -1.
         15    1    3    3    0    0  0.19433825614E+03  0.17260644556E+03 -0.38070647981E+03  0.46097822545E+03  0.17770000000E+01 0.  1.
</event>
<event>
 8    1  0.7045625E-009  0.5037611E+03  0.7546771E-02  0.9391433E-01
        -11   -1    0    0    0    0  0.00000000000E+00  0.00000000000E+00  0.50000000000E+03  0.50000000000E+03  0.00000000000E+00 0.  1.
         11   -1    0    0    0    0 -0.00000000000E+00 -0.00000000000E+00 -0.50000000000E+03  0.50000000000E+03  0.00000000000E+00 0. -1.
         25    2    1    2    0    0  0.27367835843E+03  0.35251565921E+03 -0.19746604100E+03  0.50376113592E+03  0.12496123738E+03 0.  0.
         23    2    1    2    0    0 -0.27367835843E+03 -0.35251565921E+03  0.19746604100E+03  0.49623886408E+03  0.89961319560E+02 0.  0.
        -11    1    4    4    0    0 -0.26338939975E+02 -0.63526847241E+02  0.61582293953E+02  0.92313482265E+02  0.00000000000E+00 0.  1.
         11    1    4    4    0    0 -0.24733941846E+03 -0.28898881197E+03  0.13588374704E+03  0.40392538182E+03  0.00000000000E+00 0. -1.
        -15    1    3    3    0    0  0.12067477082E+03  0.83772877996E+02 -0.10635146363E+03  0.18136727087E+03  0.17770000000E+01 0. -1.
         15    1    3    3    0    0  0.15300358762E+03  0.26874278122E+03 -0.91114577371E+02  0.32239386504E+03  0.17770000000E+01 0. -1.
</event>
<event>
 8    1  0.7045625E-009  0.5033179E+03  0.7546771E-02  0.9392416E-01
        -11   -1    0    0    0    0  0.00000000000E+00  0.00000000000E+00  0.50000000000E+03  0.50000000000E+03  0.00000000000E+00 0.  1.
         11   -1    0    0    0    0 -0.00000000000E+00 -0.00000000000E+00 -0.50000000000E+03  0.50000000000E+03  0.00000000000E+00 0. -1.
         25    2    1    2    0    0  0.27810890525E+03 -0.33193790461E+03 -0.22401957836E+03  0.50331789145E+03  0.12496716638E+03 0.  0.
         23    2    1    2    0    0 -0.27810890525E+03  0.33193790461E+03  0.22401957836E+03  0.49668210855E+03  0.94768189644E+02 0.  0.
        -11    1    4    4    0    0 -0.14494847913E+03  0.16313360683E+03  0.60193185010E+02  0.22637547306E+03  0.00000000000E+00 0.  1.
         11    1    4    4    0    0 -0.13316042611E+03  0.16880429778E+03  0.16382639335E+03  0.27030663549E+03  0.00000000000E+00 0. -1.
        -15    1    3    3    0    0  0.15654745336E+03 -0.15864141210E+03 -0.18141968673E+03  0.28738556548E+03  0.17770000000E+01 0.  1.
         15    1    3    3    0    0  0.12156145189E+03 -0.17329649251E+03 -0.42599891626E+02  0.21593232597E+03  0.17770000000E+01 0.  1.
</event>
<event>
 7    1  0.7045625E-009  0.5033754E+03  0.7546771E-02  0.9392288E-01
        -11   -1    0    0    0    0  0.00000000000E+00  0.00000000000E+00  0.50000000000E+03  0.50000000000E+03  0.00000000000E+00 0. -1.
         11   -1    0    0    0    0 -0.00000000000E+00 -0.00000000000E+00 -0.50000000000E+03  0.50000000000E+03  0.00000000000E+00 0.  1.
         23    2    1    2    0    0 -0.35610894450E+03 -0.14555603272E+03 -0.29965183770E+03  0.49662455839E+03  0.94045675858E+02 0.  0.
        -11    1    3    3    0    0 -0.15359643642E+03 -0.14373313287E+02 -0.10502000057E+03  0.18662169739E+03  0.00000000000E+00 0.  1.
         11    1    3    3    0    0 -0.20251250808E+03 -0.13118271943E+03 -0.19463183713E+03  0.31000286100E+03  0.00000000000E+00 0. -1.
        -15    1    1    2    0    0  0.17493421639E+03  0.52790029679E+02  0.67942732682E+02  0.19495676431E+03  0.17770000000E+01 0.  1.
         15    1    1    2    0    0  0.18117472811E+03  0.92766003041E+02  0.23170910502E+03  0.30841867729E+03  0.17770000000E+01 0.  1.
</event>
<event>
 8    1  0.7045625E-009  0.5035551E+03  0.7546771E-02  0.9391890E-01
        -11   -1    0    0    0    0  0.00000000000E+00  0.00000000000E+00  0.50000000000E+03  0.50000000000E+03  0.00000000000E+00 0. -1.
         11   -1    0    0    0    0 -0.00000000000E+00 -0.00000000000E+00 -0.50000000000E+03  0.50000000000E+03  0.00000000000E+00 0.  1.
         25    2    1    2    0    0  0.44275159952E+03  0.98103343228E+02  0.17967028973E+03  0.50355508025E+03  0.12503223986E+03 0.  0.
         23    2    1    2    0    0 -0.44275159952E+03 -0.98103343228E+02 -0.17967028973E+03  0.49644491975E+03  0.92319556409E+02 0.  0.
        -11    1    4    4    0    0 -0.11270308335E+03  0.81990249575E+01 -0.20222710840E+02  0.11479619785E+03  0.00000000000E+00 0. -1.
         11    1    4    4    0    0 -0.33004851617E+03 -0.10630236819E+03 -0.15944757889E+03  0.38164872189E+03  0.00000000000E+00 0.  1.
        -15    1    3    3    0    0  0.12947295273E+03  0.80961383309E+02  0.28762969131E+02  0.15539773872E+03  0.17770000000E+01 0.  1.
         15    1    3    3    0    0  0.31327864679E+03  0.17141959919E+02  0.15090732060E+03  0.34815734154E+03  0.17770000000E+01 0.  1.
</event>
<event>
 8    1  0.7045625E-009  0.5033578E+03  0.7546771E-02  0.9392328E-01
        -11   -1    0    0    0    0  0.00000000000E+00  0.00000000000E+00  0.50000000000E+03  0.50000000000E+03  0.00000000000E+00 0.  1.
         11   -1    0    0    0    0 -0.00000000000E+00 -0.00000000000E+00 -0.50000000000E+03  0.50000000000E+03  0.00000000000E+00 0. -1.
         25    2    1    2    0    0  0.20724659131E+03 -0.16341779217E+03  0.40996126492E+03  0.50335775551E+03  0.12507704381E+03 0.  0.
         23    2    1    2    0    0 -0.20724659131E+03  0.16341779217E+03 -0.40996126492E+03  0.49664224449E+03  0.94492094182E+02 0.  0.
        -11    1    4    4    0    0 -0.16547564283E+03  0.91452005710E+02 -0.22543298934E+03  0.29422047923E+03  0.00000000000E+00 0.  1.
         11    1    4    4    0    0 -0.41770948483E+02  0.71965786464E+02 -0.18452827559E+03  0.20242176526E+03  0.00000000000E+00 0. -1.
        -15    1    3    3    0    0  0.18316421539E+02 -0.23899555394E+02 -0.81750721105E+00  0.30174593502E+02  0.17770000000E+01 0.  1.
         15    1    3    3    0    0  0.18893016977E+03 -0.13951823678E+03  0.41077877214E+03  0.47318316201E+03  0.17770000000E+01 0.  1.
</event>
<event>
 8    1  0.7045625E-009  0.5025702E+03  0.7546771E-02  0.9394077E-01
        -11   -1    0    0    0    0  0.00000000000E+00  0.00000000000E+00  0.50000000000E+03  0.50000000000E+03  0.00000000000E+00 0.  1.
         11   -1    0    0    0    0 -0.00000000000E+00 -0.00000000000E+00 -0.50000000000E+03  0.50000000000E+03  0.00000000000E+00 0. -1.
         25    2    1    2    0    0  0.62026766450E+02  0.13992318824E+03 -0.46207836395E+03  0.50257020725E+03  0.12503831579E+03 0.  0.
         23    2    1    2    0    0 -0.62026766450E+02 -0.13992318824E+03  0.46207836395E+03  0.49742979275E+03  0.10244103631E+03 0.  0.
        -11    1    4    4    0    0 -0.83437992527E+02 -0.12110781112E+03  0.43031300855E+03  0.45475079532E+03  0.00000000000E+00 0.  1.
         11    1    4    4    0    0  0.21411226077E+02 -0.18815377126E+02  0.31765355401E+02  0.42678997437E+02  0.00000000000E+00 0. -1.
        -15    1    3    3    0    0 -0.19894909903E+02 -0.11510712900E+02 -0.33195209767E+02  0.40415141123E+02  0.17770000000E+01 0.  1.
         15    1    3    3    0    0  0.81921676354E+02  0.15143390114E+03 -0.42888315419E+03  0.46215506613E+03  0.17770000000E+01 0.  1.
</event>
<event>
 8    1  0.7045625E-009  0.5038846E+03  0.7546771E-02  0.9391159E-01
        -11   -1    0    0    0    0  0.00000000000E+00  0.00000000000E+00  0.50000000000E+03  0.50000000000E+03  0.00000000000E+00 0.  1.
         11   -1    0    0    0    0 -0.00000000000E+00 -0.00000000000E+00 -0.50000000000E+03  0.50000000000E+03  0.00000000000E+00 0. -1.
         25    2    1    2    0    0  0.35556240209E+03 -0.10058264095E+03 -0.31893806919E+03  0.50388459551E+03  0.12504680793E+03 0.  0.
         23    2    1    2    0    0 -0.35556240209E+03  0.10058264095E+03  0.31893806919E+03  0.49611540449E+03  0.88699003121E+02 0.  0.
        -11    1    4    4    0    0 -0.19898734815E+03  0.11225766116E+02  0.15566907568E+03  0.25289294904E+03  0.00000000000E+00 0.  1.
         11    1    4    4    0    0 -0.15657505394E+03  0.89356874838E+02  0.16326899350E+03  0.24322245545E+03  0.00000000000E+00 0. -1.
        -15    1    3    3    0    0  0.34481298847E+03 -0.11391934974E+03 -0.32320077410E+03  0.48614351109E+03  0.17770000000E+01 0.  1.
         15    1    3    3    0    0  0.10749413621E+02  0.13336708784E+02  0.42627049139E+01  0.17741084424E+02  0.17770000000E+01 0.  1.
</event>
<event>
 8    1  0.7045625E-009  0.5036511E+03  0.7546771E-02  0.9391677E-01
        -11   -1    0    0    0    0  0.00000000000E+00  0.00000000000E+00  0.50000000000E+03  0.50000000000E+03  0.00000000000E+00 0.  1.
         11   -1    0    0    0    0 -0.00000000000E+00 -0.00000000000E+00 -0.50000000000E+03  0.50000000000E+03  0.00000000000E+00 0. -1.
         25    2    1    2    0    0 -0.51181751648E+02 -0.30167252568E+03  0.38000573289E+03  0.50365106388E+03  0.12503660529E+03 0.  0.
         23    2    1    2    0    0  0.51181751648E+02  0.30167252568E+03 -0.38000573289E+03  0.49634893612E+03  0.91279926065E+02 0.  0.
        -11    1    4    4    0    0 -0.16733109000E+01  0.21955201024E+03 -0.23585995062E+03  0.32223563037E+03  0.00000000000E+00 0.  1.
         11    1    4    4    0    0  0.52855062548E+02  0.82120515436E+02 -0.14414578228E+03  0.17411330575E+03  0.00000000000E+00 0. -1.
        -15    1    3    3    0    0 -0.49614557368E+01 -0.44962398413E+01 -0.93672292460E+01  0.11650533399E+02  0.17770000000E+01 0. -1.
         15    1    3    3    0    0 -0.46220295912E+02 -0.29717628584E+03  0.38937296214E+03  0.49200053048E+03  0.17770000000E+01 0. -1.
</event>
<event>
 8    1  0.7045625E-009  0.5035937E+03  0.7546771E-02  0.9391804E-01
        -11   -1    0    0    0    0  0.00000000000E+00  0.00000000000E+00  0.50000000000E+03  0.50000000000E+03  0.00000000000E+00 0. -1.
         11   -1    0    0    0    0 -0.00000000000E+00 -0.00000000000E+00 -0.50000000000E+03  0.50000000000E+03  0.00000000000E+00 0.  1.
         25    2    1    2    0    0 -0.38179585792E+03 -0.30310882116E+03  0.18860951405E+02  0.50359368618E+03  0.12493130387E+03 0.  0.
         23    2    1    2    0    0  0.38179585792E+03  0.30310882116E+03 -0.18860951405E+02  0.49640631382E+03  0.91763055348E+02 0.  0.
        -11    1    4    4    0    0  0.26085450591E+03  0.25816219288E+03 -0.12027826078E+02  0.36720220545E+03  0.00000000000E+00 0. -1.
         11    1    4    4    0    0  0.12094135201E+03  0.44946628282E+02 -0.68331253275E+01  0.12920410837E+03  0.00000000000E+00 0.  1.
        -15    1    3    3    0    0 -0.18409253375E+02 -0.25273637756E+02 -0.30237244916E+02  0.43532816178E+02  0.17770000000E+01 0.  1.
         15    1    3    3    0    0 -0.36338660454E+03 -0.27783518340E+03  0.49098196322E+02  0.46006087000E+03  0.17770000000E+01 0.  1.
</event>
<event>
 8    1  0.7920718E-009  0.5033978E+03  0.7546771E-02  0.9392239E-01
        -11   -1    0    0    0    0  0.00000000000E+00  0.00000000000E+00  0.50000000000E+03  0.50000000000E+03  0.00000000000E+00 0.  1.
         11   -1    0    0    0    0 -0.00000000000E+00 -0.00000000000E+00 -0.50000000000E+03  0.50000000000E+03  0.00000000000E+00 0. -1.
         25    2    1    2    0    0  0.37151941308E+03 -0.19146944051E+01  0.31582577757E+03  0.50339784714E+03  0.12503251730E+03 0.  0.
         23    2    1    2    0    0 -0.37151941308E+03  0.19146944051E+01 -0.31582577757E+03  0.49660215286E+03  0.94007638548E+02 0.  0.
        -11    1    4    4    0    0 -0.12187285106E+03 -0.43604379225E+02 -0.10973903932E+03  0.16969676032E+03  0.00000000000E+00 0. -1.
         11    1    4    4    0    0 -0.24964656202E+03  0.45519073631E+02 -0.20608673824E+03  0.32690539254E+03  0.00000000000E+00 0.  1.
        -15    1    3    3    0    0  0.38045165280E+03  0.39681761878E+01  0.31149432186E+03  0.49172256082E+03  0.17770000000E+01 0.  1.
         15    1    3    3    0    0 -0.89322397287E+01 -0.58828705929E+01  0.43314557078E+01  0.11675286315E+02  0.17770000000E+01 0.  1.
</event>
<event>
 8    1  0.7045625E-009  0.5037164E+03  0.7546771E-02  0.9391532E-01
        -11   -1    0    0    0    0  0.00000000000E+00  0.00000000000E+00  0.50000000000E+03  0.50000000000E+03  0.00000000000E+00 0.  1.
         11   -1    0    0    0    0 -0.00000000000E+00 -0.00000000000E+00 -0.50000000000E+03  0.50000000000E+03  0.00000000000E+00 0. -1.
         25    2    1    2    0    0  0.28408938585E+03  0.33440113447E+03  0.21350221996E+03  0.50371641003E+03  0.12496449861E+03 0.  0.
         23    2    1    2    0    0 -0.28408938585E+03 -0.33440113447E+03 -0.21350221996E+03  0.49628358997E+03  0.90461626463E+02 0.  0.
        -11    1    4    4    0    0 -0.33794185436E+02 -0.42807853619E+02 -0.63637010244E+02  0.83810669808E+02  0.00000000000E+00 0. -1.
         11    1    4    4    0    0 -0.25029520041E+03 -0.29159328085E+03 -0.14986520972E+03  0.41247292017E+03  0.00000000000E+00 0.  1.
        -15    1    3    3    0    0  0.11199122101E+03  0.93266821339E+02  0.13727772913E+02  0.14639789283E+03  0.17770000000E+01 0.  1.
         15    1    3    3    0    0  0.17209816484E+03  0.24113431313E+03  0.19977444705E+03  0.35731851720E+03  0.17770000000E+01 0.  1.
</event>
<event>
 8    1  0.7045625E-009  0.5032483E+03  0.7546771E-02  0.9392571E-01
        -11   -1    0    0    0    0  0.00000000000E+00  0.00000000000E+00  0.50000000000E+03  0.50000000000E+03  0.00000000000E+00 0.  1.
         11   -1    0    0    0    0 -0.00000000000E+00 -0.00000000000E+00 -0.50000000000E+03  0.50000000000E+03  0.00000000000E+00 0. -1.
         25    2    1    2    0    0 -0.33352135838E+03  0.35484330228E+03  0.22362103402E+02  0.50324831736E+03  0.12493414101E+03 0.  0.
         23    2    1    2    0    0  0.33352135838E+03 -0.35484330228E+03 -0.22362103402E+02  0.49675168264E+03  0.95456298189E+02 0.  0.
        -11    1    4    4    0    0  0.13070298424E+03 -0.82107499215E+02  0.13707301384E+02  0.15496064541E+03  0.00000000000E+00 0.  1.
         11    1    4    4    0    0  0.20281837414E+03 -0.27273580307E+03 -0.36069404786E+02  0.34179103722E+03  0.00000000000E+00 0. -1.
        -15    1    3    3    0    0 -0.32258778441E+02 -0.51712361497E+01 -0.45754768218E+01  0.33037299934E+02  0.17770000000E+01 0. -1.
         15    1    3    3    0    0 -0.30126257994E+03  0.36001453843E+03  0.26937580224E+02  0.47021101743E+03  0.17770000000E+01 0. -1.
</event>
<event>
 7    1  0.7045625E-009  0.5034231E+03  0.7546771E-02  0.9392183E-01
        -11   -1    0    0    0    0  0.00000000000E+00  0.00000000000E+00  0.50000000000E+03  0.50000000000E+03  0.00000000000E+00 0.  1.
         11   -1    0    0    0    0 -0.00000000000E+00 -0.00000000000E+00 -0.50000000000E+03  0.50000000000E+03  0.00000000000E+00 0. -1.
         23    2    1    2    0    0  0.23804587949E+03  0.61250331293E+02 -0.42111918992E+03  0.49657687828E+03  0.93966909606E+02 0.  0.
        -11    1    3    3    0    0  0.22578610796E+03  0.80322791720E+02 -0.37249217449E+03  0.44292385065E+03  0.00000000000E+00 0. -1.
         11    1    3    3    0    0  0.12259771529E+02 -0.19072460426E+02 -0.48627015427E+02  0.53653027632E+02  0.00000000000E+00 0.  1.
        -15    1    1    2    0    0 -0.21597642986E+03 -0.56867227658E+02  0.42538482252E+03  0.48045302038E+03  0.17770000000E+01 0.  1.
         15    1    1    2    0    0 -0.22069449636E+02 -0.43831036356E+01 -0.42656326046E+01  0.22970101333E+02  0.17770000000E+01 0. -1.
</event>
<event>
 8    1  0.7045625E-009  0.5034330E+03  0.7546771E-02  0.9392161E-01
        -11   -1    0    0    0    0  0.00000000000E+00  0.00000000000E+00  0.50000000000E+03  0.50000000000E+03  0.00000000000E+00 0.  1.
         11   -1    0    0    0    0 -0.00000000000E+00 -0.00000000000E+00 -0.50000000000E+03  0.50000000000E+03  0.00000000000E+00 0. -1.
         25    2    1    2    0    0  0.32751472640E+03  0.12705954699E+02  0.36108165112E+03  0.50343295341E+03  0.12504976015E+03 0.  0.
         23    2    1    2    0    0 -0.32751472640E+03 -0.12705954699E+02 -0.36108165112E+03  0.49656704659E+03  0.93656477002E+02 0.  0.
        -11    1    4    4    0    0 -0.52857561616E+02 -0.11005117624E+02 -0.17631022294E+02  0.56796895875E+02  0.00000000000E+00 0.  1.
         11    1    4    4    0    0 -0.27465716479E+03 -0.17008370755E+01 -0.34345062883E+03  0.43977015071E+03  0.00000000000E+00 0. -1.
        -15    1    3    3    0    0  0.17090947470E+03  0.37890239035E+02  0.26615779303E+03  0.31857314274E+03  0.17770000000E+01 0.  1.
         15    1    3    3    0    0  0.15660525170E+03 -0.25184284336E+02  0.94923858087E+02  0.18485981067E+03  0.17770000000E+01 0.  1.
</event>
<event>
 8    1  0.7045625E-009  0.5039001E+03  0.7546771E-02  0.9391125E-01
        -11   -1    0    0    0    0  0.00000000000E+00  0.00000000000E+00  0.50000000000E+03  0.50000000000E+03  0.00000000000E+00 0.  1.
         11   -1    0    0    0    0 -0.00000000000E+00 -0.00000000000E+00 -0.50000000000E+03  0.50000000000E+03  0.00000000000E+00 0. -1.
         25    2    1    2    0    0 -0.24030494425E+03  0.21459671846E+02  0.42437268867E+03  0.50390010238E+03  0.12496459716E+03 0.  0.
         23    2    1    2    0    0  0.24030494425E+03 -0.21459671846E+02 -0.42437268867E+03  0.49609989762E+03  0.88407837782E+02 0.  0.
        -11    1    4    4    0    0  0.52686821147E+02  0.26623946067E+02 -0.64624000558E+02  0.87527121938E+02  0.00000000000E+00 0.  1.
         11    1    4    4    0    0  0.18761812310E+03 -0.48083617912E+02 -0.35974868811E+03  0.40857277568E+03  0.00000000000E+00 0. -1.
        -15    1    3    3    0    0 -0.24566396198E+03 -0.38929173363E+01  0.38158884161E+03  0.45384924677E+03  0.17770000000E+01 0. -1.
         15    1    3    3    0    0  0.53590177316E+01  0.25352589182E+02  0.42783847063E+02  0.50050855615E+02  0.17770000000E+01 0. -1.
</event>
