<event>
 8    1  0.1549296E-006  0.1929390E+03  0.7546771E-02  0.1060436E+00
        -11   -1    0    0    0    0  0.00000000000E+00  0.00000000000E+00  0.18250000000E+03  0.18250000000E+03  0.00000000000E+00 0.  1.
         11   -1    0    0    0    0 -0.00000000000E+00 -0.00000000000E+00 -0.18250000000E+03  0.18250000000E+03  0.00000000000E+00 0. -1.
         25    2    1    2    0    0  0.11236666473E+03 -0.36341613011E+02 -0.87405820744E+02  0.19293898108E+03  0.12505475897E+03 0.  0.
         23    2    1    2    0    0 -0.11236666473E+03  0.36341613011E+02  0.87405820744E+02  0.17206101892E+03  0.89544606499E+02 0.  0.
        -11    1    4    4    0    0 -0.84090582130E+02  0.21717173822E+02  0.88492491336E+01  0.87299317592E+02  0.00000000000E+00 0. -1.
         11    1    4    4    0    0 -0.28276082599E+02  0.14624439189E+02  0.78556571610E+02  0.84761701328E+02  0.00000000000E+00 0.  1.
        -15    1    3    3    0    0 -0.23843970314E+02 -0.21421540318E+02 -0.35913189772E+01  0.32302826671E+02  0.17770000000E+01 0.  1.
         15    1    3    3    0    0  0.13621063504E+03 -0.14920072693E+02 -0.83814501767E+02  0.16063615441E+03  0.17770000000E+01 0.  1.
</event>
<event>
 8    1  0.1549296E-006  0.1934390E+03  0.7546771E-02  0.1060066E+00
        -11   -1    0    0    0    0  0.00000000000E+00  0.00000000000E+00  0.18250000000E+03  0.18250000000E+03  0.00000000000E+00 0.  1.
         11   -1    0    0    0    0 -0.00000000000E+00 -0.00000000000E+00 -0.18250000000E+03  0.18250000000E+03  0.00000000000E+00 0. -1.
         25    2    1    2    0    0  0.22124397888E+02 -0.51260006446E+01  0.14581354204E+03  0.19343900303E+03  0.12506515896E+03 0.  0.
         23    2    1    2    0    0 -0.22124397888E+02  0.51260006446E+01 -0.14581354204E+03  0.17156099697E+03  0.87497552970E+02 0.  0.
        -11    1    4    4    0    0  0.32017646454E+02  0.12704112118E+02 -0.70852429274E+02  0.78781919773E+02  0.00000000000E+00 0. -1.
         11    1    4    4    0    0 -0.54142044342E+02 -0.75781114732E+01 -0.74961112765E+02  0.92779077199E+02  0.00000000000E+00 0.  1.
        -15    1    3    3    0    0 -0.11128498928E+01 -0.38406799894E+02  0.14783753049E+03  0.15275933315E+03  0.17770000000E+01 0.  1.
         15    1    3    3    0    0  0.23237247781E+02  0.33280799249E+02 -0.20239884541E+01  0.40679669878E+02  0.17770000000E+01 0. -1.
</event>
<event>
 8    1  0.1549296E-006  0.1926040E+03  0.7546771E-02  0.1060685E+00
        -11   -1    0    0    0    0  0.00000000000E+00  0.00000000000E+00  0.18250000000E+03  0.18250000000E+03  0.00000000000E+00 0.  1.
         11   -1    0    0    0    0 -0.00000000000E+00 -0.00000000000E+00 -0.18250000000E+03  0.18250000000E+03  0.00000000000E+00 0. -1.
         25    2    1    2    0    0 -0.13903881514E+03 -0.38165460736E+02  0.25770693926E+02  0.19260395109E+03  0.12507501269E+03 0.  0.
         23    2    1    2    0    0  0.13903881514E+03  0.38165460736E+02 -0.25770693926E+02  0.17239604891E+03  0.90927853290E+02 0.  0.
        -11    1    4    4    0    0  0.75639856603E+02  0.44776441610E+02  0.24461130963E+02  0.91239599726E+02  0.00000000000E+00 0.  1.
         11    1    4    4    0    0  0.63398958542E+02 -0.66109808740E+01 -0.50231824889E+02  0.81156449183E+02  0.00000000000E+00 0. -1.
        -15    1    3    3    0    0 -0.90747741158E+01 -0.77470270211E+01 -0.41433068170E+02  0.43153502985E+02  0.17770000000E+01 0. -1.
         15    1    3    3    0    0 -0.12996404103E+03 -0.30418433715E+02  0.67203762096E+02  0.14945044811E+03  0.17770000000E+01 0. -1.
</event>
<event>
 8    1  0.1549296E-006  0.1930876E+03  0.7546771E-02  0.1060326E+00
        -11   -1    0    0    0    0  0.00000000000E+00  0.00000000000E+00  0.18250000000E+03  0.18250000000E+03  0.00000000000E+00 0. -1.
         11   -1    0    0    0    0 -0.00000000000E+00 -0.00000000000E+00 -0.18250000000E+03  0.18250000000E+03  0.00000000000E+00 0.  1.
         25    2    1    2    0    0  0.34667520075E+02  0.10079143172E+03 -0.10142390131E+03  0.19308759247E+03  0.12504103707E+03 0.  0.
         23    2    1    2    0    0 -0.34667520075E+02 -0.10079143172E+03  0.10142390131E+03  0.17191240753E+03  0.88917481133E+02 0.  0.
        -11    1    4    4    0    0 -0.61650011256E+02 -0.47250085020E+02  0.46058729665E+02  0.90303383107E+02  0.00000000000E+00 0.  1.
         11    1    4    4    0    0  0.26982491181E+02 -0.53541346699E+02  0.55365171644E+02  0.81609024426E+02  0.00000000000E+00 0. -1.
        -15    1    3    3    0    0 -0.47587841611E+00  0.11717532509E+03 -0.47053088276E+02  0.12628315056E+03  0.17770000000E+01 0. -1.
         15    1    3    3    0    0  0.35143398491E+02 -0.16383893372E+02 -0.54370813032E+02  0.66804441905E+02  0.17770000000E+01 0. -1.
</event>
<event>
 8    1  0.1549296E-006  0.1922646E+03  0.7546771E-02  0.1060937E+00
        -11   -1    0    0    0    0  0.00000000000E+00  0.00000000000E+00  0.18250000000E+03  0.18250000000E+03  0.00000000000E+00 0.  1.
         11   -1    0    0    0    0 -0.00000000000E+00 -0.00000000000E+00 -0.18250000000E+03  0.18250000000E+03  0.00000000000E+00 0. -1.
         25    2    1    2    0    0  0.10228830973E+03 -0.10434963594E+03 -0.14259647054E+01  0.19226462793E+03  0.12494762482E+03 0.  0.
         23    2    1    2    0    0 -0.10228830973E+03  0.10434963594E+03  0.14259647054E+01  0.17273537207E+03  0.92107168883E+02 0.  0.
        -11    1    4    4    0    0 -0.26201915592E+02 -0.86887372930E+01  0.21519422194E+02  0.35001715215E+02  0.00000000000E+00 0. -1.
         11    1    4    4    0    0 -0.76086394142E+02  0.11303837323E+03 -0.20093457488E+02  0.13773365685E+03  0.00000000000E+00 0.  1.
        -15    1    3    3    0    0  0.36771948324E+02 -0.87745353963E+02 -0.51436236054E+02  0.10816777447E+03  0.17770000000E+01 0. -1.
         15    1    3    3    0    0  0.65516361410E+02 -0.16604281978E+02  0.50010271348E+02  0.84096853459E+02  0.17770000000E+01 0. -1.
</event>
<event>
 8    1  0.1549296E-006  0.1923384E+03  0.7546771E-02  0.1060882E+00
        -11   -1    0    0    0    0  0.00000000000E+00  0.00000000000E+00  0.18250000000E+03  0.18250000000E+03  0.00000000000E+00 0.  1.
         11   -1    0    0    0    0 -0.00000000000E+00 -0.00000000000E+00 -0.18250000000E+03  0.18250000000E+03  0.00000000000E+00 0. -1.
         25    2    1    2    0    0  0.12284420870E+03 -0.12987312523E+02  0.78220626464E+02  0.19233841837E+03  0.12496491859E+03 0.  0.
         23    2    1    2    0    0 -0.12284420870E+03  0.12987312523E+02 -0.78220626464E+02  0.17266158163E+03  0.91837821551E+02 0.  0.
        -11    1    4    4    0    0 -0.82641425004E+02 -0.18126546894E+02 -0.66406757185E+01  0.84866220624E+02  0.00000000000E+00 0.  1.
         11    1    4    4    0    0 -0.40202783700E+02  0.31113859418E+02 -0.71579950746E+02  0.87795361004E+02  0.00000000000E+00 0. -1.
        -15    1    3    3    0    0  0.36964770635E+02 -0.56210140055E+02 -0.16733664416E+01  0.67319625648E+02  0.17770000000E+01 0.  1.
         15    1    3    3    0    0  0.85879438068E+02  0.43222827531E+02  0.79893992906E+02  0.12501879272E+03  0.17770000000E+01 0.  1.
</event>
<event>
 8    1  0.1549296E-006  0.1925745E+03  0.7546771E-02  0.1060707E+00
        -11   -1    0    0    0    0  0.00000000000E+00  0.00000000000E+00  0.18250000000E+03  0.18250000000E+03  0.00000000000E+00 0. -1.
         11   -1    0    0    0    0 -0.00000000000E+00 -0.00000000000E+00 -0.18250000000E+03  0.18250000000E+03  0.00000000000E+00 0.  1.
         25    2    1    2    0    0 -0.19944203024E+02  0.13836473093E+03  0.43899569717E+02  0.19257454614E+03  0.12496084826E+03 0.  0.
         23    2    1    2    0    0  0.19944203024E+02 -0.13836473093E+03 -0.43899569717E+02  0.17242545386E+03  0.90888915274E+02 0.  0.
        -11    1    4    4    0    0  0.32199992384E+02 -0.35003831278E+02  0.18541158199E+02  0.51047842864E+02  0.00000000000E+00 0. -1.
         11    1    4    4    0    0 -0.12255789359E+02 -0.10336089965E+03 -0.62440727916E+02  0.12137761100E+03  0.00000000000E+00 0.  1.
        -15    1    3    3    0    0  0.10189459398E+02  0.74471798923E+02 -0.38131762107E+02  0.84303398081E+02  0.17770000000E+01 0.  1.
         15    1    3    3    0    0 -0.30133662423E+02  0.63892932006E+02  0.82031331823E+02  0.10827114805E+03  0.17770000000E+01 0.  1.
</event>
<event>
 8    1  0.1549296E-006  0.1923029E+03  0.7546771E-02  0.1060909E+00
        -11   -1    0    0    0    0  0.00000000000E+00  0.00000000000E+00  0.18250000000E+03  0.18250000000E+03  0.00000000000E+00 0.  1.
         11   -1    0    0    0    0 -0.00000000000E+00 -0.00000000000E+00 -0.18250000000E+03  0.18250000000E+03  0.00000000000E+00 0. -1.
         25    2    1    2    0    0  0.30305823527E+02 -0.12513527205E+03  0.69059697400E+02  0.19230286548E+03  0.12503547903E+03 0.  0.
         23    2    1    2    0    0 -0.30305823527E+02  0.12513527205E+03 -0.69059697400E+02  0.17269713452E+03  0.92074856585E+02 0.  0.
        -11    1    4    4    0    0 -0.50526104870E+02  0.25817830311E+02 -0.20721049796E+02  0.60405376747E+02  0.00000000000E+00 0.  1.
         11    1    4    4    0    0  0.20220281343E+02  0.99317441741E+02 -0.48338647604E+02  0.11229175777E+03  0.00000000000E+00 0. -1.
        -15    1    3    3    0    0  0.79404919781E+02 -0.79496666207E+02  0.41226703868E+02  0.11969820410E+03  0.17770000000E+01 0.  1.
         15    1    3    3    0    0 -0.49099096254E+02 -0.45638605845E+02  0.27832993532E+02  0.72604661382E+02  0.17770000000E+01 0.  1.
</event>
<event>
 8    1  0.1549296E-006  0.1921633E+03  0.7546771E-02  0.1061013E+00
        -11   -1    0    0    0    0  0.00000000000E+00  0.00000000000E+00  0.18250000000E+03  0.18250000000E+03  0.00000000000E+00 0. -1.
         11   -1    0    0    0    0 -0.00000000000E+00 -0.00000000000E+00 -0.18250000000E+03  0.18250000000E+03  0.00000000000E+00 0.  1.
         25    2    1    2    0    0 -0.70931436284E+02  0.50697918743E+02  0.11699859193E+03  0.19216325206E+03  0.12504598078E+03 0.  0.
         23    2    1    2    0    0  0.70931436284E+02 -0.50697918743E+02 -0.11699859193E+03  0.17283674794E+03  0.92640829600E+02 0.  0.
        -11    1    4    4    0    0  0.55948779631E+02  0.65709512074E+01 -0.93475269362E+02  0.10913784552E+03  0.00000000000E+00 0.  1.
         11    1    4    4    0    0  0.14982656653E+02 -0.57268869951E+02 -0.23523322564E+02  0.63698902426E+02  0.00000000000E+00 0. -1.
        -15    1    3    3    0    0 -0.97505487709E+02  0.69410298868E+02  0.87970154473E+02  0.14854970727E+03  0.17770000000E+01 0. -1.
         15    1    3    3    0    0  0.26574051425E+02 -0.18712380125E+02  0.29028437453E+02  0.43613544788E+02  0.17770000000E+01 0. -1.
</event>
<event>
 8    1  0.1549296E-006  0.1931080E+03  0.7546771E-02  0.1060311E+00
        -11   -1    0    0    0    0  0.00000000000E+00  0.00000000000E+00  0.18250000000E+03  0.18250000000E+03  0.00000000000E+00 0.  1.
         11   -1    0    0    0    0 -0.00000000000E+00 -0.00000000000E+00 -0.18250000000E+03  0.18250000000E+03  0.00000000000E+00 0. -1.
         25    2    1    2    0    0  0.11709202584E+03 -0.23903747036E+02  0.85857403107E+02  0.19310798197E+03  0.12504905995E+03 0.  0.
         23    2    1    2    0    0 -0.11709202584E+03  0.23903747036E+02 -0.85857403107E+02  0.17189201803E+03  0.88845036768E+02 0.  0.
        -11    1    4    4    0    0  0.11213901196E+02 -0.94592359209E+01 -0.14793011769E+01  0.14745068878E+02  0.00000000000E+00 0.  1.
         11    1    4    4    0    0 -0.12830592703E+03  0.33362982957E+02 -0.84378101930E+02  0.15714694916E+03  0.00000000000E+00 0. -1.
        -15    1    3    3    0    0 -0.24345297457E+02  0.94178830365E+01  0.22769341102E+02  0.34684155639E+02  0.17770000000E+01 0. -1.
         15    1    3    3    0    0  0.14143732330E+03 -0.33321630073E+02  0.63088062005E+02  0.15842382633E+03  0.17770000000E+01 0. -1.
</event>
<event>
 7    1  0.1549296E-006  0.1924968E+03  0.7546771E-02  0.1060765E+00
        -11   -1    0    0    0    0  0.00000000000E+00  0.00000000000E+00  0.18250000000E+03  0.18250000000E+03  0.00000000000E+00 0. -1.
         11   -1    0    0    0    0 -0.00000000000E+00 -0.00000000000E+00 -0.18250000000E+03  0.18250000000E+03  0.00000000000E+00 0.  1.
         23    2    1    2    0    0 -0.31942876443E+02  0.13579592478E+03  0.44739464129E+02  0.17250316068E+03  0.91076013601E+02 0.  0.
        -11    1    3    3    0    0  0.25597466550E+02  0.16416993396E+02  0.23183329540E+02  0.38238916493E+02  0.00000000000E+00 0. -1.
         11    1    3    3    0    0 -0.57540342993E+02  0.11937893138E+03  0.21556134588E+02  0.13426424419E+03  0.00000000000E+00 0.  1.
        -15    1    1    2    0    0  0.80111227359E+02 -0.80220979791E+02 -0.22035650581E+02  0.11550732433E+03  0.17770000000E+01 0. -1.
         15    1    1    2    0    0 -0.48168350916E+02 -0.55574944985E+02 -0.22703813547E+02  0.76989514992E+02  0.17770000000E+01 0. -1.
</event>
<event>
 8    1  0.1549296E-006  0.1932350E+03  0.7546771E-02  0.1060217E+00
        -11   -1    0    0    0    0  0.00000000000E+00  0.00000000000E+00  0.18250000000E+03  0.18250000000E+03  0.00000000000E+00 0.  1.
         11   -1    0    0    0    0 -0.00000000000E+00 -0.00000000000E+00 -0.18250000000E+03  0.18250000000E+03  0.00000000000E+00 0. -1.
         25    2    1    2    0    0 -0.65818395550E+02 -0.11390674169E+03  0.66470556355E+02  0.19323501359E+03  0.12495850759E+03 0.  0.
         23    2    1    2    0    0  0.65818395550E+02  0.11390674169E+03 -0.66470556355E+02  0.17176498641E+03  0.88193359724E+02 0.  0.
        -11    1    4    4    0    0  0.85996991847E+02  0.74552911628E+02 -0.42735136168E+02  0.12157265771E+03  0.00000000000E+00 0.  1.
         11    1    4    4    0    0 -0.20178596297E+02  0.39353830064E+02 -0.23735420187E+02  0.50192328703E+02  0.00000000000E+00 0. -1.
        -15    1    3    3    0    0 -0.98324077812E+02 -0.85285257935E+02  0.73243742594E+02  0.14936198665E+03  0.17770000000E+01 0.  1.
         15    1    3    3    0    0  0.32505682262E+02 -0.28621483757E+02 -0.67731862390E+01  0.43873026936E+02  0.17770000000E+01 0.  1.
</event>
<event>
 8    1  0.1549296E-006  0.1917531E+03  0.7546771E-02  0.1061319E+00
        -11   -1    0    0    0    0  0.00000000000E+00  0.00000000000E+00  0.18250000000E+03  0.18250000000E+03  0.00000000000E+00 0.  1.
         11   -1    0    0    0    0 -0.00000000000E+00 -0.00000000000E+00 -0.18250000000E+03  0.18250000000E+03  0.00000000000E+00 0. -1.
         25    2    1    2    0    0  0.13050879830E+03 -0.36058853011E+02  0.53130709314E+02  0.19175309869E+03  0.12495435674E+03 0.  0.
         23    2    1    2    0    0 -0.13050879830E+03  0.36058853011E+02 -0.53130709314E+02  0.17324690131E+03  0.94121353725E+02 0.  0.
        -11    1    4    4    0    0 -0.72979230886E+02  0.63033145918E+02 -0.11111166515E+02  0.97070096561E+02  0.00000000000E+00 0.  1.
         11    1    4    4    0    0 -0.57529567419E+02 -0.26974292907E+02 -0.42019542798E+02  0.76176804752E+02  0.00000000000E+00 0. -1.
        -15    1    3    3    0    0  0.54298480405E+02  0.42797793876E+02  0.43384657895E+02  0.81641670761E+02  0.17770000000E+01 0. -1.
         15    1    3    3    0    0  0.76210317900E+02 -0.78856646888E+02  0.97460514186E+01  0.11011142793E+03  0.17770000000E+01 0. -1.
</event>
<event>
 8    1  0.1549296E-006  0.1942654E+03  0.7546771E-02  0.1059457E+00
        -11   -1    0    0    0    0  0.00000000000E+00  0.00000000000E+00  0.18250000000E+03  0.18250000000E+03  0.00000000000E+00 0.  1.
         11   -1    0    0    0    0 -0.00000000000E+00 -0.00000000000E+00 -0.18250000000E+03  0.18250000000E+03  0.00000000000E+00 0. -1.
         25    2    1    2    0    0  0.10148608191E+03  0.44668961395E+02 -0.99149924246E+02  0.19426537064E+03  0.12495433494E+03 0.  0.
         23    2    1    2    0    0 -0.10148608191E+03 -0.44668961395E+02  0.99149924246E+02  0.17073462936E+03  0.83814469222E+02 0.  0.
        -11    1    4    4    0    0 -0.10959824180E+03 -0.53301740528E+02  0.73091372847E+02  0.14210981294E+03  0.00000000000E+00 0. -1.
         11    1    4    4    0    0  0.81121598975E+01  0.86327791333E+01  0.26058551400E+02  0.28624816415E+02  0.00000000000E+00 0.  1.
        -15    1    3    3    0    0  0.18180682424E+02  0.48955227556E+02 -0.97726541566E+02  0.11081870859E+03  0.17770000000E+01 0.  1.
         15    1    3    3    0    0  0.83305399481E+02 -0.42862661613E+01 -0.14233826800E+01  0.83446662052E+02  0.17770000000E+01 0.  1.
</event>
<event>
 8    1  0.1549296E-006  0.1928130E+03  0.7546771E-02  0.1060530E+00
        -11   -1    0    0    0    0  0.00000000000E+00  0.00000000000E+00  0.18250000000E+03  0.18250000000E+03  0.00000000000E+00 0. -1.
         11   -1    0    0    0    0 -0.00000000000E+00 -0.00000000000E+00 -0.18250000000E+03  0.18250000000E+03  0.00000000000E+00 0.  1.
         25    2    1    2    0    0  0.11731265675E+03 -0.16477072524E+02  0.86653839477E+02  0.19281301902E+03  0.12503687079E+03 0.  0.
         23    2    1    2    0    0 -0.11731265675E+03  0.16477072524E+02 -0.86653839477E+02  0.17218698098E+03  0.90031745340E+02 0.  0.
        -11    1    4    4    0    0 -0.65605350089E+02 -0.36171802899E+02 -0.46529502598E+02  0.88189885459E+02  0.00000000000E+00 0.  1.
         11    1    4    4    0    0 -0.51707306662E+02  0.52648875422E+02 -0.40124336879E+02  0.83997095518E+02  0.00000000000E+00 0. -1.
        -15    1    3    3    0    0  0.76362739626E+01  0.44585633466E+02  0.34280785771E+02  0.56784869408E+02  0.17770000000E+01 0. -1.
         15    1    3    3    0    0  0.10967638279E+03 -0.61062705990E+02  0.52373053706E+02  0.13602814962E+03  0.17770000000E+01 0. -1.
</event>
<event>
 7    1  0.1549296E-006  0.1927013E+03  0.7546771E-02  0.1060613E+00
        -11   -1    0    0    0    0  0.00000000000E+00  0.00000000000E+00  0.18250000000E+03  0.18250000000E+03  0.00000000000E+00 0.  1.
         11   -1    0    0    0    0 -0.00000000000E+00 -0.00000000000E+00 -0.18250000000E+03  0.18250000000E+03  0.00000000000E+00 0. -1.
         23    2    1    2    0    0  0.88854259191E+02 -0.78727219883E+02  0.86289558791E+02  0.17229872225E+03  0.90265758763E+02 0.  0.
        -11    1    3    3    0    0  0.43622999193E+02 -0.76275414634E+02  0.91312251148E+02  0.12672344750E+03  0.00000000000E+00 0.  1.
         11    1    3    3    0    0  0.45231259998E+02 -0.24518052494E+01 -0.50226923573E+01  0.45575274750E+02  0.00000000000E+00 0. -1.
        -15    1    1    2    0    0 -0.33112968026E+02  0.76487422144E+02  0.73494175352E+01  0.83689701068E+02  0.17770000000E+01 0.  1.
         15    1    1    2    0    0 -0.55741291165E+02  0.22397977390E+01 -0.93638976326E+02  0.10901157668E+03  0.17770000000E+01 0.  1.
</event>
<event>
 8    1  0.1549296E-006  0.1924772E+03  0.7546771E-02  0.1060779E+00
        -11   -1    0    0    0    0  0.00000000000E+00  0.00000000000E+00  0.18250000000E+03  0.18250000000E+03  0.00000000000E+00 0.  1.
         11   -1    0    0    0    0 -0.00000000000E+00 -0.00000000000E+00 -0.18250000000E+03  0.18250000000E+03  0.00000000000E+00 0. -1.
         25    2    1    2    0    0 -0.60189408058E+02  0.10764628765E+03 -0.78764658869E+02  0.19247716775E+03  0.12503239793E+03 0.  0.
         23    2    1    2    0    0  0.60189408058E+02 -0.10764628765E+03  0.78764658869E+02  0.17252283225E+03  0.91377065348E+02 0.  0.
        -11    1    4    4    0    0  0.93432919760E+01 -0.95541079671E+01  0.58733532034E+02  0.60234590305E+02  0.00000000000E+00 0.  1.
         11    1    4    4    0    0  0.50846116082E+02 -0.98092179684E+02  0.20031126835E+02  0.11228824194E+03  0.00000000000E+00 0. -1.
        -15    1    3    3    0    0 -0.46762018974E+02  0.12635107951E+03 -0.94462970494E+02  0.16455300737E+03  0.17770000000E+01 0. -1.
         15    1    3    3    0    0 -0.13427389084E+02 -0.18704791860E+02  0.15698311625E+02  0.27924160381E+02  0.17770000000E+01 0. -1.
</event>
<event>
 8    1  0.1549296E-006  0.1918055E+03  0.7546771E-02  0.1061280E+00
        -11   -1    0    0    0    0  0.00000000000E+00  0.00000000000E+00  0.18250000000E+03  0.18250000000E+03  0.00000000000E+00 0.  1.
         11   -1    0    0    0    0 -0.00000000000E+00 -0.00000000000E+00 -0.18250000000E+03  0.18250000000E+03  0.00000000000E+00 0. -1.
         25    2    1    2    0    0  0.33745405622E+02 -0.68083700965E+02  0.12411750849E+03  0.19180546232E+03  0.12494013256E+03 0.  0.
         23    2    1    2    0    0 -0.33745405622E+02  0.68083700965E+02 -0.12411750849E+03  0.17319453768E+03  0.93899143938E+02 0.  0.
        -11    1    4    4    0    0 -0.49385176361E+02  0.84534747400E+02 -0.96814576738E+02  0.13768834893E+03  0.00000000000E+00 0.  1.
         11    1    4    4    0    0  0.15639770739E+02 -0.16451046435E+02 -0.27302931751E+02  0.35506188754E+02  0.00000000000E+00 0. -1.
        -15    1    3    3    0    0  0.56845571669E+02  0.46144870325E+01  0.15610327507E+02  0.59157016176E+02  0.17770000000E+01 0.  1.
         15    1    3    3    0    0 -0.23100166048E+02 -0.72698187997E+02  0.10850718098E+03  0.13264844614E+03  0.17770000000E+01 0.  1.
</event>
<event>
 8    1  0.1549296E-006  0.1924416E+03  0.7546771E-02  0.1060806E+00
        -11   -1    0    0    0    0  0.00000000000E+00  0.00000000000E+00  0.18250000000E+03  0.18250000000E+03  0.00000000000E+00 0. -1.
         11   -1    0    0    0    0 -0.00000000000E+00 -0.00000000000E+00 -0.18250000000E+03  0.18250000000E+03  0.00000000000E+00 0.  1.
         25    2    1    2    0    0  0.73284348541E+02  0.12558717934E+03 -0.16638285078E+02  0.19244157380E+03  0.12495675828E+03 0.  0.
         23    2    1    2    0    0 -0.73284348541E+02 -0.12558717934E+03  0.16638285078E+02  0.17255842620E+03  0.91415767614E+02 0.  0.
        -11    1    4    4    0    0  0.18360773320E+02 -0.11642781471E+02 -0.99914684293E+01  0.23927009814E+02  0.00000000000E+00 0.  1.
         11    1    4    4    0    0 -0.91645121861E+02 -0.11394439787E+03  0.26629753508E+02  0.14863141639E+03  0.00000000000E+00 0. -1.
        -15    1    3    3    0    0 -0.25605006049E+02  0.73620527986E+02 -0.20610398941E+02  0.80644558088E+02  0.17770000000E+01 0. -1.
         15    1    3    3    0    0  0.98889354590E+02  0.51966651351E+02  0.39721138631E+01  0.11179701571E+03  0.17770000000E+01 0. -1.
</event>
<event>
 8    1  0.1549296E-006  0.1933621E+03  0.7546771E-02  0.1060123E+00
        -11   -1    0    0    0    0  0.00000000000E+00  0.00000000000E+00  0.18250000000E+03  0.18250000000E+03  0.00000000000E+00 0. -1.
         11   -1    0    0    0    0 -0.00000000000E+00 -0.00000000000E+00 -0.18250000000E+03  0.18250000000E+03  0.00000000000E+00 0.  1.
         25    2    1    2    0    0 -0.13459408069E+03 -0.11560400570E+02  0.59141579108E+02  0.19336211896E+03  0.12506787457E+03 0.  0.
         23    2    1    2    0    0  0.13459408069E+03  0.11560400570E+02 -0.59141579108E+02  0.17163788104E+03  0.87821560054E+02 0.  0.
        -11    1    4    4    0    0  0.66331748881E+02  0.22573027160E+02 -0.72926551209E+02  0.10113221216E+03  0.00000000000E+00 0.  1.
         11    1    4    4    0    0  0.68262331813E+02 -0.11012626590E+02  0.13784972102E+02  0.70505668884E+02  0.00000000000E+00 0. -1.
        -15    1    3    3    0    0 -0.44182928520E+02  0.27964410509E+02 -0.30055015842E+02  0.60337394159E+02  0.17770000000E+01 0. -1.
         15    1    3    3    0    0 -0.90411152174E+02 -0.39524811078E+02  0.89196594949E+02  0.13302472480E+03  0.17770000000E+01 0. -1.
</event>
<event>
 8    1  0.1549296E-006  0.1917395E+03  0.7546771E-02  0.1061329E+00
        -11   -1    0    0    0    0  0.00000000000E+00  0.00000000000E+00  0.18250000000E+03  0.18250000000E+03  0.00000000000E+00 0.  1.
         11   -1    0    0    0    0 -0.00000000000E+00 -0.00000000000E+00 -0.18250000000E+03  0.18250000000E+03  0.00000000000E+00 0. -1.
         25    2    1    2    0    0 -0.34227278343E+02  0.12960304159E+03  0.56204457960E+02  0.19173949235E+03  0.12504653877E+03 0.  0.
         23    2    1    2    0    0  0.34227278343E+02 -0.12960304159E+03 -0.56204457960E+02  0.17326050765E+03  0.94296380869E+02 0.  0.
        -11    1    4    4    0    0  0.57813495588E+02 -0.39890479455E+02 -0.33190837450E+02  0.77687079452E+02  0.00000000000E+00 0. -1.
         11    1    4    4    0    0 -0.23586217245E+02 -0.89712562138E+02 -0.23013620510E+02  0.95573428202E+02  0.00000000000E+00 0.  1.
        -15    1    3    3    0    0 -0.19797010641E+02  0.10955245350E+03 -0.18651672769E+02  0.11289244582E+03  0.17770000000E+01 0. -1.
         15    1    3    3    0    0 -0.14430267702E+02  0.20050588098E+02  0.74856130729E+02  0.78847046525E+02  0.17770000000E+01 0. -1.
</event>
<event>
 7    1  0.1549296E-006  0.1918785E+03  0.7546771E-02  0.1061225E+00
        -11   -1    0    0    0    0  0.00000000000E+00  0.00000000000E+00  0.18250000000E+03  0.18250000000E+03  0.00000000000E+00 0. -1.
         11   -1    0    0    0    0 -0.00000000000E+00 -0.00000000000E+00 -0.18250000000E+03  0.18250000000E+03  0.00000000000E+00 0.  1.
         23    2    1    2    0    0 -0.12601134355E+03 -0.57054084745E+02  0.45670298956E+02  0.17312149526E+03  0.93548108607E+02 0.  0.
        -11    1    3    3    0    0 -0.11022261232E+03 -0.25936301711E+01  0.28532266104E+02  0.11388521148E+03  0.00000000000E+00 0.  1.
         11    1    3    3    0    0 -0.15788731234E+02 -0.54460454574E+02  0.17138032853E+02  0.59236283783E+02  0.00000000000E+00 0. -1.
        -15    1    1    2    0    0  0.18319092057E+02  0.70830317529E+02 -0.39396706739E+02  0.83113063028E+02  0.17770000000E+01 0. -1.
         15    1    1    2    0    0  0.10769225150E+03 -0.13776232784E+02 -0.62735922173E+01  0.10876544171E+03  0.17770000000E+01 0. -1.
</event>
<event>
 8    1  0.1549296E-006  0.1927708E+03  0.7546771E-02  0.1060561E+00
        -11   -1    0    0    0    0  0.00000000000E+00  0.00000000000E+00  0.18250000000E+03  0.18250000000E+03  0.00000000000E+00 0. -1.
         11   -1    0    0    0    0 -0.00000000000E+00 -0.00000000000E+00 -0.18250000000E+03  0.18250000000E+03  0.00000000000E+00 0.  1.
         25    2    1    2    0    0  0.83705944791E+01  0.13456669522E+03 -0.57871890836E+02  0.19277079942E+03  0.12503264791E+03 0.  0.
         23    2    1    2    0    0 -0.83705944791E+01 -0.13456669522E+03  0.57871890836E+02  0.17222920058E+03  0.90196892795E+02 0.  0.
        -11    1    4    4    0    0 -0.12970726142E+02 -0.13206062156E+03  0.76301771834E+02  0.15306929113E+03  0.00000000000E+00 0. -1.
         11    1    4    4    0    0  0.46001316629E+01 -0.25060736616E+01 -0.18429880998E+02  0.19159909449E+02  0.00000000000E+00 0.  1.
        -15    1    3    3    0    0 -0.29449336209E+01  0.37251620073E+02  0.39658470959E+02  0.54518876363E+02  0.17770000000E+01 0.  1.
         15    1    3    3    0    0  0.11315528100E+02  0.97315075148E+02 -0.97530361795E+02  0.13825192305E+03  0.17770000000E+01 0.  1.
</event>
<event>
 8    1  0.1549296E-006  0.1924792E+03  0.7546771E-02  0.1060778E+00
        -11   -1    0    0    0    0  0.00000000000E+00  0.00000000000E+00  0.18250000000E+03  0.18250000000E+03  0.00000000000E+00 0.  1.
         11   -1    0    0    0    0 -0.00000000000E+00 -0.00000000000E+00 -0.18250000000E+03  0.18250000000E+03  0.00000000000E+00 0. -1.
         25    2    1    2    0    0  0.11116930948E+03 -0.80487805315E+02  0.50718643625E+02  0.19247915598E+03  0.12505575757E+03 0.  0.
         23    2    1    2    0    0 -0.11116930948E+03  0.80487805315E+02 -0.50718643625E+02  0.17252084402E+03  0.91401086611E+02 0.  0.
        -11    1    4    4    0    0 -0.24239259876E+02 -0.11584241097E+02  0.14022339560E+02  0.30304494186E+02  0.00000000000E+00 0.  1.
         11    1    4    4    0    0 -0.86930049608E+02  0.92072046412E+02 -0.64740983185E+02  0.14221634983E+03  0.00000000000E+00 0. -1.
        -15    1    3    3    0    0  0.33323173639E+02 -0.97884465412E+02  0.44074997647E+02  0.11241692763E+03  0.17770000000E+01 0.  1.
         15    1    3    3    0    0  0.77846135845E+02  0.17396660097E+02  0.66436459775E+01  0.80062228356E+02  0.17770000000E+01 0.  1.
</event>
<event>
 7    1  0.1549296E-006  0.1926999E+03  0.7546771E-02  0.1060614E+00
        -11   -1    0    0    0    0  0.00000000000E+00  0.00000000000E+00  0.18250000000E+03  0.18250000000E+03  0.00000000000E+00 0.  1.
         11   -1    0    0    0    0 -0.00000000000E+00 -0.00000000000E+00 -0.18250000000E+03  0.18250000000E+03  0.00000000000E+00 0. -1.
         23    2    1    2    0    0  0.60507666603E+02 -0.93059883710E+02  0.94725276194E+02  0.17230007361E+03  0.91613960410E+02 0.  0.
        -11    1    3    3    0    0  0.20298854360E+02 -0.98986764532E+02  0.80658960837E+02  0.12929149626E+03  0.00000000000E+00 0.  1.
         11    1    3    3    0    0  0.40208812243E+02  0.59268808220E+01  0.14066315357E+02  0.43008577353E+02  0.00000000000E+00 0. -1.
        -15    1    1    2    0    0  0.69048443060E+01 -0.26989099564E+02 -0.28553900092E+02  0.39932083713E+02  0.17770000000E+01 0.  1.
         15    1    1    2    0    0 -0.67412510909E+02  0.12004898327E+03 -0.66171376102E+02  0.15276784268E+03  0.17770000000E+01 0. -1.
</event>
<event>
 7    1  0.1549296E-006  0.1925826E+03  0.7546771E-02  0.1060701E+00
        -11   -1    0    0    0    0  0.00000000000E+00  0.00000000000E+00  0.18250000000E+03  0.18250000000E+03  0.00000000000E+00 0.  1.
         11   -1    0    0    0    0 -0.00000000000E+00 -0.00000000000E+00 -0.18250000000E+03  0.18250000000E+03  0.00000000000E+00 0. -1.
         23    2    1    2    0    0 -0.14022262251E+03 -0.11373919127E+02  0.40415579572E+02  0.17241742875E+03  0.91118608219E+02 0.  0.
        -11    1    3    3    0    0 -0.52268829172E+02  0.39392386097E+02  0.23044676428E+02  0.69389103591E+02  0.00000000000E+00 0.  1.
         11    1    3    3    0    0 -0.87953793338E+02 -0.50766305224E+02  0.17370903143E+02  0.10302832516E+03  0.00000000000E+00 0. -1.
        -15    1    1    2    0    0  0.10874105442E+03  0.44932342975E+02  0.17096282010E+02  0.11890741335E+03  0.17770000000E+01 0. -1.
         15    1    1    2    0    0  0.31481568089E+02 -0.33558423848E+02 -0.57511861581E+02  0.73675157903E+02  0.17770000000E+01 0. -1.
</event>
<event>
 8    1  0.1549296E-006  0.1929387E+03  0.7546771E-02  0.1060436E+00
        -11   -1    0    0    0    0  0.00000000000E+00  0.00000000000E+00  0.18250000000E+03  0.18250000000E+03  0.00000000000E+00 0.  1.
         11   -1    0    0    0    0 -0.00000000000E+00 -0.00000000000E+00 -0.18250000000E+03  0.18250000000E+03  0.00000000000E+00 0. -1.
         25    2    1    2    0    0  0.13303044010E+03 -0.50110963127E+02  0.37435878527E+02  0.19293872095E+03  0.12496278815E+03 0.  0.
         23    2    1    2    0    0 -0.13303044010E+03  0.50110963127E+02 -0.37435878527E+02  0.17206127905E+03  0.89417180287E+02 0.  0.
        -11    1    4    4    0    0  0.89955146942E+01  0.39558885763E+01  0.11297517541E+02  0.14973384442E+02  0.00000000000E+00 0.  1.
         11    1    4    4    0    0 -0.14202595479E+03  0.46155074551E+02 -0.48733396068E+02  0.15708789461E+03  0.00000000000E+00 0. -1.
        -15    1    3    3    0    0  0.11303466439E+03 -0.29262111552E+02 -0.29130127532E+02  0.12035293343E+03  0.17770000000E+01 0.  1.
         15    1    3    3    0    0  0.19995775712E+02 -0.20848851576E+02  0.66566006059E+02  0.72585787520E+02  0.17770000000E+01 0.  1.
</event>
<event>
 8    1  0.1549296E-006  0.1923785E+03  0.7546771E-02  0.1060853E+00
        -11   -1    0    0    0    0  0.00000000000E+00  0.00000000000E+00  0.18250000000E+03  0.18250000000E+03  0.00000000000E+00 0.  1.
         11   -1    0    0    0    0 -0.00000000000E+00 -0.00000000000E+00 -0.18250000000E+03  0.18250000000E+03  0.00000000000E+00 0. -1.
         25    2    1    2    0    0 -0.63040786654E+02 -0.12672777852E+03 -0.36502359227E+02  0.19237847421E+03  0.12507191722E+03 0.  0.
         23    2    1    2    0    0  0.63040786654E+02  0.12672777852E+03  0.36502359227E+02  0.17262152579E+03  0.91824279507E+02 0.  0.
        -11    1    4    4    0    0  0.63234682942E+02  0.32182298376E+02 -0.86779811590E+00  0.70958287247E+02  0.00000000000E+00 0.  1.
         11    1    4    4    0    0 -0.19389628803E+00  0.94545480146E+02  0.37370157343E+02  0.10166323855E+03  0.00000000000E+00 0. -1.
        -15    1    3    3    0    0  0.17810206880E+02  0.15488933408E+02 -0.13267454192E+02  0.27134730457E+02  0.17770000000E+01 0. -1.
         15    1    3    3    0    0 -0.80850993533E+02 -0.14221671193E+03 -0.23234905034E+02  0.16524374375E+03  0.17770000000E+01 0. -1.
</event>
<event>
 8    1  0.1549296E-006  0.1927813E+03  0.7546771E-02  0.1060553E+00
        -11   -1    0    0    0    0  0.00000000000E+00  0.00000000000E+00  0.18250000000E+03  0.18250000000E+03  0.00000000000E+00 0.  1.
         11   -1    0    0    0    0 -0.00000000000E+00 -0.00000000000E+00 -0.18250000000E+03  0.18250000000E+03  0.00000000000E+00 0. -1.
         25    2    1    2    0    0 -0.39292535769E+02 -0.11888007681E+03 -0.76663907939E+02  0.19278127335E+03  0.12494354142E+03 0.  0.
         23    2    1    2    0    0  0.39292535769E+02  0.11888007681E+03  0.76663907939E+02  0.17221872665E+03  0.90030878040E+02 0.  0.
        -11    1    4    4    0    0 -0.19807115749E+02  0.30420885888E+02 -0.68847692579E+01  0.36947965848E+02  0.00000000000E+00 0. -1.
         11    1    4    4    0    0  0.59099651518E+02  0.88459190919E+02  0.83548677197E+02  0.13527076081E+03  0.00000000000E+00 0.  1.
        -15    1    3    3    0    0  0.32116921718E+02 -0.95745603627E+02 -0.52944226374E+02  0.11403931826E+03  0.17770000000E+01 0.  1.
         15    1    3    3    0    0 -0.71409457487E+02 -0.23134473180E+02 -0.23719681564E+02  0.78741955084E+02  0.17770000000E+01 0.  1.
</event>
<event>
 8    1  0.1549296E-006  0.1907773E+03  0.7546771E-02  0.1062051E+00
        -11   -1    0    0    0    0  0.00000000000E+00  0.00000000000E+00  0.18250000000E+03  0.18250000000E+03  0.00000000000E+00 0. -1.
         11   -1    0    0    0    0 -0.00000000000E+00 -0.00000000000E+00 -0.18250000000E+03  0.18250000000E+03  0.00000000000E+00 0.  1.
         25    2    1    2    0    0 -0.58425726789E+02  0.13179269768E+03  0.19186624487E+01  0.19077730481E+03  0.12493765666E+03 0.  0.
         23    2    1    2    0    0  0.58425726789E+02 -0.13179269768E+03 -0.19186624487E+01  0.17422269519E+03  0.97810968413E+02 0.  0.
        -11    1    4    4    0    0  0.30764822742E+01 -0.21509301592E+02 -0.39629512911E+02  0.45195277317E+02  0.00000000000E+00 0.  1.
         11    1    4    4    0    0  0.55349244515E+02 -0.11028339609E+03  0.37710850462E+02  0.12902741787E+03  0.00000000000E+00 0. -1.
        -15    1    3    3    0    0 -0.23583789366E+01  0.10440996121E+03  0.46231504354E+02  0.11422570497E+03  0.17770000000E+01 0.  1.
         15    1    3    3    0    0 -0.56067347852E+02  0.27382736469E+02 -0.44312841906E+02  0.76551599843E+02  0.17770000000E+01 0.  1.
</event>
<event>
 7    1  0.1549296E-006  0.1932896E+03  0.7546771E-02  0.1060177E+00
        -11   -1    0    0    0    0  0.00000000000E+00  0.00000000000E+00  0.18250000000E+03  0.18250000000E+03  0.00000000000E+00 0.  1.
         11   -1    0    0    0    0 -0.00000000000E+00 -0.00000000000E+00 -0.18250000000E+03  0.18250000000E+03  0.00000000000E+00 0. -1.
         23    2    1    2    0    0  0.12810549947E+03  0.70644849204E+02  0.19287676580E+02  0.17171039337E+03  0.87810768184E+02 0.  0.
        -11    1    3    3    0    0  0.10334797763E+03  0.13744706328E+02  0.30554416003E+02  0.10864296466E+03  0.00000000000E+00 0.  1.
         11    1    3    3    0    0  0.24757521842E+02  0.56900142876E+02 -0.11266739424E+02  0.63067428712E+02  0.00000000000E+00 0. -1.
        -15    1    1    2    0    0 -0.14432221147E+03 -0.30481234531E+02 -0.24811598492E+02  0.14958870122E+03  0.17770000000E+01 0.  1.
         15    1    1    2    0    0  0.16216712001E+02 -0.40163614673E+02  0.55239219127E+01  0.43700905414E+02  0.17770000000E+01 0.  1.
</event>
<event>
 7    1  0.1549296E-006  0.1926100E+03  0.7546771E-02  0.1060680E+00
        -11   -1    0    0    0    0  0.00000000000E+00  0.00000000000E+00  0.18250000000E+03  0.18250000000E+03  0.00000000000E+00 0.  1.
         11   -1    0    0    0    0 -0.00000000000E+00 -0.00000000000E+00 -0.18250000000E+03  0.18250000000E+03  0.00000000000E+00 0. -1.
         23    2    1    2    0    0 -0.75259157080E+02  0.12551099802E+03  0.93664156788E+01  0.17239000820E+03  0.90629100370E+02 0.  0.
        -11    1    3    3    0    0 -0.25567952267E+02  0.72062632797E+02 -0.38001177768E+02  0.85386373272E+02  0.00000000000E+00 0. -1.
         11    1    3    3    0    0 -0.49691204813E+02  0.53448365226E+02  0.47367593446E+02  0.87003634924E+02  0.00000000000E+00 0.  1.
        -15    1    1    2    0    0  0.86990976511E+02 -0.96171988194E+02  0.38448948311E+02  0.13526995477E+03  0.17770000000E+01 0.  1.
         15    1    1    2    0    0 -0.11731819431E+02 -0.29339009830E+02 -0.47815363990E+02  0.57340037037E+02  0.17770000000E+01 0. -1.
</event>
<event>
 8    1  0.1549296E-006  0.1924138E+03  0.7546771E-02  0.1060826E+00
        -11   -1    0    0    0    0  0.00000000000E+00  0.00000000000E+00  0.18250000000E+03  0.18250000000E+03  0.00000000000E+00 0. -1.
         11   -1    0    0    0    0 -0.00000000000E+00 -0.00000000000E+00 -0.18250000000E+03  0.18250000000E+03  0.00000000000E+00 0.  1.
         25    2    1    2    0    0  0.96368113206E+02 -0.35184111016E+02 -0.10435775749E+03  0.19241379898E+03  0.12493115537E+03 0.  0.
         23    2    1    2    0    0 -0.96368113206E+02  0.35184111016E+02  0.10435775749E+03  0.17258620102E+03  0.91491640725E+02 0.  0.
        -11    1    4    4    0    0 -0.71120626668E+02  0.45885437658E+02  0.24442055172E+02  0.88096713830E+02  0.00000000000E+00 0.  1.
         11    1    4    4    0    0 -0.25247486538E+02 -0.10701326641E+02  0.79915702315E+02  0.84489487185E+02  0.00000000000E+00 0. -1.
        -15    1    3    3    0    0 -0.16144993021E+02 -0.22386933315E+02 -0.68094388327E+02  0.73497204257E+02  0.17770000000E+01 0.  1.
         15    1    3    3    0    0  0.11251310623E+03 -0.12797177701E+02 -0.36263369159E+02  0.11891659473E+03  0.17770000000E+01 0.  1.
</event>
<event>
 7    1  0.1549296E-006  0.1925400E+03  0.7546771E-02  0.1060732E+00
        -11   -1    0    0    0    0  0.00000000000E+00  0.00000000000E+00  0.18250000000E+03  0.18250000000E+03  0.00000000000E+00 0. -1.
         11   -1    0    0    0    0 -0.00000000000E+00 -0.00000000000E+00 -0.18250000000E+03  0.18250000000E+03  0.00000000000E+00 0. -1.
         23    2    1    2    0    0 -0.32397442380E+02  0.61079739714E+02 -0.12882509247E+03  0.17246001267E+03  0.91467057708E+02 0.  0.
        -11    1    3    3    0    0  0.18049253523E+02 -0.46164441432E+01  0.78084431942E+00  0.18646630449E+02  0.00000000000E+00 0. -1.
         11    1    3    3    0    0 -0.50446695902E+02  0.65696183857E+02 -0.12960593679E+03  0.15381338222E+03  0.00000000000E+00 0. -1.
        -15    1    1    2    0    0  0.39449204402E+02  0.42823904352E+01  0.11973226814E+03  0.12614892928E+03  0.17770000000E+01 0.  1.
         15    1    1    2    0    0 -0.70517620226E+01 -0.65362130149E+02  0.90928243280E+01  0.66391058047E+02  0.17770000000E+01 0. -1.
</event>
<event>
 8    1  0.1549296E-006  0.1923430E+03  0.7546771E-02  0.1060879E+00
        -11   -1    0    0    0    0  0.00000000000E+00  0.00000000000E+00  0.18250000000E+03  0.18250000000E+03  0.00000000000E+00 0.  1.
         11   -1    0    0    0    0 -0.00000000000E+00 -0.00000000000E+00 -0.18250000000E+03  0.18250000000E+03  0.00000000000E+00 0. -1.
         25    2    1    2    0    0  0.13178940410E+03 -0.63027574510E+02  0.40135134029E+01  0.19234295595E+03  0.12505511677E+03 0.  0.
         23    2    1    2    0    0 -0.13178940410E+03  0.63027574510E+02 -0.40135134029E+01  0.17265704405E+03  0.91942505896E+02 0.  0.
        -11    1    4    4    0    0 -0.37892315539E+02  0.36044274795E+02 -0.42763637813E+02  0.67555503413E+02  0.00000000000E+00 0. -1.
         11    1    4    4    0    0 -0.93897088558E+02  0.26983299715E+02  0.38750124410E+02  0.10510154064E+03  0.00000000000E+00 0.  1.
        -15    1    3    3    0    0  0.12709097866E+03 -0.85810609896E+02  0.31219361670E+02  0.15650362264E+03  0.17770000000E+01 0.  1.
         15    1    3    3    0    0  0.46984254399E+01  0.22783035386E+02 -0.27205848268E+02  0.35839333308E+02  0.17770000000E+01 0.  1.
</event>
<event>
 8    1  0.1549296E-006  0.1905002E+03  0.7546771E-02  0.1062259E+00
        -11   -1    0    0    0    0  0.00000000000E+00  0.00000000000E+00  0.18250000000E+03  0.18250000000E+03  0.00000000000E+00 0. -1.
         11   -1    0    0    0    0 -0.00000000000E+00 -0.00000000000E+00 -0.18250000000E+03  0.18250000000E+03  0.00000000000E+00 0.  1.
         25    2    1    2    0    0  0.42775366380E+02  0.12906665646E+03  0.46463203114E+02  0.19050016770E+03  0.12507418147E+03 0.  0.
         23    2    1    2    0    0 -0.42775366380E+02 -0.12906665646E+03 -0.46463203114E+02  0.17449983230E+03  0.99012264138E+02 0.  0.
        -11    1    4    4    0    0  0.19982154268E+02 -0.91778044757E+01  0.14229143821E+02  0.26191355789E+02  0.00000000000E+00 0. -1.
         11    1    4    4    0    0 -0.62757520648E+02 -0.11988885199E+03 -0.60692346934E+02  0.14830847651E+03  0.00000000000E+00 0.  1.
        -15    1    3    3    0    0  0.87189054393E+02  0.77510010621E+02  0.29580088983E+02  0.12036557791E+03  0.17770000000E+01 0. -1.
         15    1    3    3    0    0 -0.44413688013E+02  0.51556645841E+02  0.16883114131E+02  0.70134589791E+02  0.17770000000E+01 0.  1.
</event>
<event>
 8    1  0.1549296E-006  0.1945790E+03  0.7546771E-02  0.1059227E+00
        -11   -1    0    0    0    0  0.00000000000E+00  0.00000000000E+00  0.18250000000E+03  0.18250000000E+03  0.00000000000E+00 0. -1.
         11   -1    0    0    0    0 -0.00000000000E+00 -0.00000000000E+00 -0.18250000000E+03  0.18250000000E+03  0.00000000000E+00 0.  1.
         25    2    1    2    0    0 -0.10389050391E+03  0.87333152779E+02  0.61701764188E+02  0.19457904633E+03  0.12503432005E+03 0.  0.
         23    2    1    2    0    0  0.10389050391E+03 -0.87333152779E+02 -0.61701764188E+02  0.17042095367E+03  0.82558327071E+02 0.  0.
        -11    1    4    4    0    0  0.32242563883E+02 -0.67408671319E+02 -0.14950968398E+01  0.74737856601E+02  0.00000000000E+00 0. -1.
         11    1    4    4    0    0  0.71647940026E+02 -0.19924481460E+02 -0.60206667348E+02  0.95683097069E+02  0.00000000000E+00 0.  1.
        -15    1    3    3    0    0  0.22374652748E+02  0.24079592870E+02  0.39812274510E+02  0.51658753460E+02  0.17770000000E+01 0. -1.
         15    1    3    3    0    0 -0.12626515666E+03  0.63253559909E+02  0.21889489678E+02  0.14292029287E+03  0.17770000000E+01 0. -1.
</event>
<event>
 8    1  0.1549296E-006  0.1934806E+03  0.7546771E-02  0.1060035E+00
        -11   -1    0    0    0    0  0.00000000000E+00  0.00000000000E+00  0.18250000000E+03  0.18250000000E+03  0.00000000000E+00 0. -1.
         11   -1    0    0    0    0 -0.00000000000E+00 -0.00000000000E+00 -0.18250000000E+03  0.18250000000E+03  0.00000000000E+00 0.  1.
         25    2    1    2    0    0  0.12896870492E+03  0.71110415135E+02 -0.11325146743E+02  0.19348061464E+03  0.12496748098E+03 0.  0.
         23    2    1    2    0    0 -0.12896870492E+03 -0.71110415135E+02  0.11325146743E+02  0.17151938536E+03  0.87183843776E+02 0.  0.
        -11    1    4    4    0    0 -0.12508492879E+03 -0.42839528588E+02 -0.14528161864E+02  0.13301327793E+03  0.00000000000E+00 0.  1.
         11    1    4    4    0    0 -0.38837761339E+01 -0.28270886547E+02  0.25853308606E+02  0.38506107426E+02  0.00000000000E+00 0. -1.
        -15    1    3    3    0    0  0.10736953505E+02  0.53568944985E+02 -0.43304562616E+02  0.69737772475E+02  0.17770000000E+01 0.  1.
         15    1    3    3    0    0  0.11823175142E+03  0.17541470150E+02  0.31979415873E+02  0.12374284216E+03  0.17770000000E+01 0.  1.
</event>
<event>
 8    1  0.1549296E-006  0.1922290E+03  0.7546771E-02  0.1060964E+00
        -11   -1    0    0    0    0  0.00000000000E+00  0.00000000000E+00  0.18250000000E+03  0.18250000000E+03  0.00000000000E+00 0.  1.
         11   -1    0    0    0    0 -0.00000000000E+00 -0.00000000000E+00 -0.18250000000E+03  0.18250000000E+03  0.00000000000E+00 0. -1.
         25    2    1    2    0    0  0.74782096448E+02 -0.54048455761E+02  0.11323988581E+03  0.19222901106E+03  0.12496048750E+03 0.  0.
         23    2    1    2    0    0 -0.74782096448E+02  0.54048455761E+02 -0.11323988581E+03  0.17277098894E+03  0.92265623934E+02 0.  0.
        -11    1    4    4    0    0 -0.63163125860E+02 -0.97486859806E+01 -0.42206701666E+02  0.76589966786E+02  0.00000000000E+00 0. -1.
         11    1    4    4    0    0 -0.11618970588E+02  0.63797141741E+02 -0.71033184145E+02  0.96181022149E+02  0.00000000000E+00 0.  1.
        -15    1    3    3    0    0  0.53724465863E+02  0.31815326854E+02  0.69933698978E+02  0.93767868893E+02  0.17770000000E+01 0.  1.
         15    1    3    3    0    0  0.21057630585E+02 -0.85863782614E+02  0.43306186833E+02  0.98461142172E+02  0.17770000000E+01 0.  1.
</event>
<event>
 8    1  0.1549296E-006  0.1926796E+03  0.7546771E-02  0.1060629E+00
        -11   -1    0    0    0    0  0.00000000000E+00  0.00000000000E+00  0.18250000000E+03  0.18250000000E+03  0.00000000000E+00 0. -1.
         11   -1    0    0    0    0 -0.00000000000E+00 -0.00000000000E+00 -0.18250000000E+03  0.18250000000E+03  0.00000000000E+00 0.  1.
         25    2    1    2    0    0 -0.64255434470E+02 -0.13130468291E+03 -0.11054991737E+02  0.19267955926E+03  0.12503407175E+03 0.  0.
         23    2    1    2    0    0  0.64255434470E+02  0.13130468291E+03  0.11054991737E+02  0.17232044074E+03  0.90567327678E+02 0.  0.
        -11    1    4    4    0    0  0.64625537689E+02  0.90570908197E+02  0.44282682062E+02  0.11975184952E+03  0.00000000000E+00 0. -1.
         11    1    4    4    0    0 -0.37010321869E+00  0.40733774714E+02 -0.33227690325E+02  0.52568591223E+02  0.00000000000E+00 0.  1.
        -15    1    3    3    0    0 -0.74735794677E+02 -0.14974449365E+03  0.26063233655E+01  0.16738818069E+03  0.17770000000E+01 0.  1.
         15    1    3    3    0    0  0.10480360207E+02  0.18439810742E+02 -0.13661315102E+02  0.25291378563E+02  0.17770000000E+01 0.  1.
</event>
<event>
 8    1  0.1549296E-006  0.1925319E+03  0.7546771E-02  0.1060739E+00
        -11   -1    0    0    0    0  0.00000000000E+00  0.00000000000E+00  0.18250000000E+03  0.18250000000E+03  0.00000000000E+00 0.  1.
         11   -1    0    0    0    0 -0.00000000000E+00 -0.00000000000E+00 -0.18250000000E+03  0.18250000000E+03  0.00000000000E+00 0. -1.
         25    2    1    2    0    0  0.14380490998E+03 -0.21909187061E+02  0.17171472717E+02  0.19253185763E+03  0.12495516042E+03 0.  0.
         23    2    1    2    0    0 -0.14380490998E+03  0.21909187061E+02 -0.17171472717E+02  0.17246814237E+03  0.91052380766E+02 0.  0.
        -11    1    4    4    0    0 -0.13347104952E+03 -0.38924367687E+01 -0.36723719317E+02  0.13848575264E+03  0.00000000000E+00 0.  1.
         11    1    4    4    0    0 -0.10333860462E+02  0.25801623830E+02  0.19552246600E+02  0.33982389725E+02  0.00000000000E+00 0. -1.
        -15    1    3    3    0    0  0.78602416796E+02  0.37441098822E+02 -0.30519024383E+02  0.92275372584E+02  0.17770000000E+01 0. -1.
         15    1    3    3    0    0  0.65202493185E+02 -0.59350285884E+02  0.47690497100E+02  0.10025648505E+03  0.17770000000E+01 0. -1.
</event>
<event>
 8    1  0.1549296E-006  0.1923610E+03  0.7546771E-02  0.1060866E+00
        -11   -1    0    0    0    0  0.00000000000E+00  0.00000000000E+00  0.18250000000E+03  0.18250000000E+03  0.00000000000E+00 0.  1.
         11   -1    0    0    0    0 -0.00000000000E+00 -0.00000000000E+00 -0.18250000000E+03  0.18250000000E+03  0.00000000000E+00 0. -1.
         25    2    1    2    0    0 -0.10223526402E+02  0.13914853805E+03  0.43907275483E+02  0.19236098278E+03  0.12493223252E+03 0.  0.
         23    2    1    2    0    0  0.10223526402E+02 -0.13914853805E+03 -0.43907275483E+02  0.17263901722E+03  0.91703572953E+02 0.  0.
        -11    1    4    4    0    0 -0.13324716877E+02 -0.11691706733E+03  0.50316117658E+00  0.11767498410E+03  0.00000000000E+00 0.  1.
         11    1    4    4    0    0  0.23548243279E+02 -0.22231470721E+02 -0.44410436660E+02  0.54964033115E+02  0.00000000000E+00 0. -1.
        -15    1    3    3    0    0 -0.58334051092E+01 -0.23127494353E+02  0.12566973049E+02  0.27018440940E+02  0.17770000000E+01 0.  1.
         15    1    3    3    0    0 -0.43901212928E+01  0.16227603240E+03  0.31340302434E+02  0.16534254184E+03  0.17770000000E+01 0.  1.
</event>
<event>
 8    1  0.1549296E-006  0.1925490E+03  0.7546771E-02  0.1060726E+00
        -11   -1    0    0    0    0  0.00000000000E+00  0.00000000000E+00  0.18250000000E+03  0.18250000000E+03  0.00000000000E+00 0.  1.
         11   -1    0    0    0    0 -0.00000000000E+00 -0.00000000000E+00 -0.18250000000E+03  0.18250000000E+03  0.00000000000E+00 0. -1.
         25    2    1    2    0    0  0.36397650228E+01 -0.92599514219E+02  0.11335286002E+03  0.19254900014E+03  0.12505330326E+03 0.  0.
         23    2    1    2    0    0 -0.36397650228E+01  0.92599514219E+02 -0.11335286002E+03  0.17245099986E+03  0.91118376594E+02 0.  0.
        -11    1    4    4    0    0  0.69748418353E+01  0.10961920572E+03 -0.97768296311E+02  0.14704985020E+03  0.00000000000E+00 0. -1.
         11    1    4    4    0    0 -0.10614606858E+02 -0.17019691502E+02 -0.15584563714E+02  0.25401149653E+02  0.00000000000E+00 0.  1.
        -15    1    3    3    0    0  0.23501513850E+02 -0.20282821614E+02 -0.21798726806E+02  0.37974415403E+02  0.17770000000E+01 0. -1.
         15    1    3    3    0    0 -0.19861748827E+02 -0.72316692605E+02  0.13515158683E+03  0.15457458474E+03  0.17770000000E+01 0. -1.
</event>
<event>
 7    1  0.1549296E-006  0.1915318E+03  0.7546771E-02  0.1061485E+00
        -11   -1    0    0    0    0  0.00000000000E+00  0.00000000000E+00  0.18250000000E+03  0.18250000000E+03  0.00000000000E+00 0.  1.
         11   -1    0    0    0    0 -0.00000000000E+00 -0.00000000000E+00 -0.18250000000E+03  0.18250000000E+03  0.00000000000E+00 0. -1.
         23    2    1    2    0    0  0.11268265630E+03  0.49489042260E+02  0.77201216775E+02  0.17346824655E+03  0.94787437748E+02 0.  0.
        -11    1    3    3    0    0  0.10392969261E+03 -0.67263885496E+00  0.58206986381E+02  0.11912131091E+03  0.00000000000E+00 0. -1.
         11    1    3    3    0    0  0.87529636953E+01  0.50161681115E+02  0.18994230394E+02  0.54346935645E+02  0.00000000000E+00 0.  1.
        -15    1    1    2    0    0 -0.93051043789E+02  0.14753781155E+02 -0.80952533975E+02  0.12422818237E+03  0.17770000000E+01 0.  1.
         15    1    1    2    0    0 -0.19631612514E+02 -0.64242823415E+02  0.37513171997E+01  0.67303571079E+02  0.17770000000E+01 0.  1.
</event>
<event>
 8    1  0.1549296E-006  0.1934881E+03  0.7546771E-02  0.1060030E+00
        -11   -1    0    0    0    0  0.00000000000E+00  0.00000000000E+00  0.18250000000E+03  0.18250000000E+03  0.00000000000E+00 0.  1.
         11   -1    0    0    0    0 -0.00000000000E+00 -0.00000000000E+00 -0.18250000000E+03  0.18250000000E+03  0.00000000000E+00 0. -1.
         25    2    1    2    0    0  0.59416684883E+02 -0.16924198090E+02  0.13407843731E+03  0.19348814748E+03  0.12507543699E+03 0.  0.
         23    2    1    2    0    0 -0.59416684883E+02  0.16924198090E+02 -0.13407843731E+03  0.17151185252E+03  0.87307028817E+02 0.  0.
        -11    1    4    4    0    0 -0.62544003373E+02 -0.20081319946E+02 -0.61504613186E+02  0.89987939257E+02  0.00000000000E+00 0.  1.
         11    1    4    4    0    0  0.31273184900E+01  0.37005518036E+02 -0.72573824126E+02  0.81523913267E+02  0.00000000000E+00 0. -1.
        -15    1    3    3    0    0 -0.39490048046E+02 -0.38434300252E+01  0.37815365888E+02  0.54839725339E+02  0.17770000000E+01 0. -1.
         15    1    3    3    0    0  0.98906732929E+02 -0.13080768065E+02  0.96263071424E+02  0.13864842214E+03  0.17770000000E+01 0. -1.
</event>
<event>
 8    1  0.1549296E-006  0.1921306E+03  0.7546771E-02  0.1061037E+00
        -11   -1    0    0    0    0  0.00000000000E+00  0.00000000000E+00  0.18250000000E+03  0.18250000000E+03  0.00000000000E+00 0.  1.
         11   -1    0    0    0    0 -0.00000000000E+00 -0.00000000000E+00 -0.18250000000E+03  0.18250000000E+03  0.00000000000E+00 0. -1.
         25    2    1    2    0    0  0.13432027371E+03  0.52845840272E+02  0.21130593493E+02  0.19213059660E+03  0.12503217748E+03 0.  0.
         23    2    1    2    0    0 -0.13432027371E+03 -0.52845840272E+02 -0.21130593493E+02  0.17286940340E+03  0.92750794532E+02 0.  0.
        -11    1    4    4    0    0 -0.77477123104E+02  0.77994676179E+01  0.19612393021E+02  0.80300574466E+02  0.00000000000E+00 0. -1.
         11    1    4    4    0    0 -0.56843150607E+02 -0.60645307890E+02 -0.40742986514E+02  0.92568828933E+02  0.00000000000E+00 0.  1.
        -15    1    3    3    0    0  0.23973802958E+02  0.74343469144E+02  0.25852617359E+01  0.78176313163E+02  0.17770000000E+01 0. -1.
         15    1    3    3    0    0  0.11034647075E+03 -0.21497628872E+02  0.18545331757E+02  0.11395428344E+03  0.17770000000E+01 0. -1.
</event>
<event>
 7    1  0.1549296E-006  0.1924718E+03  0.7546771E-02  0.1060783E+00
        -11   -1    0    0    0    0  0.00000000000E+00  0.00000000000E+00  0.18250000000E+03  0.18250000000E+03  0.00000000000E+00 0.  1.
         11   -1    0    0    0    0 -0.00000000000E+00 -0.00000000000E+00 -0.18250000000E+03  0.18250000000E+03  0.00000000000E+00 0. -1.
         23    2    1    2    0    0  0.81668189635E+02  0.38481299309E+02  0.11534308973E+03  0.17252817400E+03  0.91167093194E+02 0.  0.
        -11    1    3    3    0    0 -0.92056092104E+01  0.35891137564E+02  0.27826777321E+02  0.46338391563E+02  0.00000000000E+00 0. -1.
         11    1    3    3    0    0  0.90873798845E+02  0.25901617449E+01  0.87516312412E+02  0.12618978244E+03  0.00000000000E+00 0.  1.
        -15    1    1    2    0    0  0.30551440968E+02  0.34559476450E+01 -0.85235708166E+01  0.31955329881E+02  0.17770000000E+01 0.  1.
         15    1    1    2    0    0 -0.11221963060E+03 -0.41937246954E+02 -0.10681951892E+03  0.16051649612E+03  0.17770000000E+01 0. -1.
</event>
