<event>
 7    1  0.4954109E-006  0.5134003E+03  0.7546771E-02  0.9370315E-01
        -11   -1    0    0    0    0  0.00000000000E+00  0.00000000000E+00  0.50000000000E+03  0.50000000000E+03  0.00000000000E+00 0.  1.
         11   -1    0    0    0    0 -0.00000000000E+00 -0.00000000000E+00 -0.50000000000E+03  0.50000000000E+03  0.00000000000E+00 0.  1.
         23    2    1    2    0    0 -0.14312935994E+02  0.45792393815E+02  0.31913639702E+03  0.33938152365E+03  0.10502368886E+03 0.  0.
        -11    1    1    2    0    0 -0.68221120977E+02  0.58982743574E+02  0.14882685986E+03  0.17401873348E+03  0.00000000000E+00 0.  1.
         11    1    1    2    0    0  0.82534056971E+02 -0.10477513739E+03 -0.46796325688E+03  0.48659974287E+03  0.00000000000E+00 0.  1.
        -15    1    3    3    0    0  0.27471150107E+02  0.44938019011E+02  0.26887241744E+03  0.27398836514E+03  0.17770000000E+01 0.  1.
         15    1    3    3    0    0 -0.41784086101E+02  0.85437480471E+00  0.50263979575E+02  0.65393158506E+02  0.17770000000E+01 0. -1.
</event>
<event>
 7    1  0.4954109E-006  0.3699016E+03  0.7546771E-02  0.9749766E-01
        -11   -1    0    0    0    0  0.00000000000E+00  0.00000000000E+00  0.50000000000E+03  0.50000000000E+03  0.00000000000E+00 0.  1.
         11   -1    0    0    0    0 -0.00000000000E+00 -0.00000000000E+00 -0.50000000000E+03  0.50000000000E+03  0.00000000000E+00 0. -1.
         23    2    1    2    0    0  0.96083758544E+02  0.17851131121E+03  0.27422105464E+02  0.23243292235E+03  0.11033908935E+03 0.  0.
        -11    1    1    2    0    0 -0.19339967334E+03 -0.20243929956E+03  0.30874313894E+03  0.41678223270E+03  0.00000000000E+00 0.  1.
         11    1    1    2    0    0  0.97315914791E+02  0.23927988352E+02 -0.33616524441E+03  0.35078484495E+03  0.00000000000E+00 0. -1.
        -15    1    3    3    0    0  0.84948739122E+02  0.15457895549E+03  0.63692780250E+02  0.18753898193E+03  0.17770000000E+01 0.  1.
         15    1    3    3    0    0  0.11135019423E+02  0.23932355715E+02 -0.36270674786E+02  0.44893940415E+02  0.17770000000E+01 0. -1.
</event>
<event>
 7    1  0.4954109E-006  0.5161484E+03  0.7546771E-02  0.9364384E-01
        -11   -1    0    0    0    0  0.00000000000E+00  0.00000000000E+00  0.50000000000E+03  0.50000000000E+03  0.00000000000E+00 0.  1.
         11   -1    0    0    0    0 -0.00000000000E+00 -0.00000000000E+00 -0.50000000000E+03  0.50000000000E+03  0.00000000000E+00 0.  1.
         23    2    1    2    0    0 -0.49580416935E+02 -0.47259920570E+02 -0.28065505442E+03  0.30295517149E+03  0.91229701994E+02 0.  0.
        -11    1    1    2    0    0  0.10709730837E+03 -0.29866659121E+02  0.47090395487E+03  0.48385161516E+03  0.00000000000E+00 0.  1.
         11    1    1    2    0    0 -0.57516891430E+02  0.77126579691E+02 -0.19024890045E+03  0.21319321334E+03  0.00000000000E+00 0.  1.
        -15    1    3    3    0    0 -0.66069091848E+01 -0.42374605963E+02 -0.23919640846E+03  0.24301715584E+03  0.17770000000E+01 0.  1.
         15    1    3    3    0    0 -0.42973507750E+02 -0.48853146073E+01 -0.41458645956E+02  0.59938015655E+02  0.17770000000E+01 0. -1.
</event>
<event>
 7    1  0.4954109E-006  0.3716743E+03  0.7546771E-02  0.9744008E-01
        -11   -1    0    0    0    0  0.00000000000E+00  0.00000000000E+00  0.50000000000E+03  0.50000000000E+03  0.00000000000E+00 0. -1.
         11   -1    0    0    0    0 -0.00000000000E+00 -0.00000000000E+00 -0.50000000000E+03  0.50000000000E+03  0.00000000000E+00 0.  1.
         23    2    1    2    0    0 -0.50944593068E+02 -0.57126036646E+02  0.19402924607E+03  0.22794217331E+03  0.91932314320E+02 0.  0.
        -11    1    1    2    0    0  0.31771907144E+03 -0.10555650986E+03  0.93315907309E+02  0.34755638922E+03  0.00000000000E+00 0. -1.
         11    1    1    2    0    0 -0.26677447837E+03  0.16268254650E+03 -0.28734515338E+03  0.42450143747E+03  0.00000000000E+00 0.  1.
        -15    1    3    3    0    0 -0.48211828009E+02 -0.40709203863E+02  0.20034375270E+03  0.21005331850E+03  0.17770000000E+01 0. -1.
         15    1    3    3    0    0 -0.27327650594E+01 -0.16416832783E+02 -0.63145066251E+01  0.17888854810E+02  0.17770000000E+01 0.  1.
</event>
<event>
 7    1  0.4954109E-006  0.4827474E+03  0.7546771E-02  0.9439263E-01
        -11   -1    0    0    0    0  0.00000000000E+00  0.00000000000E+00  0.50000000000E+03  0.50000000000E+03  0.00000000000E+00 0.  1.
         11   -1    0    0    0    0 -0.00000000000E+00 -0.00000000000E+00 -0.50000000000E+03  0.50000000000E+03  0.00000000000E+00 0. -1.
         23    2    1    2    0    0  0.13066084847E+03 -0.17409900151E+03  0.41758759313E+03  0.47891595505E+03  0.87168655022E+02 0.  0.
        -11    1    1    2    0    0 -0.27711876402E+02 -0.30733677825E+02  0.36105788409E+01  0.41539659675E+02  0.00000000000E+00 0.  1.
         11    1    1    2    0    0 -0.10294897207E+03  0.20483267933E+03 -0.42119817197E+03  0.47954438527E+03  0.00000000000E+00 0. -1.
        -15    1    3    3    0    0  0.22313076248E+01 -0.13470308569E+02  0.38526297767E+00  0.13774400286E+02  0.17770000000E+01 0. -1.
         15    1    3    3    0    0  0.12842954085E+03 -0.16062869294E+03  0.41720233015E+03  0.46514155477E+03  0.17770000000E+01 0.  1.
</event>
<event>
 7    1  0.4954109E-006  0.4397100E+03  0.7546771E-02  0.9545840E-01
        -11   -1    0    0    0    0  0.00000000000E+00  0.00000000000E+00  0.50000000000E+03  0.50000000000E+03  0.00000000000E+00 0. -1.
         11   -1    0    0    0    0 -0.00000000000E+00 -0.00000000000E+00 -0.50000000000E+03  0.50000000000E+03  0.00000000000E+00 0.  1.
         23    2    1    2    0    0 -0.70711861845E+02  0.18441009401E+02 -0.14045938515E+01  0.11754796226E+03  0.92061459436E+02 0.  0.
        -11    1    1    2    0    0  0.78833297833E+02  0.13240019989E+03  0.41470657450E+03  0.44240936328E+03  0.00000000000E+00 0. -1.
         11    1    1    2    0    0 -0.81214359875E+01 -0.15084120929E+03 -0.41330198065E+03  0.44004267447E+03  0.00000000000E+00 0.  1.
        -15    1    3    3    0    0 -0.19853372873E+02 -0.18345057469E+02 -0.36622692905E+02  0.45553012113E+02  0.17770000000E+01 0.  1.
         15    1    3    3    0    0 -0.50858488972E+02  0.36786066870E+02  0.35218099053E+02  0.71994950144E+02  0.17770000000E+01 0. -1.
</event>
<event>
 7    1  0.4954109E-006  0.5155875E+03  0.7546771E-02  0.9365591E-01
        -11   -1    0    0    0    0  0.00000000000E+00  0.00000000000E+00  0.50000000000E+03  0.50000000000E+03  0.00000000000E+00 0.  1.
         11   -1    0    0    0    0 -0.00000000000E+00 -0.00000000000E+00 -0.50000000000E+03  0.50000000000E+03  0.00000000000E+00 0. -1.
         23    2    1    2    0    0  0.63980651350E+02 -0.11839147742E+03  0.16299917720E+03  0.23009759659E+03  0.90918130836E+02 0.  0.
        -11    1    1    2    0    0  0.94766094466E+02 -0.24075193087E+03  0.12067478106E+03  0.28548994319E+03  0.00000000000E+00 0.  1.
         11    1    1    2    0    0 -0.15874674582E+03  0.35914340829E+03 -0.28367395826E+03  0.48441246022E+03  0.00000000000E+00 0. -1.
        -15    1    3    3    0    0  0.59509717961E+02 -0.10820435573E+03  0.17464060218E+03  0.21389737443E+03  0.17770000000E+01 0.  1.
         15    1    3    3    0    0  0.44709333884E+01 -0.10187121685E+02 -0.11641424972E+02  0.16200222158E+02  0.17770000000E+01 0. -1.
</event>
<event>
 7    1  0.4954109E-006  0.5117034E+03  0.7546771E-02  0.9373997E-01
        -11   -1    0    0    0    0  0.00000000000E+00  0.00000000000E+00  0.50000000000E+03  0.50000000000E+03  0.00000000000E+00 0.  1.
         11   -1    0    0    0    0 -0.00000000000E+00 -0.00000000000E+00 -0.50000000000E+03  0.50000000000E+03  0.00000000000E+00 0.  1.
         23    2    1    2    0    0 -0.44262260944E+02 -0.27344717934E+02  0.39551006650E+03  0.40920171700E+03  0.91164418220E+02 0.  0.
        -11    1    1    2    0    0 -0.53986290419E+02 -0.38269828662E+02  0.78278372693E+02  0.10250172179E+03  0.00000000000E+00 0.  1.
         11    1    1    2    0    0  0.98248551363E+02  0.65614546596E+02 -0.47378843920E+03  0.48829656121E+03  0.00000000000E+00 0.  1.
        -15    1    3    3    0    0 -0.18642646656E+02  0.33651958399E+02  0.15994708178E+03  0.16451817309E+03  0.17770000000E+01 0.  1.
         15    1    3    3    0    0 -0.25619614288E+02 -0.60996676333E+02  0.23556298472E+03  0.24468354391E+03  0.17770000000E+01 0. -1.
</event>
<event>
 7    1  0.4954109E-006  0.4810965E+03  0.7546771E-02  0.9443130E-01
        -11   -1    0    0    0    0  0.00000000000E+00  0.00000000000E+00  0.50000000000E+03  0.50000000000E+03  0.00000000000E+00 0. -1.
         11   -1    0    0    0    0 -0.00000000000E+00 -0.00000000000E+00 -0.50000000000E+03  0.50000000000E+03  0.00000000000E+00 0. -1.
         23    2    1    2    0    0  0.50580694389E+01 -0.13488029259E+03 -0.43119433627E+03  0.46104053885E+03  0.91714477779E+02 0.  0.
        -11    1    1    2    0    0 -0.23793048071E+02  0.15330337672E+03  0.46839295853E+03  0.49341665765E+03  0.00000000000E+00 0. -1.
         11    1    1    2    0    0  0.18734978632E+02 -0.18423084127E+02 -0.37198622254E+02  0.45542803500E+02  0.00000000000E+00 0. -1.
        -15    1    3    3    0    0  0.39935723856E+02 -0.58047391883E+02 -0.27050056148E+03  0.27953188232E+03  0.17770000000E+01 0.  1.
         15    1    3    3    0    0 -0.34877654417E+02 -0.76832900709E+02 -0.16069377479E+03  0.18150865653E+03  0.17770000000E+01 0. -1.
</event>
<event>
 7    1  0.4954109E-006  0.4644439E+03  0.7546771E-02  0.9483084E-01
        -11   -1    0    0    0    0  0.00000000000E+00  0.00000000000E+00  0.50000000000E+03  0.50000000000E+03  0.00000000000E+00 0.  1.
         11   -1    0    0    0    0 -0.00000000000E+00 -0.00000000000E+00 -0.50000000000E+03  0.50000000000E+03  0.00000000000E+00 0. -1.
         23    2    1    2    0    0  0.50871899047E+02  0.38129711961E+02  0.42816420305E+03  0.44463560780E+03  0.10165831938E+03 0.  0.
        -11    1    1    2    0    0  0.68449110273E+02 -0.21917460349E+02  0.32748152496E+02  0.78981626073E+02  0.00000000000E+00 0.  1.
         11    1    1    2    0    0 -0.11932100932E+03 -0.16212251612E+02 -0.46091235555E+03  0.47638276613E+03  0.00000000000E+00 0. -1.
        -15    1    3    3    0    0  0.81899676537E+02  0.22654964942E+02  0.31503337967E+03  0.32629739884E+03  0.17770000000E+01 0. -1.
         15    1    3    3    0    0 -0.31027777490E+02  0.15474747019E+02  0.11313082339E+03  0.11833820896E+03  0.17770000000E+01 0.  1.
</event>
<event>
 7    1  0.4954109E-006  0.5254077E+03  0.7546771E-02  0.9344686E-01
        -11   -1    0    0    0    0  0.00000000000E+00  0.00000000000E+00  0.50000000000E+03  0.50000000000E+03  0.00000000000E+00 0.  1.
         11   -1    0    0    0    0 -0.00000000000E+00 -0.00000000000E+00 -0.50000000000E+03  0.50000000000E+03  0.00000000000E+00 0. -1.
         23    2    1    2    0    0  0.80179779486E+02  0.82148086827E+02  0.23387085888E+03  0.27619987483E+03  0.91726152297E+02 0.  0.
        -11    1    1    2    0    0 -0.10383095111E+03  0.56749709535E+02  0.21932430866E+03  0.24920784159E+03  0.00000000000E+00 0.  1.
         11    1    1    2    0    0  0.23651171623E+02 -0.13889779636E+03 -0.45319516754E+03  0.47459228358E+03  0.00000000000E+00 0. -1.
        -15    1    3    3    0    0  0.13368909643E+02 -0.16822146320E+02  0.71237269825E+02  0.74428614745E+02  0.17770000000E+01 0.  1.
         15    1    3    3    0    0  0.66810869843E+02  0.98970233146E+02  0.16263358906E+03  0.20177126009E+03  0.17770000000E+01 0. -1.
</event>
<event>
 7    1  0.4954109E-006  0.3517706E+03  0.7546771E-02  0.9810727E-01
        -11   -1    0    0    0    0  0.00000000000E+00  0.00000000000E+00  0.50000000000E+03  0.50000000000E+03  0.00000000000E+00 0.  1.
         11   -1    0    0    0    0 -0.00000000000E+00 -0.00000000000E+00 -0.50000000000E+03  0.50000000000E+03  0.00000000000E+00 0. -1.
         23    2    1    2    0    0  0.27748749411E+03 -0.34488064549E+02 -0.12596618177E+03  0.31993771002E+03  0.91125865467E+02 0.  0.
        -11    1    1    2    0    0 -0.19742277308E+03  0.20018644139E+03  0.31089262832E+03  0.41917131222E+03  0.00000000000E+00 0.  1.
         11    1    1    2    0    0 -0.80064721035E+02 -0.16569837684E+03 -0.18492644655E+03  0.26089097776E+03  0.00000000000E+00 0. -1.
        -15    1    3    3    0    0  0.33281799389E+02  0.54119459578E+01  0.12946425680E+02  0.36162618773E+02  0.17770000000E+01 0.  1.
         15    1    3    3    0    0  0.24420569472E+03 -0.39900010507E+02 -0.13891260745E+03  0.28377509125E+03  0.17770000000E+01 0. -1.
</event>
<event>
 7    1  0.4954109E-006  0.3484207E+03  0.7546771E-02  0.9822421E-01
        -11   -1    0    0    0    0  0.00000000000E+00  0.00000000000E+00  0.50000000000E+03  0.50000000000E+03  0.00000000000E+00 0.  1.
         11   -1    0    0    0    0 -0.00000000000E+00 -0.00000000000E+00 -0.50000000000E+03  0.50000000000E+03  0.00000000000E+00 0. -1.
         23    2    1    2    0    0 -0.22820276715E+03  0.85945749570E+02 -0.17674693002E+02  0.26151273059E+03  0.92808074463E+02 0.  0.
        -11    1    1    2    0    0  0.29448614490E+03 -0.32878344463E+02  0.31310975207E+03  0.43109255609E+03  0.00000000000E+00 0.  1.
         11    1    1    2    0    0 -0.66283377746E+02 -0.53067405108E+02 -0.29543505907E+03  0.30739471332E+03  0.00000000000E+00 0. -1.
        -15    1    3    3    0    0 -0.31359061610E+02 -0.17734210517E+02  0.96924637569E+01  0.37349625840E+02  0.17770000000E+01 0.  1.
         15    1    3    3    0    0 -0.19684370554E+03  0.10367996009E+03 -0.27367156759E+02  0.22416310475E+03  0.17770000000E+01 0. -1.
</event>
<event>
 7    1  0.4954109E-006  0.4762688E+03  0.7546771E-02  0.9454534E-01
        -11   -1    0    0    0    0  0.00000000000E+00  0.00000000000E+00  0.50000000000E+03  0.50000000000E+03  0.00000000000E+00 0. -1.
         11   -1    0    0    0    0 -0.00000000000E+00 -0.00000000000E+00 -0.50000000000E+03  0.50000000000E+03  0.00000000000E+00 0.  1.
         23    2    1    2    0    0 -0.15775605865E+03  0.52813425009E+02  0.44483959742E+03  0.48324580571E+03  0.89263707117E+02 0.  0.
        -11    1    1    2    0    0  0.43198700012E+02  0.32575150929E+02 -0.50525799372E+01  0.54339642111E+02  0.00000000000E+00 0. -1.
         11    1    1    2    0    0  0.11455735864E+03 -0.85388575938E+02 -0.43978701748E+03  0.46241455217E+03  0.00000000000E+00 0.  1.
        -15    1    3    3    0    0 -0.99944308882E+02  0.64793807638E+01  0.34278689626E+03  0.35712303374E+03  0.17770000000E+01 0.  1.
         15    1    3    3    0    0 -0.57811749770E+02  0.46334044245E+02  0.10205270116E+03  0.12612277197E+03  0.17770000000E+01 0. -1.
</event>
<event>
 7    1  0.4954109E-006  0.4751588E+03  0.7546771E-02  0.9457176E-01
        -11   -1    0    0    0    0  0.00000000000E+00  0.00000000000E+00  0.50000000000E+03  0.50000000000E+03  0.00000000000E+00 0. -1.
         11   -1    0    0    0    0 -0.00000000000E+00 -0.00000000000E+00 -0.50000000000E+03  0.50000000000E+03  0.00000000000E+00 0.  1.
         23    2    1    2    0    0 -0.20667392660E+03  0.11537646844E+03  0.41537301830E+03  0.48668459280E+03  0.91111509361E+02 0.  0.
        -11    1    1    2    0    0  0.55054345486E+02 -0.13591206055E+02  0.30383606763E+01  0.56788497731E+02  0.00000000000E+00 0. -1.
         11    1    1    2    0    0  0.15161958111E+03 -0.10178526238E+03 -0.41841137897E+03  0.45652690947E+03  0.00000000000E+00 0.  1.
        -15    1    3    3    0    0 -0.10537042481E+02 -0.12837417537E+02  0.13476767102E+02  0.21461815715E+02  0.17770000000E+01 0.  1.
         15    1    3    3    0    0 -0.19613688411E+03  0.12821388597E+03  0.40189625119E+03  0.46522277709E+03  0.17770000000E+01 0. -1.
</event>
<event>
 7    1  0.4954109E-006  0.4076869E+03  0.7546771E-02  0.9633957E-01
        -11   -1    0    0    0    0  0.00000000000E+00  0.00000000000E+00  0.50000000000E+03  0.50000000000E+03  0.00000000000E+00 0.  1.
         11   -1    0    0    0    0 -0.00000000000E+00 -0.00000000000E+00 -0.50000000000E+03  0.50000000000E+03  0.00000000000E+00 0. -1.
         23    2    1    2    0    0  0.19848748158E+03 -0.37407297234E+02  0.32519689627E+03  0.39702116027E+03  0.10524349923E+03 0.  0.
        -11    1    1    2    0    0 -0.21024889741E+02  0.17400897489E+03  0.35099355258E+02  0.17875439594E+03  0.00000000000E+00 0.  1.
         11    1    1    2    0    0 -0.17746259184E+03 -0.13660167765E+03 -0.36029625153E+03  0.42422444378E+03  0.00000000000E+00 0. -1.
        -15    1    3    3    0    0  0.14946096431E+03 -0.11020274911E+02  0.30107596430E+03  0.33631818315E+03  0.17770000000E+01 0.  1.
         15    1    3    3    0    0  0.49026517276E+02 -0.26387022323E+02  0.24120931969E+02  0.60702977121E+02  0.17770000000E+01 0. -1.
</event>
<event>
 7    1  0.4954109E-006  0.4760502E+03  0.7546771E-02  0.9455054E-01
        -11   -1    0    0    0    0  0.00000000000E+00  0.00000000000E+00  0.50000000000E+03  0.50000000000E+03  0.00000000000E+00 0. -1.
         11   -1    0    0    0    0 -0.00000000000E+00 -0.00000000000E+00 -0.50000000000E+03  0.50000000000E+03  0.00000000000E+00 0. -1.
         23    2    1    2    0    0  0.22445025162E+03 -0.19817334813E+03 -0.36017897685E+03  0.47366347817E+03  0.70552135560E+02 0.  0.
        -11    1    1    2    0    0 -0.26573041832E+03  0.16727320570E+03  0.35587261486E+03  0.47459277131E+03  0.00000000000E+00 0. -1.
         11    1    1    2    0    0  0.41280166702E+02  0.30900142423E+02  0.43063619854E+01  0.51743750523E+02  0.00000000000E+00 0. -1.
        -15    1    3    3    0    0  0.20351131400E+03 -0.20129005845E+03 -0.33173667334E+03  0.43816312114E+03  0.17770000000E+01 0. -1.
         15    1    3    3    0    0  0.20938937622E+02  0.31167103227E+01 -0.28442303504E+02  0.35500357035E+02  0.17770000000E+01 0.  1.
</event>
<event>
 7    1  0.4954109E-006  0.4249399E+03  0.7546771E-02  0.9585452E-01
        -11   -1    0    0    0    0  0.00000000000E+00  0.00000000000E+00  0.50000000000E+03  0.50000000000E+03  0.00000000000E+00 0.  1.
         11   -1    0    0    0    0 -0.00000000000E+00 -0.00000000000E+00 -0.50000000000E+03  0.50000000000E+03  0.00000000000E+00 0. -1.
         23    2    1    2    0    0  0.94448559167E+02 -0.52491665909E+02  0.16745629073E+02  0.14311501749E+03  0.92334104310E+02 0.  0.
        -11    1    1    2    0    0 -0.17418895230E+03  0.12833585552E+03  0.38429703175E+03  0.44101711024E+03  0.00000000000E+00 0.  1.
         11    1    1    2    0    0  0.79740393133E+02 -0.75844189607E+02 -0.40104266082E+03  0.41586787228E+03  0.00000000000E+00 0. -1.
        -15    1    3    3    0    0 -0.16315560014E+02  0.51808074613E+01  0.29872349510E+01  0.17467672031E+02  0.17770000000E+01 0.  1.
         15    1    3    3    0    0  0.11076411918E+03 -0.57672473370E+02  0.13758394122E+02  0.12564734546E+03  0.17770000000E+01 0. -1.
</event>
<event>
 7    1  0.8567065E-006  0.5108526E+03  0.7546771E-02  0.9375848E-01
        -11   -1    0    0    0    0  0.00000000000E+00  0.00000000000E+00  0.50000000000E+03  0.50000000000E+03  0.00000000000E+00 0. -1.
         11   -1    0    0    0    0 -0.00000000000E+00 -0.00000000000E+00 -0.50000000000E+03  0.50000000000E+03  0.00000000000E+00 0.  1.
         23    2    1    2    0    0  0.11059411140E+02  0.55481413255E+01 -0.20656179781E+03  0.22550880147E+03  0.89628961728E+02 0.  0.
        -11    1    1    2    0    0 -0.82425469766E+02  0.18310840884E+02  0.48180484296E+03  0.48914737213E+03  0.00000000000E+00 0. -1.
         11    1    1    2    0    0  0.71366058626E+02 -0.23858982209E+02 -0.27524304516E+03  0.28534382640E+03  0.00000000000E+00 0.  1.
        -15    1    3    3    0    0 -0.29122221755E+01 -0.38875256034E+02 -0.13139334364E+03  0.13706617034E+03  0.17770000000E+01 0.  1.
         15    1    3    3    0    0  0.13971633315E+02  0.44423397359E+02 -0.75168454162E+02  0.88442631126E+02  0.17770000000E+01 0. -1.
</event>
<event>
 7    1  0.4954109E-006  0.4363101E+03  0.7546771E-02  0.9554810E-01
        -11   -1    0    0    0    0  0.00000000000E+00  0.00000000000E+00  0.50000000000E+03  0.50000000000E+03  0.00000000000E+00 0.  1.
         11   -1    0    0    0    0 -0.00000000000E+00 -0.00000000000E+00 -0.50000000000E+03  0.50000000000E+03  0.00000000000E+00 0. -1.
         23    2    1    2    0    0  0.20925777545E+01 -0.78917206856E+02 -0.24896952018E+02  0.12346234236E+03  0.91601240944E+02 0.  0.
        -11    1    1    2    0    0 -0.84062625851E+02  0.87144032638E+02  0.43844869823E+03  0.45486027356E+03  0.00000000000E+00 0.  1.
         11    1    1    2    0    0  0.81970048097E+02 -0.82268257820E+01 -0.41355174621E+03  0.42167738407E+03  0.00000000000E+00 0. -1.
        -15    1    3    3    0    0 -0.15781475518E+02 -0.78049393892E+02  0.13758755895E+02  0.80828361045E+02  0.17770000000E+01 0.  1.
         15    1    3    3    0    0  0.17874053273E+02 -0.86781296389E+00 -0.38655707914E+02  0.42633981318E+02  0.17770000000E+01 0. -1.
</event>
<event>
 7    1  0.4954109E-006  0.5197395E+03  0.7546771E-02  0.9356693E-01
        -11   -1    0    0    0    0  0.00000000000E+00  0.00000000000E+00  0.50000000000E+03  0.50000000000E+03  0.00000000000E+00 0.  1.
         11   -1    0    0    0    0 -0.00000000000E+00 -0.00000000000E+00 -0.50000000000E+03  0.50000000000E+03  0.00000000000E+00 0.  1.
         23    2    1    2    0    0  0.10544878718E+02 -0.12870470636E+03  0.25637225748E+03  0.30158775726E+03  0.92478889591E+02 0.  0.
        -11    1    1    2    0    0  0.39225698560E+02  0.34180785512E+02  0.21185658079E+03  0.21815176449E+03  0.00000000000E+00 0.  1.
         11    1    1    2    0    0 -0.49770577279E+02  0.94523920851E+02 -0.46822883827E+03  0.48026047824E+03  0.00000000000E+00 0.  1.
        -15    1    3    3    0    0 -0.37579945863E+02 -0.83291268566E+02  0.12974075849E+03  0.15869943255E+03  0.17770000000E+01 0.  1.
         15    1    3    3    0    0  0.48124824581E+02 -0.45413437797E+02  0.12663149899E+03  0.14288832471E+03  0.17770000000E+01 0. -1.
</event>
<event>
 7    1  0.4954109E-006  0.5169917E+03  0.7546771E-02  0.9362572E-01
        -11   -1    0    0    0    0  0.00000000000E+00  0.00000000000E+00  0.50000000000E+03  0.50000000000E+03  0.00000000000E+00 0. -1.
         11   -1    0    0    0    0 -0.00000000000E+00 -0.00000000000E+00 -0.50000000000E+03  0.50000000000E+03  0.00000000000E+00 0.  1.
         23    2    1    2    0    0 -0.31642485563E+01  0.63021265364E+02 -0.72741138874E+02  0.11637091583E+03  0.65339302175E+02 0.  0.
        -11    1    1    2    0    0 -0.59824809106E+02 -0.11796343656E+03  0.46454562102E+03  0.48300829616E+03  0.00000000000E+00 0. -1.
         11    1    1    2    0    0  0.62989057662E+02  0.54942171198E+02 -0.39180448214E+03  0.40062078801E+03  0.00000000000E+00 0.  1.
        -15    1    3    3    0    0 -0.26638553692E+02  0.55552521352E+02 -0.66954655776E+02  0.91004279188E+02  0.17770000000E+01 0.  1.
         15    1    3    3    0    0  0.23474305136E+02  0.74687440121E+01 -0.57864830975E+01  0.25366636639E+02  0.17770000000E+01 0. -1.
</event>
<event>
 6    1  0.4954109E-006  0.3903976E+03  0.7546771E-02  0.9685206E-01
        -11   -1    0    0    0    0  0.00000000000E+00  0.00000000000E+00  0.50000000000E+03  0.50000000000E+03  0.00000000000E+00 0.  1.
         11   -1    0    0    0    0 -0.00000000000E+00 -0.00000000000E+00 -0.50000000000E+03  0.50000000000E+03  0.00000000000E+00 0. -1.
        -11    1    1    2    0    0 -0.19933058679E+02 -0.64876873706E+02 -0.34000200190E+02  0.75910138869E+02  0.00000000000E+00 0.  1.
         11    1    1    2    0    0 -0.34237155369E+02  0.57848643714E+02 -0.39765256816E+03  0.40329420198E+03  0.00000000000E+00 0. -1.
        -15    1    1    2    0    0  0.43018573104E+02 -0.11348068785E+03  0.36052296592E+03  0.38040561356E+03  0.17770000000E+01 0.  1.
         15    1    1    2    0    0  0.11151640944E+02  0.12050891784E+03  0.71129802436E+02  0.14039004559E+03  0.17770000000E+01 0. -1.
</event>
<event>
 7    1  0.4954109E-006  0.5219591E+03  0.7546771E-02  0.9351972E-01
        -11   -1    0    0    0    0  0.00000000000E+00  0.00000000000E+00  0.50000000000E+03  0.50000000000E+03  0.00000000000E+00 0.  1.
         11   -1    0    0    0    0 -0.00000000000E+00 -0.00000000000E+00 -0.50000000000E+03  0.50000000000E+03  0.00000000000E+00 0. -1.
         23    2    1    2    0    0 -0.49658638540E+02 -0.11129786818E+03  0.36487994284E+03  0.39544094212E+03  0.91558561444E+02 0.  0.
        -11    1    1    2    0    0  0.59554235320E+02  0.33071977352E+02  0.10661327595E+03  0.12651819331E+03  0.00000000000E+00 0.  1.
         11    1    1    2    0    0 -0.98955967799E+01  0.78225890832E+02 -0.47149321879E+03  0.47804086457E+03  0.00000000000E+00 0. -1.
        -15    1    3    3    0    0  0.66029863540E+01  0.89766908843E+01  0.60005747388E+01  0.12780650774E+02  0.17770000000E+01 0. -1.
         15    1    3    3    0    0 -0.56261624894E+02 -0.12027455907E+03  0.35887936810E+03  0.38266029135E+03  0.17770000000E+01 0.  1.
</event>
<event>
 7    1  0.4954109E-006  0.3418870E+03  0.7546771E-02  0.9845641E-01
        -11   -1    0    0    0    0  0.00000000000E+00  0.00000000000E+00  0.50000000000E+03  0.50000000000E+03  0.00000000000E+00 0. -1.
         11   -1    0    0    0    0 -0.00000000000E+00 -0.00000000000E+00 -0.50000000000E+03  0.50000000000E+03  0.00000000000E+00 0.  1.
         23    2    1    2    0    0  0.11494425340E+03 -0.11575960440E+03  0.24309548914E+03  0.30784532531E+03  0.95188550123E+02 0.  0.
        -11    1    1    2    0    0 -0.24393872387E+03 -0.69292084859E+02  0.10735912865E+03  0.27537878737E+03  0.00000000000E+00 0. -1.
         11    1    1    2    0    0  0.12899447048E+03  0.18505168926E+03 -0.35045461780E+03  0.41677588732E+03  0.00000000000E+00 0.  1.
        -15    1    3    3    0    0  0.83360425573E+02 -0.11168878409E+03  0.23762451733E+03  0.27548487075E+03  0.17770000000E+01 0.  1.
         15    1    3    3    0    0  0.31583827826E+02 -0.40708203120E+01  0.54709718080E+01  0.32360454565E+02  0.17770000000E+01 0. -1.
</event>
<event>
 7    1  0.4954109E-006  0.5345803E+03  0.7546771E-02  0.9325593E-01
        -11   -1    0    0    0    0  0.00000000000E+00  0.00000000000E+00  0.50000000000E+03  0.50000000000E+03  0.00000000000E+00 0.  1.
         11   -1    0    0    0    0 -0.00000000000E+00 -0.00000000000E+00 -0.50000000000E+03  0.50000000000E+03  0.00000000000E+00 0. -1.
         23    2    1    2    0    0  0.18459437537E+03 -0.22937114441E+02  0.30748620711E+03  0.37074033465E+03  0.91101226875E+02 0.  0.
        -11    1    1    2    0    0 -0.43080870073E+02 -0.10687659302E+03  0.11646875808E+03  0.16383998019E+03  0.00000000000E+00 0.  1.
         11    1    1    2    0    0 -0.14151350529E+03  0.12981370746E+03 -0.42395496519E+03  0.46541968516E+03  0.00000000000E+00 0. -1.
        -15    1    3    3    0    0  0.18355508911E+03  0.14934645722E+00  0.27970155972E+03  0.33455733930E+03  0.17770000000E+01 0. -1.
         15    1    3    3    0    0  0.10392862547E+01 -0.23086460898E+02  0.27784647394E+02  0.36182995350E+02  0.17770000000E+01 0.  1.
</event>
<event>
 7    1  0.4954109E-006  0.4230412E+03  0.7546771E-02  0.9590669E-01
        -11   -1    0    0    0    0  0.00000000000E+00  0.00000000000E+00  0.50000000000E+03  0.50000000000E+03  0.00000000000E+00 0.  1.
         11   -1    0    0    0    0 -0.00000000000E+00 -0.00000000000E+00 -0.50000000000E+03  0.50000000000E+03  0.00000000000E+00 0. -1.
         23    2    1    2    0    0  0.22605786540E+02 -0.10858344132E+03  0.28047918089E+02  0.14621818384E+03  0.91058696805E+02 0.  0.
        -11    1    1    2    0    0 -0.12365564867E+03  0.11092816742E+03  0.38988513517E+03  0.42379971260E+03  0.00000000000E+00 0.  1.
         11    1    1    2    0    0  0.10104986213E+03 -0.23447261015E+01 -0.41793305326E+03  0.42998210356E+03  0.00000000000E+00 0. -1.
        -15    1    3    3    0    0  0.39977485671E+02 -0.55564137024E+02  0.51491219281E+02  0.85674243946E+02  0.17770000000E+01 0.  1.
         15    1    3    3    0    0 -0.17371699131E+02 -0.53019304293E+02 -0.23443301192E+02  0.60543939896E+02  0.17770000000E+01 0. -1.
</event>
<event>
 7    1  0.4954109E-006  0.3325478E+03  0.7546771E-02  0.9879816E-01
        -11   -1    0    0    0    0  0.00000000000E+00  0.00000000000E+00  0.50000000000E+03  0.50000000000E+03  0.00000000000E+00 0. -1.
         11   -1    0    0    0    0 -0.00000000000E+00 -0.00000000000E+00 -0.50000000000E+03  0.50000000000E+03  0.00000000000E+00 0. -1.
         23    2    1    2    0    0  0.24303011020E+03  0.11083567006E+03  0.19333004274E+03  0.34450361001E+03  0.99790037901E+02 0.  0.
        -11    1    1    2    0    0 -0.24282312762E+03 -0.12947997801E+01  0.15651868219E+03  0.28889936948E+03  0.00000000000E+00 0. -1.
         11    1    1    2    0    0 -0.20698258003E+00 -0.10954087028E+03 -0.34984872493E+03  0.36659702050E+03  0.00000000000E+00 0. -1.
        -15    1    3    3    0    0  0.13054381115E+03  0.13963698170E+02  0.12420452136E+03  0.18073901723E+03  0.17770000000E+01 0. -1.
         15    1    3    3    0    0  0.11248629905E+03  0.96871971894E+02  0.69125521380E+02  0.16376459278E+03  0.17770000000E+01 0.  1.
</event>
<event>
 7    1  0.4954109E-006  0.5070881E+03  0.7546771E-02  0.9384088E-01
        -11   -1    0    0    0    0  0.00000000000E+00  0.00000000000E+00  0.50000000000E+03  0.50000000000E+03  0.00000000000E+00 0. -1.
         11   -1    0    0    0    0 -0.00000000000E+00 -0.00000000000E+00 -0.50000000000E+03  0.50000000000E+03  0.00000000000E+00 0.  1.
         23    2    1    2    0    0  0.18132853500E+03  0.11942526830E+03  0.43761172019E+03  0.49291190155E+03  0.65693932196E+02 0.  0.
        -11    1    1    2    0    0 -0.50244858065E+02 -0.37822113958E+02 -0.27067394490E+02  0.68466794219E+02  0.00000000000E+00 0. -1.
         11    1    1    2    0    0 -0.13108367694E+03 -0.81603154345E+02 -0.41054432570E+03  0.43862130423E+03  0.00000000000E+00 0.  1.
        -15    1    3    3    0    0  0.13521339274E+02  0.37793884317E+02  0.81425177839E+02  0.90798797473E+02  0.17770000000E+01 0.  1.
         15    1    3    3    0    0  0.16780719573E+03  0.81631383985E+02  0.35618654235E+03  0.40211310408E+03  0.17770000000E+01 0. -1.
</event>
<event>
 7    1  0.4954109E-006  0.5214657E+03  0.7546771E-02  0.9353019E-01
        -11   -1    0    0    0    0  0.00000000000E+00  0.00000000000E+00  0.50000000000E+03  0.50000000000E+03  0.00000000000E+00 0.  1.
         11   -1    0    0    0    0 -0.00000000000E+00 -0.00000000000E+00 -0.50000000000E+03  0.50000000000E+03  0.00000000000E+00 0. -1.
         23    2    1    2    0    0  0.12170447567E+03  0.84196417451E+02  0.55750758112E+02  0.18270333146E+03  0.91495050071E+02 0.  0.
        -11    1    1    2    0    0  0.22155567588E+03  0.42247334577E+02  0.25276108138E+03  0.33876233417E+03  0.00000000000E+00 0.  1.
         11    1    1    2    0    0 -0.34326015155E+03 -0.12644375203E+03 -0.30851183949E+03  0.47853433437E+03  0.00000000000E+00 0. -1.
        -15    1    3    3    0    0  0.30655572067E+02 -0.15806929148E+02  0.28393901355E+02  0.44710115980E+02  0.17770000000E+01 0.  1.
         15    1    3    3    0    0  0.91048903600E+02  0.10000334660E+03  0.27356856757E+02  0.13799321548E+03  0.17770000000E+01 0. -1.
</event>
<event>
 7    1  0.4954109E-006  0.3647913E+03  0.7546771E-02  0.9766563E-01
        -11   -1    0    0    0    0  0.00000000000E+00  0.00000000000E+00  0.50000000000E+03  0.50000000000E+03  0.00000000000E+00 0.  1.
         11   -1    0    0    0    0 -0.00000000000E+00 -0.00000000000E+00 -0.50000000000E+03  0.50000000000E+03  0.00000000000E+00 0. -1.
         23    2    1    2    0    0  0.51563898010E+02  0.29668937870E+03 -0.10513236775E+03  0.33097440534E+03  0.88361865258E+02 0.  0.
        -11    1    1    2    0    0 -0.99765606544E+02 -0.24425007756E+03  0.33612142215E+03  0.42730420905E+03  0.00000000000E+00 0.  1.
         11    1    1    2    0    0  0.48201708534E+02 -0.52439301134E+02 -0.23098905440E+03  0.24172138561E+03  0.00000000000E+00 0. -1.
        -15    1    3    3    0    0  0.76967849662E+01  0.21034526431E+03 -0.10237903680E+03  0.23407049284E+03  0.17770000000E+01 0. -1.
         15    1    3    3    0    0  0.43867113044E+02  0.86344114392E+02 -0.27533309500E+01  0.96903912498E+02  0.17770000000E+01 0.  1.
</event>
<event>
 7    1  0.4954109E-006  0.4981165E+03  0.7546771E-02  0.9404034E-01
        -11   -1    0    0    0    0  0.00000000000E+00  0.00000000000E+00  0.50000000000E+03  0.50000000000E+03  0.00000000000E+00 0.  1.
         11   -1    0    0    0    0 -0.00000000000E+00 -0.00000000000E+00 -0.50000000000E+03  0.50000000000E+03  0.00000000000E+00 0.  1.
         23    2    1    2    0    0  0.94159151623E+02  0.88864228550E+02  0.47320324877E+03  0.49891821197E+03  0.90748391973E+02 0.  0.
        -11    1    1    2    0    0  0.11162613675E+02  0.14497803897E+01 -0.42444647082E+01  0.12030016122E+02  0.00000000000E+00 0.  1.
         11    1    1    2    0    0 -0.10532176530E+03 -0.90314008940E+02 -0.46895878406E+03  0.48905177190E+03  0.00000000000E+00 0.  1.
        -15    1    3    3    0    0  0.29084201526E+02  0.34158053493E+02  0.49760340173E+02  0.67021732147E+02  0.17770000000E+01 0. -1.
         15    1    3    3    0    0  0.65074950097E+02  0.54706175057E+02  0.42344290859E+03  0.43189647983E+03  0.17770000000E+01 0.  1.
</event>
<event>
 7    1  0.4954109E-006  0.4334869E+03  0.7546771E-02  0.9562325E-01
        -11   -1    0    0    0    0  0.00000000000E+00  0.00000000000E+00  0.50000000000E+03  0.50000000000E+03  0.00000000000E+00 0.  1.
         11   -1    0    0    0    0 -0.00000000000E+00 -0.00000000000E+00 -0.50000000000E+03  0.50000000000E+03  0.00000000000E+00 0. -1.
         23    2    1    2    0    0  0.21993802842E+02  0.88542819882E+02 -0.13008433792E+02  0.12814200472E+03  0.89037046823E+02 0.  0.
        -11    1    1    2    0    0  0.22721283657E+03 -0.49451706458E+02  0.36863704917E+03  0.43584907754E+03  0.00000000000E+00 0.  1.
         11    1    1    2    0    0 -0.24920663941E+03 -0.39091113424E+02 -0.35562861537E+03  0.43600891774E+03  0.00000000000E+00 0. -1.
        -15    1    3    3    0    0  0.18997203851E+02  0.63817046524E+02  0.34096506680E+02  0.74828060766E+02  0.17770000000E+01 0.  1.
         15    1    3    3    0    0  0.29965989905E+01  0.24725773358E+02 -0.47104940472E+02  0.53313943950E+02  0.17770000000E+01 0. -1.
</event>
<event>
 7    1  0.4954109E-006  0.5147871E+03  0.7546771E-02  0.9367317E-01
        -11   -1    0    0    0    0  0.00000000000E+00  0.00000000000E+00  0.50000000000E+03  0.50000000000E+03  0.00000000000E+00 0. -1.
         11   -1    0    0    0    0 -0.00000000000E+00 -0.00000000000E+00 -0.50000000000E+03  0.50000000000E+03  0.00000000000E+00 0. -1.
         23    2    1    2    0    0  0.45779314884E+02 -0.89649726132E+00 -0.38936443362E+03  0.40245508827E+03  0.90933418117E+02 0.  0.
        -11    1    1    2    0    0 -0.68716717939E+02 -0.67369380305E+02  0.47557427599E+03  0.48521285299E+03  0.00000000000E+00 0. -1.
         11    1    1    2    0    0  0.22937403055E+02  0.68265877566E+02 -0.86209842367E+02  0.11233205874E+03  0.00000000000E+00 0. -1.
        -15    1    3    3    0    0  0.57156390723E+02  0.32891379034E+02 -0.24219906210E+03  0.25102238790E+03  0.17770000000E+01 0. -1.
         15    1    3    3    0    0 -0.11377075838E+02 -0.33787876295E+02 -0.14716537152E+03  0.15143270037E+03  0.17770000000E+01 0.  1.
</event>
<event>
 7    1  0.4954109E-006  0.5386299E+03  0.7546771E-02  0.9317293E-01
        -11   -1    0    0    0    0  0.00000000000E+00  0.00000000000E+00  0.50000000000E+03  0.50000000000E+03  0.00000000000E+00 0.  1.
         11   -1    0    0    0    0 -0.00000000000E+00 -0.00000000000E+00 -0.50000000000E+03  0.50000000000E+03  0.00000000000E+00 0. -1.
         23    2    1    2    0    0  0.10953130367E+02 -0.94824103672E+02  0.11578492822E+03  0.17515073898E+03  0.90332995411E+02 0.  0.
        -11    1    1    2    0    0 -0.92084574279E+02  0.95531434900E+02  0.33839515738E+03  0.36347916916E+03  0.00000000000E+00 0.  1.
         11    1    1    2    0    0  0.81131443912E+02 -0.70733122756E+00 -0.45418008560E+03  0.46137009186E+03  0.00000000000E+00 0. -1.
        -15    1    3    3    0    0  0.19651658501E+02 -0.94935712689E+01 -0.90375532396E+01  0.23688619099E+02  0.17770000000E+01 0. -1.
         15    1    3    3    0    0 -0.86985281342E+01 -0.85330532403E+02  0.12482248146E+03  0.15146211988E+03  0.17770000000E+01 0.  1.
</event>
<event>
 7    1  0.4954109E-006  0.5264432E+03  0.7546771E-02  0.9342510E-01
        -11   -1    0    0    0    0  0.00000000000E+00  0.00000000000E+00  0.50000000000E+03  0.50000000000E+03  0.00000000000E+00 0. -1.
         11   -1    0    0    0    0 -0.00000000000E+00 -0.00000000000E+00 -0.50000000000E+03  0.50000000000E+03  0.00000000000E+00 0. -1.
         23    2    1    2    0    0  0.33954667529E+02 -0.18371122926E+03  0.59921665561E+01  0.21240256249E+03  0.10087718916E+03 0.  0.
        -11    1    1    2    0    0 -0.18257458233E+03  0.40835228629E+03  0.15547008140E+03  0.47355676961E+03  0.00000000000E+00 0. -1.
         11    1    1    2    0    0  0.14861991481E+03 -0.22464105703E+03 -0.16146224796E+03  0.31404066790E+03  0.00000000000E+00 0. -1.
        -15    1    3    3    0    0  0.56161282063E+02 -0.48538596009E+02 -0.80612639403E+01  0.74687526475E+02  0.17770000000E+01 0.  1.
         15    1    3    3    0    0 -0.22206614535E+02 -0.13517263325E+03  0.14053430496E+02  0.13771503602E+03  0.17770000000E+01 0. -1.
</event>
<event>
 7    1  0.4954109E-006  0.3686465E+03  0.7546771E-02  0.9753865E-01
        -11   -1    0    0    0    0  0.00000000000E+00  0.00000000000E+00  0.50000000000E+03  0.50000000000E+03  0.00000000000E+00 0. -1.
         11   -1    0    0    0    0 -0.00000000000E+00 -0.00000000000E+00 -0.50000000000E+03  0.50000000000E+03  0.00000000000E+00 0.  1.
         23    2    1    2    0    0 -0.24398713215E+03 -0.97949448474E+01 -0.16997583239E+03  0.31098730930E+03  0.90529891995E+02 0.  0.
        -11    1    1    2    0    0  0.21074013489E+03  0.87481367987E+02  0.39082030738E+03  0.45255376129E+03  0.00000000000E+00 0. -1.
         11    1    1    2    0    0  0.33246997263E+02 -0.77686423139E+02 -0.22084447499E+03  0.23645892941E+03  0.00000000000E+00 0.  1.
        -15    1    3    3    0    0 -0.23517094835E+03  0.76041904346E+01 -0.13601625919E+03  0.27178443509E+03  0.17770000000E+01 0.  1.
         15    1    3    3    0    0 -0.88161838003E+01 -0.17399135282E+02 -0.33959573200E+02  0.39202874210E+02  0.17770000000E+01 0. -1.
</event>
<event>
 7    1  0.4954109E-006  0.4368118E+03  0.7546771E-02  0.9553481E-01
        -11   -1    0    0    0    0  0.00000000000E+00  0.00000000000E+00  0.50000000000E+03  0.50000000000E+03  0.00000000000E+00 0.  1.
         11   -1    0    0    0    0 -0.00000000000E+00 -0.00000000000E+00 -0.50000000000E+03  0.50000000000E+03  0.00000000000E+00 0. -1.
         23    2    1    2    0    0 -0.28148782136E+02 -0.15909648845E+03  0.39648350021E+03  0.43758390211E+03  0.90423773849E+02 0.  0.
        -11    1    1    2    0    0 -0.11177163697E+03  0.59343182042E+02  0.40121048658E+01  0.12661204157E+03  0.00000000000E+00 0.  1.
         11    1    1    2    0    0  0.13992041910E+03  0.99753306410E+02 -0.40049560507E+03  0.43580405632E+03  0.00000000000E+00 0. -1.
        -15    1    3    3    0    0 -0.49599003914E+02 -0.15556826880E+03  0.34655599635E+03  0.38310020071E+03  0.17770000000E+01 0.  1.
         15    1    3    3    0    0  0.21450221778E+02 -0.35282196506E+01  0.49927503855E+02  0.54483701402E+02  0.17770000000E+01 0. -1.
</event>
<event>
 7    1  0.4954109E-006  0.5365652E+03  0.7546771E-02  0.9321515E-01
        -11   -1    0    0    0    0  0.00000000000E+00  0.00000000000E+00  0.50000000000E+03  0.50000000000E+03  0.00000000000E+00 0. -1.
         11   -1    0    0    0    0 -0.00000000000E+00 -0.00000000000E+00 -0.50000000000E+03  0.50000000000E+03  0.00000000000E+00 0.  1.
         23    2    1    2    0    0 -0.50529243108E+02 -0.24635096184E+02  0.27981868659E+03  0.29997507920E+03  0.92338823920E+02 0.  0.
        -11    1    1    2    0    0  0.12966247596E+03  0.10053065742E+03  0.17045855886E+03  0.23659013302E+03  0.00000000000E+00 0. -1.
         11    1    1    2    0    0 -0.79133232855E+02 -0.75895561232E+02 -0.45027724545E+03  0.46343478778E+03  0.00000000000E+00 0.  1.
        -15    1    3    3    0    0 -0.54667072313E+02 -0.54378132814E+02  0.18295105384E+03  0.19854398997E+03  0.17770000000E+01 0.  1.
         15    1    3    3    0    0  0.41378292048E+01  0.29743036630E+02  0.96867632749E+02  0.10143108923E+03  0.17770000000E+01 0. -1.
</event>
<event>
 7    1  0.4954109E-006  0.3944620E+03  0.7546771E-02  0.9672907E-01
        -11   -1    0    0    0    0  0.00000000000E+00  0.00000000000E+00  0.50000000000E+03  0.50000000000E+03  0.00000000000E+00 0.  1.
         11   -1    0    0    0    0 -0.00000000000E+00 -0.00000000000E+00 -0.50000000000E+03  0.50000000000E+03  0.00000000000E+00 0.  1.
         23    2    1    2    0    0 -0.60424979241E+02  0.39165772069E+02  0.35059421141E+03  0.36668631671E+03  0.79733418140E+02 0.  0.
        -11    1    1    2    0    0 -0.55533353400E+02 -0.18102633457E+03  0.47377671340E+02  0.19518998665E+03  0.00000000000E+00 0.  1.
         11    1    1    2    0    0  0.11595833264E+03  0.14186056250E+03 -0.39797188275E+03  0.43812369664E+03  0.00000000000E+00 0.  1.
        -15    1    3    3    0    0 -0.45043195586E+02  0.61804554022E+02  0.21138667998E+03  0.22480253239E+03  0.17770000000E+01 0. -1.
         15    1    3    3    0    0 -0.15381783655E+02 -0.22638781954E+02  0.13920753143E+03  0.14188378432E+03  0.17770000000E+01 0.  1.
</event>
<event>
 7    1  0.4954109E-006  0.5272862E+03  0.7546771E-02  0.9340743E-01
        -11   -1    0    0    0    0  0.00000000000E+00  0.00000000000E+00  0.50000000000E+03  0.50000000000E+03  0.00000000000E+00 0.  1.
         11   -1    0    0    0    0 -0.00000000000E+00 -0.00000000000E+00 -0.50000000000E+03  0.50000000000E+03  0.00000000000E+00 0.  1.
         23    2    1    2    0    0  0.74468238025E+02 -0.38815183200E+02  0.45453517795E+03  0.47271383674E+03  0.99015183323E+02 0.  0.
        -11    1    1    2    0    0 -0.27466753189E+02 -0.10767373389E+03 -0.15721910318E+03  0.19252506825E+03  0.00000000000E+00 0.  1.
         11    1    1    2    0    0 -0.47001484836E+02  0.14648891709E+03 -0.29731607478E+03  0.33476109501E+03  0.00000000000E+00 0.  1.
        -15    1    3    3    0    0  0.31715230317E+02 -0.68739124766E+02  0.22827621761E+03  0.24050802973E+03  0.17770000000E+01 0.  1.
         15    1    3    3    0    0  0.42753007708E+02  0.29923941565E+02  0.22625896034E+03  0.23220580701E+03  0.17770000000E+01 0. -1.
</event>
<event>
 7    1  0.4954109E-006  0.5187483E+03  0.7546771E-02  0.9358809E-01
        -11   -1    0    0    0    0  0.00000000000E+00  0.00000000000E+00  0.50000000000E+03  0.50000000000E+03  0.00000000000E+00 0. -1.
         11   -1    0    0    0    0 -0.00000000000E+00 -0.00000000000E+00 -0.50000000000E+03  0.50000000000E+03  0.00000000000E+00 0.  1.
         23    2    1    2    0    0  0.56393068353E+02 -0.72148061922E+02  0.23616576605E+03  0.27015656294E+03  0.93940291953E+02 0.  0.
        -11    1    1    2    0    0  0.12774244019E+03  0.47922772385E+02  0.20780548161E+03  0.24859171612E+03  0.00000000000E+00 0. -1.
         11    1    1    2    0    0 -0.18413550854E+03  0.24225289537E+02 -0.44397124766E+03  0.48125172093E+03  0.00000000000E+00 0.  1.
        -15    1    3    3    0    0  0.69695366973E+02 -0.40629893305E+02  0.21558818919E+03  0.23019482500E+03  0.17770000000E+01 0. -1.
         15    1    3    3    0    0 -0.13302298620E+02 -0.31518168617E+02  0.20577576854E+02  0.39961737947E+02  0.17770000000E+01 0.  1.
</event>
<event>
 7    1  0.4954109E-006  0.5208195E+03  0.7546771E-02  0.9354393E-01
        -11   -1    0    0    0    0  0.00000000000E+00  0.00000000000E+00  0.50000000000E+03  0.50000000000E+03  0.00000000000E+00 0.  1.
         11   -1    0    0    0    0 -0.00000000000E+00 -0.00000000000E+00 -0.50000000000E+03  0.50000000000E+03  0.00000000000E+00 0. -1.
         23    2    1    2    0    0 -0.16632434328E+03  0.14272006990E+03 -0.31137898075E+03  0.39140841131E+03  0.90613847032E+02 0.  0.
        -11    1    1    2    0    0  0.13612418709E+03 -0.14118667381E+03  0.43720757200E+03  0.47918047976E+03  0.00000000000E+00 0.  1.
         11    1    1    2    0    0  0.30200156189E+02 -0.15333960931E+01 -0.12582859125E+03  0.12941110893E+03  0.00000000000E+00 0. -1.
        -15    1    3    3    0    0 -0.17667253558E+03  0.13247047173E+03 -0.30149664837E+03  0.37371780452E+03  0.17770000000E+01 0. -1.
         15    1    3    3    0    0  0.10348192296E+02  0.10249598175E+02 -0.98823323803E+01  0.17690606796E+02  0.17770000000E+01 0.  1.
</event>
<event>
 7    1  0.4954109E-006  0.3838342E+03  0.7546771E-02  0.9705410E-01
        -11   -1    0    0    0    0  0.00000000000E+00  0.00000000000E+00  0.50000000000E+03  0.50000000000E+03  0.00000000000E+00 0.  1.
         11   -1    0    0    0    0 -0.00000000000E+00 -0.00000000000E+00 -0.50000000000E+03  0.50000000000E+03  0.00000000000E+00 0.  1.
         23    2    1    2    0    0 -0.76142782773E+02  0.23866864305E+03 -0.21119538848E+03  0.34133212979E+03  0.95622623723E+02 0.  0.
        -11    1    1    2    0    0  0.29060125250E+02 -0.42677924284E+03  0.11936190383E+03  0.44410840690E+03  0.00000000000E+00 0.  1.
         11    1    1    2    0    0  0.47082657523E+02  0.18811059978E+03  0.91833484654E+02  0.21455946331E+03  0.00000000000E+00 0.  1.
        -15    1    3    3    0    0  0.79525497005E+01  0.11642962032E+03 -0.67772693900E+02  0.13496442235E+03  0.17770000000E+01 0. -1.
         15    1    3    3    0    0 -0.84095332474E+02  0.12223902273E+03 -0.14342269458E+03  0.20636770744E+03  0.17770000000E+01 0.  1.
</event>
<event>
 7    1  0.4954109E-006  0.5175489E+03  0.7546771E-02  0.9361377E-01
        -11   -1    0    0    0    0  0.00000000000E+00  0.00000000000E+00  0.50000000000E+03  0.50000000000E+03  0.00000000000E+00 0. -1.
         11   -1    0    0    0    0 -0.00000000000E+00 -0.00000000000E+00 -0.50000000000E+03  0.50000000000E+03  0.00000000000E+00 0.  1.
         23    2    1    2    0    0 -0.14465922340E+02 -0.95048364095E+01  0.13811890956E+03  0.16319454561E+03  0.85182285212E+02 0.  0.
        -11    1    1    2    0    0  0.73720196504E+02  0.98259826550E+02  0.33238136787E+03  0.35435439124E+03  0.00000000000E+00 0. -1.
         11    1    1    2    0    0 -0.59254274164E+02 -0.88754990140E+02 -0.47050027742E+03  0.48245106315E+03  0.00000000000E+00 0.  1.
        -15    1    3    3    0    0 -0.39437050367E+02 -0.14326190809E+02  0.28752157912E+02  0.50895628480E+02  0.17770000000E+01 0. -1.
         15    1    3    3    0    0  0.24971128027E+02  0.48213543994E+01  0.10936675165E+03  0.11229891713E+03  0.17770000000E+01 0.  1.
</event>
<event>
 7    1  0.4954109E-006  0.5244980E+03  0.7546771E-02  0.9346603E-01
        -11   -1    0    0    0    0  0.00000000000E+00  0.00000000000E+00  0.50000000000E+03  0.50000000000E+03  0.00000000000E+00 0. -1.
         11   -1    0    0    0    0 -0.00000000000E+00 -0.00000000000E+00 -0.50000000000E+03  0.50000000000E+03  0.00000000000E+00 0.  1.
         23    2    1    2    0    0 -0.10587519433E+03 -0.47454656444E+02  0.31530273435E+03  0.34854728196E+03  0.92778727527E+02 0.  0.
        -11    1    1    2    0    0 -0.13794248164E+03  0.57599388731E+02  0.92805335273E+02  0.17595069786E+03  0.00000000000E+00 0. -1.
         11    1    1    2    0    0  0.24381767597E+03 -0.10144732287E+02 -0.40810806962E+03  0.47550202018E+03  0.00000000000E+00 0.  1.
        -15    1    3    3    0    0  0.13768165846E+02 -0.19996957283E+02  0.72401878702E+02  0.76384752798E+02  0.17770000000E+01 0.  1.
         15    1    3    3    0    0 -0.11964336018E+03 -0.27457699161E+02  0.24290085564E+03  0.27216252916E+03  0.17770000000E+01 0. -1.
</event>
<event>
 7    1  0.4954109E-006  0.4012222E+03  0.7546771E-02  0.9652796E-01
        -11   -1    0    0    0    0  0.00000000000E+00  0.00000000000E+00  0.50000000000E+03  0.50000000000E+03  0.00000000000E+00 0.  1.
         11   -1    0    0    0    0 -0.00000000000E+00 -0.00000000000E+00 -0.50000000000E+03  0.50000000000E+03  0.00000000000E+00 0.  1.
         23    2    1    2    0    0 -0.71263944972E+02 -0.19022046806E+02  0.38732958894E+03  0.40316725944E+03  0.84138222568E+02 0.  0.
        -11    1    1    2    0    0 -0.37757663099E+02  0.17963407238E+03 -0.24297815747E+02  0.18516053827E+03  0.00000000000E+00 0.  1.
         11    1    1    2    0    0  0.10902160807E+03 -0.16061202558E+03 -0.36303177319E+03  0.41167220229E+03  0.00000000000E+00 0.  1.
        -15    1    3    3    0    0  0.32544725765E+01 -0.24401041574E+02  0.33959672619E+02  0.41981180487E+02  0.17770000000E+01 0. -1.
         15    1    3    3    0    0 -0.74518417549E+02  0.53789947687E+01  0.35336991632E+03  0.36118607895E+03  0.17770000000E+01 0.  1.
</event>
<event>
 7    1  0.4954109E-006  0.4330956E+03  0.7546771E-02  0.9563371E-01
        -11   -1    0    0    0    0  0.00000000000E+00  0.00000000000E+00  0.50000000000E+03  0.50000000000E+03  0.00000000000E+00 0.  1.
         11   -1    0    0    0    0 -0.00000000000E+00 -0.00000000000E+00 -0.50000000000E+03  0.50000000000E+03  0.00000000000E+00 0.  1.
         23    2    1    2    0    0  0.69039889195E+02  0.59661448215E+02  0.50005399201E+01  0.12900157519E+03  0.91051668294E+02 0.  0.
        -11    1    1    2    0    0 -0.12568598596E+03 -0.15682088791E+03  0.40162737383E+03  0.44910389150E+03  0.00000000000E+00 0.  1.
         11    1    1    2    0    0  0.56646096768E+02  0.97159439693E+02 -0.40662791375E+03  0.42189453331E+03  0.00000000000E+00 0.  1.
        -15    1    3    3    0    0 -0.98812924367E+01  0.33672915637E+02 -0.22189705474E+02  0.41557742308E+02  0.17770000000E+01 0.  1.
         15    1    3    3    0    0  0.78921181631E+02  0.25988532577E+02  0.27190245394E+02  0.87443832883E+02  0.17770000000E+01 0. -1.
</event>
<event>
 7    1  0.4954109E-006  0.3312799E+03  0.7546771E-02  0.9884548E-01
        -11   -1    0    0    0    0  0.00000000000E+00  0.00000000000E+00  0.50000000000E+03  0.50000000000E+03  0.00000000000E+00 0.  1.
         11   -1    0    0    0    0 -0.00000000000E+00 -0.00000000000E+00 -0.50000000000E+03  0.50000000000E+03  0.00000000000E+00 0. -1.
         23    2    1    2    0    0 -0.32032699430E+03 -0.61116107815E+02  0.75620763874E+02  0.34714334197E+03  0.91899064356E+02 0.  0.
        -11    1    1    2    0    0  0.29924120029E+03  0.38120805407E+01  0.20689317789E+03  0.36381948129E+03  0.00000000000E+00 0.  1.
         11    1    1    2    0    0  0.21085794015E+02  0.57304027274E+02 -0.28251394176E+03  0.28903717675E+03  0.00000000000E+00 0. -1.
        -15    1    3    3    0    0 -0.69464446043E+01 -0.73872087433E+01 -0.13456935660E+02  0.16943163578E+02  0.17770000000E+01 0.  1.
         15    1    3    3    0    0 -0.31338054970E+03 -0.53728899072E+02  0.89077699535E+02  0.33020017839E+03  0.17770000000E+01 0. -1.
</event>
<event>
 7    1  0.4954109E-006  0.4815077E+03  0.7546771E-02  0.9442166E-01
        -11   -1    0    0    0    0  0.00000000000E+00  0.00000000000E+00  0.50000000000E+03  0.50000000000E+03  0.00000000000E+00 0. -1.
         11   -1    0    0    0    0 -0.00000000000E+00 -0.00000000000E+00 -0.50000000000E+03  0.50000000000E+03  0.00000000000E+00 0.  1.
         23    2    1    2    0    0  0.41532281495E+02 -0.50639490426E+01  0.47590739511E+03  0.48648789170E+03  0.91826173106E+02 0.  0.
        -11    1    1    2    0    0  0.42120808567E+02 -0.34872149818E+01 -0.14771280047E+02  0.44771798008E+02  0.00000000000E+00 0. -1.
         11    1    1    2    0    0 -0.83653090062E+02  0.85511640244E+01 -0.46113611506E+03  0.46874031029E+03  0.00000000000E+00 0.  1.
        -15    1    3    3    0    0  0.58726708710E+02 -0.32961482757E+02  0.29154834563E+03  0.29923048179E+03  0.17770000000E+01 0. -1.
         15    1    3    3    0    0 -0.17194427215E+02  0.27897533715E+02  0.18435904947E+03  0.18725740991E+03  0.17770000000E+01 0.  1.
</event>
<event>
 7    1  0.4954109E-006  0.3484163E+03  0.7546771E-02  0.9822436E-01
        -11   -1    0    0    0    0  0.00000000000E+00  0.00000000000E+00  0.50000000000E+03  0.50000000000E+03  0.00000000000E+00 0.  1.
         11   -1    0    0    0    0 -0.00000000000E+00 -0.00000000000E+00 -0.50000000000E+03  0.50000000000E+03  0.00000000000E+00 0. -1.
         23    2    1    2    0    0  0.20216109220E+03  0.15132156277E+03 -0.18810178425E+03  0.32815860198E+03  0.92403810829E+02 0.  0.
        -11    1    1    2    0    0  0.47278741900E+01 -0.22531644368E+03  0.33772281504E+03  0.40601299534E+03  0.00000000000E+00 0.  1.
         11    1    1    2    0    0 -0.20688896639E+03  0.73994880907E+02 -0.14962103079E+03  0.26582840268E+03  0.00000000000E+00 0. -1.
        -15    1    3    3    0    0  0.18668102246E+03  0.12436648626E+03 -0.12260977428E+03  0.25564260507E+03  0.17770000000E+01 0.  1.
         15    1    3    3    0    0  0.15480069744E+02  0.26955076517E+02 -0.65492009962E+02  0.72515996905E+02  0.17770000000E+01 0. -1.
</event>
<event>
 7    1  0.4954109E-006  0.4851953E+03  0.7546771E-02  0.9433560E-01
        -11   -1    0    0    0    0  0.00000000000E+00  0.00000000000E+00  0.50000000000E+03  0.50000000000E+03  0.00000000000E+00 0. -1.
         11   -1    0    0    0    0 -0.00000000000E+00 -0.00000000000E+00 -0.50000000000E+03  0.50000000000E+03  0.00000000000E+00 0.  1.
         23    2    1    2    0    0 -0.19871495869E+02  0.13446274841E+03  0.46658328696E+03  0.49418977075E+03  0.89713202979E+02 0.  0.
        -11    1    1    2    0    0  0.24960352816E+02 -0.25407763221E+02 -0.10923877481E+02  0.37254593593E+02  0.00000000000E+00 0. -1.
         11    1    1    2    0    0 -0.50888569470E+01 -0.10905498519E+03 -0.45565940948E+03  0.46855563566E+03  0.00000000000E+00 0.  1.
        -15    1    3    3    0    0  0.60965317025E+01  0.53187491175E+02  0.32098383291E+03  0.32542258009E+03  0.17770000000E+01 0. -1.
         15    1    3    3    0    0 -0.25968027571E+02  0.81275257234E+02  0.14559945405E+03  0.16876719066E+03  0.17770000000E+01 0.  1.
</event>
<event>
 7    1  0.4954109E-006  0.4882736E+03  0.7546771E-02  0.9426438E-01
        -11   -1    0    0    0    0  0.00000000000E+00  0.00000000000E+00  0.50000000000E+03  0.50000000000E+03  0.00000000000E+00 0. -1.
         11   -1    0    0    0    0 -0.00000000000E+00 -0.00000000000E+00 -0.50000000000E+03  0.50000000000E+03  0.00000000000E+00 0. -1.
         23    2    1    2    0    0 -0.41941961087E+02  0.93025927837E+02  0.46108469284E+03  0.47971694991E+03  0.84358204757E+02 0.  0.
        -11    1    1    2    0    0 -0.19180264418E+02  0.20400330704E+02  0.11632267997E+02  0.30321043761E+02  0.00000000000E+00 0. -1.
         11    1    1    2    0    0  0.61122225506E+02 -0.11342625854E+03 -0.47271696084E+03  0.48996200633E+03  0.00000000000E+00 0. -1.
        -15    1    3    3    0    0 -0.62447595248E+02  0.37050788444E+02  0.24276646965E+03  0.25339924939E+03  0.17770000000E+01 0.  1.
         15    1    3    3    0    0  0.20505634161E+02  0.55975139393E+02  0.21831822319E+03  0.22631770052E+03  0.17770000000E+01 0. -1.
</event>
<event>
 6    1  0.4954109E-006  0.5397377E+03  0.7546771E-02  0.9315036E-01
        -11   -1    0    0    0    0  0.00000000000E+00  0.00000000000E+00  0.50000000000E+03  0.50000000000E+03  0.00000000000E+00 0.  1.
         11   -1    0    0    0    0 -0.00000000000E+00 -0.00000000000E+00 -0.50000000000E+03  0.50000000000E+03  0.00000000000E+00 0. -1.
        -11    1    1    2    0    0  0.16881252968E+03 -0.73810935544E+02  0.66973541261E+02  0.19603871968E+03  0.00000000000E+00 0.  1.
         11    1    1    2    0    0 -0.24697222369E+03  0.17864256960E+03 -0.34486653610E+03  0.46026228899E+03  0.00000000000E+00 0. -1.
        -15    1    1    2    0    0 -0.26195668938E+02 -0.78848115348E+02  0.66197939920E+02  0.10624765100E+03  0.17770000000E+01 0.  1.
         15    1    1    2    0    0  0.10435536295E+03 -0.25983518704E+02  0.21169505491E+03  0.23745134033E+03  0.17770000000E+01 0. -1.
</event>
<event>
 7    1  0.4954109E-006  0.3683492E+03  0.7546771E-02  0.9754838E-01
        -11   -1    0    0    0    0  0.00000000000E+00  0.00000000000E+00  0.50000000000E+03  0.50000000000E+03  0.00000000000E+00 0. -1.
         11   -1    0    0    0    0 -0.00000000000E+00 -0.00000000000E+00 -0.50000000000E+03  0.50000000000E+03  0.00000000000E+00 0. -1.
         23    2    1    2    0    0  0.62673174539E+02 -0.14410498649E+03  0.29873145825E+03  0.34993124665E+03  0.92288782057E+02 0.  0.
        -11    1    1    2    0    0 -0.21476746194E+03  0.65132088971E+02  0.76863290488E+02  0.23722398097E+03  0.00000000000E+00 0. -1.
         11    1    1    2    0    0  0.15209428741E+03  0.78972897523E+02 -0.37559474874E+03  0.41284477238E+03  0.00000000000E+00 0. -1.
        -15    1    3    3    0    0  0.38586430926E+01 -0.51494207389E+02  0.18425664402E+03  0.19136408000E+03  0.17770000000E+01 0. -1.
         15    1    3    3    0    0  0.58814531446E+02 -0.92610779105E+02  0.11447481423E+03  0.15856716664E+03  0.17770000000E+01 0.  1.
</event>
<event>
 7    1  0.4954109E-006  0.5123551E+03  0.7546771E-02  0.9372581E-01
        -11   -1    0    0    0    0  0.00000000000E+00  0.00000000000E+00  0.50000000000E+03  0.50000000000E+03  0.00000000000E+00 0.  1.
         11   -1    0    0    0    0 -0.00000000000E+00 -0.00000000000E+00 -0.50000000000E+03  0.50000000000E+03  0.00000000000E+00 0. -1.
         23    2    1    2    0    0  0.37234735743E+02  0.24386040895E+02  0.22312383175E+03  0.24569559291E+03  0.92741444586E+02 0.  0.
        -11    1    1    2    0    0  0.78769094441E+02 -0.49836881824E+02  0.24983799267E+03  0.26665953500E+03  0.00000000000E+00 0.  1.
         11    1    1    2    0    0 -0.11600383018E+03  0.25450840930E+02 -0.47296182441E+03  0.48764487209E+03  0.00000000000E+00 0. -1.
        -15    1    3    3    0    0  0.55786337952E+02  0.36417355421E+02  0.97326280543E+02  0.11795720364E+03  0.17770000000E+01 0. -1.
         15    1    3    3    0    0 -0.18551602209E+02 -0.12031314526E+02  0.12579755120E+03  0.12773838926E+03  0.17770000000E+01 0.  1.
</event>
<event>
 7    1  0.4954109E-006  0.5192136E+03  0.7546771E-02  0.9357815E-01
        -11   -1    0    0    0    0  0.00000000000E+00  0.00000000000E+00  0.50000000000E+03  0.50000000000E+03  0.00000000000E+00 0.  1.
         11   -1    0    0    0    0 -0.00000000000E+00 -0.00000000000E+00 -0.50000000000E+03  0.50000000000E+03  0.00000000000E+00 0. -1.
         23    2    1    2    0    0  0.77976811608E+02 -0.11800848571E+03 -0.23593329104E+03  0.28988059854E+03  0.91432257659E+02 0.  0.
        -11    1    1    2    0    0 -0.14944050059E+03  0.78340626337E+02  0.45020649659E+03  0.48078644586E+03  0.00000000000E+00 0.  1.
         11    1    1    2    0    0  0.71463688981E+02  0.39667859371E+02 -0.21427320555E+03  0.22933295560E+03  0.00000000000E+00 0. -1.
        -15    1    3    3    0    0  0.70470382391E+02 -0.58148797490E+02 -0.19936988269E+03  0.21931453508E+03  0.17770000000E+01 0. -1.
         15    1    3    3    0    0  0.75064292168E+01 -0.59859688218E+02 -0.36563408350E+02  0.70566063461E+02  0.17770000000E+01 0.  1.
</event>
<event>
 7    1  0.4954109E-006  0.4146260E+03  0.7546771E-02  0.9614146E-01
        -11   -1    0    0    0    0  0.00000000000E+00  0.00000000000E+00  0.50000000000E+03  0.50000000000E+03  0.00000000000E+00 0. -1.
         11   -1    0    0    0    0 -0.00000000000E+00 -0.00000000000E+00 -0.50000000000E+03  0.50000000000E+03  0.00000000000E+00 0.  1.
         23    2    1    2    0    0  0.26884922234E+02  0.57438632821E+02  0.36120286831E+03  0.37796822055E+03  0.91490262248E+02 0.  0.
        -11    1    1    2    0    0 -0.14601592935E+03  0.14918592987E+02  0.74483062419E+02  0.16459326422E+03  0.00000000000E+00 0. -1.
         11    1    1    2    0    0  0.11913100712E+03 -0.72357225808E+02 -0.43568593073E+03  0.45743851523E+03  0.00000000000E+00 0.  1.
        -15    1    3    3    0    0 -0.14705537415E+02 -0.86757777870E+01  0.14198599088E+02  0.22277340415E+02  0.17770000000E+01 0.  1.
         15    1    3    3    0    0  0.41590459649E+02  0.66114410608E+02  0.34700426922E+03  0.35569088013E+03  0.17770000000E+01 0. -1.
</event>
<event>
 7    1  0.4954109E-006  0.5077379E+03  0.7546771E-02  0.9382660E-01
        -11   -1    0    0    0    0  0.00000000000E+00  0.00000000000E+00  0.50000000000E+03  0.50000000000E+03  0.00000000000E+00 0. -1.
         11   -1    0    0    0    0 -0.00000000000E+00 -0.00000000000E+00 -0.50000000000E+03  0.50000000000E+03  0.00000000000E+00 0.  1.
         23    2    1    2    0    0 -0.53444428896E+02 -0.15658156533E+03  0.45455016309E+03  0.49226212763E+03  0.91280107107E+02 0.  0.
        -11    1    1    2    0    0  0.51696919137E+02  0.26928463767E+02 -0.33623331201E+02  0.67292213592E+02  0.00000000000E+00 0. -1.
         11    1    1    2    0    0  0.17475097598E+01  0.12965310156E+03 -0.42092683189E+03  0.44044565878E+03  0.00000000000E+00 0.  1.
        -15    1    3    3    0    0 -0.59517845831E+02 -0.70217893480E+02  0.15337828338E+03  0.17888818317E+03  0.17770000000E+01 0. -1.
         15    1    3    3    0    0  0.60734169347E+01 -0.86363671850E+02  0.30117187970E+03  0.31337394445E+03  0.17770000000E+01 0.  1.
</event>
<event>
 7    1  0.4954109E-006  0.3687145E+03  0.7546771E-02  0.9753642E-01
        -11   -1    0    0    0    0  0.00000000000E+00  0.00000000000E+00  0.50000000000E+03  0.50000000000E+03  0.00000000000E+00 0.  1.
         11   -1    0    0    0    0 -0.00000000000E+00 -0.00000000000E+00 -0.50000000000E+03  0.50000000000E+03  0.00000000000E+00 0. -1.
         23    2    1    2    0    0  0.18746781468E+03  0.37667893053E+02  0.31630945518E+03  0.38142500352E+03  0.94182324086E+02 0.  0.
        -11    1    1    2    0    0 -0.22746308525E+03  0.36592398605E+02  0.55781202871E+02  0.23704430257E+03  0.00000000000E+00 0.  1.
         11    1    1    2    0    0  0.39995270573E+02 -0.74260291658E+02 -0.37209065805E+03  0.38153069391E+03  0.00000000000E+00 0. -1.
        -15    1    3    3    0    0  0.17006306612E+03  0.56131744619E+02  0.30476272098E+03  0.35349072553E+03  0.17770000000E+01 0.  1.
         15    1    3    3    0    0  0.17404748560E+02 -0.18463851567E+02  0.11546734201E+02  0.27934277990E+02  0.17770000000E+01 0. -1.
</event>
<event>
 7    1  0.4954109E-006  0.4203320E+03  0.7546771E-02  0.9598163E-01
        -11   -1    0    0    0    0  0.00000000000E+00  0.00000000000E+00  0.50000000000E+03  0.50000000000E+03  0.00000000000E+00 0. -1.
         11   -1    0    0    0    0 -0.00000000000E+00 -0.00000000000E+00 -0.50000000000E+03  0.50000000000E+03  0.00000000000E+00 0.  1.
         23    2    1    2    0    0 -0.66995989258E+02 -0.22475123005E+02  0.99418369150E+02  0.15053343004E+03  0.88219656005E+02 0.  0.
        -11    1    1    2    0    0  0.15022983199E+03  0.92897588471E+02  0.34729977008E+03  0.38963584878E+03  0.00000000000E+00 0. -1.
         11    1    1    2    0    0 -0.83233842732E+02 -0.70422465467E+02 -0.44671813923E+03  0.45983072117E+03  0.00000000000E+00 0.  1.
        -15    1    3    3    0    0 -0.65652890904E+02 -0.49739573444E+02  0.57457564131E+02  0.10044330070E+03  0.17770000000E+01 0.  1.
         15    1    3    3    0    0 -0.13430983540E+01  0.27264450440E+02  0.41960805019E+02  0.50090129345E+02  0.17770000000E+01 0. -1.
</event>
<event>
 7    1  0.4954109E-006  0.3833179E+03  0.7546771E-02  0.9707017E-01
        -11   -1    0    0    0    0  0.00000000000E+00  0.00000000000E+00  0.50000000000E+03  0.50000000000E+03  0.00000000000E+00 0. -1.
         11   -1    0    0    0    0 -0.00000000000E+00 -0.00000000000E+00 -0.50000000000E+03  0.50000000000E+03  0.00000000000E+00 0.  1.
         23    2    1    2    0    0 -0.67049854352E+02 -0.15297888496E+03 -0.65677246692E+02  0.21263600083E+03  0.11402782951E+03 0.  0.
        -11    1    1    2    0    0  0.87312176168E+01  0.12914382056E+03  0.41380733075E+03  0.43357913642E+03  0.00000000000E+00 0. -1.
         11    1    1    2    0    0  0.58318636735E+02  0.23835064404E+02 -0.34813008406E+03  0.35378486276E+03  0.00000000000E+00 0.  1.
        -15    1    3    3    0    0  0.30677615491E+02 -0.40367908501E+02 -0.28094897988E+01  0.50810777311E+02  0.17770000000E+01 0. -1.
         15    1    3    3    0    0 -0.97727469842E+02 -0.11261097646E+03 -0.62867756893E+02  0.16182522352E+03  0.17770000000E+01 0.  1.
</event>
<event>
 7    1  0.4954109E-006  0.5276197E+03  0.7546771E-02  0.9340045E-01
        -11   -1    0    0    0    0  0.00000000000E+00  0.00000000000E+00  0.50000000000E+03  0.50000000000E+03  0.00000000000E+00 0. -1.
         11   -1    0    0    0    0 -0.00000000000E+00 -0.00000000000E+00 -0.50000000000E+03  0.50000000000E+03  0.00000000000E+00 0.  1.
         23    2    1    2    0    0  0.77031535364E+00 -0.15200913118E+03  0.29154307461E+03  0.34204247398E+03  0.94277888735E+02 0.  0.
        -11    1    1    2    0    0  0.53636904075E+02  0.57531055313E+02  0.16808382239E+03  0.18557723770E+03  0.00000000000E+00 0. -1.
         11    1    1    2    0    0 -0.54407219429E+02  0.94478075868E+02 -0.45962689700E+03  0.47238028832E+03  0.00000000000E+00 0.  1.
        -15    1    3    3    0    0 -0.15043079217E+02 -0.80321623996E+02  0.23662799213E+03  0.25034740243E+03  0.17770000000E+01 0. -1.
         15    1    3    3    0    0  0.15813394571E+02 -0.71687507185E+02  0.54915082485E+02  0.91695071555E+02  0.17770000000E+01 0.  1.
</event>
<event>
 7    1  0.4954109E-006  0.3926904E+03  0.7546771E-02  0.9678248E-01
        -11   -1    0    0    0    0  0.00000000000E+00  0.00000000000E+00  0.50000000000E+03  0.50000000000E+03  0.00000000000E+00 0. -1.
         11   -1    0    0    0    0 -0.00000000000E+00 -0.00000000000E+00 -0.50000000000E+03  0.50000000000E+03  0.00000000000E+00 0.  1.
         23    2    1    2    0    0  0.59549329571E+02 -0.14173424830E+03 -0.83572451190E+02  0.19536218005E+03  0.86875238152E+02 0.  0.
        -11    1    1    2    0    0  0.59484820159E+02  0.84580300985E+02  0.42561320809E+03  0.43799414841E+03  0.00000000000E+00 0. -1.
         11    1    1    2    0    0 -0.11903414973E+03  0.57153947317E+02 -0.34204075690E+03  0.36664367153E+03  0.00000000000E+00 0.  1.
        -15    1    3    3    0    0 -0.49098323471E+01 -0.32779367926E+02 -0.57055492080E+02  0.66008183741E+02  0.17770000000E+01 0. -1.
         15    1    3    3    0    0  0.64459161918E+02 -0.10895488038E+03 -0.26516959109E+02  0.12935399631E+03  0.17770000000E+01 0.  1.
</event>
<event>
 7    1  0.4954109E-006  0.4383435E+03  0.7546771E-02  0.9549435E-01
        -11   -1    0    0    0    0  0.00000000000E+00  0.00000000000E+00  0.50000000000E+03  0.50000000000E+03  0.00000000000E+00 0. -1.
         11   -1    0    0    0    0 -0.00000000000E+00 -0.00000000000E+00 -0.50000000000E+03  0.50000000000E+03  0.00000000000E+00 0. -1.
         23    2    1    2    0    0 -0.45611032188E+02  0.14301926658E+03  0.37335800630E+03  0.41421765958E+03  0.98209937218E+02 0.  0.
        -11    1    1    2    0    0  0.11215555702E+03  0.13130690250E+02  0.54573041242E+02  0.12541730673E+03  0.00000000000E+00 0. -1.
         11    1    1    2    0    0 -0.66544524827E+02 -0.15614995683E+03 -0.42793104754E+03  0.46036503370E+03  0.00000000000E+00 0. -1.
        -15    1    3    3    0    0 -0.49683385996E+02  0.11395124522E+03  0.36189881360E+03  0.38265811653E+03  0.17770000000E+01 0. -1.
         15    1    3    3    0    0  0.40723538079E+01  0.29068021355E+02  0.11459192698E+02  0.31559543047E+02  0.17770000000E+01 0.  1.
</event>
<event>
 7    1  0.4954109E-006  0.3553151E+03  0.7546771E-02  0.9798504E-01
        -11   -1    0    0    0    0  0.00000000000E+00  0.00000000000E+00  0.50000000000E+03  0.50000000000E+03  0.00000000000E+00 0. -1.
         11   -1    0    0    0    0 -0.00000000000E+00 -0.00000000000E+00 -0.50000000000E+03  0.50000000000E+03  0.00000000000E+00 0. -1.
         23    2    1    2    0    0 -0.88237312436E+02 -0.66467084155E+02 -0.20556284821E+03  0.25203262891E+03  0.95187524857E+02 0.  0.
        -11    1    1    2    0    0 -0.14720210753E+03  0.11613540431E+02  0.40721459834E+03  0.43315939778E+03  0.00000000000E+00 0. -1.
         11    1    1    2    0    0  0.23543941996E+03  0.54853543725E+02 -0.20165175013E+03  0.31480797332E+03  0.00000000000E+00 0. -1.
        -15    1    3    3    0    0 -0.34767910319E+02  0.21016425869E+02 -0.81451360961E+02  0.91038341789E+02  0.17770000000E+01 0.  1.
         15    1    3    3    0    0 -0.53469402117E+02 -0.87483510025E+02 -0.12411148724E+03  0.16099428712E+03  0.17770000000E+01 0. -1.
</event>
<event>
 7    1  0.4954109E-006  0.5316141E+03  0.7546771E-02  0.9331723E-01
        -11   -1    0    0    0    0  0.00000000000E+00  0.00000000000E+00  0.50000000000E+03  0.50000000000E+03  0.00000000000E+00 0. -1.
         11   -1    0    0    0    0 -0.00000000000E+00 -0.00000000000E+00 -0.50000000000E+03  0.50000000000E+03  0.00000000000E+00 0.  1.
         23    2    1    2    0    0 -0.42334766694E+02 -0.52646851925E+02 -0.18492329033E+03  0.21928638585E+03  0.96571073435E+02 0.  0.
        -11    1    1    2    0    0  0.11288556600E+03 -0.11254864848E+03  0.44042596186E+03  0.46838592759E+03  0.00000000000E+00 0. -1.
         11    1    1    2    0    0 -0.70550799303E+02  0.16519550041E+03 -0.25550267152E+03  0.31232768656E+03  0.00000000000E+00 0.  1.
        -15    1    3    3    0    0 -0.24958448089E+02  0.20768542858E+02 -0.20682386659E+02  0.38537972836E+02  0.17770000000E+01 0.  1.
         15    1    3    3    0    0 -0.17376318606E+02 -0.73415394783E+02 -0.16424090367E+03  0.18074841302E+03  0.17770000000E+01 0. -1.
</event>
<event>
 7    1  0.6500408E-006  0.5231494E+03  0.7546771E-02  0.9349451E-01
        -11   -1    0    0    0    0  0.00000000000E+00  0.00000000000E+00  0.50000000000E+03  0.50000000000E+03  0.00000000000E+00 0. -1.
         11   -1    0    0    0    0 -0.00000000000E+00 -0.00000000000E+00 -0.50000000000E+03  0.50000000000E+03  0.00000000000E+00 0. -1.
         23    2    1    2    0    0 -0.14352775052E+03  0.69194063188E+02 -0.26131234482E+03  0.32410381478E+03  0.10663539586E+03 0.  0.
        -11    1    1    2    0    0  0.11125743794E+03 -0.74595248059E+02  0.45765032404E+03  0.47685059256E+03  0.00000000000E+00 0. -1.
         11    1    1    2    0    0  0.32270312579E+02  0.54011848708E+01 -0.19633797922E+03  0.19904559265E+03  0.00000000000E+00 0. -1.
        -15    1    3    3    0    0  0.42450438953E+01  0.28128294518E+02 -0.88810942327E+02  0.93272517690E+02  0.17770000000E+01 0.  1.
         15    1    3    3    0    0 -0.14777279442E+03  0.41065768670E+02 -0.17250140250E+03  0.23083129709E+03  0.17770000000E+01 0. -1.
</event>
<event>
 7    1  0.4954109E-006  0.5221271E+03  0.7546771E-02  0.9351616E-01
        -11   -1    0    0    0    0  0.00000000000E+00  0.00000000000E+00  0.50000000000E+03  0.50000000000E+03  0.00000000000E+00 0. -1.
         11   -1    0    0    0    0 -0.00000000000E+00 -0.00000000000E+00 -0.50000000000E+03  0.50000000000E+03  0.00000000000E+00 0. -1.
         23    2    1    2    0    0 -0.35671630821E+02  0.11461607300E+03  0.35057983097E+03  0.38052189620E+03  0.86495006585E+02 0.  0.
        -11    1    1    2    0    0 -0.59021656625E+02 -0.58837696779E+02  0.11448408986E+03  0.14160521652E+03  0.00000000000E+00 0. -1.
         11    1    1    2    0    0  0.94693287446E+02 -0.55778376218E+02 -0.46506392084E+03  0.47787288729E+03  0.00000000000E+00 0. -1.
        -15    1    3    3    0    0  0.17060731171E+02  0.30770713139E+02  0.17867897412E+03  0.18211874933E+03  0.17770000000E+01 0.  1.
         15    1    3    3    0    0 -0.52732361993E+02  0.83845359857E+02  0.17190085685E+03  0.19840314687E+03  0.17770000000E+01 0. -1.
</event>
<event>
 7    1  0.4954109E-006  0.5340042E+03  0.7546771E-02  0.9326781E-01
        -11   -1    0    0    0    0  0.00000000000E+00  0.00000000000E+00  0.50000000000E+03  0.50000000000E+03  0.00000000000E+00 0.  1.
         11   -1    0    0    0    0 -0.00000000000E+00 -0.00000000000E+00 -0.50000000000E+03  0.50000000000E+03  0.00000000000E+00 0. -1.
         23    2    1    2    0    0  0.85861137045E+02 -0.23347010748E+02 -0.32473306164E+02  0.13155057456E+03  0.91289760047E+02 0.  0.
        -11    1    1    2    0    0 -0.19074062428E+03  0.96556238443E+02  0.41406158852E+03  0.46599580687E+03  0.00000000000E+00 0.  1.
         11    1    1    2    0    0  0.10487948724E+03 -0.73209227695E+02 -0.38158828236E+03  0.40245361856E+03  0.00000000000E+00 0. -1.
        -15    1    3    3    0    0  0.75307889369E+02 -0.21758450562E+02  0.17568597862E+02  0.80352484292E+02  0.17770000000E+01 0.  1.
         15    1    3    3    0    0  0.10553247676E+02 -0.15885601858E+01 -0.50041904026E+02  0.51198090272E+02  0.17770000000E+01 0. -1.
</event>
<event>
 7    1  0.4954109E-006  0.4242968E+03  0.7546771E-02  0.9587216E-01
        -11   -1    0    0    0    0  0.00000000000E+00  0.00000000000E+00  0.50000000000E+03  0.50000000000E+03  0.00000000000E+00 0.  1.
         11   -1    0    0    0    0 -0.00000000000E+00 -0.00000000000E+00 -0.50000000000E+03  0.50000000000E+03  0.00000000000E+00 0. -1.
         23    2    1    2    0    0 -0.32274827923E+02 -0.18849507691E+03  0.33296487687E+03  0.39485523911E+03  0.92048857058E+02 0.  0.
        -11    1    1    2    0    0  0.95122293062E+02  0.55728861952E+02  0.99443034803E+02  0.14846842716E+03  0.00000000000E+00 0.  1.
         11    1    1    2    0    0 -0.62847465139E+02  0.13276621496E+03 -0.43240791168E+03  0.45667633373E+03  0.00000000000E+00 0. -1.
        -15    1    3    3    0    0  0.16108058683E+02 -0.71221489917E+02  0.62584588362E+02  0.96187102097E+02  0.17770000000E+01 0. -1.
         15    1    3    3    0    0 -0.48382886606E+02 -0.11727358699E+03  0.27038028851E+03  0.29866813701E+03  0.17770000000E+01 0.  1.
</event>
<event>
 7    1  0.4954109E-006  0.5355379E+03  0.7546771E-02  0.9323624E-01
        -11   -1    0    0    0    0  0.00000000000E+00  0.00000000000E+00  0.50000000000E+03  0.50000000000E+03  0.00000000000E+00 0.  1.
         11   -1    0    0    0    0 -0.00000000000E+00 -0.00000000000E+00 -0.50000000000E+03  0.50000000000E+03  0.00000000000E+00 0. -1.
         23    2    1    2    0    0  0.28774581165E+02 -0.33564668527E+02  0.29240898791E+03  0.30949660194E+03  0.91271939325E+02 0.  0.
        -11    1    1    2    0    0 -0.51384124130E+02  0.15633638872E+03  0.15496217129E+03  0.22604129973E+03  0.00000000000E+00 0.  1.
         11    1    1    2    0    0  0.22609542964E+02 -0.12277172020E+03 -0.44737115919E+03  0.46446209834E+03  0.00000000000E+00 0. -1.
        -15    1    3    3    0    0  0.46106552950E+02 -0.55995222133E+02  0.22278247150E+03  0.23429994977E+03  0.17770000000E+01 0. -1.
         15    1    3    3    0    0 -0.17331971784E+02  0.22430553606E+02  0.69626516407E+02  0.75196652166E+02  0.17770000000E+01 0.  1.
</event>
<event>
 7    1  0.4954109E-006  0.5392855E+03  0.7546771E-02  0.9315957E-01
        -11   -1    0    0    0    0  0.00000000000E+00  0.00000000000E+00  0.50000000000E+03  0.50000000000E+03  0.00000000000E+00 0.  1.
         11   -1    0    0    0    0 -0.00000000000E+00 -0.00000000000E+00 -0.50000000000E+03  0.50000000000E+03  0.00000000000E+00 0. -1.
         23    2    1    2    0    0 -0.52249775599E+02  0.28908516913E+02  0.25531549901E+03  0.27803856592E+03  0.92486208175E+02 0.  0.
        -11    1    1    2    0    0  0.16711451502E+03  0.10788330476E+03  0.16936315824E+03  0.26124690993E+03  0.00000000000E+00 0.  1.
         11    1    1    2    0    0 -0.11486473942E+03 -0.13679182168E+03 -0.42467865725E+03  0.46071452415E+03  0.00000000000E+00 0. -1.
        -15    1    3    3    0    0  0.13725960888E+02 -0.21604081860E+02  0.80140534975E+02  0.84147498064E+02  0.17770000000E+01 0.  1.
         15    1    3    3    0    0 -0.65975736487E+02  0.50512598774E+02  0.17517496404E+03  0.19389106786E+03  0.17770000000E+01 0. -1.
</event>
<event>
 7    1  0.4954109E-006  0.4376947E+03  0.7546771E-02  0.9551147E-01
        -11   -1    0    0    0    0  0.00000000000E+00  0.00000000000E+00  0.50000000000E+03  0.50000000000E+03  0.00000000000E+00 0.  1.
         11   -1    0    0    0    0 -0.00000000000E+00 -0.00000000000E+00 -0.50000000000E+03  0.50000000000E+03  0.00000000000E+00 0.  1.
         23    2    1    2    0    0 -0.41926900317E+02  0.41880445529E+01  0.40421471363E+03  0.41675451910E+03  0.92300540539E+02 0.  0.
        -11    1    1    2    0    0  0.72404654064E+02  0.93365537475E+02  0.42062672947E+02  0.12541461627E+03  0.00000000000E+00 0.  1.
         11    1    1    2    0    0 -0.30477753747E+02 -0.97553582028E+02 -0.44627738658E+03  0.45783086463E+03  0.00000000000E+00 0.  1.
        -15    1    3    3    0    0  0.13841630834E+02 -0.31774360187E+02  0.12218496303E+03  0.12701780831E+03  0.17770000000E+01 0. -1.
         15    1    3    3    0    0 -0.55768531151E+02  0.35962404740E+02  0.28202975060E+03  0.28973671078E+03  0.17770000000E+01 0.  1.
</event>
<event>
 7    1  0.4954109E-006  0.5163004E+03  0.7546771E-02  0.9364057E-01
        -11   -1    0    0    0    0  0.00000000000E+00  0.00000000000E+00  0.50000000000E+03  0.50000000000E+03  0.00000000000E+00 0.  1.
         11   -1    0    0    0    0 -0.00000000000E+00 -0.00000000000E+00 -0.50000000000E+03  0.50000000000E+03  0.00000000000E+00 0. -1.
         23    2    1    2    0    0  0.11578939501E+03 -0.10503072490E+03  0.26970847463E+03  0.32283540868E+03  0.83913065994E+02 0.  0.
        -11    1    1    2    0    0  0.12652169759E+03  0.32784587831E+02  0.14263985620E+03  0.19346497807E+03  0.00000000000E+00 0.  1.
         11    1    1    2    0    0 -0.24231109260E+03  0.72246137071E+02 -0.41234833083E+03  0.48369961325E+03  0.00000000000E+00 0. -1.
        -15    1    3    3    0    0  0.21570582904E+02 -0.17511127860E+02  0.46531007060E+01  0.28226560557E+02  0.17770000000E+01 0. -1.
         15    1    3    3    0    0  0.94218812101E+02 -0.87519597042E+02  0.26505537392E+03  0.29460884812E+03  0.17770000000E+01 0.  1.
</event>
<event>
 7    1  0.4954109E-006  0.3585246E+03  0.7546771E-02  0.9787568E-01
        -11   -1    0    0    0    0  0.00000000000E+00  0.00000000000E+00  0.50000000000E+03  0.50000000000E+03  0.00000000000E+00 0.  1.
         11   -1    0    0    0    0 -0.00000000000E+00 -0.00000000000E+00 -0.50000000000E+03  0.50000000000E+03  0.00000000000E+00 0. -1.
         23    2    1    2    0    0 -0.12913250511E+03  0.70969913035E+02  0.17601230278E+03  0.24710447148E+03  0.91478722442E+02 0.  0.
        -11    1    1    2    0    0  0.20371888430E+03 -0.58584899739E+02  0.24567490209E+03  0.32448379284E+03  0.00000000000E+00 0.  1.
         11    1    1    2    0    0 -0.74586379190E+02 -0.12385013296E+02 -0.42168720487E+03  0.42841173568E+03  0.00000000000E+00 0. -1.
        -15    1    3    3    0    0 -0.11784449024E+03  0.78067096197E+02  0.10833987371E+03  0.17810806089E+03  0.17770000000E+01 0. -1.
         15    1    3    3    0    0 -0.11288014872E+02 -0.70971831625E+01  0.67672429069E+02  0.68996410586E+02  0.17770000000E+01 0.  1.
</event>
<event>
 7    1  0.4954109E-006  0.5130353E+03  0.7546771E-02  0.9371105E-01
        -11   -1    0    0    0    0  0.00000000000E+00  0.00000000000E+00  0.50000000000E+03  0.50000000000E+03  0.00000000000E+00 0.  1.
         11   -1    0    0    0    0 -0.00000000000E+00 -0.00000000000E+00 -0.50000000000E+03  0.50000000000E+03  0.00000000000E+00 0.  1.
         23    2    1    2    0    0 -0.93338826005E+01 -0.37375741059E+02  0.15121162112E+03  0.18032444618E+03  0.90376347253E+02 0.  0.
        -11    1    1    2    0    0  0.36597214006E+02 -0.56969007234E+02  0.32574790250E+03  0.33271086522E+03  0.00000000000E+00 0.  1.
         11    1    1    2    0    0 -0.27263331405E+02  0.94344748293E+02 -0.47695952362E+03  0.48696468860E+03  0.00000000000E+00 0.  1.
        -15    1    3    3    0    0 -0.33284685923E+02 -0.11313230906E+02  0.13813314021E+03  0.14254747161E+03  0.17770000000E+01 0.  1.
         15    1    3    3    0    0  0.23950803322E+02 -0.26062510153E+02  0.13078480915E+02  0.37776974565E+02  0.17770000000E+01 0. -1.
</event>
<event>
 7    1  0.4954109E-006  0.5184118E+03  0.7546771E-02  0.9359529E-01
        -11   -1    0    0    0    0  0.00000000000E+00  0.00000000000E+00  0.50000000000E+03  0.50000000000E+03  0.00000000000E+00 0.  1.
         11   -1    0    0    0    0 -0.00000000000E+00 -0.00000000000E+00 -0.50000000000E+03  0.50000000000E+03  0.00000000000E+00 0. -1.
         23    2    1    2    0    0 -0.74104206236E+02 -0.96017828365E+02  0.39324624588E+03  0.42129534627E+03  0.90201453129E+02 0.  0.
        -11    1    1    2    0    0  0.13946496997E+02 -0.81968366859E+02  0.50182592111E+02  0.97116479009E+02  0.00000000000E+00 0.  1.
         11    1    1    2    0    0  0.60157709238E+02  0.17798619522E+03 -0.44342883799E+03  0.48158817472E+03  0.00000000000E+00 0. -1.
        -15    1    3    3    0    0 -0.31194568746E+02 -0.14090425050E+02  0.27241274774E+02  0.43782256425E+02  0.17770000000E+01 0. -1.
         15    1    3    3    0    0 -0.42909637490E+02 -0.81927403314E+02  0.36600497110E+03  0.37751308985E+03  0.17770000000E+01 0.  1.
</event>
<event>
 7    1  0.4954109E-006  0.5239105E+03  0.7546771E-02  0.9347842E-01
        -11   -1    0    0    0    0  0.00000000000E+00  0.00000000000E+00  0.50000000000E+03  0.50000000000E+03  0.00000000000E+00 0. -1.
         11   -1    0    0    0    0 -0.00000000000E+00 -0.00000000000E+00 -0.50000000000E+03  0.50000000000E+03  0.00000000000E+00 0.  1.
         23    2    1    2    0    0  0.41486976756E+02  0.10271155287E+02 -0.60638915290E+02  0.11768723787E+03  0.91359411327E+02 0.  0.
        -11    1    1    2    0    0 -0.13797610984E+03 -0.25561650450E+02  0.45494002829E+03  0.47608952331E+03  0.00000000000E+00 0. -1.
         11    1    1    2    0    0  0.96489133088E+02  0.15290495163E+02 -0.39430111300E+03  0.40622323882E+03  0.00000000000E+00 0.  1.
        -15    1    3    3    0    0  0.69994898407E+02  0.41397569848E+01 -0.51705150146E+02  0.87137842936E+02  0.17770000000E+01 0. -1.
         15    1    3    3    0    0 -0.28507921651E+02  0.61313983022E+01 -0.89337651439E+01  0.30549394931E+02  0.17770000000E+01 0.  1.
</event>
<event>
 7    1  0.4954109E-006  0.4192882E+03  0.7546771E-02  0.9601067E-01
        -11   -1    0    0    0    0  0.00000000000E+00  0.00000000000E+00  0.50000000000E+03  0.50000000000E+03  0.00000000000E+00 0.  1.
         11   -1    0    0    0    0 -0.00000000000E+00 -0.00000000000E+00 -0.50000000000E+03  0.50000000000E+03  0.00000000000E+00 0. -1.
         23    2    1    2    0    0 -0.10944057879E+02  0.10595977917E+03  0.56317967925E+02  0.15281097673E+03  0.93979965383E+02 0.  0.
        -11    1    1    2    0    0 -0.40220422622E+02 -0.52390461555E+02  0.38960048736E+03  0.39515943948E+03  0.00000000000E+00 0.  1.
         11    1    1    2    0    0  0.51164480501E+02 -0.53569317616E+02 -0.44591845529E+03  0.45202958379E+03  0.00000000000E+00 0. -1.
        -15    1    3    3    0    0 -0.67637064666E+01  0.65416914581E+02  0.81598214237E+02  0.10481672927E+03  0.17770000000E+01 0.  1.
         15    1    3    3    0    0 -0.41803514127E+01  0.40542864590E+02 -0.25280246312E+02  0.47994247464E+02  0.17770000000E+01 0. -1.
</event>
<event>
 7    1  0.4954109E-006  0.4688019E+03  0.7546771E-02  0.9472458E-01
        -11   -1    0    0    0    0  0.00000000000E+00  0.00000000000E+00  0.50000000000E+03  0.50000000000E+03  0.00000000000E+00 0.  1.
         11   -1    0    0    0    0 -0.00000000000E+00 -0.00000000000E+00 -0.50000000000E+03  0.50000000000E+03  0.00000000000E+00 0. -1.
         23    2    1    2    0    0  0.16574474868E+03  0.16705500007E+03 -0.36388024184E+03  0.44305946451E+03  0.92272227283E+02 0.  0.
        -11    1    1    2    0    0 -0.21078676492E+03 -0.15057494549E+03  0.41349297722E+03  0.48793474633E+03  0.00000000000E+00 0.  1.
         11    1    1    2    0    0  0.45042016239E+02 -0.16480054577E+02 -0.49612735374E+02  0.69005789156E+02  0.00000000000E+00 0. -1.
        -15    1    3    3    0    0  0.72887022417E+02  0.19120643625E+02 -0.14106601851E+03  0.15994028998E+03  0.17770000000E+01 0.  1.
         15    1    3    3    0    0  0.92857726258E+02  0.14793435644E+03 -0.22281422333E+03  0.28311917453E+03  0.17770000000E+01 0. -1.
</event>
<event>
 7    1  0.4954109E-006  0.4898210E+03  0.7546771E-02  0.9422878E-01
        -11   -1    0    0    0    0  0.00000000000E+00  0.00000000000E+00  0.50000000000E+03  0.50000000000E+03  0.00000000000E+00 0.  1.
         11   -1    0    0    0    0 -0.00000000000E+00 -0.00000000000E+00 -0.50000000000E+03  0.50000000000E+03  0.00000000000E+00 0.  1.
         23    2    1    2    0    0  0.10293614128E+03  0.53494979064E+02 -0.45050824488E+03  0.47684118241E+03  0.10470087186E+03 0.  0.
        -11    1    1    2    0    0 -0.96613396829E+02 -0.67444151410E+02  0.47766431312E+03  0.49198176596E+03  0.00000000000E+00 0.  1.
         11    1    1    2    0    0 -0.63227444515E+01  0.13949172346E+02 -0.27156068236E+02  0.31177051634E+02  0.00000000000E+00 0.  1.
        -15    1    3    3    0    0  0.61027299289E+02  0.60075847748E+02 -0.40750144713E+03  0.41640608291E+03  0.17770000000E+01 0.  1.
         15    1    3    3    0    0  0.41908841991E+02 -0.65808686844E+01 -0.43006797751E+02  0.60435099499E+02  0.17770000000E+01 0. -1.
</event>
<event>
 7    1  0.4954109E-006  0.4083953E+03  0.7546771E-02  0.9631915E-01
        -11   -1    0    0    0    0  0.00000000000E+00  0.00000000000E+00  0.50000000000E+03  0.50000000000E+03  0.00000000000E+00 0.  1.
         11   -1    0    0    0    0 -0.00000000000E+00 -0.00000000000E+00 -0.50000000000E+03  0.50000000000E+03  0.00000000000E+00 0.  1.
         23    2    1    2    0    0  0.26392254207E+02  0.90605416424E+02  0.42697650399E+03  0.44691140134E+03  0.92276611996E+02 0.  0.
        -11    1    1    2    0    0 -0.12635681206E+02 -0.16512337287E+03 -0.56556613926E+02  0.17499725508E+03  0.00000000000E+00 0.  1.
         11    1    1    2    0    0 -0.13756573001E+02  0.74517956443E+02 -0.37041989007E+03  0.37809134358E+03  0.00000000000E+00 0.  1.
        -15    1    3    3    0    0  0.60977276812E+02  0.52627147129E+02  0.25645615971E+03  0.26881362407E+03  0.17770000000E+01 0.  1.
         15    1    3    3    0    0 -0.34585022605E+02  0.37978269295E+02  0.17052034428E+03  0.17809777727E+03  0.17770000000E+01 0. -1.
</event>
<event>
 7    1  0.4954109E-006  0.3681834E+03  0.7546771E-02  0.9755381E-01
        -11   -1    0    0    0    0  0.00000000000E+00  0.00000000000E+00  0.50000000000E+03  0.50000000000E+03  0.00000000000E+00 0.  1.
         11   -1    0    0    0    0 -0.00000000000E+00 -0.00000000000E+00 -0.50000000000E+03  0.50000000000E+03  0.00000000000E+00 0.  1.
         23    2    1    2    0    0  0.14506124350E+03  0.91182644233E+02 -0.10662457643E+03  0.23648067390E+03  0.12327720736E+03 0.  0.
        -11    1    1    2    0    0 -0.94527274697E+02  0.61526366635E+02  0.40724250872E+03  0.42257231377E+03  0.00000000000E+00 0.  1.
         11    1    1    2    0    0 -0.50533968799E+02 -0.15270901087E+03 -0.30061793230E+03  0.34094701234E+03  0.00000000000E+00 0.  1.
        -15    1    3    3    0    0  0.72140232544E+02  0.25622402253E+02  0.17236864788E+02  0.78491960642E+02  0.17770000000E+01 0. -1.
         15    1    3    3    0    0  0.72921010952E+02  0.65560241979E+02 -0.12386144121E+03  0.15798871325E+03  0.17770000000E+01 0.  1.
</event>
<event>
 7    1  0.4954109E-006  0.3665346E+03  0.7546771E-02  0.9760800E-01
        -11   -1    0    0    0    0  0.00000000000E+00  0.00000000000E+00  0.50000000000E+03  0.50000000000E+03  0.00000000000E+00 0.  1.
         11   -1    0    0    0    0 -0.00000000000E+00 -0.00000000000E+00 -0.50000000000E+03  0.50000000000E+03  0.00000000000E+00 0. -1.
         23    2    1    2    0    0 -0.20284522231E+03  0.14381426196E+02 -0.81833404355E+02  0.23485943127E+03  0.84316289982E+02 0.  0.
        -11    1    1    2    0    0  0.12428191505E+03 -0.59251401602E+02  0.40593440701E+03  0.42864841746E+03  0.00000000000E+00 0.  1.
         11    1    1    2    0    0  0.78563307262E+02  0.44869975406E+02 -0.32410100265E+03  0.33649215126E+03  0.00000000000E+00 0. -1.
        -15    1    3    3    0    0 -0.10227695837E+03  0.34280905588E+02 -0.73616615031E+01  0.10813467756E+03  0.17770000000E+01 0. -1.
         15    1    3    3    0    0 -0.10056826394E+03 -0.19899479391E+02 -0.74471742852E+02  0.12672475371E+03  0.17770000000E+01 0.  1.
</event>
<event>
 7    1  0.4954109E-006  0.5402437E+03  0.7546771E-02  0.9314007E-01
        -11   -1    0    0    0    0  0.00000000000E+00  0.00000000000E+00  0.50000000000E+03  0.50000000000E+03  0.00000000000E+00 0.  1.
         11   -1    0    0    0    0 -0.00000000000E+00 -0.00000000000E+00 -0.50000000000E+03  0.50000000000E+03  0.00000000000E+00 0. -1.
         23    2    1    2    0    0  0.59686999489E+02 -0.98377236336E+02  0.27660563311E+03  0.31312914160E+03  0.91096457214E+02 0.  0.
        -11    1    1    2    0    0 -0.14833397828E+03  0.30103744534E+02  0.16932748206E+03  0.22711451017E+03  0.00000000000E+00 0.  1.
         11    1    1    2    0    0  0.88646978795E+02  0.68273491802E+02 -0.44593311517E+03  0.45975634823E+03  0.00000000000E+00 0. -1.
        -15    1    3    3    0    0  0.20696740433E+02 -0.52720736482E+02  0.23062466895E+03  0.23748416111E+03  0.17770000000E+01 0.  1.
         15    1    3    3    0    0  0.38990259056E+02 -0.45656499854E+02  0.45980964157E+02  0.75644980495E+02  0.17770000000E+01 0. -1.
</event>
<event>
 6    1  0.4954109E-006  0.5292301E+03  0.7546771E-02  0.9336680E-01
        -11   -1    0    0    0    0  0.00000000000E+00  0.00000000000E+00  0.50000000000E+03  0.50000000000E+03  0.00000000000E+00 0.  1.
         11   -1    0    0    0    0 -0.00000000000E+00 -0.00000000000E+00 -0.50000000000E+03  0.50000000000E+03  0.00000000000E+00 0. -1.
        -11    1    1    2    0    0  0.14041887868E+02  0.16292696699E+03  0.24764415140E+03  0.29676589580E+03  0.00000000000E+00 0.  1.
         11    1    1    2    0    0 -0.27943130707E+02 -0.17445935178E+03 -0.43635701712E+03  0.47076993358E+03  0.00000000000E+00 0. -1.
        -15    1    1    2    0    0 -0.59310426298E+02  0.22967719248E+01  0.62210960580E+02  0.86002111452E+02  0.17770000000E+01 0.  1.
         15    1    1    2    0    0  0.73211669137E+02  0.92356128662E+01  0.12650190514E+03  0.14646205917E+03  0.17770000000E+01 0. -1.
</event>
<event>
 7    1  0.4954109E-006  0.5298532E+03  0.7546771E-02  0.9335382E-01
        -11   -1    0    0    0    0  0.00000000000E+00  0.00000000000E+00  0.50000000000E+03  0.50000000000E+03  0.00000000000E+00 0.  1.
         11   -1    0    0    0    0 -0.00000000000E+00 -0.00000000000E+00 -0.50000000000E+03  0.50000000000E+03  0.00000000000E+00 0.  1.
         23    2    1    2    0    0  0.52179263572E+01  0.21385412568E+02  0.54497556517E+02  0.11122603712E+03  0.94428200449E+02 0.  0.
        -11    1    1    2    0    0 -0.84757601731E+02 -0.31201745664E+02  0.40876807804E+03  0.41862721078E+03  0.00000000000E+00 0.  1.
         11    1    1    2    0    0  0.79539675374E+02  0.98163330962E+01 -0.46326563455E+03  0.47014675210E+03  0.00000000000E+00 0.  1.
        -15    1    3    3    0    0  0.33982143064E+02  0.40971900555E+02  0.91551901635E+01  0.54041261257E+02  0.17770000000E+01 0. -1.
         15    1    3    3    0    0 -0.28764216707E+02 -0.19586487987E+02  0.45342366354E+02  0.57184775859E+02  0.17770000000E+01 0.  1.
</event>
<event>
 7    1  0.4954109E-006  0.4334522E+03  0.7546771E-02  0.9562417E-01
        -11   -1    0    0    0    0  0.00000000000E+00  0.00000000000E+00  0.50000000000E+03  0.50000000000E+03  0.00000000000E+00 0. -1.
         11   -1    0    0    0    0 -0.00000000000E+00 -0.00000000000E+00 -0.50000000000E+03  0.50000000000E+03  0.00000000000E+00 0.  1.
         23    2    1    2    0    0  0.26245925034E+03 -0.15493084489E+03 -0.24225290217E+03  0.40000831843E+03  0.91824623151E+02 0.  0.
        -11    1    1    2    0    0 -0.24525393423E+03  0.13854461753E+03  0.37282724687E+03  0.46727321698E+03  0.00000000000E+00 0. -1.
         11    1    1    2    0    0 -0.17205316104E+02  0.16386227357E+02 -0.13057434470E+03  0.13271846459E+03  0.00000000000E+00 0.  1.
        -15    1    3    3    0    0  0.21075887421E+03 -0.16057318849E+03 -0.18836563087E+03  0.32509663262E+03  0.17770000000E+01 0.  1.
         15    1    3    3    0    0  0.51700376131E+02  0.56423436037E+01 -0.53887271299E+02  0.74911685807E+02  0.17770000000E+01 0. -1.
</event>
<event>
 7    1  0.4954109E-006  0.5140751E+03  0.7546771E-02  0.9368855E-01
        -11   -1    0    0    0    0  0.00000000000E+00  0.00000000000E+00  0.50000000000E+03  0.50000000000E+03  0.00000000000E+00 0.  1.
         11   -1    0    0    0    0 -0.00000000000E+00 -0.00000000000E+00 -0.50000000000E+03  0.50000000000E+03  0.00000000000E+00 0. -1.
         23    2    1    2    0    0 -0.11776998608E+02  0.26959567897E+02 -0.13882162472E+03  0.16783648878E+03  0.89622137211E+02 0.  0.
        -11    1    1    2    0    0  0.21443886300E+02 -0.16010651476E+03  0.45828931144E+03  0.48592492147E+03  0.00000000000E+00 0.  1.
         11    1    1    2    0    0 -0.96668876913E+01  0.13314694686E+03 -0.31946768671E+03  0.34623858975E+03  0.00000000000E+00 0. -1.
        -15    1    3    3    0    0 -0.47845031791E+02  0.31419855915E+02 -0.94432447580E+02  0.11044002580E+03  0.17770000000E+01 0. -1.
         15    1    3    3    0    0  0.36068033182E+02 -0.44602880174E+01 -0.44389177144E+02  0.57396462986E+02  0.17770000000E+01 0.  1.
</event>
<event>
 7    1  0.4954109E-006  0.5219669E+03  0.7546771E-02  0.9351956E-01
        -11   -1    0    0    0    0  0.00000000000E+00  0.00000000000E+00  0.50000000000E+03  0.50000000000E+03  0.00000000000E+00 0. -1.
         11   -1    0    0    0    0 -0.00000000000E+00 -0.00000000000E+00 -0.50000000000E+03  0.50000000000E+03  0.00000000000E+00 0.  1.
         23    2    1    2    0    0 -0.12637188406E+03  0.15930982882E+03 -0.27734444486E+03  0.35600667104E+03  0.92039850540E+02 0.  0.
        -11    1    1    2    0    0  0.65594760321E+02 -0.21949570602E+03  0.41956473861E+03  0.47803306102E+03  0.00000000000E+00 0. -1.
         11    1    1    2    0    0  0.60777123739E+02  0.60185877199E+02 -0.14222029375E+03  0.16596026795E+03  0.00000000000E+00 0.  1.
        -15    1    3    3    0    0 -0.93071234873E+02  0.11906139276E+03 -0.12892412704E+03  0.19865160022E+03  0.17770000000E+01 0. -1.
         15    1    3    3    0    0 -0.33300649188E+02  0.40248436056E+02 -0.14842031782E+03  0.15735507081E+03  0.17770000000E+01 0.  1.
</event>
<event>
 7    1  0.4954109E-006  0.4911273E+03  0.7546771E-02  0.9419885E-01
        -11   -1    0    0    0    0  0.00000000000E+00  0.00000000000E+00  0.50000000000E+03  0.50000000000E+03  0.00000000000E+00 0.  1.
         11   -1    0    0    0    0 -0.00000000000E+00 -0.00000000000E+00 -0.50000000000E+03  0.50000000000E+03  0.00000000000E+00 0. -1.
         23    2    1    2    0    0 -0.10675821856E+02 -0.13831873265E+03  0.46407548273E+03  0.49305083029E+03  0.92125037874E+02 0.  0.
        -11    1    1    2    0    0 -0.10976716315E+02  0.23575252025E+02  0.23670300944E+01  0.26112901803E+02  0.00000000000E+00 0.  1.
         11    1    1    2    0    0  0.21652538171E+02  0.11474348063E+03 -0.46644251283E+03  0.48083626790E+03  0.00000000000E+00 0. -1.
        -15    1    3    3    0    0 -0.21901778726E+02 -0.83728614182E+02  0.39451227124E+03  0.40389758434E+03  0.17770000000E+01 0.  1.
         15    1    3    3    0    0  0.11225956870E+02 -0.54590118472E+02  0.69563211492E+02  0.89153245956E+02  0.17770000000E+01 0. -1.
</event>
<event>
 7    1  0.4954109E-006  0.5103222E+03  0.7546771E-02  0.9377005E-01
        -11   -1    0    0    0    0  0.00000000000E+00  0.00000000000E+00  0.50000000000E+03  0.50000000000E+03  0.00000000000E+00 0.  1.
         11   -1    0    0    0    0 -0.00000000000E+00 -0.00000000000E+00 -0.50000000000E+03  0.50000000000E+03  0.00000000000E+00 0.  1.
         23    2    1    2    0    0  0.65465053640E+02  0.41090787076E+02  0.22312643273E+03  0.25262949180E+03  0.89789359686E+02 0.  0.
        -11    1    1    2    0    0  0.53962840781E+02 -0.19094507443E+02  0.25125473514E+03  0.25769270523E+03  0.00000000000E+00 0.  1.
         11    1    1    2    0    0 -0.11942789442E+03 -0.21996279632E+02 -0.47438116787E+03  0.48967780297E+03  0.00000000000E+00 0.  1.
        -15    1    3    3    0    0 -0.17360586186E+02  0.17212961100E+02  0.95605470689E+02  0.98697719007E+02  0.17770000000E+01 0. -1.
         15    1    3    3    0    0  0.82825639826E+02  0.23877825975E+02  0.12752096205E+03  0.15393177280E+03  0.17770000000E+01 0.  1.
</event>
<event>
 7    1  0.4954109E-006  0.4944292E+03  0.7546771E-02  0.9412362E-01
        -11   -1    0    0    0    0  0.00000000000E+00  0.00000000000E+00  0.50000000000E+03  0.50000000000E+03  0.00000000000E+00 0. -1.
         11   -1    0    0    0    0 -0.00000000000E+00 -0.00000000000E+00 -0.50000000000E+03  0.50000000000E+03  0.00000000000E+00 0.  1.
         23    2    1    2    0    0 -0.69153664055E+02  0.68083826360E+02  0.47797636030E+03  0.49604130844E+03  0.90431974485E+02 0.  0.
        -11    1    1    2    0    0  0.12460269903E+02  0.14248349293E+02 -0.37308837520E+01  0.19292311349E+02  0.00000000000E+00 0. -1.
         11    1    1    2    0    0  0.56693394152E+02 -0.82332175653E+02 -0.47424547654E+03  0.48466638021E+03  0.00000000000E+00 0.  1.
        -15    1    3    3    0    0  0.20189922786E+01  0.52749719456E+02  0.12623175311E+03  0.13683648072E+03  0.17770000000E+01 0.  1.
         15    1    3    3    0    0 -0.71172656334E+02  0.15334106904E+02  0.35174460719E+03  0.35920482772E+03  0.17770000000E+01 0. -1.
</event>
<event>
 7    1  0.4954109E-006  0.3166737E+03  0.7546771E-02  0.9940762E-01
        -11   -1    0    0    0    0  0.00000000000E+00  0.00000000000E+00  0.50000000000E+03  0.50000000000E+03  0.00000000000E+00 0.  1.
         11   -1    0    0    0    0 -0.00000000000E+00 -0.00000000000E+00 -0.50000000000E+03  0.50000000000E+03  0.00000000000E+00 0.  1.
         23    2    1    2    0    0  0.24235205562E+03  0.99848384887E+02  0.12268560318E+03  0.30366320448E+03  0.91953062496E+02 0.  0.
        -11    1    1    2    0    0 -0.28402341655E+03  0.10448547612E+03  0.16213881111E+03  0.34333003064E+03  0.00000000000E+00 0.  1.
         11    1    1    2    0    0  0.41671360932E+02 -0.20433386101E+03 -0.28482441429E+03  0.35300676488E+03  0.00000000000E+00 0.  1.
        -15    1    3    3    0    0  0.23448900195E+03  0.85754341152E+02  0.86913194652E+02  0.26437844125E+03  0.17770000000E+01 0.  1.
         15    1    3    3    0    0  0.78630536667E+01  0.14094043735E+02  0.35772408524E+02  0.39284763234E+02  0.17770000000E+01 0. -1.
</event>
<event>
 7    1  0.4954109E-006  0.3534993E+03  0.7546771E-02  0.9804746E-01
        -11   -1    0    0    0    0  0.00000000000E+00  0.00000000000E+00  0.50000000000E+03  0.50000000000E+03  0.00000000000E+00 0. -1.
         11   -1    0    0    0    0 -0.00000000000E+00 -0.00000000000E+00 -0.50000000000E+03  0.50000000000E+03  0.00000000000E+00 0.  1.
         23    2    1    2    0    0  0.13532736667E+03 -0.28049233464E+02  0.24217447583E+03  0.29272853043E+03  0.89113748205E+02 0.  0.
        -11    1    1    2    0    0 -0.12257756314E+03  0.10837723247E+03  0.19958930747E+03  0.25808288428E+03  0.00000000000E+00 0. -1.
         11    1    1    2    0    0 -0.12749803526E+02 -0.80327999005E+02 -0.44176378330E+03  0.44918858528E+03  0.00000000000E+00 0.  1.
        -15    1    3    3    0    0  0.22144936491E+02  0.27005064199E+01  0.12479586585E+03  0.12678665865E+03  0.17770000000E+01 0.  1.
         15    1    3    3    0    0  0.11318243018E+03 -0.30749739884E+02  0.11737860998E+03  0.16594187179E+03  0.17770000000E+01 0. -1.
</event>
<event>
 7    1  0.4954109E-006  0.4446595E+03  0.7546771E-02  0.9532935E-01
        -11   -1    0    0    0    0  0.00000000000E+00  0.00000000000E+00  0.50000000000E+03  0.50000000000E+03  0.00000000000E+00 0. -1.
         11   -1    0    0    0    0 -0.00000000000E+00 -0.00000000000E+00 -0.50000000000E+03  0.50000000000E+03  0.00000000000E+00 0.  1.
         23    2    1    2    0    0  0.43118738205E+02 -0.41163811777E+02 -0.87951887047E+01  0.10864184788E+03  0.90399174674E+02 0.  0.
        -11    1    1    2    0    0 -0.38581623189E+03 -0.95130609898E+02  0.23212676626E+03  0.46020303492E+03  0.00000000000E+00 0. -1.
         11    1    1    2    0    0  0.34269749369E+03  0.13629442167E+03 -0.22333157756E+03  0.43115511721E+03  0.00000000000E+00 0.  1.
        -15    1    3    3    0    0  0.23464253535E+02  0.26966618460E+02  0.57105330956E+01  0.36242759585E+02  0.17770000000E+01 0.  1.
         15    1    3    3    0    0  0.19654484671E+02 -0.68130430236E+02 -0.14505721800E+02  0.72399088294E+02  0.17770000000E+01 0. -1.
</event>
<event>
 7    1  0.4954109E-006  0.4822675E+03  0.7546771E-02  0.9440386E-01
        -11   -1    0    0    0    0  0.00000000000E+00  0.00000000000E+00  0.50000000000E+03  0.50000000000E+03  0.00000000000E+00 0. -1.
         11   -1    0    0    0    0 -0.00000000000E+00 -0.00000000000E+00 -0.50000000000E+03  0.50000000000E+03  0.00000000000E+00 0.  1.
         23    2    1    2    0    0  0.97034202664E+02  0.37831132814E+02  0.45053058750E+03  0.47124155640E+03  0.90796272576E+02 0.  0.
        -11    1    1    2    0    0  0.40586418064E+02  0.63328935051E+01  0.13104541558E+02  0.43117187766E+02  0.00000000000E+00 0. -1.
         11    1    1    2    0    0 -0.13762062073E+03 -0.44164026319E+02 -0.46363512906E+03  0.48564125583E+03  0.00000000000E+00 0.  1.
        -15    1    3    3    0    0 -0.10881581460E+02  0.63673575462E+01  0.89209927358E+01  0.15546507569E+02  0.17770000000E+01 0.  1.
         15    1    3    3    0    0  0.10791578412E+03  0.31463775268E+02  0.44160959476E+03  0.45569504883E+03  0.17770000000E+01 0. -1.
</event>
<event>
 7    1  0.4954109E-006  0.5228851E+03  0.7546771E-02  0.9350010E-01
        -11   -1    0    0    0    0  0.00000000000E+00  0.00000000000E+00  0.50000000000E+03  0.50000000000E+03  0.00000000000E+00 0. -1.
         11   -1    0    0    0    0 -0.00000000000E+00 -0.00000000000E+00 -0.50000000000E+03  0.50000000000E+03  0.00000000000E+00 0.  1.
         23    2    1    2    0    0 -0.12416126300E+02  0.87285607650E+00 -0.12323078039E+03  0.15395692765E+03  0.91443907761E+02 0.  0.
        -11    1    1    2    0    0  0.17677280413E+00  0.19600844026E+03  0.43499343227E+03  0.47711489813E+03  0.00000000000E+00 0. -1.
         11    1    1    2    0    0  0.12239353496E+02 -0.19688129634E+03 -0.31176265188E+03  0.36892817422E+03  0.00000000000E+00 0.  1.
        -15    1    3    3    0    0 -0.51134286161E+02  0.71165894242E+01 -0.56672037543E+02  0.76682714053E+02  0.17770000000E+01 0. -1.
         15    1    3    3    0    0  0.38718159861E+02 -0.62437333477E+01 -0.66558742844E+02  0.77274213598E+02  0.17770000000E+01 0.  1.
</event>
<event>
 7    1  0.4954109E-006  0.4183803E+03  0.7546771E-02  0.9603599E-01
        -11   -1    0    0    0    0  0.00000000000E+00  0.00000000000E+00  0.50000000000E+03  0.50000000000E+03  0.00000000000E+00 0. -1.
         11   -1    0    0    0    0 -0.00000000000E+00 -0.00000000000E+00 -0.50000000000E+03  0.50000000000E+03  0.00000000000E+00 0. -1.
         23    2    1    2    0    0 -0.25954291225E+03  0.35063421246E+03  0.15781188468E+03  0.47260707784E+03  0.90255109732E+02 0.  0.
        -11    1    1    2    0    0  0.12319945353E+03 -0.33914047181E+03 -0.78582924112E+02  0.36928260308E+03  0.00000000000E+00 0. -1.
         11    1    1    2    0    0  0.13634345872E+03 -0.11493740646E+02 -0.79228960564E+02  0.15811031908E+03  0.00000000000E+00 0. -1.
        -15    1    3    3    0    0 -0.68800667707E+02  0.12060839561E+03  0.10004529579E+02  0.13922343664E+03  0.17770000000E+01 0.  1.
         15    1    3    3    0    0 -0.19074224454E+03  0.23002581685E+03  0.14780735510E+03  0.33338364120E+03  0.17770000000E+01 0. -1.
</event>
<event>
 7    1  0.4954109E-006  0.5229583E+03  0.7546771E-02  0.9349855E-01
        -11   -1    0    0    0    0  0.00000000000E+00  0.00000000000E+00  0.50000000000E+03  0.50000000000E+03  0.00000000000E+00 0.  1.
         11   -1    0    0    0    0 -0.00000000000E+00 -0.00000000000E+00 -0.50000000000E+03  0.50000000000E+03  0.00000000000E+00 0. -1.
         23    2    1    2    0    0 -0.11259040989E+02 -0.19664515807E+02  0.31937120581E+03  0.33272047664E+03  0.90506846652E+02 0.  0.
        -11    1    1    2    0    0  0.80843953433E+01  0.12067373476E+03  0.14684317692E+03  0.19023781516E+03  0.00000000000E+00 0.  1.
         11    1    1    2    0    0  0.31746456459E+01 -0.10100921895E+03 -0.46621438273E+03  0.47704170819E+03  0.00000000000E+00 0. -1.
        -15    1    3    3    0    0 -0.35706495047E+02 -0.44646349952E+02  0.22202293330E+03  0.22927187135E+03  0.17770000000E+01 0. -1.
         15    1    3    3    0    0  0.24447454058E+02  0.24981834145E+02  0.97348272510E+02  0.10344860529E+03  0.17770000000E+01 0.  1.
</event>
<event>
 7    1  0.4954109E-006  0.3970473E+03  0.7546771E-02  0.9665166E-01
        -11   -1    0    0    0    0  0.00000000000E+00  0.00000000000E+00  0.50000000000E+03  0.50000000000E+03  0.00000000000E+00 0. -1.
         11   -1    0    0    0    0 -0.00000000000E+00 -0.00000000000E+00 -0.50000000000E+03  0.50000000000E+03  0.00000000000E+00 0.  1.
         23    2    1    2    0    0  0.16067134329E+03  0.19702457156E+02 -0.31704281508E+02  0.18895448320E+03  0.92169235010E+02 0.  0.
        -11    1    1    2    0    0 -0.22898660838E+03 -0.10508946120E+03  0.37442546106E+03  0.45130154837E+03  0.00000000000E+00 0. -1.
         11    1    1    2    0    0  0.68315265091E+02  0.85387004044E+02 -0.34272117955E+03  0.35974396843E+03  0.00000000000E+00 0.  1.
        -15    1    3    3    0    0  0.15448506327E+03 -0.34511154341E+01 -0.73029910262E+01  0.15470629069E+03  0.17770000000E+01 0.  1.
         15    1    3    3    0    0  0.61862800210E+01  0.23153572590E+02 -0.24401290482E+02  0.34248192512E+02  0.17770000000E+01 0. -1.
</event>
<event>
 7    1  0.4954109E-006  0.5176001E+03  0.7546771E-02  0.9361267E-01
        -11   -1    0    0    0    0  0.00000000000E+00  0.00000000000E+00  0.50000000000E+03  0.50000000000E+03  0.00000000000E+00 0. -1.
         11   -1    0    0    0    0 -0.00000000000E+00 -0.00000000000E+00 -0.50000000000E+03  0.50000000000E+03  0.00000000000E+00 0.  1.
         23    2    1    2    0    0 -0.32891730189E+02 -0.15441686713E+02  0.33274174239E+03  0.34660832302E+03  0.89999726963E+02 0.  0.
        -11    1    1    2    0    0 -0.82892129777E+02 -0.81466461969E+02  0.12542045161E+03  0.17099175211E+03  0.00000000000E+00 0. -1.
         11    1    1    2    0    0  0.11578385997E+03  0.96908148683E+02 -0.45816219400E+03  0.48239992488E+03  0.00000000000E+00 0.  1.
        -15    1    3    3    0    0  0.30911857235E+02 -0.61719796484E+01  0.87302952872E+02  0.92836412898E+02  0.17770000000E+01 0.  1.
         15    1    3    3    0    0 -0.63803587424E+02 -0.92697070650E+01  0.24543878952E+03  0.25377191012E+03  0.17770000000E+01 0. -1.
</event>
<event>
 7    1  0.4954109E-006  0.5137542E+03  0.7546771E-02  0.9369549E-01
        -11   -1    0    0    0    0  0.00000000000E+00  0.00000000000E+00  0.50000000000E+03  0.50000000000E+03  0.00000000000E+00 0.  1.
         11   -1    0    0    0    0 -0.00000000000E+00 -0.00000000000E+00 -0.50000000000E+03  0.50000000000E+03  0.00000000000E+00 0. -1.
         23    2    1    2    0    0  0.10848533546E+02 -0.15543532554E+02  0.33750395030E+03  0.35152580438E+03  0.96447823176E+02 0.  0.
        -11    1    1    2    0    0 -0.13362628548E+02 -0.83257949845E+02  0.13859153021E+03  0.16222841398E+03  0.00000000000E+00 0.  1.
         11    1    1    2    0    0  0.25140950016E+01  0.98801482399E+02 -0.47609548051E+03  0.48624578164E+03  0.00000000000E+00 0. -1.
        -15    1    3    3    0    0  0.50277106172E+02 -0.26420751582E+02  0.17791330484E+03  0.18676762377E+03  0.17770000000E+01 0.  1.
         15    1    3    3    0    0 -0.39428572626E+02  0.10877219028E+02  0.15959064545E+03  0.16475818061E+03  0.17770000000E+01 0. -1.
</event>
<event>
 7    1  0.4954109E-006  0.5027729E+03  0.7546771E-02  0.9393626E-01
        -11   -1    0    0    0    0  0.00000000000E+00  0.00000000000E+00  0.50000000000E+03  0.50000000000E+03  0.00000000000E+00 0. -1.
         11   -1    0    0    0    0 -0.00000000000E+00 -0.00000000000E+00 -0.50000000000E+03  0.50000000000E+03  0.00000000000E+00 0.  1.
         23    2    1    2    0    0  0.41494200555E+02 -0.17603783908E+03  0.46000204588E+03  0.50277293779E+03  0.92019863620E+02 0.  0.
        -11    1    1    2    0    0 -0.13635931103E+02  0.99939915817E+01 -0.20450742381E+02  0.26533965944E+02  0.00000000000E+00 0. -1.
         11    1    1    2    0    0 -0.27858269452E+02  0.16604384749E+03 -0.43955130349E+03  0.47069309626E+03  0.00000000000E+00 0.  1.
        -15    1    3    3    0    0 -0.20234943426E+00  0.11070098188E+02  0.26312669833E+02  0.28602488388E+02  0.17770000000E+01 0.  1.
         15    1    3    3    0    0  0.41696549989E+02 -0.18710793726E+03  0.43368937604E+03  0.47417044940E+03  0.17770000000E+01 0. -1.
</event>
<event>
 7    1  0.4954109E-006  0.4027832E+03  0.7546771E-02  0.9648213E-01
        -11   -1    0    0    0    0  0.00000000000E+00  0.00000000000E+00  0.50000000000E+03  0.50000000000E+03  0.00000000000E+00 0. -1.
         11   -1    0    0    0    0 -0.00000000000E+00 -0.00000000000E+00 -0.50000000000E+03  0.50000000000E+03  0.00000000000E+00 0. -1.
         23    2    1    2    0    0  0.53421159390E+02  0.13437553327E+03  0.37993155663E+03  0.41939326558E+03  0.10311216842E+03 0.  0.
        -11    1    1    2    0    0 -0.15574249310E+03 -0.10214916341E+03 -0.44999726799E+00  0.18625353215E+03  0.00000000000E+00 0. -1.
         11    1    1    2    0    0  0.10232133371E+03 -0.32226369858E+02 -0.37948155936E+03  0.39435320227E+03  0.00000000000E+00 0. -1.
        -15    1    3    3    0    0  0.49776014118E+02  0.14982840972E+03  0.31283991891E+03  0.35042570758E+03  0.17770000000E+01 0. -1.
         15    1    3    3    0    0  0.36451452718E+01 -0.15452876456E+02  0.67091637719E+02  0.68967557994E+02  0.17770000000E+01 0.  1.
</event>
<event>
 7    1  0.4954109E-006  0.5068713E+03  0.7546771E-02  0.9384565E-01
        -11   -1    0    0    0    0  0.00000000000E+00  0.00000000000E+00  0.50000000000E+03  0.50000000000E+03  0.00000000000E+00 0.  1.
         11   -1    0    0    0    0 -0.00000000000E+00 -0.00000000000E+00 -0.50000000000E+03  0.50000000000E+03  0.00000000000E+00 0. -1.
         23    2    1    2    0    0 -0.83919355394E+01  0.13023620552E+03 -0.38716815236E+03  0.41803389188E+03  0.88437903359E+02 0.  0.
        -11    1    1    2    0    0  0.33163447911E+02 -0.17481577622E+03  0.45990821041E+03  0.49312871737E+03  0.00000000000E+00 0.  1.
         11    1    1    2    0    0 -0.24771512371E+02  0.44579570705E+02 -0.72740058056E+02  0.88837390750E+02  0.00000000000E+00 0. -1.
        -15    1    3    3    0    0  0.12536898059E+02  0.13460008128E+03 -0.31607480139E+03  0.34377433514E+03  0.17770000000E+01 0. -1.
         15    1    3    3    0    0 -0.20928833598E+02 -0.43638757622E+01 -0.71093350963E+02  0.74259556742E+02  0.17770000000E+01 0.  1.
</event>
<event>
 7    1  0.4954109E-006  0.3893416E+03  0.7546771E-02  0.9688428E-01
        -11   -1    0    0    0    0  0.00000000000E+00  0.00000000000E+00  0.50000000000E+03  0.50000000000E+03  0.00000000000E+00 0. -1.
         11   -1    0    0    0    0 -0.00000000000E+00 -0.00000000000E+00 -0.50000000000E+03  0.50000000000E+03  0.00000000000E+00 0.  1.
         23    2    1    2    0    0  0.27618297274E+02 -0.10648031285E+03  0.14113105395E+03  0.20102166680E+03  0.91601903722E+02 0.  0.
        -11    1    1    2    0    0  0.50205300261E+02  0.16238528545E+03  0.30149165568E+03  0.34610225592E+03  0.00000000000E+00 0. -1.
         11    1    1    2    0    0 -0.77823597535E+02 -0.55904972599E+02 -0.44262270963E+03  0.45287607728E+03  0.00000000000E+00 0.  1.
        -15    1    3    3    0    0  0.37672856236E+02 -0.46932401479E+02  0.12459949088E+03  0.13838383310E+03  0.17770000000E+01 0.  1.
         15    1    3    3    0    0 -0.10054558962E+02 -0.59547911369E+02  0.16531563065E+02  0.62637833701E+02  0.17770000000E+01 0. -1.
</event>
<event>
 7    1  0.4954109E-006  0.3470264E+03  0.7546771E-02  0.9827330E-01
        -11   -1    0    0    0    0  0.00000000000E+00  0.00000000000E+00  0.50000000000E+03  0.50000000000E+03  0.00000000000E+00 0. -1.
         11   -1    0    0    0    0 -0.00000000000E+00 -0.00000000000E+00 -0.50000000000E+03  0.50000000000E+03  0.00000000000E+00 0.  1.
         23    2    1    2    0    0 -0.14485601474E+02 -0.28823378066E+03  0.23701513455E+03  0.39015976338E+03  0.11295982465E+03 0.  0.
        -11    1    1    2    0    0  0.44046390740E+02  0.33355835836E+03  0.29633405129E+02  0.33775642358E+03  0.00000000000E+00 0. -1.
         11    1    1    2    0    0 -0.29560789266E+02 -0.45324577694E+02 -0.26664853968E+03  0.27208381304E+03  0.00000000000E+00 0.  1.
        -15    1    3    3    0    0 -0.47795794046E+02 -0.18563748169E+03  0.10139485447E+03  0.21686352109E+03  0.17770000000E+01 0. -1.
         15    1    3    3    0    0  0.33310192572E+02 -0.10259629897E+03  0.13562028008E+03  0.17329624228E+03  0.17770000000E+01 0.  1.
</event>
<event>
 7    1  0.4954109E-006  0.5170740E+03  0.7546771E-02  0.9362395E-01
        -11   -1    0    0    0    0  0.00000000000E+00  0.00000000000E+00  0.50000000000E+03  0.50000000000E+03  0.00000000000E+00 0.  1.
         11   -1    0    0    0    0 -0.00000000000E+00 -0.00000000000E+00 -0.50000000000E+03  0.50000000000E+03  0.00000000000E+00 0.  1.
         23    2    1    2    0    0  0.14770463897E+02 -0.76800457637E+02  0.12859308305E+03  0.17667409326E+03  0.92526089967E+02 0.  0.
        -11    1    1    2    0    0 -0.76424280652E+02 -0.22838243551E+03  0.24056780321E+03  0.34039987583E+03  0.00000000000E+00 0.  1.
         11    1    1    2    0    0  0.61653816756E+02  0.30518289315E+03 -0.36916088626E+03  0.48292603091E+03  0.00000000000E+00 0.  1.
        -15    1    3    3    0    0  0.20539578125E+02 -0.30097455367E+02 -0.32960833090E+01  0.36629946537E+02  0.17770000000E+01 0.  1.
         15    1    3    3    0    0 -0.57691142281E+01 -0.46703002271E+02  0.13188916636E+03  0.14004414673E+03  0.17770000000E+01 0. -1.
</event>
<event>
 7    1  0.4954109E-006  0.3628266E+03  0.7546771E-02  0.9773099E-01
        -11   -1    0    0    0    0  0.00000000000E+00  0.00000000000E+00  0.50000000000E+03  0.50000000000E+03  0.00000000000E+00 0. -1.
         11   -1    0    0    0    0 -0.00000000000E+00 -0.00000000000E+00 -0.50000000000E+03  0.50000000000E+03  0.00000000000E+00 0.  1.
         23    2    1    2    0    0 -0.34560859714E+03 -0.60718479426E+02  0.22312790633E+03  0.42607195770E+03  0.92839724229E+02 0.  0.
        -11    1    1    2    0    0  0.18274037232E+03  0.15741118594E+03  0.45295803017E+02  0.24540585752E+03  0.00000000000E+00 0. -1.
         11    1    1    2    0    0  0.16286822482E+03 -0.96692706515E+02 -0.26842370935E+03  0.32852218478E+03  0.00000000000E+00 0.  1.
        -15    1    3    3    0    0 -0.78286429783E+02 -0.14181286681E+01  0.96784140636E+02  0.12450342881E+03  0.17770000000E+01 0.  1.
         15    1    3    3    0    0 -0.26732216736E+03 -0.59300350758E+02  0.12634376570E+03  0.30156852890E+03  0.17770000000E+01 0. -1.
</event>
<event>
 6    1  0.4954109E-006  0.5332189E+03  0.7546771E-02  0.9328402E-01
        -11   -1    0    0    0    0  0.00000000000E+00  0.00000000000E+00  0.50000000000E+03  0.50000000000E+03  0.00000000000E+00 0. -1.
         11   -1    0    0    0    0 -0.00000000000E+00 -0.00000000000E+00 -0.50000000000E+03  0.50000000000E+03  0.00000000000E+00 0.  1.
        -11    1    1    2    0    0 -0.41567103113E+02  0.11178872045E+03  0.10078777588E+03  0.15614966490E+03  0.00000000000E+00 0. -1.
         11    1    1    2    0    0  0.11555702895E+02 -0.16164868134E+03 -0.43774511936E+03  0.46678112641E+03  0.00000000000E+00 0.  1.
        -15    1    1    2    0    0  0.24368743360E+02 -0.51383174047E+02  0.19131087023E+03  0.19959226695E+03  0.17770000000E+01 0. -1.
         15    1    1    2    0    0  0.56426568578E+01  0.10124313494E+03  0.14564647325E+03  0.17747694173E+03  0.17770000000E+01 0.  1.
</event>
<event>
 7    1  0.4954109E-006  0.5146448E+03  0.7546771E-02  0.9367624E-01
        -11   -1    0    0    0    0  0.00000000000E+00  0.00000000000E+00  0.50000000000E+03  0.50000000000E+03  0.00000000000E+00 0.  1.
         11   -1    0    0    0    0 -0.00000000000E+00 -0.00000000000E+00 -0.50000000000E+03  0.50000000000E+03  0.00000000000E+00 0. -1.
         23    2    1    2    0    0 -0.82380980765E+02 -0.33871181067E+02  0.15024780006E+03  0.19693830089E+03  0.90974776925E+02 0.  0.
        -11    1    1    2    0    0 -0.58718048628E+02 -0.99208696766E+01  0.31207563949E+03  0.31770652756E+03  0.00000000000E+00 0.  1.
         11    1    1    2    0    0  0.14109902939E+03  0.43792050744E+02 -0.46232343954E+03  0.48535517156E+03  0.00000000000E+00 0. -1.
        -15    1    3    3    0    0 -0.83244576707E+02 -0.58773645709E+02  0.11399049147E+03  0.15290843945E+03  0.17770000000E+01 0.  1.
         15    1    3    3    0    0  0.86359594206E+00  0.24902464642E+02  0.36257308586E+02  0.44029861436E+02  0.17770000000E+01 0. -1.
</event>
<event>
 7    1  0.4954109E-006  0.3497536E+03  0.7546771E-02  0.9817751E-01
        -11   -1    0    0    0    0  0.00000000000E+00  0.00000000000E+00  0.50000000000E+03  0.50000000000E+03  0.00000000000E+00 0. -1.
         11   -1    0    0    0    0 -0.00000000000E+00 -0.00000000000E+00 -0.50000000000E+03  0.50000000000E+03  0.00000000000E+00 0. -1.
         23    2    1    2    0    0 -0.21928202978E+03 -0.19173536467E+03 -0.87974379812E+02  0.31837054981E+03  0.93665665195E+02 0.  0.
        -11    1    1    2    0    0  0.30840208740E+03  0.32915922515E+02  0.27937837688E+03  0.41742973412E+03  0.00000000000E+00 0. -1.
         11    1    1    2    0    0 -0.89120057616E+02  0.15881944215E+03 -0.19140399706E+03  0.26419971606E+03  0.00000000000E+00 0. -1.
        -15    1    3    3    0    0 -0.44301410393E+02 -0.68478860510E+02 -0.62602759757E+02  0.10283108751E+03  0.17770000000E+01 0.  1.
         15    1    3    3    0    0 -0.17498061939E+03 -0.12325650416E+03 -0.25371620054E+02  0.21553946231E+03  0.17770000000E+01 0. -1.
</event>
<event>
 7    1  0.4954109E-006  0.5115537E+03  0.7546771E-02  0.9374322E-01
        -11   -1    0    0    0    0  0.00000000000E+00  0.00000000000E+00  0.50000000000E+03  0.50000000000E+03  0.00000000000E+00 0.  1.
         11   -1    0    0    0    0 -0.00000000000E+00 -0.00000000000E+00 -0.50000000000E+03  0.50000000000E+03  0.00000000000E+00 0. -1.
         23    2    1    2    0    0  0.40672875562E+02  0.16621979998E+03 -0.31149898178E+03  0.36613467056E+03  0.87975431906E+02 0.  0.
        -11    1    1    2    0    0 -0.67057831741E+02 -0.16585919515E+03  0.45450386740E+03  0.48844630298E+03  0.00000000000E+00 0.  1.
         11    1    1    2    0    0  0.26384956179E+02 -0.36060483320E+00 -0.14300488561E+03  0.14541902646E+03  0.00000000000E+00 0. -1.
        -15    1    3    3    0    0  0.54907310724E+02  0.53214958707E+02 -0.15170947301E+03  0.16989869491E+03  0.17770000000E+01 0.  1.
         15    1    3    3    0    0 -0.14234435163E+02  0.11300484128E+03 -0.15978950877E+03  0.19623597565E+03  0.17770000000E+01 0. -1.
</event>
<event>
 7    1  0.4954109E-006  0.3993732E+03  0.7546771E-02  0.9658254E-01
        -11   -1    0    0    0    0  0.00000000000E+00  0.00000000000E+00  0.50000000000E+03  0.50000000000E+03  0.00000000000E+00 0.  1.
         11   -1    0    0    0    0 -0.00000000000E+00 -0.00000000000E+00 -0.50000000000E+03  0.50000000000E+03  0.00000000000E+00 0. -1.
         23    2    1    2    0    0 -0.85287210971E+02 -0.23235588894E+03  0.29822669554E+03  0.39864548471E+03  0.93358947447E+02 0.  0.
        -11    1    1    2    0    0  0.18856238008E+03 -0.69601945670E+01  0.20295431459E+02  0.18977913486E+03  0.00000000000E+00 0.  1.
         11    1    1    2    0    0 -0.10327516911E+03  0.23931608351E+03 -0.31852212700E+03  0.41157538042E+03  0.00000000000E+00 0. -1.
        -15    1    3    3    0    0 -0.52164845583E+02 -0.21335300440E+03  0.28115241525E+03  0.35677796166E+03  0.17770000000E+01 0.  1.
         15    1    3    3    0    0 -0.33122365388E+02 -0.19002884543E+02  0.17074280296E+02  0.41867523052E+02  0.17770000000E+01 0. -1.
</event>
<event>
 7    1  0.4954109E-006  0.4904858E+03  0.7546771E-02  0.9421354E-01
        -11   -1    0    0    0    0  0.00000000000E+00  0.00000000000E+00  0.50000000000E+03  0.50000000000E+03  0.00000000000E+00 0. -1.
         11   -1    0    0    0    0 -0.00000000000E+00 -0.00000000000E+00 -0.50000000000E+03  0.50000000000E+03  0.00000000000E+00 0.  1.
         23    2    1    2    0    0  0.11601498561E+02 -0.14819411195E+03  0.46231278233E+03  0.49443589424E+03  0.92938986549E+02 0.  0.
        -11    1    1    2    0    0  0.15100762722E+02  0.22945860575E+02 -0.17459552752E+01  0.27524423921E+02  0.00000000000E+00 0. -1.
         11    1    1    2    0    0 -0.26702261283E+02  0.12524825138E+03 -0.46056682705E+03  0.47803968184E+03  0.00000000000E+00 0.  1.
        -15    1    3    3    0    0 -0.29947758314E+02 -0.20948380550E+02  0.58392663870E+02  0.68909823672E+02  0.17770000000E+01 0.  1.
         15    1    3    3    0    0  0.41549256875E+02 -0.12724573140E+03  0.40392011846E+03  0.42552607057E+03  0.17770000000E+01 0. -1.
</event>
<event>
 7    1  0.4954109E-006  0.4821437E+03  0.7546771E-02  0.9440676E-01
        -11   -1    0    0    0    0  0.00000000000E+00  0.00000000000E+00  0.50000000000E+03  0.50000000000E+03  0.00000000000E+00 0.  1.
         11   -1    0    0    0    0 -0.00000000000E+00 -0.00000000000E+00 -0.50000000000E+03  0.50000000000E+03  0.00000000000E+00 0. -1.
         23    2    1    2    0    0  0.11427406561E+03  0.11656992617E+03  0.44534455597E+03  0.48277187216E+03  0.89943300271E+02 0.  0.
        -11    1    1    2    0    0 -0.42390229320E+02  0.35087878028E+01  0.75527455309E+01  0.43200545120E+02  0.00000000000E+00 0.  1.
         11    1    1    2    0    0 -0.71883836287E+02 -0.12007871397E+03 -0.45289730150E+03  0.47402758272E+03  0.00000000000E+00 0. -1.
        -15    1    3    3    0    0  0.97427748520E+02  0.56364365063E+02  0.35844100489E+03  0.37570230176E+03  0.17770000000E+01 0. -1.
         15    1    3    3    0    0  0.16846317087E+02  0.60205561109E+02  0.86903551079E+02  0.10706957041E+03  0.17770000000E+01 0.  1.
</event>
<event>
 7    1  0.4954109E-006  0.4704877E+03  0.7546771E-02  0.9468380E-01
        -11   -1    0    0    0    0  0.00000000000E+00  0.00000000000E+00  0.50000000000E+03  0.50000000000E+03  0.00000000000E+00 0.  1.
         11   -1    0    0    0    0 -0.00000000000E+00 -0.00000000000E+00 -0.50000000000E+03  0.50000000000E+03  0.00000000000E+00 0. -1.
         23    2    1    2    0    0 -0.26087426636E+02  0.16213020484E+03 -0.40765098813E+03  0.44873134787E+03  0.90629671117E+02 0.  0.
        -11    1    1    2    0    0  0.21783278044E+02 -0.13359720343E+03  0.46649146323E+03  0.48573347551E+03  0.00000000000E+00 0.  1.
         11    1    1    2    0    0  0.43041485925E+01 -0.28533001403E+02 -0.58840475102E+02  0.65535176618E+02  0.00000000000E+00 0. -1.
        -15    1    3    3    0    0  0.20805698104E+02  0.66943911818E+02 -0.24238439906E+03  0.25232463026E+03  0.17770000000E+01 0.  1.
         15    1    3    3    0    0 -0.46893124740E+02  0.95186293020E+02 -0.16526658907E+03  0.19640671760E+03  0.17770000000E+01 0. -1.
</event>
<event>
 7    1  0.4954109E-006  0.5137413E+03  0.7546771E-02  0.9369577E-01
        -11   -1    0    0    0    0  0.00000000000E+00  0.00000000000E+00  0.50000000000E+03  0.50000000000E+03  0.00000000000E+00 0.  1.
         11   -1    0    0    0    0 -0.00000000000E+00 -0.00000000000E+00 -0.50000000000E+03  0.50000000000E+03  0.00000000000E+00 0. -1.
         23    2    1    2    0    0  0.33890412928E+02 -0.85341511650E+02  0.26993964592E+03  0.29877046975E+03  0.89244873543E+02 0.  0.
        -11    1    1    2    0    0 -0.61841317067E+02 -0.10761441821E+03  0.17551995779E+03  0.21497085171E+03  0.00000000000E+00 0.  1.
         11    1    1    2    0    0  0.27950904139E+02  0.19295592986E+03 -0.44545960372E+03  0.48625867854E+03  0.00000000000E+00 0. -1.
        -15    1    3    3    0    0  0.39077250549E+02 -0.46347898553E+02  0.24445459970E+03  0.25186577428E+03  0.17770000000E+01 0.  1.
         15    1    3    3    0    0 -0.51868376216E+01 -0.38993613097E+02  0.25485046222E+02  0.46904695466E+02  0.17770000000E+01 0. -1.
</event>
<event>
 7    1  0.4954109E-006  0.3753239E+03  0.7546771E-02  0.9732259E-01
        -11   -1    0    0    0    0  0.00000000000E+00  0.00000000000E+00  0.50000000000E+03  0.50000000000E+03  0.00000000000E+00 0.  1.
         11   -1    0    0    0    0 -0.00000000000E+00 -0.00000000000E+00 -0.50000000000E+03  0.50000000000E+03  0.00000000000E+00 0. -1.
         23    2    1    2    0    0  0.28047833275E+02 -0.13044813545E+02  0.40438373346E+03  0.41636049833E+03  0.94196669636E+02 0.  0.
        -11    1    1    2    0    0  0.14400657625E+03 -0.12441464769E+03 -0.12412531672E+03  0.22720913894E+03  0.00000000000E+00 0.  1.
         11    1    1    2    0    0 -0.17205440953E+03  0.13745946124E+03 -0.28025841674E+03  0.35643036273E+03  0.00000000000E+00 0. -1.
        -15    1    3    3    0    0  0.21343453233E+02 -0.49272267851E+02  0.31685017306E+03  0.32137281975E+03  0.17770000000E+01 0.  1.
         15    1    3    3    0    0  0.67043800424E+01  0.36227454306E+02  0.87533560402E+02  0.94987678585E+02  0.17770000000E+01 0. -1.
</event>
<event>
 7    1  0.4954109E-006  0.5248877E+03  0.7546771E-02  0.9345781E-01
        -11   -1    0    0    0    0  0.00000000000E+00  0.00000000000E+00  0.50000000000E+03  0.50000000000E+03  0.00000000000E+00 0.  1.
         11   -1    0    0    0    0 -0.00000000000E+00 -0.00000000000E+00 -0.50000000000E+03  0.50000000000E+03  0.00000000000E+00 0.  1.
         23    2    1    2    0    0 -0.26908829208E+02 -0.19713378561E+02  0.40345819746E+03  0.41476184828E+03  0.90200727838E+02 0.  0.
        -11    1    1    2    0    0  0.19481125010E+02 -0.91280223330E+02  0.58447550350E+02  0.11012588045E+03  0.00000000000E+00 0.  1.
         11    1    1    2    0    0  0.74277041978E+01  0.11099360189E+03 -0.46190574781E+03  0.47511227127E+03  0.00000000000E+00 0.  1.
        -15    1    3    3    0    0 -0.12691419721E+02  0.33909416393E+02  0.10232900571E+03  0.10856013906E+03  0.17770000000E+01 0. -1.
         15    1    3    3    0    0 -0.14217409486E+02 -0.53622794954E+02  0.30112919175E+03  0.30620170921E+03  0.17770000000E+01 0.  1.
</event>
<event>
 7    1  0.4954109E-006  0.5098298E+03  0.7546771E-02  0.9378080E-01
        -11   -1    0    0    0    0  0.00000000000E+00  0.00000000000E+00  0.50000000000E+03  0.50000000000E+03  0.00000000000E+00 0.  1.
         11   -1    0    0    0    0 -0.00000000000E+00 -0.00000000000E+00 -0.50000000000E+03  0.50000000000E+03  0.00000000000E+00 0. -1.
         23    2    1    2    0    0  0.63474157835E+02  0.58513986378E+02 -0.21969227444E+03  0.25372813933E+03  0.93061366464E+02 0.  0.
        -11    1    1    2    0    0 -0.97403602433E+02 -0.95131977043E+02  0.47088138740E+03  0.49017021107E+03  0.00000000000E+00 0.  1.
         11    1    1    2    0    0  0.33929444599E+02  0.36617990665E+02 -0.25118911297E+03  0.25610164959E+03  0.00000000000E+00 0. -1.
        -15    1    3    3    0    0  0.38206372599E+02 -0.19424178200E+01 -0.16181319201E+03  0.16628339283E+03  0.17770000000E+01 0. -1.
         15    1    3    3    0    0  0.25267785235E+02  0.60456404198E+02 -0.57879082426E+02  0.87444746502E+02  0.17770000000E+01 0.  1.
</event>
<event>
 7    1  0.4954109E-006  0.5281423E+03  0.7546771E-02  0.9338951E-01
        -11   -1    0    0    0    0  0.00000000000E+00  0.00000000000E+00  0.50000000000E+03  0.50000000000E+03  0.00000000000E+00 0.  1.
         11   -1    0    0    0    0 -0.00000000000E+00 -0.00000000000E+00 -0.50000000000E+03  0.50000000000E+03  0.00000000000E+00 0.  1.
         23    2    1    2    0    0 -0.54026797139E+02  0.12552563474E+03  0.19176359406E+03  0.24654089240E+03  0.73031197657E+02 0.  0.
        -11    1    1    2    0    0 -0.93104480104E+01 -0.70233815383E+02  0.27254332935E+03  0.28160138430E+03  0.00000000000E+00 0.  1.
         11    1    1    2    0    0  0.63337245150E+02 -0.55291819356E+02 -0.46430692341E+03  0.47185772330E+03  0.00000000000E+00 0.  1.
        -15    1    3    3    0    0 -0.86578649798E+01  0.54588846817E+02  0.13244261747E+03  0.14352388468E+03  0.17770000000E+01 0. -1.
         15    1    3    3    0    0 -0.45368932159E+02  0.70936787922E+02  0.59320976591E+02  0.10301700772E+03  0.17770000000E+01 0.  1.
</event>
<event>
 7    1  0.4954109E-006  0.5173390E+03  0.7546771E-02  0.9361827E-01
        -11   -1    0    0    0    0  0.00000000000E+00  0.00000000000E+00  0.50000000000E+03  0.50000000000E+03  0.00000000000E+00 0. -1.
         11   -1    0    0    0    0 -0.00000000000E+00 -0.00000000000E+00 -0.50000000000E+03  0.50000000000E+03  0.00000000000E+00 0.  1.
         23    2    1    2    0    0  0.17529859670E+03  0.30920373467E+02 -0.31922910203E+03  0.37660153883E+03  0.90751484645E+02 0.  0.
        -11    1    1    2    0    0 -0.16838063818E+03 -0.10147021334E+03  0.44080992615E+03  0.48266099335E+03  0.00000000000E+00 0. -1.
         11    1    1    2    0    0 -0.69179585213E+01  0.70549839869E+02 -0.12158082412E+03  0.14073746782E+03  0.00000000000E+00 0.  1.
        -15    1    3    3    0    0  0.12618995235E+03 -0.19821272811E+02 -0.22637177017E+03  0.25993099660E+03  0.17770000000E+01 0.  1.
         15    1    3    3    0    0  0.49108644347E+02  0.50741646277E+02 -0.92857331854E+02  0.11667054223E+03  0.17770000000E+01 0. -1.
</event>
<event>
 7    1  0.4954109E-006  0.5005226E+03  0.7546771E-02  0.9398641E-01
        -11   -1    0    0    0    0  0.00000000000E+00  0.00000000000E+00  0.50000000000E+03  0.50000000000E+03  0.00000000000E+00 0.  1.
         11   -1    0    0    0    0 -0.00000000000E+00 -0.00000000000E+00 -0.50000000000E+03  0.50000000000E+03  0.00000000000E+00 0.  1.
         23    2    1    2    0    0 -0.56492203068E+02 -0.13843759892E+03  0.46900347850E+03  0.50052261916E+03  0.90566504004E+02 0.  0.
        -11    1    1    2    0    0  0.59283003931E+02  0.14924129237E+03 -0.44142952476E+03  0.46973126704E+03  0.00000000000E+00 0.  1.
         11    1    1    2    0    0 -0.27908008631E+01 -0.10803693452E+02 -0.27573953737E+02  0.29746113803E+02  0.00000000000E+00 0.  1.
        -15    1    3    3    0    0  0.13091505975E+01 -0.10877300826E+03  0.31907022392E+03  0.33710865714E+03  0.17770000000E+01 0.  1.
         15    1    3    3    0    0 -0.57801353666E+02 -0.29664590661E+02  0.14993325458E+03  0.16341396202E+03  0.17770000000E+01 0. -1.
</event>
<event>
 7    1  0.4954109E-006  0.4287692E+03  0.7546771E-02  0.9575019E-01
        -11   -1    0    0    0    0  0.00000000000E+00  0.00000000000E+00  0.50000000000E+03  0.50000000000E+03  0.00000000000E+00 0.  1.
         11   -1    0    0    0    0 -0.00000000000E+00 -0.00000000000E+00 -0.50000000000E+03  0.50000000000E+03  0.00000000000E+00 0.  1.
         23    2    1    2    0    0 -0.66481694250E+02  0.32079826043E+02  0.68644492341E+02  0.13655736068E+03  0.92124456683E+02 0.  0.
        -11    1    1    2    0    0  0.34322195851E+03 -0.30427730618E+03  0.39817028668E+02  0.46040350524E+03  0.00000000000E+00 0.  1.
         11    1    1    2    0    0 -0.27674026426E+03  0.27219748014E+03 -0.10846152101E+03  0.40303913408E+03  0.00000000000E+00 0.  1.
        -15    1    3    3    0    0 -0.72809340904E+02 -0.10230699784E+02  0.32026030228E+02  0.80216529981E+02  0.17770000000E+01 0. -1.
         15    1    3    3    0    0  0.63276466543E+01  0.42310525827E+02  0.36618462112E+02  0.56340830704E+02  0.17770000000E+01 0.  1.
</event>
<event>
 7    1  0.4954109E-006  0.3691536E+03  0.7546771E-02  0.9752207E-01
        -11   -1    0    0    0    0  0.00000000000E+00  0.00000000000E+00  0.50000000000E+03  0.50000000000E+03  0.00000000000E+00 0.  1.
         11   -1    0    0    0    0 -0.00000000000E+00 -0.00000000000E+00 -0.50000000000E+03  0.50000000000E+03  0.00000000000E+00 0. -1.
         23    2    1    2    0    0  0.16096217371E+03  0.47340661162E+02  0.33862691765E+03  0.38842135754E+03  0.89738520584E+02 0.  0.
        -11    1    1    2    0    0 -0.21167571199E+03 -0.98800931903E+02  0.30379571956E+02  0.23556559508E+03  0.00000000000E+00 0.  1.
         11    1    1    2    0    0  0.50713538285E+02  0.51460270740E+02 -0.36900648960E+03  0.37601304738E+03  0.00000000000E+00 0. -1.
        -15    1    3    3    0    0  0.77286480123E+02  0.68672667614E+02  0.19840104791E+03  0.22373034848E+03  0.17770000000E+01 0. -1.
         15    1    3    3    0    0  0.83675693584E+02 -0.21332006451E+02  0.14022586973E+03  0.16469100907E+03  0.17770000000E+01 0.  1.
</event>
<event>
 7    1  0.4954109E-006  0.3722474E+03  0.7546771E-02  0.9742153E-01
        -11   -1    0    0    0    0  0.00000000000E+00  0.00000000000E+00  0.50000000000E+03  0.50000000000E+03  0.00000000000E+00 0.  1.
         11   -1    0    0    0    0 -0.00000000000E+00 -0.00000000000E+00 -0.50000000000E+03  0.50000000000E+03  0.00000000000E+00 0. -1.
         23    2    1    2    0    0 -0.40936821590E+02  0.58409057006E+02  0.19560190581E+03  0.22694110443E+03  0.90303477349E+02 0.  0.
        -11    1    1    2    0    0  0.72129158894E+02 -0.19993081049E+03  0.23610358027E+03  0.31767883965E+03  0.00000000000E+00 0.  1.
         11    1    1    2    0    0 -0.31192337305E+02  0.14152175348E+03 -0.43170548608E+03  0.45538005592E+03  0.00000000000E+00 0. -1.
        -15    1    3    3    0    0 -0.32325816299E+02  0.82647889910E+02  0.14199506214E+03  0.16745562847E+03  0.17770000000E+01 0.  1.
         15    1    3    3    0    0 -0.86110052906E+01 -0.24238832904E+02  0.53606843672E+02  0.59485475959E+02  0.17770000000E+01 0. -1.
</event>
<event>
 7    1  0.4954109E-006  0.3665483E+03  0.7546771E-02  0.9760755E-01
        -11   -1    0    0    0    0  0.00000000000E+00  0.00000000000E+00  0.50000000000E+03  0.50000000000E+03  0.00000000000E+00 0.  1.
         11   -1    0    0    0    0 -0.00000000000E+00 -0.00000000000E+00 -0.50000000000E+03  0.50000000000E+03  0.00000000000E+00 0.  1.
         23    2    1    2    0    0  0.55840851850E+02 -0.11883446526E+03  0.27159999395E+03  0.31475477540E+03  0.89800785372E+02 0.  0.
        -11    1    1    2    0    0  0.11096272219E+02  0.17222103760E+03  0.16593537568E+03  0.23941128201E+03  0.00000000000E+00 0.  1.
         11    1    1    2    0    0 -0.66937124069E+02 -0.53386572335E+02 -0.43753536964E+03  0.44583394259E+03  0.00000000000E+00 0.  1.
        -15    1    3    3    0    0  0.80368704658E+02 -0.93809590221E+02  0.20132757359E+03  0.23621032476E+03  0.17770000000E+01 0.  1.
         15    1    3    3    0    0 -0.24527852808E+02 -0.25024875042E+02  0.70272420362E+02  0.78544450643E+02  0.17770000000E+01 0. -1.
</event>
<event>
 7    1  0.4954109E-006  0.3646755E+03  0.7546771E-02  0.9766947E-01
        -11   -1    0    0    0    0  0.00000000000E+00  0.00000000000E+00  0.50000000000E+03  0.50000000000E+03  0.00000000000E+00 0.  1.
         11   -1    0    0    0    0 -0.00000000000E+00 -0.00000000000E+00 -0.50000000000E+03  0.50000000000E+03  0.00000000000E+00 0. -1.
         23    2    1    2    0    0 -0.62151863212E+02 -0.51134878261E+02  0.28507380617E+03  0.31017454260E+03  0.91997511035E+02 0.  0.
        -11    1    1    2    0    0  0.11314804512E+03  0.15668978296E+03  0.14655906747E+03  0.24255665000E+03  0.00000000000E+00 0.  1.
         11    1    1    2    0    0 -0.50996181912E+02 -0.10555490470E+03 -0.43163287364E+03  0.44726880741E+03  0.00000000000E+00 0. -1.
        -15    1    3    3    0    0  0.20881829296E+02 -0.17554238308E+02  0.11202302517E+03  0.11531052846E+03  0.17770000000E+01 0. -1.
         15    1    3    3    0    0 -0.83033692508E+02 -0.33580639953E+02  0.17305078100E+03  0.19486401413E+03  0.17770000000E+01 0.  1.
</event>
<event>
 7    1  0.4954109E-006  0.5105806E+03  0.7546771E-02  0.9376441E-01
        -11   -1    0    0    0    0  0.00000000000E+00  0.00000000000E+00  0.50000000000E+03  0.50000000000E+03  0.00000000000E+00 0.  1.
         11   -1    0    0    0    0 -0.00000000000E+00 -0.00000000000E+00 -0.50000000000E+03  0.50000000000E+03  0.00000000000E+00 0. -1.
         23    2    1    2    0    0  0.87316894475E+02 -0.78425666161E+02  0.36152785271E+03  0.39142091745E+03  0.93451169907E+02 0.  0.
        -11    1    1    2    0    0  0.19248466079E+02 -0.74451947655E+02  0.91024422005E+02  0.11915973043E+03  0.00000000000E+00 0.  1.
         11    1    1    2    0    0 -0.10656536055E+03  0.15287761382E+03 -0.45255227472E+03  0.48941935212E+03  0.00000000000E+00 0. -1.
        -15    1    3    3    0    0  0.10657562015E+03 -0.56519228709E+02  0.28373003353E+03  0.30831586998E+03  0.17770000000E+01 0.  1.
         15    1    3    3    0    0 -0.19258725679E+02 -0.21906437452E+02  0.77797819181E+02  0.83105047470E+02  0.17770000000E+01 0. -1.
</event>
<event>
 7    1  0.4954109E-006  0.5246454E+03  0.7546771E-02  0.9346292E-01
        -11   -1    0    0    0    0  0.00000000000E+00  0.00000000000E+00  0.50000000000E+03  0.50000000000E+03  0.00000000000E+00 0.  1.
         11   -1    0    0    0    0 -0.00000000000E+00 -0.00000000000E+00 -0.50000000000E+03  0.50000000000E+03  0.00000000000E+00 0. -1.
         23    2    1    2    0    0 -0.12585607303E+03 -0.10180510529E+02 -0.14785175335E+03  0.21507911436E+03  0.91953741372E+02 0.  0.
        -11    1    1    2    0    0  0.16339269001E+03 -0.97739238668E+02  0.43555926340E+03  0.47535460644E+03  0.00000000000E+00 0.  1.
         11    1    1    2    0    0 -0.37536616985E+02  0.10791974920E+03 -0.28770751005E+03  0.30956627920E+03  0.00000000000E+00 0. -1.
        -15    1    3    3    0    0 -0.80010424701E+02  0.13366408683E+02 -0.30121177950E+02  0.86549246283E+02  0.17770000000E+01 0.  1.
         15    1    3    3    0    0 -0.45845648327E+02 -0.23546919212E+02 -0.11773057540E+03  0.12852986808E+03  0.17770000000E+01 0. -1.
</event>
<event>
 7    1  0.4954109E-006  0.3915842E+03  0.7546771E-02  0.9681599E-01
        -11   -1    0    0    0    0  0.00000000000E+00  0.00000000000E+00  0.50000000000E+03  0.50000000000E+03  0.00000000000E+00 0. -1.
         11   -1    0    0    0    0 -0.00000000000E+00 -0.00000000000E+00 -0.50000000000E+03  0.50000000000E+03  0.00000000000E+00 0. -1.
         23    2    1    2    0    0  0.17028432901E+03  0.11409776558E+03 -0.27359408544E+03  0.35340470131E+03  0.89588540027E+02 0.  0.
        -11    1    1    2    0    0 -0.83993969214E+02 -0.28725188009E+03  0.32958595541E+03  0.44519156718E+03  0.00000000000E+00 0. -1.
         11    1    1    2    0    0 -0.86290359793E+02  0.17315411451E+03 -0.55991869970E+02  0.20140373151E+03  0.00000000000E+00 0. -1.
        -15    1    3    3    0    0  0.12090871035E+03  0.75437629953E+02 -0.11593440591E+03  0.18372179090E+03  0.17770000000E+01 0.  1.
         15    1    3    3    0    0  0.49375618662E+02  0.38660135628E+02 -0.15765967953E+03  0.16968291041E+03  0.17770000000E+01 0. -1.
</event>
<event>
 7    1  0.4954109E-006  0.4735309E+03  0.7546771E-02  0.9461065E-01
        -11   -1    0    0    0    0  0.00000000000E+00  0.00000000000E+00  0.50000000000E+03  0.50000000000E+03  0.00000000000E+00 0.  1.
         11   -1    0    0    0    0 -0.00000000000E+00 -0.00000000000E+00 -0.50000000000E+03  0.50000000000E+03  0.00000000000E+00 0. -1.
         23    2    1    2    0    0  0.11976034455E+03  0.29511971294E+02  0.45374213310E+03  0.47502684196E+03  0.67491337651E+02 0.  0.
        -11    1    1    2    0    0 -0.16728713510E+02  0.53408666663E+02 -0.39120565407E+01  0.56103829787E+02  0.00000000000E+00 0.  1.
         11    1    1    2    0    0 -0.10303163104E+03 -0.82920637957E+02 -0.44983007656E+03  0.46886932825E+03  0.00000000000E+00 0. -1.
        -15    1    3    3    0    0  0.76840363159E+02 -0.59604219277E+01  0.18235945139E+03  0.19798508853E+03  0.17770000000E+01 0. -1.
         15    1    3    3    0    0  0.42919981388E+02  0.35472393222E+02  0.27138268171E+03  0.27704175343E+03  0.17770000000E+01 0.  1.
</event>
<event>
 7    1  0.4954109E-006  0.3859033E+03  0.7546771E-02  0.9698994E-01
        -11   -1    0    0    0    0  0.00000000000E+00  0.00000000000E+00  0.50000000000E+03  0.50000000000E+03  0.00000000000E+00 0. -1.
         11   -1    0    0    0    0 -0.00000000000E+00 -0.00000000000E+00 -0.50000000000E+03  0.50000000000E+03  0.00000000000E+00 0. -1.
         23    2    1    2    0    0  0.98995187681E+02  0.72298981591E+02  0.30256041468E+03  0.33518701988E+03  0.76028572565E+02 0.  0.
        -11    1    1    2    0    0 -0.14584746604E+03 -0.11560130962E+02  0.14780005825E+03  0.20796628861E+03  0.00000000000E+00 0. -1.
         11    1    1    2    0    0  0.46852278363E+02 -0.60738850629E+02 -0.45036047293E+03  0.45684669151E+03  0.00000000000E+00 0. -1.
        -15    1    3    3    0    0  0.30191534517E+02 -0.14444621335E+02  0.70132566003E+02  0.77729726522E+02  0.17770000000E+01 0.  1.
         15    1    3    3    0    0  0.68803653164E+02  0.86743602926E+02  0.23242784867E+03  0.25745729336E+03  0.17770000000E+01 0. -1.
</event>
<event>
 7    1  0.4954109E-006  0.5113935E+03  0.7546771E-02  0.9374671E-01
        -11   -1    0    0    0    0  0.00000000000E+00  0.00000000000E+00  0.50000000000E+03  0.50000000000E+03  0.00000000000E+00 0. -1.
         11   -1    0    0    0    0 -0.00000000000E+00 -0.00000000000E+00 -0.50000000000E+03  0.50000000000E+03  0.00000000000E+00 0.  1.
         23    2    1    2    0    0  0.44139207924E+02 -0.11537603584E+03 -0.22386351677E+03  0.27148960816E+03  0.91278879664E+02 0.  0.
        -11    1    1    2    0    0 -0.12292900352E+03  0.15381070558E+03  0.44717677037E+03  0.48860652576E+03  0.00000000000E+00 0. -1.
         11    1    1    2    0    0  0.78789795600E+02 -0.38434669739E+02 -0.22331325360E+03  0.23990386608E+03  0.00000000000E+00 0.  1.
        -15    1    3    3    0    0 -0.26119815139E+01 -0.10342766330E+03 -0.17118557852E+03  0.20002940785E+03  0.17770000000E+01 0.  1.
         15    1    3    3    0    0  0.46751189438E+02 -0.11948372542E+02 -0.52677938256E+02  0.71460200309E+02  0.17770000000E+01 0. -1.
</event>
<event>
 7    1  0.4954109E-006  0.4361271E+03  0.7546771E-02  0.9555295E-01
        -11   -1    0    0    0    0  0.00000000000E+00  0.00000000000E+00  0.50000000000E+03  0.50000000000E+03  0.00000000000E+00 0.  1.
         11   -1    0    0    0    0 -0.00000000000E+00 -0.00000000000E+00 -0.50000000000E+03  0.50000000000E+03  0.00000000000E+00 0. -1.
         23    2    1    2    0    0  0.59504591318E+02 -0.18815856275E+03  0.38813301907E+03  0.44480753160E+03  0.90895866536E+02 0.  0.
        -11    1    1    2    0    0 -0.11921740459E+02  0.12337049654E+03  0.31536097776E+02  0.12789422495E+03  0.00000000000E+00 0.  1.
         11    1    1    2    0    0 -0.47582850859E+02  0.64788066204E+02 -0.41966911685E+03  0.42729824345E+03  0.00000000000E+00 0. -1.
        -15    1    3    3    0    0  0.75388937625E+02 -0.10346784461E+03  0.26737324553E+03  0.29644678601E+03  0.17770000000E+01 0.  1.
         15    1    3    3    0    0 -0.15884346307E+02 -0.84690718139E+02  0.12075977355E+03  0.14836074559E+03  0.17770000000E+01 0. -1.
</event>
<event>
 7    1  0.4954109E-006  0.4850380E+03  0.7546771E-02  0.9433925E-01
        -11   -1    0    0    0    0  0.00000000000E+00  0.00000000000E+00  0.50000000000E+03  0.50000000000E+03  0.00000000000E+00 0. -1.
         11   -1    0    0    0    0 -0.00000000000E+00 -0.00000000000E+00 -0.50000000000E+03  0.50000000000E+03  0.00000000000E+00 0. -1.
         23    2    1    2    0    0 -0.85548678968E+02 -0.51403569458E+02  0.46392164450E+03  0.48365738616E+03  0.93489419333E+02 0.  0.
        -11    1    1    2    0    0 -0.35953896003E+02  0.12688953207E+02 -0.31577834322E+01  0.38257858898E+02  0.00000000000E+00 0. -1.
         11    1    1    2    0    0  0.12150257497E+03  0.38714616251E+02 -0.46076386107E+03  0.47808475494E+03  0.00000000000E+00 0. -1.
        -15    1    3    3    0    0 -0.63684323959E+02  0.84181467684E+01  0.14760899043E+03  0.16099108701E+03  0.17770000000E+01 0.  1.
         15    1    3    3    0    0 -0.21864355009E+02 -0.59821716226E+02  0.31631265407E+03  0.32266629915E+03  0.17770000000E+01 0. -1.
</event>
<event>
 7    1  0.4954109E-006  0.5293769E+03  0.7546771E-02  0.9336374E-01
        -11   -1    0    0    0    0  0.00000000000E+00  0.00000000000E+00  0.50000000000E+03  0.50000000000E+03  0.00000000000E+00 0.  1.
         11   -1    0    0    0    0 -0.00000000000E+00 -0.00000000000E+00 -0.50000000000E+03  0.50000000000E+03  0.00000000000E+00 0. -1.
         23    2    1    2    0    0 -0.42666026775E+02 -0.18395937415E+02 -0.84199633090E+02  0.13238274042E+03  0.90976982773E+02 0.  0.
        -11    1    1    2    0    0 -0.53602933218E+02  0.21744659933E+03  0.41391999679E+03  0.47062305697E+03  0.00000000000E+00 0.  1.
         11    1    1    2    0    0  0.96268959993E+02 -0.19905066192E+03 -0.32972036370E+03  0.39699420261E+03  0.00000000000E+00 0. -1.
        -15    1    3    3    0    0 -0.30018124579E+02 -0.27860278176E+02 -0.10115209839E+03  0.10914296881E+03  0.17770000000E+01 0.  1.
         15    1    3    3    0    0 -0.12647902196E+02  0.94643407610E+01  0.16952465296E+02  0.23239771613E+02  0.17770000000E+01 0. -1.
</event>
<event>
 7    1  0.4954109E-006  0.5327840E+03  0.7546771E-02  0.9329300E-01
        -11   -1    0    0    0    0  0.00000000000E+00  0.00000000000E+00  0.50000000000E+03  0.50000000000E+03  0.00000000000E+00 0. -1.
         11   -1    0    0    0    0 -0.00000000000E+00 -0.00000000000E+00 -0.50000000000E+03  0.50000000000E+03  0.00000000000E+00 0.  1.
         23    2    1    2    0    0 -0.79045566677E+01 -0.46203389579E+02  0.31810908223E+03  0.33416072587E+03  0.90954754073E+02 0.  0.
        -11    1    1    2    0    0 -0.15538577298E+03  0.32320371759E+02  0.11942301025E+03  0.19862326211E+03  0.00000000000E+00 0. -1.
         11    1    1    2    0    0  0.16329032965E+03  0.13883017821E+02 -0.43753209248E+03  0.46721601202E+03  0.00000000000E+00 0.  1.
        -15    1    3    3    0    0  0.15157067277E+02  0.15178975024E+02  0.21640987358E+02  0.30522582362E+02  0.17770000000E+01 0.  1.
         15    1    3    3    0    0 -0.23061623945E+02 -0.61382364604E+02  0.29646809487E+03  0.30363814350E+03  0.17770000000E+01 0. -1.
</event>
<event>
 7    1  0.4954109E-006  0.5296102E+03  0.7546771E-02  0.9335888E-01
        -11   -1    0    0    0    0  0.00000000000E+00  0.00000000000E+00  0.50000000000E+03  0.50000000000E+03  0.00000000000E+00 0. -1.
         11   -1    0    0    0    0 -0.00000000000E+00 -0.00000000000E+00 -0.50000000000E+03  0.50000000000E+03  0.00000000000E+00 0. -1.
         23    2    1    2    0    0 -0.81624212304E+02  0.13459840185E+03 -0.58471348199E+02  0.19350164732E+03  0.96149608113E+02 0.  0.
        -11    1    1    2    0    0  0.11636020565E+03 -0.28039328305E+03  0.35931388002E+03  0.47038979050E+03  0.00000000000E+00 0. -1.
         11    1    1    2    0    0 -0.34735993341E+02  0.14579488120E+03 -0.30084253182E+03  0.33610856218E+03  0.00000000000E+00 0. -1.
        -15    1    3    3    0    0 -0.95049625689E+02  0.90398253193E+02 -0.18682910240E+02  0.13250843138E+03  0.17770000000E+01 0.  1.
         15    1    3    3    0    0  0.13425413385E+02  0.44200148655E+02 -0.39788437958E+02  0.60993215933E+02  0.17770000000E+01 0. -1.
</event>
<event>
 7    1  0.4954109E-006  0.3431207E+03  0.7546771E-02  0.9841214E-01
        -11   -1    0    0    0    0  0.00000000000E+00  0.00000000000E+00  0.50000000000E+03  0.50000000000E+03  0.00000000000E+00 0.  1.
         11   -1    0    0    0    0 -0.00000000000E+00 -0.00000000000E+00 -0.50000000000E+03  0.50000000000E+03  0.00000000000E+00 0. -1.
         23    2    1    2    0    0 -0.84825957609E+02 -0.17351585039E+02  0.25868172854E+03  0.28717145263E+03  0.89747902145E+02 0.  0.
        -11    1    1    2    0    0 -0.25474535769E+02 -0.26456028138E+03  0.60858107499E+02  0.27266243545E+03  0.00000000000E+00 0.  1.
         11    1    1    2    0    0  0.11030049338E+03  0.28191186642E+03 -0.31953983604E+03  0.44016611192E+03  0.00000000000E+00 0. -1.
        -15    1    3    3    0    0 -0.76439026400E+01  0.30642060678E+02  0.92392067966E+02  0.97656628460E+02  0.17770000000E+01 0.  1.
         15    1    3    3    0    0 -0.77182054969E+02 -0.47993645718E+02  0.16628966057E+03  0.18951482417E+03  0.17770000000E+01 0. -1.
</event>
<event>
 7    1  0.4954109E-006  0.4569372E+03  0.7546771E-02  0.9501682E-01
        -11   -1    0    0    0    0  0.00000000000E+00  0.00000000000E+00  0.50000000000E+03  0.50000000000E+03  0.00000000000E+00 0.  1.
         11   -1    0    0    0    0 -0.00000000000E+00 -0.00000000000E+00 -0.50000000000E+03  0.50000000000E+03  0.00000000000E+00 0. -1.
         23    2    1    2    0    0  0.11628885607E+03 -0.89630962490E+02  0.39444099193E+03  0.43149498820E+03  0.95117933372E+02 0.  0.
        -11    1    1    2    0    0 -0.58308066488E+02  0.42360246379E+00  0.70532613107E+02  0.91514258826E+02  0.00000000000E+00 0.  1.
         11    1    1    2    0    0 -0.57980789578E+02  0.89207360026E+02 -0.46497360503E+03  0.47699075297E+03  0.00000000000E+00 0. -1.
        -15    1    3    3    0    0  0.11816783183E+03 -0.10043320354E+03  0.38968163572E+03  0.41941077692E+03  0.17770000000E+01 0.  1.
         15    1    3    3    0    0 -0.18789757675E+01  0.10802241055E+02  0.47593562118E+01  0.12084211281E+02  0.17770000000E+01 0. -1.
</event>
<event>
 7    1  0.4954109E-006  0.5268796E+03  0.7546771E-02  0.9341595E-01
        -11   -1    0    0    0    0  0.00000000000E+00  0.00000000000E+00  0.50000000000E+03  0.50000000000E+03  0.00000000000E+00 0. -1.
         11   -1    0    0    0    0 -0.00000000000E+00 -0.00000000000E+00 -0.50000000000E+03  0.50000000000E+03  0.00000000000E+00 0.  1.
         23    2    1    2    0    0 -0.13796829994E+03 -0.60631153622E+02 -0.15657392457E+03  0.23599760606E+03  0.92022212716E+02 0.  0.
        -11    1    1    2    0    0  0.12162548885E+03  0.20333934484E+03  0.40951587141E+03  0.47312038387E+03  0.00000000000E+00 0. -1.
         11    1    1    2    0    0  0.16342811088E+02 -0.14270819122E+03 -0.25294194683E+03  0.29088201007E+03  0.00000000000E+00 0.  1.
        -15    1    3    3    0    0 -0.28350763183E+02  0.65773609219E+01 -0.82713226328E+02  0.87702126475E+02  0.17770000000E+01 0. -1.
         15    1    3    3    0    0 -0.10961753675E+03 -0.67208514544E+02 -0.73860698247E+02  0.14829547959E+03  0.17770000000E+01 0.  1.
</event>
<event>
 7    1  0.4954109E-006  0.5158091E+03  0.7546771E-02  0.9365114E-01
        -11   -1    0    0    0    0  0.00000000000E+00  0.00000000000E+00  0.50000000000E+03  0.50000000000E+03  0.00000000000E+00 0.  1.
         11   -1    0    0    0    0 -0.00000000000E+00 -0.00000000000E+00 -0.50000000000E+03  0.50000000000E+03  0.00000000000E+00 0. -1.
         23    2    1    2    0    0  0.32361161373E+02 -0.52300792157E+02  0.12483097399E+03  0.16489711782E+03  0.88462815752E+02 0.  0.
        -11    1    1    2    0    0  0.10050439763E+03 -0.15072212708E+02  0.33587334126E+03  0.35091196462E+03  0.00000000000E+00 0.  1.
         11    1    1    2    0    0 -0.13286555900E+03  0.67373004865E+02 -0.46070431526E+03  0.48419091756E+03  0.00000000000E+00 0. -1.
        -15    1    3    3    0    0 -0.20687568091E+02 -0.14513372394E+02  0.84624175905E+02  0.88334717571E+02  0.17770000000E+01 0.  1.
         15    1    3    3    0    0  0.53048729464E+02 -0.37787419763E+02  0.40206798090E+02  0.76562400248E+02  0.17770000000E+01 0. -1.
</event>
<event>
 7    1  0.4954109E-006  0.4776823E+03  0.7546771E-02  0.9451180E-01
        -11   -1    0    0    0    0  0.00000000000E+00  0.00000000000E+00  0.50000000000E+03  0.50000000000E+03  0.00000000000E+00 0. -1.
         11   -1    0    0    0    0 -0.00000000000E+00 -0.00000000000E+00 -0.50000000000E+03  0.50000000000E+03  0.00000000000E+00 0.  1.
         23    2    1    2    0    0 -0.10687510227E+03 -0.47954325635E+02  0.45015720312E+03  0.47197844495E+03  0.80001500912E+02 0.  0.
        -11    1    1    2    0    0  0.21333810965E+02 -0.43927545769E+02  0.11021199102E+02  0.50062237237E+02  0.00000000000E+00 0. -1.
         11    1    1    2    0    0  0.85541291303E+02  0.91881871404E+02 -0.46117840222E+03  0.47795931781E+03  0.00000000000E+00 0.  1.
        -15    1    3    3    0    0 -0.42502137928E+02 -0.42588809815E+02  0.10681915681E+03  0.12261210560E+03  0.17770000000E+01 0.  1.
         15    1    3    3    0    0 -0.64372964340E+02 -0.53655158197E+01  0.34333804631E+03  0.34936633935E+03  0.17770000000E+01 0. -1.
</event>
<event>
 7    1  0.4954109E-006  0.4687971E+03  0.7546771E-02  0.9472470E-01
        -11   -1    0    0    0    0  0.00000000000E+00  0.00000000000E+00  0.50000000000E+03  0.50000000000E+03  0.00000000000E+00 0.  1.
         11   -1    0    0    0    0 -0.00000000000E+00 -0.00000000000E+00 -0.50000000000E+03  0.50000000000E+03  0.00000000000E+00 0. -1.
         23    2    1    2    0    0 -0.29946960264E+02 -0.14254069430E+03  0.43383989553E+03  0.46652615220E+03  0.90636227745E+02 0.  0.
        -11    1    1    2    0    0 -0.68667280017E+02  0.50670212908E+00 -0.24414093885E+01  0.68712535768E+02  0.00000000000E+00 0.  1.
         11    1    1    2    0    0  0.98614240280E+02  0.14203399217E+03 -0.43139848614E+03  0.46476131203E+03  0.00000000000E+00 0. -1.
        -15    1    3    3    0    0 -0.47512713108E+02 -0.12362034160E+03  0.41166248120E+03  0.43244491316E+03  0.17770000000E+01 0.  1.
         15    1    3    3    0    0  0.17565752844E+02 -0.18920352702E+02  0.22177414323E+02  0.34081239039E+02  0.17770000000E+01 0. -1.
</event>
<event>
 7    1  0.4954109E-006  0.5142675E+03  0.7546771E-02  0.9368439E-01
        -11   -1    0    0    0    0  0.00000000000E+00  0.00000000000E+00  0.50000000000E+03  0.50000000000E+03  0.00000000000E+00 0. -1.
         11   -1    0    0    0    0 -0.00000000000E+00 -0.00000000000E+00 -0.50000000000E+03  0.50000000000E+03  0.00000000000E+00 0.  1.
         23    2    1    2    0    0  0.81881212397E+02  0.39512257447E+02 -0.10744278260E+03  0.16744176611E+03  0.90703043346E+02 0.  0.
        -11    1    1    2    0    0 -0.23906362684E+03 -0.10485777080E+03  0.40962113335E+03  0.48573248055E+03  0.00000000000E+00 0. -1.
         11    1    1    2    0    0  0.15718241444E+03  0.65345513350E+02 -0.30217835075E+03  0.34682575335E+03  0.00000000000E+00 0.  1.
        -15    1    3    3    0    0  0.76857823391E+02  0.61393840148E+02 -0.10637282378E+03  0.14489535532E+03  0.17770000000E+01 0. -1.
         15    1    3    3    0    0  0.50233890058E+01 -0.21881582700E+02 -0.10699588164E+01  0.22546410788E+02  0.17770000000E+01 0.  1.
</event>
<event>
 7    1  0.4954109E-006  0.5395001E+03  0.7546771E-02  0.9315519E-01
        -11   -1    0    0    0    0  0.00000000000E+00  0.00000000000E+00  0.50000000000E+03  0.50000000000E+03  0.00000000000E+00 0.  1.
         11   -1    0    0    0    0 -0.00000000000E+00 -0.00000000000E+00 -0.50000000000E+03  0.50000000000E+03  0.00000000000E+00 0.  1.
         23    2    1    2    0    0 -0.29108989641E+02  0.12705860382E+03 -0.19568233907E+03  0.24951252666E+03  0.83508688514E+02 0.  0.
        -11    1    1    2    0    0  0.84124352022E+02 -0.46085344647E+01  0.45272727604E+03  0.46049987152E+03  0.00000000000E+00 0.  1.
         11    1    1    2    0    0 -0.55015362381E+02 -0.12245006935E+03 -0.25704493698E+03  0.28998760182E+03  0.00000000000E+00 0.  1.
        -15    1    3    3    0    0 -0.31024719879E+02  0.36305220252E+01 -0.42480970916E+02  0.52758928654E+02  0.17770000000E+01 0. -1.
         15    1    3    3    0    0  0.19157302383E+01  0.12342808179E+03 -0.15320136815E+03  0.19675359801E+03  0.17770000000E+01 0.  1.
</event>
<event>
 7    1  0.4954109E-006  0.3094423E+03  0.7546771E-02  0.9969813E-01
        -11   -1    0    0    0    0  0.00000000000E+00  0.00000000000E+00  0.50000000000E+03  0.50000000000E+03  0.00000000000E+00 0. -1.
         11   -1    0    0    0    0 -0.00000000000E+00 -0.00000000000E+00 -0.50000000000E+03  0.50000000000E+03  0.00000000000E+00 0.  1.
         23    2    1    2    0    0 -0.52049534744E+02  0.32167309598E+03  0.62525285656E+02  0.34487199388E+03  0.94045446859E+02 0.  0.
        -11    1    1    2    0    0  0.43617572457E+02 -0.19187253869E+03  0.24910290834E+03  0.31744262895E+03  0.00000000000E+00 0. -1.
         11    1    1    2    0    0  0.84319622875E+01 -0.12980055729E+03 -0.31162819400E+03  0.33768537717E+03  0.00000000000E+00 0.  1.
        -15    1    3    3    0    0  0.25807465290E+01  0.15402871908E+03 -0.96043417956E+01  0.15435966981E+03  0.17770000000E+01 0. -1.
         15    1    3    3    0    0 -0.54630281273E+02  0.16764437690E+03  0.72129627452E+02  0.19051232407E+03  0.17770000000E+01 0.  1.
</event>
<event>
 7    1  0.4954109E-006  0.3360736E+03  0.7546771E-02  0.9866774E-01
        -11   -1    0    0    0    0  0.00000000000E+00  0.00000000000E+00  0.50000000000E+03  0.50000000000E+03  0.00000000000E+00 0. -1.
         11   -1    0    0    0    0 -0.00000000000E+00 -0.00000000000E+00 -0.50000000000E+03  0.50000000000E+03  0.00000000000E+00 0.  1.
         23    2    1    2    0    0  0.92284261104E+02  0.20381426355E+03  0.28100939290E+03  0.37039073993E+03  0.90368038917E+02 0.  0.
        -11    1    1    2    0    0 -0.56316907080E+02 -0.27055910054E+03  0.57869643536E+02  0.28235211448E+03  0.00000000000E+00 0. -1.
         11    1    1    2    0    0 -0.35967354024E+02  0.66744836998E+02 -0.33887903644E+03  0.34725714558E+03  0.00000000000E+00 0.  1.
        -15    1    3    3    0    0 -0.27416255766E+01  0.78340631571E+02  0.58468980803E+02  0.97808744552E+02  0.17770000000E+01 0.  1.
         15    1    3    3    0    0  0.95025886681E+02  0.12547363198E+03  0.22254041210E+03  0.27258199538E+03  0.17770000000E+01 0. -1.
</event>
<event>
 7    1  0.4954109E-006  0.4681616E+03  0.7546771E-02  0.9474012E-01
        -11   -1    0    0    0    0  0.00000000000E+00  0.00000000000E+00  0.50000000000E+03  0.50000000000E+03  0.00000000000E+00 0. -1.
         11   -1    0    0    0    0 -0.00000000000E+00 -0.00000000000E+00 -0.50000000000E+03  0.50000000000E+03  0.00000000000E+00 0.  1.
         23    2    1    2    0    0 -0.41964171365E+02  0.41555176019E+02  0.46706772908E+03  0.48069199659E+03  0.97080933803E+02 0.  0.
        -11    1    1    2    0    0 -0.62853969488E+02 -0.57696729415E+01 -0.32787057033E+02  0.71125956690E+02  0.00000000000E+00 0. -1.
         11    1    1    2    0    0  0.10481814085E+03 -0.35785503077E+02 -0.43428067205E+03  0.44818204671E+03  0.00000000000E+00 0.  1.
        -15    1    3    3    0    0 -0.69816585800E+02  0.43860536962E+02  0.39175214732E+03  0.40033861294E+03  0.17770000000E+01 0. -1.
         15    1    3    3    0    0  0.27852414435E+02 -0.23053609435E+01  0.75315581762E+02  0.80353383650E+02  0.17770000000E+01 0.  1.
</event>
<event>
 7    1  0.4954109E-006  0.4661764E+03  0.7546771E-02  0.9478845E-01
        -11   -1    0    0    0    0  0.00000000000E+00  0.00000000000E+00  0.50000000000E+03  0.50000000000E+03  0.00000000000E+00 0.  1.
         11   -1    0    0    0    0 -0.00000000000E+00 -0.00000000000E+00 -0.50000000000E+03  0.50000000000E+03  0.00000000000E+00 0.  1.
         23    2    1    2    0    0  0.22341751106E+02  0.15046260420E+03  0.45204541037E+03  0.48596863740E+03  0.93178937496E+02 0.  0.
        -11    1    1    2    0    0 -0.15255343951E+02 -0.69793562467E+02 -0.19616796017E+02  0.74085663707E+02  0.00000000000E+00 0.  1.
         11    1    1    2    0    0 -0.70864071549E+01 -0.80669041729E+02 -0.43242861436E+03  0.43994569889E+03  0.00000000000E+00 0.  1.
        -15    1    3    3    0    0 -0.29944170929E+01  0.15276016633E+03  0.39237148989E+03  0.42107384003E+03  0.17770000000E+01 0.  1.
         15    1    3    3    0    0  0.25336168199E+02 -0.22975621332E+01  0.59673920487E+02  0.64894797373E+02  0.17770000000E+01 0. -1.
</event>
<event>
 7    1  0.4954109E-006  0.5259662E+03  0.7546771E-02  0.9343512E-01
        -11   -1    0    0    0    0  0.00000000000E+00  0.00000000000E+00  0.50000000000E+03  0.50000000000E+03  0.00000000000E+00 0.  1.
         11   -1    0    0    0    0 -0.00000000000E+00 -0.00000000000E+00 -0.50000000000E+03  0.50000000000E+03  0.00000000000E+00 0. -1.
         23    2    1    2    0    0  0.48000309325E+02 -0.13948600258E+02  0.11401881366E+03  0.15258853909E+03  0.88229129256E+02 0.  0.
        -11    1    1    2    0    0 -0.11573949959E+02  0.17075336949E+03  0.33184370297E+03  0.37337770784E+03  0.00000000000E+00 0.  1.
         11    1    1    2    0    0 -0.36426359366E+02 -0.15680476923E+03 -0.44586251663E+03  0.47403375307E+03  0.00000000000E+00 0. -1.
        -15    1    3    3    0    0  0.79580333181E+01 -0.17558534013E+02 -0.10292405496E+02  0.21925413357E+02  0.17770000000E+01 0. -1.
         15    1    3    3    0    0  0.40042276007E+02  0.36099337550E+01  0.12431121916E+03  0.13066312574E+03  0.17770000000E+01 0.  1.
</event>
<event>
 7    1  0.4954109E-006  0.5319296E+03  0.7546771E-02  0.9331069E-01
        -11   -1    0    0    0    0  0.00000000000E+00  0.00000000000E+00  0.50000000000E+03  0.50000000000E+03  0.00000000000E+00 0. -1.
         11   -1    0    0    0    0 -0.00000000000E+00 -0.00000000000E+00 -0.50000000000E+03  0.50000000000E+03  0.00000000000E+00 0. -1.
         23    2    1    2    0    0 -0.57602623872E+02 -0.12477189444E+02  0.16697978766E+03  0.20074089561E+03  0.94556412522E+02 0.  0.
        -11    1    1    2    0    0  0.12825442514E+03  0.10709376403E+03  0.28595054509E+03  0.33118874694E+03  0.00000000000E+00 0. -1.
         11    1    1    2    0    0 -0.70651801272E+02 -0.94616574587E+02 -0.45293033274E+03  0.46807035746E+03  0.00000000000E+00 0. -1.
        -15    1    3    3    0    0 -0.47232656841E+01  0.35925011147E+02  0.81203972593E+02  0.88939072170E+02  0.17770000000E+01 0. -1.
         15    1    3    3    0    0 -0.52879358188E+02 -0.48402200591E+02  0.85775815065E+02  0.11180182344E+03  0.17770000000E+01 0.  1.
</event>
<event>
 7    1  0.4954109E-006  0.5305941E+03  0.7546771E-02  0.9333840E-01
        -11   -1    0    0    0    0  0.00000000000E+00  0.00000000000E+00  0.50000000000E+03  0.50000000000E+03  0.00000000000E+00 0.  1.
         11   -1    0    0    0    0 -0.00000000000E+00 -0.00000000000E+00 -0.50000000000E+03  0.50000000000E+03  0.00000000000E+00 0. -1.
         23    2    1    2    0    0  0.11143672936E+03  0.92911539300E+02 -0.12223829081E+03  0.21174795975E+03  0.94044138214E+02 0.  0.
        -11    1    1    2    0    0 -0.27239611040E+03 -0.27149661037E+01  0.38227587554E+03  0.46940585534E+03  0.00000000000E+00 0.  1.
         11    1    1    2    0    0  0.16095938104E+03 -0.90196573196E+02 -0.26003758473E+03  0.31884618492E+03  0.00000000000E+00 0. -1.
        -15    1    3    3    0    0  0.84376425374E+00 -0.16733203688E+02 -0.83344694442E+01  0.18797158128E+02  0.17770000000E+01 0.  1.
         15    1    3    3    0    0  0.11059296511E+03  0.10964474299E+03 -0.11390382136E+03  0.19295080162E+03  0.17770000000E+01 0. -1.
</event>
<event>
 7    1  0.4954109E-006  0.5412704E+03  0.7546771E-02  0.9311922E-01
        -11   -1    0    0    0    0  0.00000000000E+00  0.00000000000E+00  0.50000000000E+03  0.50000000000E+03  0.00000000000E+00 0.  1.
         11   -1    0    0    0    0 -0.00000000000E+00 -0.00000000000E+00 -0.50000000000E+03  0.50000000000E+03  0.00000000000E+00 0. -1.
         23    2    1    2    0    0  0.32607724901E+02  0.14743911809E+03 -0.13590172171E+03  0.22278824458E+03  0.91453631379E+02 0.  0.
        -11    1    1    2    0    0  0.14689334748E+02 -0.10052475948E+03  0.44733859878E+03  0.45872957806E+03  0.00000000000E+00 0.  1.
         11    1    1    2    0    0 -0.47297059649E+02 -0.46914358616E+02 -0.31143687707E+03  0.31848217736E+03  0.00000000000E+00 0. -1.
        -15    1    3    3    0    0  0.21322378171E+02  0.13452113855E+03 -0.67070252257E+02  0.15182936802E+03  0.17770000000E+01 0.  1.
         15    1    3    3    0    0  0.11285346730E+02  0.12917979546E+02 -0.68831469456E+02  0.70958876561E+02  0.17770000000E+01 0. -1.
</event>
<event>
 7    1  0.4954109E-006  0.3490130E+03  0.7546771E-02  0.9820343E-01
        -11   -1    0    0    0    0  0.00000000000E+00  0.00000000000E+00  0.50000000000E+03  0.50000000000E+03  0.00000000000E+00 0.  1.
         11   -1    0    0    0    0 -0.00000000000E+00 -0.00000000000E+00 -0.50000000000E+03  0.50000000000E+03  0.00000000000E+00 0.  1.
         23    2    1    2    0    0 -0.16431694485E+03  0.52396933708E+02  0.20469008472E+03  0.28245694145E+03  0.90213058709E+02 0.  0.
        -11    1    1    2    0    0 -0.20394818009E+03  0.16103798606E+03 -0.49789849379E+02  0.26458859049E+03  0.00000000000E+00 0.  1.
         11    1    1    2    0    0  0.36826512494E+03 -0.21343491977E+03 -0.15490023534E+03  0.45295446806E+03  0.00000000000E+00 0.  1.
        -15    1    3    3    0    0 -0.15246124055E+03  0.29631794249E+02  0.12705756803E+03  0.20067201206E+03  0.17770000000E+01 0.  1.
         15    1    3    3    0    0 -0.11855704305E+02  0.22765139459E+02  0.77632516689E+02  0.81784929392E+02  0.17770000000E+01 0. -1.
</event>
<event>
 7    1  0.4954109E-006  0.5129135E+03  0.7546771E-02  0.9371370E-01
        -11   -1    0    0    0    0  0.00000000000E+00  0.00000000000E+00  0.50000000000E+03  0.50000000000E+03  0.00000000000E+00 0. -1.
         11   -1    0    0    0    0 -0.00000000000E+00 -0.00000000000E+00 -0.50000000000E+03  0.50000000000E+03  0.00000000000E+00 0. -1.
         23    2    1    2    0    0 -0.29839995143E+01  0.70810265398E+02 -0.30086230773E+03  0.32194886629E+03  0.90055240564E+02 0.  0.
        -11    1    1    2    0    0  0.81820390134E+02 -0.14764974161E+03  0.45690073660E+03  0.48708654831E+03  0.00000000000E+00 0. -1.
         11    1    1    2    0    0 -0.78836390619E+02  0.76839476212E+02 -0.15603842888E+03  0.19096458540E+03  0.00000000000E+00 0. -1.
        -15    1    3    3    0    0  0.36417091642E+02  0.58999762999E+01 -0.73921579608E+02  0.82635173774E+02  0.17770000000E+01 0. -1.
         15    1    3    3    0    0 -0.39401091157E+02  0.64910289098E+02 -0.22694072812E+03  0.23931369251E+03  0.17770000000E+01 0.  1.
</event>
<event>
 7    1  0.4954109E-006  0.5216020E+03  0.7546771E-02  0.9352730E-01
        -11   -1    0    0    0    0  0.00000000000E+00  0.00000000000E+00  0.50000000000E+03  0.50000000000E+03  0.00000000000E+00 0.  1.
         11   -1    0    0    0    0 -0.00000000000E+00 -0.00000000000E+00 -0.50000000000E+03  0.50000000000E+03  0.00000000000E+00 0.  1.
         23    2    1    2    0    0 -0.99706919089E+02 -0.33623884113E+02  0.28434881393E+03  0.31628350831E+03  0.90049843697E+02 0.  0.
        -11    1    1    2    0    0  0.53644006905E+02 -0.94273850187E+02  0.17432860962E+03  0.20531853895E+03  0.00000000000E+00 0.  1.
         11    1    1    2    0    0  0.46062912185E+02  0.12789773430E+03 -0.45867742354E+03  0.47839795274E+03  0.00000000000E+00 0.  1.
        -15    1    3    3    0    0 -0.11442575915E+03 -0.36089479736E+02  0.27018010301E+03  0.29562839968E+03  0.17770000000E+01 0.  1.
         15    1    3    3    0    0  0.14718840062E+02  0.24655956229E+01  0.14168710918E+02  0.20655108632E+02  0.17770000000E+01 0. -1.
</event>
<event>
 7    1  0.4954109E-006  0.4510905E+03  0.7546771E-02  0.9516433E-01
        -11   -1    0    0    0    0  0.00000000000E+00  0.00000000000E+00  0.50000000000E+03  0.50000000000E+03  0.00000000000E+00 0.  1.
         11   -1    0    0    0    0 -0.00000000000E+00 -0.00000000000E+00 -0.50000000000E+03  0.50000000000E+03  0.00000000000E+00 0. -1.
         23    2    1    2    0    0 -0.18351067083E+02  0.27069464394E+03 -0.32295337795E+03  0.43200406502E+03  0.93360997964E+02 0.  0.
        -11    1    1    2    0    0 -0.61433576272E+02 -0.25633173407E+03  0.38452535497E+03  0.46619715872E+03  0.00000000000E+00 0.  1.
         11    1    1    2    0    0  0.79784643355E+02 -0.14362909873E+02 -0.61571977014E+02  0.10179877626E+03  0.00000000000E+00 0. -1.
        -15    1    3    3    0    0  0.33857365986E+01  0.21889655069E+03 -0.19880105196E+03  0.29572314605E+03  0.17770000000E+01 0.  1.
         15    1    3    3    0    0 -0.21736803681E+02  0.51798093250E+02 -0.12415232599E+03  0.13628091897E+03  0.17770000000E+01 0. -1.
</event>
<event>
 7    1  0.4954109E-006  0.5154449E+03  0.7546771E-02  0.9365899E-01
        -11   -1    0    0    0    0  0.00000000000E+00  0.00000000000E+00  0.50000000000E+03  0.50000000000E+03  0.00000000000E+00 0. -1.
         11   -1    0    0    0    0 -0.00000000000E+00 -0.00000000000E+00 -0.50000000000E+03  0.50000000000E+03  0.00000000000E+00 0.  1.
         23    2    1    2    0    0  0.36438206382E+01 -0.10180376132E+03  0.39971168265E+03  0.42077651263E+03  0.83103315712E+02 0.  0.
        -11    1    1    2    0    0 -0.55619099941E+02  0.17420164025E+02  0.74600021622E+02  0.94668419333E+02  0.00000000000E+00 0. -1.
         11    1    1    2    0    0  0.51975279303E+02  0.84383597292E+02 -0.47431170428E+03  0.48455506804E+03  0.00000000000E+00 0.  1.
        -15    1    3    3    0    0 -0.10668966538E+02  0.10157429518E+02  0.88247998929E+02  0.89486687643E+02  0.17770000000E+01 0.  1.
         15    1    3    3    0    0  0.14312787176E+02 -0.11196119083E+03  0.31146368372E+03  0.33128982498E+03  0.17770000000E+01 0. -1.
</event>
<event>
 7    1  0.4954109E-006  0.5317066E+03  0.7546771E-02  0.9331531E-01
        -11   -1    0    0    0    0  0.00000000000E+00  0.00000000000E+00  0.50000000000E+03  0.50000000000E+03  0.00000000000E+00 0.  1.
         11   -1    0    0    0    0 -0.00000000000E+00 -0.00000000000E+00 -0.50000000000E+03  0.50000000000E+03  0.00000000000E+00 0.  1.
         23    2    1    2    0    0  0.86975145699E+02  0.31433080554E+02  0.15871135104E+03  0.20506882300E+03  0.91165863659E+02 0.  0.
        -11    1    1    2    0    0 -0.29521489814E+03 -0.26734060890E+03 -0.24632468337E+03  0.46829337694E+03  0.00000000000E+00 0.  1.
         11    1    1    2    0    0  0.20823975244E+03  0.23590752834E+03  0.87613332328E+02  0.32663780006E+03  0.00000000000E+00 0.  1.
        -15    1    3    3    0    0  0.43087118886E+02 -0.29196481829E+02  0.87009680794E+02  0.10140402677E+03  0.17770000000E+01 0.  1.
         15    1    3    3    0    0  0.43888026813E+02  0.60629562383E+02  0.71701670243E+02  0.10366479623E+03  0.17770000000E+01 0. -1.
</event>
<event>
 7    1  0.4954109E-006  0.5131775E+03  0.7546771E-02  0.9370797E-01
        -11   -1    0    0    0    0  0.00000000000E+00  0.00000000000E+00  0.50000000000E+03  0.50000000000E+03  0.00000000000E+00 0. -1.
         11   -1    0    0    0    0 -0.00000000000E+00 -0.00000000000E+00 -0.50000000000E+03  0.50000000000E+03  0.00000000000E+00 0. -1.
         23    2    1    2    0    0 -0.14976350295E+02  0.16353754369E+02  0.31160308235E+03  0.32554923673E+03  0.91619257011E+02 0.  0.
        -11    1    1    2    0    0 -0.77099795265E+02 -0.42374166894E+02  0.16572391915E+03  0.18762826500E+03  0.00000000000E+00 0. -1.
         11    1    1    2    0    0  0.92076145560E+02  0.26020412525E+02 -0.47732700150E+03  0.48682249826E+03  0.00000000000E+00 0. -1.
        -15    1    3    3    0    0 -0.16342522884E+02  0.51867977370E+02  0.23296287797E+03  0.23923257590E+03  0.17770000000E+01 0. -1.
         15    1    3    3    0    0  0.13661725884E+01 -0.35514223001E+02  0.78640204385E+02  0.86316660835E+02  0.17770000000E+01 0.  1.
</event>
<event>
 7    1  0.4954109E-006  0.5245797E+03  0.7546771E-02  0.9346430E-01
        -11   -1    0    0    0    0  0.00000000000E+00  0.00000000000E+00  0.50000000000E+03  0.50000000000E+03  0.00000000000E+00 0. -1.
         11   -1    0    0    0    0 -0.00000000000E+00 -0.00000000000E+00 -0.50000000000E+03  0.50000000000E+03  0.00000000000E+00 0.  1.
         23    2    1    2    0    0  0.11290291106E+01  0.11917639551E+02  0.41433567591E+03  0.42445683387E+03  0.91357794658E+02 0.  0.
        -11    1    1    2    0    0 -0.18375132626E+02  0.84211275675E+02  0.50945148022E+02  0.10012288728E+03  0.00000000000E+00 0. -1.
         11    1    1    2    0    0  0.17246103515E+02 -0.96128915225E+02 -0.46528082393E+03  0.47542027886E+03  0.00000000000E+00 0.  1.
        -15    1    3    3    0    0  0.46157613731E+02  0.38941971809E+01  0.21172240812E+03  0.21673768917E+03  0.17770000000E+01 0.  1.
         15    1    3    3    0    0 -0.45028584620E+02  0.80234423697E+01  0.20261326779E+03  0.20771914469E+03  0.17770000000E+01 0. -1.
</event>
<event>
 7    1  0.4954109E-006  0.5168019E+03  0.7546771E-02  0.9362980E-01
        -11   -1    0    0    0    0  0.00000000000E+00  0.00000000000E+00  0.50000000000E+03  0.50000000000E+03  0.00000000000E+00 0. -1.
         11   -1    0    0    0    0 -0.00000000000E+00 -0.00000000000E+00 -0.50000000000E+03  0.50000000000E+03  0.00000000000E+00 0.  1.
         23    2    1    2    0    0 -0.23425823868E+02  0.18161756770E+02  0.22100659765E+03  0.23974102217E+03  0.88052387072E+02 0.  0.
        -11    1    1    2    0    0  0.35317001821E+02 -0.10401534486E+03  0.25435452958E+03  0.27706084043E+03  0.00000000000E+00 0. -1.
         11    1    1    2    0    0 -0.11891177952E+02  0.85853588087E+02 -0.47536112724E+03  0.48319813740E+03  0.00000000000E+00 0.  1.
        -15    1    3    3    0    0  0.20379572172E+02  0.33709632044E+02  0.14809519810E+03  0.15325472810E+03  0.17770000000E+01 0.  1.
         15    1    3    3    0    0 -0.43805396040E+02 -0.15547875274E+02  0.72911399552E+02  0.86486294067E+02  0.17770000000E+01 0. -1.
</event>
<event>
 7    1  0.5847790E-006  0.4265638E+03  0.7546771E-02  0.9581014E-01
        -11   -1    0    0    0    0  0.00000000000E+00  0.00000000000E+00  0.50000000000E+03  0.50000000000E+03  0.00000000000E+00 0.  1.
         11   -1    0    0    0    0 -0.00000000000E+00 -0.00000000000E+00 -0.50000000000E+03  0.50000000000E+03  0.00000000000E+00 0. -1.
         23    2    1    2    0    0  0.10611721397E+03  0.36295035595E+02 -0.50602192474E+01  0.13951736634E+03  0.82832946234E+02 0.  0.
        -11    1    1    2    0    0 -0.69274803440E+02  0.26171799835E+02  0.42648335857E+03  0.43286489420E+03  0.00000000000E+00 0.  1.
         11    1    1    2    0    0 -0.36842410534E+02 -0.62466835430E+02 -0.42142313932E+03  0.42761773946E+03  0.00000000000E+00 0. -1.
        -15    1    3    3    0    0  0.48410376007E+02 -0.91460712159E+01  0.30418163817E+02  0.57927864994E+02  0.17770000000E+01 0. -1.
         15    1    3    3    0    0  0.57706837967E+02  0.45441106811E+02 -0.35478383064E+02  0.81589501348E+02  0.17770000000E+01 0.  1.
</event>
<event>
 7    1  0.4954109E-006  0.3816929E+03  0.7546771E-02  0.9712095E-01
        -11   -1    0    0    0    0  0.00000000000E+00  0.00000000000E+00  0.50000000000E+03  0.50000000000E+03  0.00000000000E+00 0.  1.
         11   -1    0    0    0    0 -0.00000000000E+00 -0.00000000000E+00 -0.50000000000E+03  0.50000000000E+03  0.00000000000E+00 0.  1.
         23    2    1    2    0    0  0.11045642995E+03 -0.56294160100E+02  0.34559532265E+03  0.37811915308E+03  0.90378711571E+02 0.  0.
        -11    1    1    2    0    0 -0.19984141947E+03 -0.80364910618E+02  0.25060896248E+02  0.21684824259E+03  0.00000000000E+00 0.  1.
         11    1    1    2    0    0  0.89384989519E+02  0.13665907072E+03 -0.37065621890E+03  0.40503260433E+03  0.00000000000E+00 0.  1.
        -15    1    3    3    0    0 -0.88403905317E+01 -0.28565289832E+02  0.52253915246E+02  0.60230869788E+02  0.17770000000E+01 0. -1.
         15    1    3    3    0    0  0.11929682048E+03 -0.27728870267E+02  0.29334140741E+03  0.31788828329E+03  0.17770000000E+01 0.  1.
</event>
<event>
 7    1  0.4954109E-006  0.3664896E+03  0.7546771E-02  0.9760949E-01
        -11   -1    0    0    0    0  0.00000000000E+00  0.00000000000E+00  0.50000000000E+03  0.50000000000E+03  0.00000000000E+00 0.  1.
         11   -1    0    0    0    0 -0.00000000000E+00 -0.00000000000E+00 -0.50000000000E+03  0.50000000000E+03  0.00000000000E+00 0. -1.
         23    2    1    2    0    0  0.93376987267E+01 -0.38372437769E+03  0.24906810621E+01  0.39482108386E+03  0.92444005307E+02 0.  0.
        -11    1    1    2    0    0 -0.19038687210E+02  0.29167339729E+03  0.21892789064E+03  0.36519209137E+03  0.00000000000E+00 0.  1.
         11    1    1    2    0    0  0.97009884831E+01  0.92050980398E+02 -0.22141857170E+03  0.23998682477E+03  0.00000000000E+00 0. -1.
        -15    1    3    3    0    0  0.15846223695E+02 -0.12221978856E+03  0.42100976529E+02  0.13024756994E+03  0.17770000000E+01 0. -1.
         15    1    3    3    0    0 -0.65085249681E+01 -0.26150458913E+03 -0.39610295466E+02  0.26457351392E+03  0.17770000000E+01 0.  1.
</event>
<event>
 7    1  0.4954109E-006  0.4158461E+03  0.7546771E-02  0.9610706E-01
        -11   -1    0    0    0    0  0.00000000000E+00  0.00000000000E+00  0.50000000000E+03  0.50000000000E+03  0.00000000000E+00 0. -1.
         11   -1    0    0    0    0 -0.00000000000E+00 -0.00000000000E+00 -0.50000000000E+03  0.50000000000E+03  0.00000000000E+00 0. -1.
         23    2    1    2    0    0  0.37615397990E+02  0.58782388624E+02  0.41578486576E+03  0.43138802266E+03  0.91368945088E+02 0.  0.
        -11    1    1    2    0    0 -0.27926206558E+02 -0.15856836275E+03 -0.22287565472E+02  0.16254394560E+03  0.00000000000E+00 0. -1.
         11    1    1    2    0    0 -0.96891914318E+01  0.99785974124E+02 -0.39349730029E+03  0.40606803173E+03  0.00000000000E+00 0. -1.
        -15    1    3    3    0    0  0.40440149544E+02 -0.71803256550E+01  0.24216689172E+03  0.24563168351E+03  0.17770000000E+01 0. -1.
         15    1    3    3    0    0 -0.28247515543E+01  0.65962714279E+02  0.17361797404E+03  0.18575633915E+03  0.17770000000E+01 0.  1.
</event>
<event>
 7    1  0.4954109E-006  0.4910826E+03  0.7546771E-02  0.9419987E-01
        -11   -1    0    0    0    0  0.00000000000E+00  0.00000000000E+00  0.50000000000E+03  0.50000000000E+03  0.00000000000E+00 0. -1.
         11   -1    0    0    0    0 -0.00000000000E+00 -0.00000000000E+00 -0.50000000000E+03  0.50000000000E+03  0.00000000000E+00 0. -1.
         23    2    1    2    0    0  0.29886483411E+02 -0.88972518977E+02  0.47033756020E+03  0.49361517474E+03  0.11674420404E+03 0.  0.
        -11    1    1    2    0    0 -0.10917595119E+02 -0.27594932654E+02 -0.10273602181E+02  0.31404157259E+02  0.00000000000E+00 0. -1.
         11    1    1    2    0    0 -0.18968888291E+02  0.11656745163E+03 -0.46006395802E+03  0.47498066800E+03  0.00000000000E+00 0. -1.
        -15    1    3    3    0    0  0.65930427581E+02 -0.62166854125E+02  0.39999503859E+03  0.41013501150E+03  0.17770000000E+01 0. -1.
         15    1    3    3    0    0 -0.36043944170E+02 -0.26805664852E+02  0.70342521614E+02  0.83480163245E+02  0.17770000000E+01 0.  1.
</event>
<event>
 7    1  0.4954109E-006  0.5185778E+03  0.7546771E-02  0.9359174E-01
        -11   -1    0    0    0    0  0.00000000000E+00  0.00000000000E+00  0.50000000000E+03  0.50000000000E+03  0.00000000000E+00 0. -1.
         11   -1    0    0    0    0 -0.00000000000E+00 -0.00000000000E+00 -0.50000000000E+03  0.50000000000E+03  0.00000000000E+00 0.  1.
         23    2    1    2    0    0 -0.91988243568E+02 -0.31189213901E+02 -0.23782662241E+03  0.27327037563E+03  0.93169693842E+02 0.  0.
        -11    1    1    2    0    0  0.85060449181E+02  0.16175547136E+03  0.44538432897E+03  0.48142217753E+03  0.00000000000E+00 0. -1.
         11    1    1    2    0    0  0.69277943874E+01 -0.13056625746E+03 -0.20755770656E+03  0.24530744684E+03  0.00000000000E+00 0.  1.
        -15    1    3    3    0    0 -0.14945765457E+02 -0.43214829302E+02 -0.40576355357E+02  0.61159592213E+02  0.17770000000E+01 0. -1.
         15    1    3    3    0    0 -0.77042478112E+02  0.12025615401E+02 -0.19725026705E+03  0.21211078341E+03  0.17770000000E+01 0.  1.
</event>
<event>
 6    1  0.4954109E-006  0.5224510E+03  0.7546771E-02  0.9350929E-01
        -11   -1    0    0    0    0  0.00000000000E+00  0.00000000000E+00  0.50000000000E+03  0.50000000000E+03  0.00000000000E+00 0.  1.
         11   -1    0    0    0    0 -0.00000000000E+00 -0.00000000000E+00 -0.50000000000E+03  0.50000000000E+03  0.00000000000E+00 0. -1.
        -11    1    1    2    0    0 -0.21609646478E+03  0.19938199945E+03  0.37630066355E+03  0.47754900606E+03  0.00000000000E+00 0.  1.
         11    1    1    2    0    0  0.13701043077E+03 -0.85606174518E+02 -0.23799400365E+03  0.28764808539E+03  0.00000000000E+00 0. -1.
        -15    1    1    2    0    0  0.30341028984E+02 -0.72242077723E+02 -0.15041003036E+03  0.16960492562E+03  0.17770000000E+01 0.  1.
         15    1    1    2    0    0  0.48745005029E+02 -0.41533747209E+02  0.12103370463E+02  0.65197982930E+02  0.17770000000E+01 0. -1.
</event>
<event>
 7    1  0.4954109E-006  0.5224623E+03  0.7546771E-02  0.9350905E-01
        -11   -1    0    0    0    0  0.00000000000E+00  0.00000000000E+00  0.50000000000E+03  0.50000000000E+03  0.00000000000E+00 0.  1.
         11   -1    0    0    0    0 -0.00000000000E+00 -0.00000000000E+00 -0.50000000000E+03  0.50000000000E+03  0.00000000000E+00 0.  1.
         23    2    1    2    0    0  0.61857252396E+02 -0.82739040116E+02 -0.10231150911E+03  0.17139394759E+03  0.90753357739E+02 0.  0.
        -11    1    1    2    0    0 -0.92933673263E+02  0.13806772183E+03  0.44759683422E+03  0.47753773614E+03  0.00000000000E+00 0.  1.
         11    1    1    2    0    0  0.31076420867E+02 -0.55328681715E+02 -0.34528532511E+03  0.35106831627E+03  0.00000000000E+00 0.  1.
        -15    1    3    3    0    0  0.63369552847E+02 -0.42796774107E+02 -0.18757727341E+02  0.78754518385E+02  0.17770000000E+01 0.  1.
         15    1    3    3    0    0 -0.15123004516E+01 -0.39942266009E+02 -0.83553781769E+02  0.92639429206E+02  0.17770000000E+01 0. -1.
</event>
<event>
 7    1  0.4954109E-006  0.5172961E+03  0.7546771E-02  0.9361919E-01
        -11   -1    0    0    0    0  0.00000000000E+00  0.00000000000E+00  0.50000000000E+03  0.50000000000E+03  0.00000000000E+00 0.  1.
         11   -1    0    0    0    0 -0.00000000000E+00 -0.00000000000E+00 -0.50000000000E+03  0.50000000000E+03  0.00000000000E+00 0. -1.
         23    2    1    2    0    0  0.92609275647E+02  0.18430533601E+02  0.25856904968E+03  0.29163641041E+03  0.96320713883E+02 0.  0.
        -11    1    1    2    0    0  0.56312289954E+01  0.11250872872E+03  0.19553094850E+03  0.22565964770E+03  0.00000000000E+00 0.  1.
         11    1    1    2    0    0 -0.98240504643E+02 -0.13093926232E+03 -0.45409999818E+03  0.48270394189E+03  0.00000000000E+00 0. -1.
        -15    1    3    3    0    0 -0.18070170466E+02 -0.89189939573E+01  0.29670017817E+02  0.35910265943E+02  0.17770000000E+01 0. -1.
         15    1    3    3    0    0  0.11067944611E+03  0.27349527558E+02  0.22889903186E+03  0.25572614447E+03  0.17770000000E+01 0.  1.
</event>
<event>
 7    1  0.4954109E-006  0.4592673E+03  0.7546771E-02  0.9495869E-01
        -11   -1    0    0    0    0  0.00000000000E+00  0.00000000000E+00  0.50000000000E+03  0.50000000000E+03  0.00000000000E+00 0.  1.
         11   -1    0    0    0    0 -0.00000000000E+00 -0.00000000000E+00 -0.50000000000E+03  0.50000000000E+03  0.00000000000E+00 0. -1.
         23    2    1    2    0    0  0.35289309299E+02  0.48722955320E+01  0.42238514819E+03  0.43385588302E+03  0.92480480139E+02 0.  0.
        -11    1    1    2    0    0  0.19417884157E+02 -0.68448952363E+02  0.49620734818E+02  0.86744052410E+02  0.00000000000E+00 0.  1.
         11    1    1    2    0    0 -0.54707193457E+02  0.63576656831E+02 -0.47200588301E+03  0.47940006457E+03  0.00000000000E+00 0. -1.
        -15    1    3    3    0    0  0.50181963109E+02 -0.25963759285E+02  0.33923792141E+03  0.34391550019E+03  0.17770000000E+01 0.  1.
         15    1    3    3    0    0 -0.14892653810E+02  0.30836054817E+02  0.83147226781E+02  0.89940382836E+02  0.17770000000E+01 0. -1.
</event>
<event>
 7    1  0.4954109E-006  0.4530178E+03  0.7546771E-02  0.9511544E-01
        -11   -1    0    0    0    0  0.00000000000E+00  0.00000000000E+00  0.50000000000E+03  0.50000000000E+03  0.00000000000E+00 0. -1.
         11   -1    0    0    0    0 -0.00000000000E+00 -0.00000000000E+00 -0.50000000000E+03  0.50000000000E+03  0.00000000000E+00 0.  1.
         23    2    1    2    0    0  0.19906106564E+02  0.27309597325E+02  0.41551343578E+03  0.43130040686E+03  0.11057376934E+03 0.  0.
        -11    1    1    2    0    0  0.94644412526E+02  0.13437210750E+02  0.35205450732E+02  0.10187024696E+03  0.00000000000E+00 0. -1.
         11    1    1    2    0    0 -0.11455051909E+03 -0.40746808075E+02 -0.45071888651E+03  0.46682934617E+03  0.00000000000E+00 0.  1.
        -15    1    3    3    0    0  0.26336889958E+02 -0.36657681671E+02  0.24354775242E+03  0.24770160039E+03  0.17770000000E+01 0. -1.
         15    1    3    3    0    0 -0.64307833938E+01  0.63967278996E+02  0.17196568336E+03  0.18359880648E+03  0.17770000000E+01 0.  1.
</event>
<event>
 7    1  0.4954109E-006  0.5186368E+03  0.7546771E-02  0.9359048E-01
        -11   -1    0    0    0    0  0.00000000000E+00  0.00000000000E+00  0.50000000000E+03  0.50000000000E+03  0.00000000000E+00 0.  1.
         11   -1    0    0    0    0 -0.00000000000E+00 -0.00000000000E+00 -0.50000000000E+03  0.50000000000E+03  0.00000000000E+00 0. -1.
         23    2    1    2    0    0 -0.39400363022E+02  0.50594415981E+02  0.10434757692E+03  0.15254568971E+03  0.90937270157E+02 0.  0.
        -11    1    1    2    0    0 -0.10796067493E+03  0.12051980093E+02  0.34960253184E+03  0.36609109225E+03  0.00000000000E+00 0.  1.
         11    1    1    2    0    0  0.14736103795E+03 -0.62646396074E+02 -0.45395010876E+03  0.48136321805E+03  0.00000000000E+00 0. -1.
        -15    1    3    3    0    0 -0.19599820994E+02  0.36440868419E+02  0.11766763946E+03  0.12474342059E+03  0.17770000000E+01 0. -1.
         15    1    3    3    0    0 -0.19800542028E+02  0.14153547562E+02 -0.13320062539E+02  0.27802269120E+02  0.17770000000E+01 0.  1.
</event>
<event>
 7    1  0.4954109E-006  0.3400834E+03  0.7546771E-02  0.9852149E-01
        -11   -1    0    0    0    0  0.00000000000E+00  0.00000000000E+00  0.50000000000E+03  0.50000000000E+03  0.00000000000E+00 0. -1.
         11   -1    0    0    0    0 -0.00000000000E+00 -0.00000000000E+00 -0.50000000000E+03  0.50000000000E+03  0.00000000000E+00 0.  1.
         23    2    1    2    0    0  0.38364972948E+02  0.33430131658E+03 -0.11477836755E+03  0.36691439719E+03  0.90679985623E+02 0.  0.
        -11    1    1    2    0    0  0.23992996401E+03 -0.13797960688E+03  0.10772588902E+02  0.27698521299E+03  0.00000000000E+00 0.  1.
         11    1    1    2    0    0 -0.27829493696E+03 -0.19632170970E+03  0.10400577864E+03  0.35610038982E+03  0.00000000000E+00 0. -1.
        -15    1    3    3    0    0  0.21543365110E+01  0.19337549299E+02 -0.34846358459E+02  0.39950073912E+02  0.17770000000E+01 0. -1.
         15    1    3    3    0    0  0.36210636437E+02  0.31496376728E+03 -0.79932009087E+02  0.32696432328E+03  0.17770000000E+01 0.  1.
</event>
<event>
 7    1  0.4954109E-006  0.4092495E+03  0.7546771E-02  0.9629459E-01
        -11   -1    0    0    0    0  0.00000000000E+00  0.00000000000E+00  0.50000000000E+03  0.50000000000E+03  0.00000000000E+00 0.  1.
         11   -1    0    0    0    0 -0.00000000000E+00 -0.00000000000E+00 -0.50000000000E+03  0.50000000000E+03  0.00000000000E+00 0.  1.
         23    2    1    2    0    0 -0.13486237043E+03 -0.26220703089E+02 -0.17606743654E+02  0.16986388921E+03  0.98327815018E+02 0.  0.
        -11    1    1    2    0    0  0.10768499565E+03  0.97877946122E+02  0.40754088268E+03  0.43274209604E+03  0.00000000000E+00 0.  1.
         11    1    1    2    0    0  0.27177374780E+02 -0.71657243033E+02 -0.38993413903E+03  0.39739401475E+03  0.00000000000E+00 0.  1.
        -15    1    3    3    0    0 -0.12407474575E+03 -0.32519660854E+02  0.20334442213E+02  0.12987962944E+03  0.17770000000E+01 0.  1.
         15    1    3    3    0    0 -0.10787624684E+02  0.62989577658E+01 -0.37941185867E+02  0.39984259768E+02  0.17770000000E+01 0. -1.
</event>
<event>
 7    1  0.4954109E-006  0.3629843E+03  0.7546771E-02  0.9772573E-01
        -11   -1    0    0    0    0  0.00000000000E+00  0.00000000000E+00  0.50000000000E+03  0.50000000000E+03  0.00000000000E+00 0.  1.
         11   -1    0    0    0    0 -0.00000000000E+00 -0.00000000000E+00 -0.50000000000E+03  0.50000000000E+03  0.00000000000E+00 0. -1.
         23    2    1    2    0    0 -0.48774164225E+02 -0.81597694756E+02 -0.27565470258E+03  0.30543321735E+03  0.90922122303E+02 0.  0.
        -11    1    1    2    0    0  0.19465329210E+03 -0.71426240675E+02  0.39910133285E+03  0.44974824721E+03  0.00000000000E+00 0.  1.
         11    1    1    2    0    0 -0.14587912788E+03  0.15302393543E+03 -0.12344663028E+03  0.24481853543E+03  0.00000000000E+00 0. -1.
        -15    1    3    3    0    0  0.45608694933E+01 -0.77297123638E+02 -0.17655635660E+03  0.19279769615E+03  0.17770000000E+01 0. -1.
         15    1    3    3    0    0 -0.53335033719E+02 -0.43005711186E+01 -0.99098345974E+02  0.11263552121E+03  0.17770000000E+01 0.  1.
</event>
<event>
 7    1  0.4954109E-006  0.3559500E+03  0.7546771E-02  0.9796331E-01
        -11   -1    0    0    0    0  0.00000000000E+00  0.00000000000E+00  0.50000000000E+03  0.50000000000E+03  0.00000000000E+00 0.  1.
         11   -1    0    0    0    0 -0.00000000000E+00 -0.00000000000E+00 -0.50000000000E+03  0.50000000000E+03  0.00000000000E+00 0. -1.
         23    2    1    2    0    0  0.42239520398E+02 -0.13660253771E+03 -0.17201691009E+03  0.25378560130E+03  0.11988696207E+03 0.  0.
        -11    1    1    2    0    0 -0.16191654452E+03  0.20830619217E+02  0.41824161514E+03  0.44897319599E+03  0.00000000000E+00 0.  1.
         11    1    1    2    0    0  0.11967702412E+03  0.11577191849E+03 -0.24622470505E+03  0.29724120271E+03  0.00000000000E+00 0. -1.
        -15    1    3    3    0    0  0.25169219187E+02 -0.13439820113E+03 -0.76451677549E+02  0.15666646990E+03  0.17770000000E+01 0.  1.
         15    1    3    3    0    0  0.17070301212E+02 -0.22043365809E+01 -0.95565232544E+02  0.97119131398E+02  0.17770000000E+01 0. -1.
</event>
<event>
 7    1  0.4954109E-006  0.5411960E+03  0.7546771E-02  0.9312073E-01
        -11   -1    0    0    0    0  0.00000000000E+00  0.00000000000E+00  0.50000000000E+03  0.50000000000E+03  0.00000000000E+00 0. -1.
         11   -1    0    0    0    0 -0.00000000000E+00 -0.00000000000E+00 -0.50000000000E+03  0.50000000000E+03  0.00000000000E+00 0.  1.
         23    2    1    2    0    0 -0.65530978460E+02  0.37394984978E+02 -0.13225332233E+03  0.17819757616E+03  0.92578295741E+02 0.  0.
        -11    1    1    2    0    0 -0.13587213680E+03 -0.72061781734E+02  0.43225803320E+03  0.45880403792E+03  0.00000000000E+00 0. -1.
         11    1    1    2    0    0  0.20140311526E+03  0.34666796757E+02 -0.30000471088E+03  0.36299838592E+03  0.00000000000E+00 0.  1.
        -15    1    3    3    0    0 -0.44333295268E+02  0.58181422284E+02 -0.44728071645E+02  0.85757081867E+02  0.17770000000E+01 0. -1.
         15    1    3    3    0    0 -0.21197683191E+02 -0.20786437306E+02 -0.87525250681E+02  0.92440494289E+02  0.17770000000E+01 0.  1.
</event>
<event>
 7    1  0.4954109E-006  0.5170793E+03  0.7546771E-02  0.9362384E-01
        -11   -1    0    0    0    0  0.00000000000E+00  0.00000000000E+00  0.50000000000E+03  0.50000000000E+03  0.00000000000E+00 0. -1.
         11   -1    0    0    0    0 -0.00000000000E+00 -0.00000000000E+00 -0.50000000000E+03  0.50000000000E+03  0.00000000000E+00 0.  1.
         23    2    1    2    0    0  0.10831354795E+03  0.29645111639E+01  0.35441080992E+03  0.38176373156E+03  0.91629206831E+02 0.  0.
        -11    1    1    2    0    0 -0.27831334600E+02  0.61248844252E+02  0.11740657422E+03  0.13531558587E+03  0.00000000000E+00 0. -1.
         11    1    1    2    0    0 -0.80482213351E+02 -0.64213355416E+02 -0.47181738415E+03  0.48292068258E+03  0.00000000000E+00 0.  1.
        -15    1    3    3    0    0  0.12187790956E+03  0.15696738657E+02  0.31570805615E+03  0.33878510429E+03  0.17770000000E+01 0. -1.
         15    1    3    3    0    0 -0.13564361609E+02 -0.12732227493E+02  0.38702753772E+02  0.42978627262E+02  0.17770000000E+01 0.  1.
</event>
<event>
 7    1  0.4954109E-006  0.5400088E+03  0.7546771E-02  0.9314484E-01
        -11   -1    0    0    0    0  0.00000000000E+00  0.00000000000E+00  0.50000000000E+03  0.50000000000E+03  0.00000000000E+00 0.  1.
         11   -1    0    0    0    0 -0.00000000000E+00 -0.00000000000E+00 -0.50000000000E+03  0.50000000000E+03  0.00000000000E+00 0. -1.
         23    2    1    2    0    0 -0.15450009366E+03  0.38148442493E+02 -0.35396296275E+02  0.18535201994E+03  0.88186682097E+02 0.  0.
        -11    1    1    2    0    0  0.34738121787E+03  0.16686394305E+03  0.25114664200E+03  0.45999121927E+03  0.00000000000E+00 0.  1.
         11    1    1    2    0    0 -0.19288112421E+03 -0.20501238554E+03 -0.21575034572E+03  0.35465676080E+03  0.00000000000E+00 0. -1.
        -15    1    3    3    0    0 -0.14022801130E+03  0.59362213005E+02 -0.43664226905E+02  0.15842187326E+03  0.17770000000E+01 0. -1.
         15    1    3    3    0    0 -0.14272082353E+02 -0.21213770512E+02  0.82679306298E+01  0.26930146674E+02  0.17770000000E+01 0.  1.
</event>
<event>
 7    1  0.7975316E-006  0.5252314E+03  0.7546771E-02  0.9345058E-01
        -11   -1    0    0    0    0  0.00000000000E+00  0.00000000000E+00  0.50000000000E+03  0.50000000000E+03  0.00000000000E+00 0.  1.
         11   -1    0    0    0    0 -0.00000000000E+00 -0.00000000000E+00 -0.50000000000E+03  0.50000000000E+03  0.00000000000E+00 0.  1.
         23    2    1    2    0    0 -0.13253149308E+03  0.53260442638E+02 -0.21566941880E+03  0.26871557838E+03  0.72756391117E+02 0.  0.
        -11    1    1    2    0    0  0.84516962123E+02 -0.27772272177E+02  0.46635910703E+03  0.47476860964E+03  0.00000000000E+00 0.  1.
         11    1    1    2    0    0  0.48014530958E+02 -0.25488170461E+02 -0.25068968823E+03  0.25651581199E+03  0.00000000000E+00 0.  1.
        -15    1    3    3    0    0 -0.10899096093E+03  0.20564603104E+02 -0.11271574950E+03  0.15814528251E+03  0.17770000000E+01 0.  1.
         15    1    3    3    0    0 -0.23540532147E+02  0.32695839534E+02 -0.10295366930E+03  0.11057029586E+03  0.17770000000E+01 0. -1.
</event>
<event>
 7    1  0.4954109E-006  0.5282173E+03  0.7546771E-02  0.9338795E-01
        -11   -1    0    0    0    0  0.00000000000E+00  0.00000000000E+00  0.50000000000E+03  0.50000000000E+03  0.00000000000E+00 0. -1.
         11   -1    0    0    0    0 -0.00000000000E+00 -0.00000000000E+00 -0.50000000000E+03  0.50000000000E+03  0.00000000000E+00 0.  1.
         23    2    1    2    0    0 -0.49541386782E+02  0.85613246628E+01  0.30932223571E+03  0.32639922135E+03  0.91260949550E+02 0.  0.
        -11    1    1    2    0    0 -0.91135516198E+02 -0.13037008066E+03  0.12421153571E+03  0.20181810089E+03  0.00000000000E+00 0. -1.
         11    1    1    2    0    0  0.14067690298E+03  0.12180875600E+03 -0.43353377142E+03  0.47178267776E+03  0.00000000000E+00 0.  1.
        -15    1    3    3    0    0 -0.10725966797E+02  0.40473870882E+02  0.67864120644E+02  0.79761376540E+02  0.17770000000E+01 0.  1.
         15    1    3    3    0    0 -0.38815419986E+02 -0.31912546219E+02  0.24145811506E+03  0.24663784481E+03  0.17770000000E+01 0. -1.
</event>
<event>
 7    1  0.4954109E-006  0.5238256E+03  0.7546771E-02  0.9348022E-01
        -11   -1    0    0    0    0  0.00000000000E+00  0.00000000000E+00  0.50000000000E+03  0.50000000000E+03  0.00000000000E+00 0.  1.
         11   -1    0    0    0    0 -0.00000000000E+00 -0.00000000000E+00 -0.50000000000E+03  0.50000000000E+03  0.00000000000E+00 0. -1.
         23    2    1    2    0    0  0.52022030567E+02 -0.16995184211E+03 -0.34977710763E+03  0.40356211030E+03  0.94490378052E+02 0.  0.
        -11    1    1    2    0    0 -0.89919788436E+02  0.11939804406E+03  0.45210685635E+03  0.47617441220E+03  0.00000000000E+00 0.  1.
         11    1    1    2    0    0  0.37897757869E+02  0.50553798050E+02 -0.10232974871E+03  0.12026347750E+03  0.00000000000E+00 0. -1.
        -15    1    3    3    0    0 -0.57156713388E+01  0.10339567845E+02 -0.19288358636E+02  0.22688633056E+02  0.17770000000E+01 0.  1.
         15    1    3    3    0    0  0.57737701905E+02 -0.18029140996E+03 -0.33048874900E+03  0.38087347724E+03  0.17770000000E+01 0. -1.
</event>
<event>
 7    1  0.4954109E-006  0.5359765E+03  0.7546771E-02  0.9322723E-01
        -11   -1    0    0    0    0  0.00000000000E+00  0.00000000000E+00  0.50000000000E+03  0.50000000000E+03  0.00000000000E+00 0. -1.
         11   -1    0    0    0    0 -0.00000000000E+00 -0.00000000000E+00 -0.50000000000E+03  0.50000000000E+03  0.00000000000E+00 0. -1.
         23    2    1    2    0    0  0.75365549498E+02 -0.94523798620E+02  0.13249402747E+03  0.20263949178E+03  0.94304728182E+02 0.  0.
        -11    1    1    2    0    0  0.40827270053E+02  0.95493701258E+02  0.31674541846E+03  0.33333702626E+03  0.00000000000E+00 0. -1.
         11    1    1    2    0    0 -0.11619281955E+03 -0.96990263836E+00 -0.44923944593E+03  0.46402348196E+03  0.00000000000E+00 0. -1.
        -15    1    3    3    0    0  0.11997985558E+02 -0.70658061173E+02  0.10993521911E+03  0.13124566049E+03  0.17770000000E+01 0. -1.
         15    1    3    3    0    0  0.63367563941E+02 -0.23865737447E+02  0.22558808360E+02  0.71393831297E+02  0.17770000000E+01 0.  1.
</event>
<event>
 7    1  0.4954109E-006  0.5358513E+03  0.7546771E-02  0.9322980E-01
        -11   -1    0    0    0    0  0.00000000000E+00  0.00000000000E+00  0.50000000000E+03  0.50000000000E+03  0.00000000000E+00 0.  1.
         11   -1    0    0    0    0 -0.00000000000E+00 -0.00000000000E+00 -0.50000000000E+03  0.50000000000E+03  0.00000000000E+00 0. -1.
         23    2    1    2    0    0  0.35819415646E+02 -0.11294137241E+02  0.96361637772E+02  0.13685298549E+03  0.89624697099E+02 0.  0.
        -11    1    1    2    0    0 -0.19920680320E+03  0.11962053172E+03  0.32435670505E+03  0.39899836361E+03  0.00000000000E+00 0.  1.
         11    1    1    2    0    0  0.16338738756E+03 -0.10832639447E+03 -0.42071834282E+03  0.46414865091E+03  0.00000000000E+00 0. -1.
        -15    1    3    3    0    0  0.55703547127E+01  0.26304619628E+02  0.82239011185E+02  0.86541172601E+02  0.17770000000E+01 0. -1.
         15    1    3    3    0    0  0.30249060933E+02 -0.37598756869E+02  0.14122626586E+02  0.50311812888E+02  0.17770000000E+01 0.  1.
</event>
<event>
 7    1  0.4954109E-006  0.4181590E+03  0.7546771E-02  0.9604218E-01
        -11   -1    0    0    0    0  0.00000000000E+00  0.00000000000E+00  0.50000000000E+03  0.50000000000E+03  0.00000000000E+00 0.  1.
         11   -1    0    0    0    0 -0.00000000000E+00 -0.00000000000E+00 -0.50000000000E+03  0.50000000000E+03  0.00000000000E+00 0. -1.
         23    2    1    2    0    0  0.14052904302E+03 -0.76471969802E+02  0.33090063791E+03  0.37861423460E+03  0.90868764591E+02 0.  0.
        -11    1    1    2    0    0 -0.60345204703E+02  0.76890435077E+02  0.12489244129E+03  0.15859320486E+03  0.00000000000E+00 0.  1.
         11    1    1    2    0    0 -0.80183838314E+02 -0.41846527509E+00 -0.45579307920E+03  0.46279256053E+03  0.00000000000E+00 0. -1.
        -15    1    3    3    0    0  0.80670112687E+02 -0.86486661493E+02  0.25741571608E+03  0.28329069577E+03  0.17770000000E+01 0.  1.
         15    1    3    3    0    0  0.59858930331E+02  0.10014691691E+02  0.73484921831E+02  0.95323538832E+02  0.17770000000E+01 0. -1.
</event>
<event>
 6    1  0.4954109E-006  0.3500913E+03  0.7546771E-02  0.9816572E-01
        -11   -1    0    0    0    0  0.00000000000E+00  0.00000000000E+00  0.50000000000E+03  0.50000000000E+03  0.00000000000E+00 0. -1.
         11   -1    0    0    0    0 -0.00000000000E+00 -0.00000000000E+00 -0.50000000000E+03  0.50000000000E+03  0.00000000000E+00 0. -1.
        -11    1    1    2    0    0  0.11295121349E+03 -0.47832997044E+01  0.32479319998E+03  0.34390620718E+03  0.00000000000E+00 0. -1.
         11    1    1    2    0    0  0.79146173089E+02 -0.66709411810E+02 -0.37317373763E+03  0.38726334812E+03  0.00000000000E+00 0. -1.
        -15    1    1    2    0    0 -0.18484217405E+03  0.11352021830E+03  0.59074122436E+02  0.22482521865E+03  0.17770000000E+01 0. -1.
         15    1    1    2    0    0 -0.72552125338E+01 -0.42027506783E+02 -0.10693584786E+02  0.44005226051E+02  0.17770000000E+01 0.  1.
</event>
<event>
 7    1  0.4954109E-006  0.5160756E+03  0.7546771E-02  0.9364541E-01
        -11   -1    0    0    0    0  0.00000000000E+00  0.00000000000E+00  0.50000000000E+03  0.50000000000E+03  0.00000000000E+00 0. -1.
         11   -1    0    0    0    0 -0.00000000000E+00 -0.00000000000E+00 -0.50000000000E+03  0.50000000000E+03  0.00000000000E+00 0.  1.
         23    2    1    2    0    0  0.28644231601E+02 -0.11074800511E+03 -0.30337156388E+03  0.33692834041E+03  0.91655813558E+02 0.  0.
        -11    1    1    2    0    0  0.10984029805E+02  0.85309555613E+02  0.47621894405E+03  0.48392442784E+03  0.00000000000E+00 0. -1.
         11    1    1    2    0    0 -0.39628261406E+02  0.25438449498E+02 -0.17284738016E+03  0.17914723175E+03  0.00000000000E+00 0.  1.
        -15    1    3    3    0    0  0.59699522009E+02 -0.92797479059E+02 -0.21909342917E+03  0.24531712839E+03  0.17770000000E+01 0.  1.
         15    1    3    3    0    0 -0.31055290409E+02 -0.17950526052E+02 -0.84278134712E+02  0.91611212018E+02  0.17770000000E+01 0. -1.
</event>
<event>
 7    1  0.4954109E-006  0.5133626E+03  0.7546771E-02  0.9370396E-01
        -11   -1    0    0    0    0  0.00000000000E+00  0.00000000000E+00  0.50000000000E+03  0.50000000000E+03  0.00000000000E+00 0.  1.
         11   -1    0    0    0    0 -0.00000000000E+00 -0.00000000000E+00 -0.50000000000E+03  0.50000000000E+03  0.00000000000E+00 0. -1.
         23    2    1    2    0    0 -0.58525110799E+02 -0.11968407062E+01 -0.17844786091E+03  0.21432549489E+03  0.10327225027E+03 0.  0.
        -11    1    1    2    0    0  0.14181568266E+03  0.17617843721E+02  0.46518156590E+03  0.48663740661E+03  0.00000000000E+00 0.  1.
         11    1    1    2    0    0 -0.83290571856E+02 -0.16421003015E+02 -0.28673370499E+03  0.29903709850E+03  0.00000000000E+00 0. -1.
        -15    1    3    3    0    0 -0.29289016534E+02 -0.37737075791E+02 -0.15450185224E+03  0.16172789943E+03  0.17770000000E+01 0. -1.
         15    1    3    3    0    0 -0.29236094265E+02  0.36540235085E+02 -0.23946008664E+02  0.52597595457E+02  0.17770000000E+01 0.  1.
</event>
<event>
 7    1  0.4954109E-006  0.4623923E+03  0.7546771E-02  0.9488130E-01
        -11   -1    0    0    0    0  0.00000000000E+00  0.00000000000E+00  0.50000000000E+03  0.50000000000E+03  0.00000000000E+00 0.  1.
         11   -1    0    0    0    0 -0.00000000000E+00 -0.00000000000E+00 -0.50000000000E+03  0.50000000000E+03  0.00000000000E+00 0.  1.
         23    2    1    2    0    0 -0.38294107279E+02 -0.87136021515E+02  0.40767795555E+03  0.43121864994E+03  0.10338802500E+03 0.  0.
        -11    1    1    2    0    0  0.45031528483E+02 -0.27869971514E+02  0.64096893880E+02  0.83144366464E+02  0.00000000000E+00 0.  1.
         11    1    1    2    0    0 -0.67374212045E+01  0.11500599303E+03 -0.47177484943E+03  0.48563698359E+03  0.00000000000E+00 0.  1.
        -15    1    3    3    0    0  0.36084042340E+01 -0.95096151169E+02  0.31725684098E+03  0.33122705117E+03  0.17770000000E+01 0.  1.
         15    1    3    3    0    0 -0.41902511513E+02  0.79601296545E+01  0.90421114574E+02  0.99991598772E+02  0.17770000000E+01 0. -1.
</event>
<event>
 7    1  0.4954109E-006  0.4518744E+03  0.7546771E-02  0.9514441E-01
        -11   -1    0    0    0    0  0.00000000000E+00  0.00000000000E+00  0.50000000000E+03  0.50000000000E+03  0.00000000000E+00 0. -1.
         11   -1    0    0    0    0 -0.00000000000E+00 -0.00000000000E+00 -0.50000000000E+03  0.50000000000E+03  0.00000000000E+00 0.  1.
         23    2    1    2    0    0 -0.61875394743E+02  0.26410365451E+03  0.37319782809E+03  0.47045044510E+03  0.92020093464E+02 0.  0.
        -11    1    1    2    0    0 -0.47176392315E+02 -0.88267830107E+02  0.30856115917E+01  0.10013162748E+03  0.00000000000E+00 0. -1.
         11    1    1    2    0    0  0.10905178706E+03 -0.17583582441E+03 -0.37628343968E+03  0.42941792742E+03  0.00000000000E+00 0.  1.
        -15    1    3    3    0    0 -0.42512187834E+01  0.76064347376E+02  0.46955671599E+02  0.89508941605E+02  0.17770000000E+01 0.  1.
         15    1    3    3    0    0 -0.57624175960E+02  0.18803930714E+03  0.32624215649E+03  0.38094150350E+03  0.17770000000E+01 0. -1.
</event>
<event>
 7    1  0.4954109E-006  0.5369489E+03  0.7546771E-02  0.9320729E-01
        -11   -1    0    0    0    0  0.00000000000E+00  0.00000000000E+00  0.50000000000E+03  0.50000000000E+03  0.00000000000E+00 0.  1.
         11   -1    0    0    0    0 -0.00000000000E+00 -0.00000000000E+00 -0.50000000000E+03  0.50000000000E+03  0.00000000000E+00 0.  1.
         23    2    1    2    0    0 -0.21608923713E+02  0.29766236866E+03 -0.16492335020E+03  0.35384432589E+03  0.94531815932E+02 0.  0.
        -11    1    1    2    0    0 -0.11972453511E+03 -0.41399004146E+03  0.16939493167E+03  0.46305114362E+03  0.00000000000E+00 0.  1.
         11    1    1    2    0    0  0.14133345883E+03  0.11632767280E+03 -0.44715814684E+01  0.18310453048E+03  0.00000000000E+00 0.  1.
        -15    1    3    3    0    0 -0.54633321091E+02  0.20918428676E+03 -0.13440486921E+03  0.25457944182E+03  0.17770000000E+01 0.  1.
         15    1    3    3    0    0  0.33024397378E+02  0.88478081902E+02 -0.30518480993E+02  0.99264884074E+02  0.17770000000E+01 0. -1.
</event>
<event>
 7    1  0.4954109E-006  0.5281556E+03  0.7546771E-02  0.9338924E-01
        -11   -1    0    0    0    0  0.00000000000E+00  0.00000000000E+00  0.50000000000E+03  0.50000000000E+03  0.00000000000E+00 0.  1.
         11   -1    0    0    0    0 -0.00000000000E+00 -0.00000000000E+00 -0.50000000000E+03  0.50000000000E+03  0.00000000000E+00 0.  1.
         23    2    1    2    0    0  0.19147704360E+02 -0.17395331939E+02  0.36615091704E+03  0.37821155526E+03  0.91149626042E+02 0.  0.
        -11    1    1    2    0    0 -0.24600731571E+02  0.11255462041E+03  0.95966053855E+02  0.14994406311E+03  0.00000000000E+00 0.  1.
         11    1    1    2    0    0  0.54530272111E+01 -0.95159288467E+02 -0.46211697090E+03  0.47184438163E+03  0.00000000000E+00 0.  1.
        -15    1    3    3    0    0 -0.76788637740E+01 -0.48444729476E+02  0.25577637154E+03  0.26044302013E+03  0.17770000000E+01 0. -1.
         15    1    3    3    0    0  0.26826568134E+02  0.31049397538E+02  0.11037454550E+03  0.11776853514E+03  0.17770000000E+01 0.  1.
</event>
<event>
 7    1  0.4954109E-006  0.5260352E+03  0.7546771E-02  0.9343367E-01
        -11   -1    0    0    0    0  0.00000000000E+00  0.00000000000E+00  0.50000000000E+03  0.50000000000E+03  0.00000000000E+00 0.  1.
         11   -1    0    0    0    0 -0.00000000000E+00 -0.00000000000E+00 -0.50000000000E+03  0.50000000000E+03  0.00000000000E+00 0.  1.
         23    2    1    2    0    0 -0.60415450083E+02  0.50303893362E+02 -0.25893241733E+03  0.28525233899E+03  0.90235202985E+02 0.  0.
        -11    1    1    2    0    0  0.14929282428E+03  0.76562512655E+02  0.44327474827E+03  0.47396483854E+03  0.00000000000E+00 0.  1.
         11    1    1    2    0    0 -0.88877374194E+02 -0.12686640602E+03 -0.18434233094E+03  0.24078282247E+03  0.00000000000E+00 0.  1.
        -15    1    3    3    0    0  0.16737155866E+02  0.33618613795E+02 -0.55504785443E+02  0.67039410170E+02  0.17770000000E+01 0. -1.
         15    1    3    3    0    0 -0.77152605949E+02  0.16685279568E+02 -0.20342763189E+03  0.21821292882E+03  0.17770000000E+01 0.  1.
</event>
<event>
 7    1  0.4954109E-006  0.4121734E+03  0.7546771E-02  0.9621101E-01
        -11   -1    0    0    0    0  0.00000000000E+00  0.00000000000E+00  0.50000000000E+03  0.50000000000E+03  0.00000000000E+00 0. -1.
         11   -1    0    0    0    0 -0.00000000000E+00 -0.00000000000E+00 -0.50000000000E+03  0.50000000000E+03  0.00000000000E+00 0.  1.
         23    2    1    2    0    0 -0.33985310734E+02  0.12970792034E+03  0.78798209405E-01  0.16481924958E+03  0.95844837525E+02 0.  0.
        -11    1    1    2    0    0 -0.31193461703E+02 -0.99357758517E+02  0.40786476194E+03  0.42094971227E+03  0.00000000000E+00 0. -1.
         11    1    1    2    0    0  0.65178772438E+02 -0.30350161819E+02 -0.40794356015E+03  0.41423103815E+03  0.00000000000E+00 0.  1.
        -15    1    3    3    0    0  0.12571318258E+02  0.67563590507E+01  0.27015663711E+02  0.30605395686E+02  0.17770000000E+01 0. -1.
         15    1    3    3    0    0 -0.46556628992E+02  0.12295156128E+03 -0.26936865502E+02  0.13421385390E+03  0.17770000000E+01 0.  1.
</event>
<event>
 7    1  0.4954109E-006  0.5402938E+03  0.7546771E-02  0.9313905E-01
        -11   -1    0    0    0    0  0.00000000000E+00  0.00000000000E+00  0.50000000000E+03  0.50000000000E+03  0.00000000000E+00 0.  1.
         11   -1    0    0    0    0 -0.00000000000E+00 -0.00000000000E+00 -0.50000000000E+03  0.50000000000E+03  0.00000000000E+00 0.  1.
         23    2    1    2    0    0 -0.68545168829E+02 -0.30067328070E+02 -0.58632313955E+02  0.14270208854E+03  0.10641265642E+03 0.  0.
        -11    1    1    2    0    0  0.29125880704E+02  0.93656131972E+02  0.44912140054E+03  0.45970623272E+03  0.00000000000E+00 0.  1.
         11    1    1    2    0    0  0.39419288125E+02 -0.63588803902E+02 -0.39048908658E+03  0.39759167874E+03  0.00000000000E+00 0.  1.
        -15    1    3    3    0    0 -0.88453876897E+02 -0.42679263865E+02 -0.24588848438E+02  0.10125896058E+03  0.17770000000E+01 0. -1.
         15    1    3    3    0    0  0.19908708068E+02  0.12611935794E+02 -0.34043465516E+02  0.41443127956E+02  0.17770000000E+01 0.  1.
</event>
<event>
 6    1  0.4954109E-006  0.3962184E+03  0.7546771E-02  0.9667641E-01
        -11   -1    0    0    0    0  0.00000000000E+00  0.00000000000E+00  0.50000000000E+03  0.50000000000E+03  0.00000000000E+00 0.  1.
         11   -1    0    0    0    0 -0.00000000000E+00 -0.00000000000E+00 -0.50000000000E+03  0.50000000000E+03  0.00000000000E+00 0. -1.
        -11    1    1    2    0    0 -0.16369427689E+03 -0.89746841613E+02  0.19857926983E+02  0.18773558301E+03  0.00000000000E+00 0.  1.
         11    1    1    2    0    0  0.14668641369E+03  0.16592073134E+03 -0.38088347137E+03  0.44058916443E+03  0.00000000000E+00 0. -1.
        -15    1    1    2    0    0  0.17354682786E+02 -0.22395424981E+02  0.66992282039E+02  0.72758942107E+02  0.17770000000E+01 0. -1.
         15    1    1    2    0    0 -0.34681958848E+00 -0.53778464749E+02  0.29403326235E+03  0.29891631045E+03  0.17770000000E+01 0.  1.
</event>
<event>
 7    1  0.4954109E-006  0.5122147E+03  0.7546771E-02  0.9372886E-01
        -11   -1    0    0    0    0  0.00000000000E+00  0.00000000000E+00  0.50000000000E+03  0.50000000000E+03  0.00000000000E+00 0. -1.
         11   -1    0    0    0    0 -0.00000000000E+00 -0.00000000000E+00 -0.50000000000E+03  0.50000000000E+03  0.00000000000E+00 0. -1.
         23    2    1    2    0    0 -0.18443217021E+03 -0.21436652981E+03 -0.13034050184E+03  0.32428369035E+03  0.90570585158E+02 0.  0.
        -11    1    1    2    0    0  0.29879518924E+03  0.28143210152E+03  0.26353726882E+03  0.48778528569E+03  0.00000000000E+00 0. -1.
         11    1    1    2    0    0 -0.11436301904E+03 -0.67065571707E+02 -0.13319676698E+03  0.18793102396E+03  0.00000000000E+00 0. -1.
        -15    1    3    3    0    0 -0.12787900650E+03 -0.80515558190E+02 -0.57112265180E+02  0.16155730864E+03  0.17770000000E+01 0.  1.
         15    1    3    3    0    0 -0.56553163711E+02 -0.13385097162E+03 -0.73228236663E+02  0.16272638171E+03  0.17770000000E+01 0. -1.
</event>
<event>
 7    1  0.4954109E-006  0.5190548E+03  0.7546771E-02  0.9358154E-01
        -11   -1    0    0    0    0  0.00000000000E+00  0.00000000000E+00  0.50000000000E+03  0.50000000000E+03  0.00000000000E+00 0.  1.
         11   -1    0    0    0    0 -0.00000000000E+00 -0.00000000000E+00 -0.50000000000E+03  0.50000000000E+03  0.00000000000E+00 0.  1.
         23    2    1    2    0    0  0.10701597273E+03 -0.53617263666E+02  0.26269615966E+03  0.30137388413E+03  0.86543147346E+02 0.  0.
        -11    1    1    2    0    0 -0.56550700565E+02 -0.37474831492E+02  0.20683958827E+03  0.21768086734E+03  0.00000000000E+00 0.  1.
         11    1    1    2    0    0 -0.50465272168E+02  0.91092095158E+02 -0.46953574793E+03  0.48094524853E+03  0.00000000000E+00 0.  1.
        -15    1    3    3    0    0  0.11895088526E+03 -0.51771015598E+02  0.25702451230E+03  0.28791371765E+03  0.17770000000E+01 0. -1.
         15    1    3    3    0    0 -0.11934912524E+02 -0.18462480679E+01  0.56716473599E+01  0.13460166479E+02  0.17770000000E+01 0.  1.
</event>
<event>
 7    1  0.4954109E-006  0.4655816E+03  0.7546771E-02  0.9480298E-01
        -11   -1    0    0    0    0  0.00000000000E+00  0.00000000000E+00  0.50000000000E+03  0.50000000000E+03  0.00000000000E+00 0. -1.
         11   -1    0    0    0    0 -0.00000000000E+00 -0.00000000000E+00 -0.50000000000E+03  0.50000000000E+03  0.00000000000E+00 0.  1.
         23    2    1    2    0    0 -0.71465425631E+02  0.32197947305E+03 -0.32026522389E+03  0.46874778696E+03  0.91523691031E+02 0.  0.
        -11    1    1    2    0    0  0.20428128695E+01 -0.30316864726E+03  0.34110900054E+03  0.45636690504E+03  0.00000000000E+00 0. -1.
         11    1    1    2    0    0  0.69422612761E+02 -0.18810825791E+02 -0.20843776649E+02  0.74885308002E+02  0.00000000000E+00 0.  1.
        -15    1    3    3    0    0 -0.14510263658E+02  0.12521667536E+03 -0.66216659828E+02  0.14239932341E+03  0.17770000000E+01 0. -1.
         15    1    3    3    0    0 -0.56955161973E+02  0.19676279769E+03 -0.25404856406E+03  0.32634846355E+03  0.17770000000E+01 0.  1.
</event>
<event>
 7    1  0.4954109E-006  0.4740158E+03  0.7546771E-02  0.9459905E-01
        -11   -1    0    0    0    0  0.00000000000E+00  0.00000000000E+00  0.50000000000E+03  0.50000000000E+03  0.00000000000E+00 0. -1.
         11   -1    0    0    0    0 -0.00000000000E+00 -0.00000000000E+00 -0.50000000000E+03  0.50000000000E+03  0.00000000000E+00 0.  1.
         23    2    1    2    0    0  0.18195246284E+03 -0.32900239692E+02  0.40144021024E+03  0.45125695960E+03  0.91046563282E+02 0.  0.
        -11    1    1    2    0    0  0.14534371569E+02  0.32156303583E+02  0.47216685605E+02  0.58946511487E+02  0.00000000000E+00 0. -1.
         11    1    1    2    0    0 -0.19648683441E+03  0.74393610908E+00 -0.44865689585E+03  0.48979652891E+03  0.00000000000E+00 0.  1.
        -15    1    3    3    0    0  0.59051694515E+02  0.14129225272E+02  0.60212042372E+02  0.85530026350E+02  0.17770000000E+01 0.  1.
         15    1    3    3    0    0  0.12290076833E+03 -0.47029464964E+02  0.34122816787E+03  0.36572693325E+03  0.17770000000E+01 0. -1.
</event>
<event>
 7    1  0.4954109E-006  0.3432906E+03  0.7546771E-02  0.9840606E-01
        -11   -1    0    0    0    0  0.00000000000E+00  0.00000000000E+00  0.50000000000E+03  0.50000000000E+03  0.00000000000E+00 0. -1.
         11   -1    0    0    0    0 -0.00000000000E+00 -0.00000000000E+00 -0.50000000000E+03  0.50000000000E+03  0.00000000000E+00 0.  1.
         23    2    1    2    0    0 -0.14964913083E+03 -0.46931209591E+02  0.19472427513E+03  0.26930938618E+03  0.10006298700E+03 0.  0.
        -11    1    1    2    0    0  0.10034719371E+03  0.22969441730E+03  0.18153970869E+03  0.30949273086E+03  0.00000000000E+00 0. -1.
         11    1    1    2    0    0  0.49301937119E+02 -0.18276320771E+03 -0.37626398381E+03  0.42119788296E+03  0.00000000000E+00 0.  1.
        -15    1    3    3    0    0 -0.10929088719E+03 -0.75920210273E+02  0.11789529503E+03  0.17779436062E+03  0.17770000000E+01 0.  1.
         15    1    3    3    0    0 -0.40358243645E+02  0.28989000682E+02  0.76828980101E+02  0.91515025559E+02  0.17770000000E+01 0. -1.
</event>
<event>
 7    1  0.4954109E-006  0.5386803E+03  0.7546771E-02  0.9317190E-01
        -11   -1    0    0    0    0  0.00000000000E+00  0.00000000000E+00  0.50000000000E+03  0.50000000000E+03  0.00000000000E+00 0. -1.
         11   -1    0    0    0    0 -0.00000000000E+00 -0.00000000000E+00 -0.50000000000E+03  0.50000000000E+03  0.00000000000E+00 0.  1.
         23    2    1    2    0    0  0.12382987224E+03  0.14267077730E+03  0.16472748326E+03  0.27640773790E+03  0.11652169703E+03 0.  0.
        -11    1    1    2    0    0 -0.80347475926E+02  0.82096407101E+02  0.23577823546E+03  0.26227259343E+03  0.00000000000E+00 0. -1.
         11    1    1    2    0    0 -0.43482396314E+02 -0.22476718440E+03 -0.40050571872E+03  0.46131966867E+03  0.00000000000E+00 0.  1.
        -15    1    3    3    0    0  0.97756475050E+02  0.78684857202E+02  0.16498003424E+03  0.20729014591E+03  0.17770000000E+01 0. -1.
         15    1    3    3    0    0  0.26073397191E+02  0.63985920095E+02 -0.25255097738E+00  0.69117591990E+02  0.17770000000E+01 0.  1.
</event>
<event>
 7    1  0.4954109E-006  0.5177790E+03  0.7546771E-02  0.9360884E-01
        -11   -1    0    0    0    0  0.00000000000E+00  0.00000000000E+00  0.50000000000E+03  0.50000000000E+03  0.00000000000E+00 0.  1.
         11   -1    0    0    0    0 -0.00000000000E+00 -0.00000000000E+00 -0.50000000000E+03  0.50000000000E+03  0.00000000000E+00 0. -1.
         23    2    1    2    0    0  0.36705661822E+02 -0.10239067819E+02  0.88413545578E+02  0.12811976179E+03  0.84531498272E+02 0.  0.
        -11    1    1    2    0    0  0.14795305475E+03  0.79044848424E+02  0.35170462053E+03  0.38965925444E+03  0.00000000000E+00 0.  1.
         11    1    1    2    0    0 -0.18465871657E+03 -0.68805780605E+02 -0.44011816610E+03  0.48222098377E+03  0.00000000000E+00 0. -1.
        -15    1    3    3    0    0 -0.94263814769E+01  0.13563871043E+02 -0.81261365020E+01  0.18493974394E+02  0.17770000000E+01 0.  1.
         15    1    3    3    0    0  0.46132043299E+02 -0.23802938862E+02  0.96539682080E+02  0.10962578740E+03  0.17770000000E+01 0. -1.
</event>
<event>
 7    1  0.4954109E-006  0.5155330E+03  0.7546771E-02  0.9365709E-01
        -11   -1    0    0    0    0  0.00000000000E+00  0.00000000000E+00  0.50000000000E+03  0.50000000000E+03  0.00000000000E+00 0. -1.
         11   -1    0    0    0    0 -0.00000000000E+00 -0.00000000000E+00 -0.50000000000E+03  0.50000000000E+03  0.00000000000E+00 0.  1.
         23    2    1    2    0    0 -0.25040715879E+02  0.44576894565E+02  0.20904099235E+03  0.23220831794E+03  0.87226311727E+02 0.  0.
        -11    1    1    2    0    0 -0.10145457018E+03  0.15685801965E+03  0.21301497494E+03  0.28332463304E+03  0.00000000000E+00 0. -1.
         11    1    1    2    0    0  0.12649528606E+03 -0.20143491422E+03 -0.42205596729E+03  0.48446704902E+03  0.00000000000E+00 0.  1.
        -15    1    3    3    0    0  0.12586127887E+02  0.24410524381E+02  0.11046177971E+02  0.29655692413E+02  0.17770000000E+01 0.  1.
         15    1    3    3    0    0 -0.37626843766E+02  0.20166370183E+02  0.19799481438E+03  0.20255262553E+03  0.17770000000E+01 0. -1.
</event>
<event>
 7    1  0.4954109E-006  0.5144247E+03  0.7546771E-02  0.9368099E-01
        -11   -1    0    0    0    0  0.00000000000E+00  0.00000000000E+00  0.50000000000E+03  0.50000000000E+03  0.00000000000E+00 0.  1.
         11   -1    0    0    0    0 -0.00000000000E+00 -0.00000000000E+00 -0.50000000000E+03  0.50000000000E+03  0.00000000000E+00 0. -1.
         23    2    1    2    0    0  0.30175069885E+02 -0.32248774521E+02  0.38157331240E+03  0.39584457623E+03  0.95625401955E+02 0.  0.
        -11    1    1    2    0    0  0.61222150108E+02  0.35046123908E+02  0.95314585202E+02  0.11858015271E+03  0.00000000000E+00 0.  1.
         11    1    1    2    0    0 -0.91397219993E+02 -0.27973493870E+01 -0.47688789760E+03  0.48557527106E+03  0.00000000000E+00 0. -1.
        -15    1    3    3    0    0  0.55254907684E+02 -0.37554359994E+02  0.34330215951E+03  0.34974700175E+03  0.17770000000E+01 0.  1.
         15    1    3    3    0    0 -0.25079837799E+02  0.53055854730E+01  0.38271152885E+02  0.46097574485E+02  0.17770000000E+01 0. -1.
</event>
<event>
 7    1  0.4954109E-006  0.5099721E+03  0.7546771E-02  0.9377769E-01
        -11   -1    0    0    0    0  0.00000000000E+00  0.00000000000E+00  0.50000000000E+03  0.50000000000E+03  0.00000000000E+00 0.  1.
         11   -1    0    0    0    0 -0.00000000000E+00 -0.00000000000E+00 -0.50000000000E+03  0.50000000000E+03  0.00000000000E+00 0.  1.
         23    2    1    2    0    0 -0.32146147019E+02  0.31710654687E+02  0.21966064179E+03  0.24161621938E+03  0.89936975317E+02 0.  0.
        -11    1    1    2    0    0 -0.94005464714E+01  0.84035459592E+02  0.25468523848E+03  0.26835591933E+03  0.00000000000E+00 0.  1.
         11    1    1    2    0    0  0.41546693490E+02 -0.11574611428E+03 -0.47434588027E+03  0.49002786128E+03  0.00000000000E+00 0.  1.
        -15    1    3    3    0    0  0.35990957440E+01  0.33215477747E+02  0.19565569202E+03  0.19849566495E+03  0.17770000000E+01 0.  1.
         15    1    3    3    0    0 -0.35745242763E+02 -0.15048230598E+01  0.24004949762E+02  0.43120554434E+02  0.17770000000E+01 0. -1.
</event>
<event>
 7    1  0.4954109E-006  0.4932770E+03  0.7546771E-02  0.9414980E-01
        -11   -1    0    0    0    0  0.00000000000E+00  0.00000000000E+00  0.50000000000E+03  0.50000000000E+03  0.00000000000E+00 0. -1.
         11   -1    0    0    0    0 -0.00000000000E+00 -0.00000000000E+00 -0.50000000000E+03  0.50000000000E+03  0.00000000000E+00 0.  1.
         23    2    1    2    0    0  0.35235614472E+02 -0.18474122509E+03 -0.44659845876E+03  0.49156896095E+03  0.82577183459E+02 0.  0.
        -11    1    1    2    0    0 -0.25324496827E+02  0.17041622817E+03  0.45682356476E+03  0.48823231180E+03  0.00000000000E+00 0. -1.
         11    1    1    2    0    0 -0.99111176456E+01  0.14324996921E+02 -0.10225106006E+02  0.20198727252E+02  0.00000000000E+00 0.  1.
        -15    1    3    3    0    0  0.85041448906E+01 -0.15050298193E+03 -0.26539225115E+03  0.30522069515E+03  0.17770000000E+01 0.  1.
         15    1    3    3    0    0  0.26731469582E+02 -0.34238243160E+02 -0.18120620761E+03  0.18634826579E+03  0.17770000000E+01 0. -1.
</event>
<event>
 7    1  0.4954109E-006  0.5110718E+03  0.7546771E-02  0.9375371E-01
        -11   -1    0    0    0    0  0.00000000000E+00  0.00000000000E+00  0.50000000000E+03  0.50000000000E+03  0.00000000000E+00 0.  1.
         11   -1    0    0    0    0 -0.00000000000E+00 -0.00000000000E+00 -0.50000000000E+03  0.50000000000E+03  0.00000000000E+00 0.  1.
         23    2    1    2    0    0  0.78881661683E+02 -0.59004580488E+02  0.30442880159E+03  0.33823117702E+03  0.10963383056E+03 0.  0.
        -11    1    1    2    0    0  0.31292633884E+02  0.11766665902E+02  0.16957649273E+03  0.17284059202E+03  0.00000000000E+00 0.  1.
         11    1    1    2    0    0 -0.11017429557E+03  0.47237914586E+02 -0.47400529433E+03  0.48892823096E+03  0.00000000000E+00 0.  1.
        -15    1    3    3    0    0 -0.23470210920E+02 -0.32558896590E+00  0.22312230761E+02  0.32433781453E+02  0.17770000000E+01 0. -1.
         15    1    3    3    0    0  0.10235187260E+03 -0.58678991522E+02  0.28211657083E+03  0.30579739557E+03  0.17770000000E+01 0.  1.
</event>
<event>
 7    1  0.4954109E-006  0.3772852E+03  0.7546771E-02  0.9726004E-01
        -11   -1    0    0    0    0  0.00000000000E+00  0.00000000000E+00  0.50000000000E+03  0.50000000000E+03  0.00000000000E+00 0. -1.
         11   -1    0    0    0    0 -0.00000000000E+00 -0.00000000000E+00 -0.50000000000E+03  0.50000000000E+03  0.00000000000E+00 0.  1.
         23    2    1    2    0    0 -0.15144731868E+03 -0.11522042274E+03 -0.60202027258E+02  0.21947908136E+03  0.91294835113E+02 0.  0.
        -11    1    1    2    0    0 -0.19485849048E+03  0.19130585218E+03  0.25701050880E+03  0.37499621602E+03  0.00000000000E+00 0.  1.
         11    1    1    2    0    0  0.34630580916E+03 -0.76085429436E+02 -0.19680848154E+03  0.40552470262E+03  0.00000000000E+00 0. -1.
        -15    1    3    3    0    0 -0.12162142344E+02  0.15544985051E+02 -0.83933053139E+01  0.21521374718E+02  0.17770000000E+01 0. -1.
         15    1    3    3    0    0 -0.13928517633E+03 -0.13076540780E+03 -0.51808721945E+02  0.19795770664E+03  0.17770000000E+01 0.  1.
</event>
<event>
 7    1  0.4954109E-006  0.4267108E+03  0.7546771E-02  0.9580613E-01
        -11   -1    0    0    0    0  0.00000000000E+00  0.00000000000E+00  0.50000000000E+03  0.50000000000E+03  0.00000000000E+00 0.  1.
         11   -1    0    0    0    0 -0.00000000000E+00 -0.00000000000E+00 -0.50000000000E+03  0.50000000000E+03  0.00000000000E+00 0. -1.
         23    2    1    2    0    0  0.46834898712E+02 -0.20252559776E+03  0.31951152265E+03  0.39191058534E+03  0.91083304241E+02 0.  0.
        -11    1    1    2    0    0 -0.11467764881E+03 -0.11038080519E+02  0.86689932636E+02  0.14418025794E+03  0.00000000000E+00 0.  1.
         11    1    1    2    0    0  0.67842750097E+02  0.21356367827E+03 -0.40620145528E+03  0.46390915673E+03  0.00000000000E+00 0. -1.
        -15    1    3    3    0    0  0.47943345753E+01 -0.17677210624E+03  0.23586594975E+03  0.29480038530E+03  0.17770000000E+01 0.  1.
         15    1    3    3    0    0  0.42040564137E+02 -0.25753491513E+02  0.83645572896E+02  0.97110200042E+02  0.17770000000E+01 0. -1.
</event>
<event>
 7    1  0.4954109E-006  0.5215160E+03  0.7546771E-02  0.9352913E-01
        -11   -1    0    0    0    0  0.00000000000E+00  0.00000000000E+00  0.50000000000E+03  0.50000000000E+03  0.00000000000E+00 0.  1.
         11   -1    0    0    0    0 -0.00000000000E+00 -0.00000000000E+00 -0.50000000000E+03  0.50000000000E+03  0.00000000000E+00 0.  1.
         23    2    1    2    0    0  0.24777423215E+02  0.48316793437E+01  0.29321667314E+03  0.30893336025E+03  0.93949655902E+02 0.  0.
        -11    1    1    2    0    0  0.90136256770E+02  0.11258541777E+03  0.15617735368E+03  0.21258265894E+03  0.00000000000E+00 0.  1.
         11    1    1    2    0    0 -0.11491367999E+03 -0.11741709712E+03 -0.44939402682E+03  0.47848398080E+03  0.00000000000E+00 0.  1.
        -15    1    3    3    0    0  0.19456813824E+01  0.40631446371E+02  0.22430879782E+03  0.22797432886E+03  0.17770000000E+01 0.  1.
         15    1    3    3    0    0  0.22831741833E+02 -0.35799767028E+02  0.68907875323E+02  0.80959031398E+02  0.17770000000E+01 0. -1.
</event>
<event>
 7    1  0.4954109E-006  0.5230554E+03  0.7546771E-02  0.9349650E-01
        -11   -1    0    0    0    0  0.00000000000E+00  0.00000000000E+00  0.50000000000E+03  0.50000000000E+03  0.00000000000E+00 0. -1.
         11   -1    0    0    0    0 -0.00000000000E+00 -0.00000000000E+00 -0.50000000000E+03  0.50000000000E+03  0.00000000000E+00 0. -1.
         23    2    1    2    0    0  0.94138179799E+02 -0.11086330004E+03 -0.14184000325E+03  0.22187439437E+03  0.89201973985E+02 0.  0.
        -11    1    1    2    0    0 -0.17944862211E+03  0.99826634573E+02  0.43047528726E+03  0.47694458577E+03  0.00000000000E+00 0. -1.
         11    1    1    2    0    0  0.85310442312E+02  0.11036665464E+02 -0.28863528401E+03  0.30118101987E+03  0.00000000000E+00 0. -1.
        -15    1    3    3    0    0  0.32123495816E+02  0.50122812165E+01 -0.64807548699E+01  0.33199395463E+02  0.17770000000E+01 0. -1.
         15    1    3    3    0    0  0.62014683983E+02 -0.11587558125E+03 -0.13535924838E+03  0.18867499890E+03  0.17770000000E+01 0.  1.
</event>
<event>
 7    1  0.4954109E-006  0.3952678E+03  0.7546771E-02  0.9670487E-01
        -11   -1    0    0    0    0  0.00000000000E+00  0.00000000000E+00  0.50000000000E+03  0.50000000000E+03  0.00000000000E+00 0. -1.
         11   -1    0    0    0    0 -0.00000000000E+00 -0.00000000000E+00 -0.50000000000E+03  0.50000000000E+03  0.00000000000E+00 0. -1.
         23    2    1    2    0    0 -0.13589735811E+03  0.12222245809E+03  0.28334538023E+03  0.34947802885E+03  0.91890516104E+02 0.  0.
        -11    1    1    2    0    0  0.66589269265E+02 -0.83871758624E+02  0.16419151390E+03  0.19602922209E+03  0.00000000000E+00 0. -1.
         11    1    1    2    0    0  0.69308088849E+02 -0.38350699462E+02 -0.44753689414E+03  0.45449274905E+03  0.00000000000E+00 0. -1.
        -15    1    3    3    0    0 -0.14122993038E+03  0.84080647991E+02  0.21066038146E+03  0.26720105286E+03  0.17770000000E+01 0. -1.
         15    1    3    3    0    0  0.53325722616E+01  0.38141810095E+02  0.72684998769E+02  0.82276975998E+02  0.17770000000E+01 0.  1.
</event>
<event>
 7    1  0.4954109E-006  0.5146308E+03  0.7546771E-02  0.9367654E-01
        -11   -1    0    0    0    0  0.00000000000E+00  0.00000000000E+00  0.50000000000E+03  0.50000000000E+03  0.00000000000E+00 0.  1.
         11   -1    0    0    0    0 -0.00000000000E+00 -0.00000000000E+00 -0.50000000000E+03  0.50000000000E+03  0.00000000000E+00 0. -1.
         23    2    1    2    0    0 -0.17781515134E+01 -0.81027345618E+02 -0.26050335539E+03  0.29126298239E+03  0.10199771655E+03 0.  0.
        -11    1    1    2    0    0 -0.88078789648E+02  0.14207537765E+03  0.45567525018E+03  0.48536915822E+03  0.00000000000E+00 0.  1.
         11    1    1    2    0    0  0.89856941162E+02 -0.61048032036E+02 -0.19517189480E+03  0.22336785939E+03  0.00000000000E+00 0. -1.
        -15    1    3    3    0    0 -0.12599999988E+01 -0.10128663600E+03 -0.16502505691E+03  0.19364141440E+03  0.17770000000E+01 0.  1.
         15    1    3    3    0    0 -0.51815151459E+00  0.20259290385E+02 -0.95478298473E+02  0.97621567987E+02  0.17770000000E+01 0. -1.
</event>
<event>
 7    1  0.4954109E-006  0.4086120E+03  0.7546771E-02  0.9631292E-01
        -11   -1    0    0    0    0  0.00000000000E+00  0.00000000000E+00  0.50000000000E+03  0.50000000000E+03  0.00000000000E+00 0. -1.
         11   -1    0    0    0    0 -0.00000000000E+00 -0.00000000000E+00 -0.50000000000E+03  0.50000000000E+03  0.00000000000E+00 0.  1.
         23    2    1    2    0    0 -0.64260414755E+02  0.22433793265E+03 -0.27799615010E+03  0.37304632465E+03  0.86167232366E+02 0.  0.
        -11    1    1    2    0    0 -0.84133808379E+01 -0.16282655389E+03  0.42308522757E+03  0.45341413897E+03  0.00000000000E+00 0. -1.
         11    1    1    2    0    0  0.72673795593E+02 -0.61511378762E+02 -0.14508907747E+03  0.17353953637E+03  0.00000000000E+00 0.  1.
        -15    1    3    3    0    0 -0.65348006335E+02  0.81794398388E+02 -0.97806987424E+02  0.14328311156E+03  0.17770000000E+01 0.  1.
         15    1    3    3    0    0  0.10875915798E+01  0.14254353427E+03 -0.18018916268E+03  0.22976321310E+03  0.17770000000E+01 0. -1.
</event>
<event>
 7    1  0.4954109E-006  0.4866860E+03  0.7546771E-02  0.9430104E-01
        -11   -1    0    0    0    0  0.00000000000E+00  0.00000000000E+00  0.50000000000E+03  0.50000000000E+03  0.00000000000E+00 0.  1.
         11   -1    0    0    0    0 -0.00000000000E+00 -0.00000000000E+00 -0.50000000000E+03  0.50000000000E+03  0.00000000000E+00 0. -1.
         23    2    1    2    0    0 -0.19348439991E+03 -0.14173162319E+01  0.42304757378E+03  0.47426574453E+03  0.92306689702E+02 0.  0.
        -11    1    1    2    0    0 -0.28168145887E+02 -0.14294251902E+02  0.14682195950E+02  0.34832986637E+02  0.00000000000E+00 0.  1.
         11    1    1    2    0    0  0.22165254580E+03  0.15711568134E+02 -0.43772976973E+03  0.49090126883E+03  0.00000000000E+00 0. -1.
        -15    1    3    3    0    0 -0.15761077740E+02  0.22832232401E+02  0.23892894941E+02  0.36657203461E+02  0.17770000000E+01 0. -1.
         15    1    3    3    0    0 -0.17772332217E+03 -0.24249548633E+02  0.39915467884E+03  0.43760854107E+03  0.17770000000E+01 0.  1.
</event>
<event>
 7    1  0.4954109E-006  0.4039816E+03  0.7546771E-02  0.9644709E-01
        -11   -1    0    0    0    0  0.00000000000E+00  0.00000000000E+00  0.50000000000E+03  0.50000000000E+03  0.00000000000E+00 0. -1.
         11   -1    0    0    0    0 -0.00000000000E+00 -0.00000000000E+00 -0.50000000000E+03  0.50000000000E+03  0.00000000000E+00 0.  1.
         23    2    1    2    0    0 -0.40908570855E+02  0.14566797900E+03  0.28727290286E+02  0.17749005599E+03  0.88231465441E+02 0.  0.
        -11    1    1    2    0    0 -0.25816634506E+03 -0.28809911843E+03  0.18446464249E+03  0.42857691035E+03  0.00000000000E+00 0. -1.
         11    1    1    2    0    0  0.29907491591E+03  0.14243113943E+03 -0.21319193277E+03  0.39393303366E+03  0.00000000000E+00 0.  1.
        -15    1    3    3    0    0 -0.64970369233E+02  0.12313306080E+03  0.10139241875E+02  0.13960251250E+03  0.17770000000E+01 0.  1.
         15    1    3    3    0    0  0.24061798378E+02  0.22534918195E+02  0.18588048410E+02  0.37887543493E+02  0.17770000000E+01 0. -1.
</event>
<event>
 7    1  0.4954109E-006  0.5153046E+03  0.7546771E-02  0.9366201E-01
        -11   -1    0    0    0    0  0.00000000000E+00  0.00000000000E+00  0.50000000000E+03  0.50000000000E+03  0.00000000000E+00 0. -1.
         11   -1    0    0    0    0 -0.00000000000E+00 -0.00000000000E+00 -0.50000000000E+03  0.50000000000E+03  0.00000000000E+00 0. -1.
         23    2    1    2    0    0 -0.86819501327E+02  0.15374606105E+02  0.46812119262E+03  0.48469539261E+03  0.89544225464E+02 0.  0.
        -11    1    1    2    0    0  0.24845032958E+02  0.84112322012E+02 -0.12487298702E+03  0.15259561351E+03  0.00000000000E+00 0. -1.
         11    1    1    2    0    0  0.61974468369E+02 -0.99486928116E+02 -0.34324820560E+03  0.36270899388E+03  0.00000000000E+00 0. -1.
        -15    1    3    3    0    0 -0.29074476004E+01 -0.20103184672E+02  0.24797321801E+02  0.32103834397E+02  0.17770000000E+01 0.  1.
         15    1    3    3    0    0 -0.83912053727E+02  0.35477790776E+02  0.44332387081E+03  0.45259155821E+03  0.17770000000E+01 0. -1.
</event>
<event>
 7    1  0.4954109E-006  0.3696157E+03  0.7546771E-02  0.9750699E-01
        -11   -1    0    0    0    0  0.00000000000E+00  0.00000000000E+00  0.50000000000E+03  0.50000000000E+03  0.00000000000E+00 0.  1.
         11   -1    0    0    0    0 -0.00000000000E+00 -0.00000000000E+00 -0.50000000000E+03  0.50000000000E+03  0.00000000000E+00 0. -1.
         23    2    1    2    0    0 -0.51206891401E+02 -0.35255064178E+03  0.16418361965E+03  0.40294323840E+03  0.92156886157E+02 0.  0.
        -11    1    1    2    0    0  0.28844198833E+01  0.35562285491E+03  0.66110762568E+02  0.36172720071E+03  0.00000000000E+00 0.  1.
         11    1    1    2    0    0  0.48322471517E+02 -0.30722131301E+01 -0.23029438222E+03  0.23532956089E+03  0.00000000000E+00 0. -1.
        -15    1    3    3    0    0 -0.29538444941E+02 -0.30196550528E+03  0.16963761569E+03  0.34761439051E+03  0.17770000000E+01 0.  1.
         15    1    3    3    0    0 -0.21668446460E+02 -0.50585136499E+02 -0.54539960366E+01  0.55328847886E+02  0.17770000000E+01 0. -1.
</event>
<event>
 7    1  0.4954109E-006  0.4018871E+03  0.7546771E-02  0.9650841E-01
        -11   -1    0    0    0    0  0.00000000000E+00  0.00000000000E+00  0.50000000000E+03  0.50000000000E+03  0.00000000000E+00 0. -1.
         11   -1    0    0    0    0 -0.00000000000E+00 -0.00000000000E+00 -0.50000000000E+03  0.50000000000E+03  0.00000000000E+00 0. -1.
         23    2    1    2    0    0 -0.28255495541E+03  0.14619518793E+03  0.15167777990E+03  0.36406512471E+03  0.91252015395E+02 0.  0.
        -11    1    1    2    0    0  0.38892976013E+03 -0.22635505185E+03 -0.22776777590E+02  0.45057934863E+03  0.00000000000E+00 0. -1.
         11    1    1    2    0    0 -0.10637480472E+03  0.80159863928E+02 -0.12890100231E+03  0.18535552665E+03  0.00000000000E+00 0. -1.
        -15    1    3    3    0    0 -0.16550786016E+02  0.36479984464E+02  0.36162965479E+02  0.53996625686E+02  0.17770000000E+01 0.  1.
         15    1    3    3    0    0 -0.26600416940E+03  0.10971520346E+03  0.11551481442E+03  0.31006849903E+03  0.17770000000E+01 0. -1.
</event>
<event>
 7    1  0.4954109E-006  0.4819424E+03  0.7546771E-02  0.9441147E-01
        -11   -1    0    0    0    0  0.00000000000E+00  0.00000000000E+00  0.50000000000E+03  0.50000000000E+03  0.00000000000E+00 0. -1.
         11   -1    0    0    0    0 -0.00000000000E+00 -0.00000000000E+00 -0.50000000000E+03  0.50000000000E+03  0.00000000000E+00 0. -1.
         23    2    1    2    0    0 -0.16425267358E+03 -0.14384185705E+03 -0.40268845047E+03  0.46657015019E+03  0.88658312014E+02 0.  0.
        -11    1    1    2    0    0  0.16152351827E+03  0.13058577886E+03  0.44387916258E+03  0.49007265131E+03  0.00000000000E+00 0. -1.
         11    1    1    2    0    0  0.27291553156E+01  0.13256078197E+02 -0.41190712108E+02  0.43357198501E+02  0.00000000000E+00 0. -1.
        -15    1    3    3    0    0  0.43492140153E+01 -0.26177150587E+02 -0.76467390252E+02  0.80960350644E+02  0.17770000000E+01 0.  1.
         15    1    3    3    0    0 -0.16860188760E+03 -0.11766470647E+03 -0.32622106021E+03  0.38560979955E+03  0.17770000000E+01 0. -1.
</event>
<event>
 7    1  0.4954109E-006  0.3371128E+03  0.7546771E-02  0.9862963E-01
        -11   -1    0    0    0    0  0.00000000000E+00  0.00000000000E+00  0.50000000000E+03  0.50000000000E+03  0.00000000000E+00 0.  1.
         11   -1    0    0    0    0 -0.00000000000E+00 -0.00000000000E+00 -0.50000000000E+03  0.50000000000E+03  0.00000000000E+00 0.  1.
         23    2    1    2    0    0  0.22330612815E+03  0.19794248226E+03  0.53008526346E+02  0.31654063372E+03  0.91330256615E+02 0.  0.
        -11    1    1    2    0    0 -0.19871735848E+03 -0.27499392467E+03  0.21623646821E+03  0.40232879259E+03  0.00000000000E+00 0.  1.
         11    1    1    2    0    0 -0.24588769671E+02  0.77051442403E+02 -0.26924499455E+03  0.28113057369E+03  0.00000000000E+00 0.  1.
        -15    1    3    3    0    0  0.15706833784E+03  0.14658078727E+03 -0.44665162514E+01  0.21489415405E+03  0.17770000000E+01 0. -1.
         15    1    3    3    0    0  0.66237790315E+02  0.51361694994E+02  0.57475042597E+02  0.10164647967E+03  0.17770000000E+01 0.  1.
</event>
<event>
 7    1  0.4954109E-006  0.5010080E+03  0.7546771E-02  0.9397557E-01
        -11   -1    0    0    0    0  0.00000000000E+00  0.00000000000E+00  0.50000000000E+03  0.50000000000E+03  0.00000000000E+00 0.  1.
         11   -1    0    0    0    0 -0.00000000000E+00 -0.00000000000E+00 -0.50000000000E+03  0.50000000000E+03  0.00000000000E+00 0. -1.
         23    2    1    2    0    0  0.33285561558E+02  0.18164749101E+03  0.45411729448E+03  0.49899199569E+03  0.93095408125E+02 0.  0.
        -11    1    1    2    0    0 -0.33923263235E+02 -0.31748027059E+02 -0.42586586163E+02  0.63026520859E+02  0.00000000000E+00 0.  1.
         11    1    1    2    0    0  0.63770167697E+00 -0.14989946395E+03 -0.41153070832E+03  0.43798148345E+03  0.00000000000E+00 0. -1.
        -15    1    3    3    0    0  0.21976586249E+02  0.19083366022E+03  0.41966616757E+03  0.46154447906E+03  0.17770000000E+01 0.  1.
         15    1    3    3    0    0  0.11308975309E+02 -0.91861692093E+01  0.34451126911E+02  0.37447516630E+02  0.17770000000E+01 0. -1.
</event>
<event>
 7    1  0.4954109E-006  0.3408314E+03  0.7546771E-02  0.9849444E-01
        -11   -1    0    0    0    0  0.00000000000E+00  0.00000000000E+00  0.50000000000E+03  0.50000000000E+03  0.00000000000E+00 0.  1.
         11   -1    0    0    0    0 -0.00000000000E+00 -0.00000000000E+00 -0.50000000000E+03  0.50000000000E+03  0.00000000000E+00 0.  1.
         23    2    1    2    0    0 -0.19711198418E+03  0.36832496658E+01  0.26713889192E+03  0.34481690059E+03  0.93106426876E+02 0.  0.
        -11    1    1    2    0    0  0.25160210153E+03  0.47449313300E+02  0.10417937182E+03  0.27642068725E+03  0.00000000000E+00 0.  1.
         11    1    1    2    0    0 -0.54490117352E+02 -0.51132562966E+02 -0.37131826373E+03  0.37876241216E+03  0.00000000000E+00 0.  1.
        -15    1    3    3    0    0 -0.15725343771E+03  0.20974513978E+02  0.25384254377E+03  0.29934556730E+03  0.17770000000E+01 0.  1.
         15    1    3    3    0    0 -0.39858546471E+02 -0.17291264312E+02  0.13296348149E+02  0.45471333292E+02  0.17770000000E+01 0. -1.
</event>
<event>
 7    1  0.4954109E-006  0.5181883E+03  0.7546771E-02  0.9360007E-01
        -11   -1    0    0    0    0  0.00000000000E+00  0.00000000000E+00  0.50000000000E+03  0.50000000000E+03  0.00000000000E+00 0.  1.
         11   -1    0    0    0    0 -0.00000000000E+00 -0.00000000000E+00 -0.50000000000E+03  0.50000000000E+03  0.00000000000E+00 0.  1.
         23    2    1    2    0    0  0.18077808779E+02  0.73952640111E+02  0.19684520981E+03  0.22995134175E+03  0.91289554695E+02 0.  0.
        -11    1    1    2    0    0  0.16817637069E+03  0.85403430109E+02  0.21795298512E+03  0.28823695332E+03  0.00000000000E+00 0.  1.
         11    1    1    2    0    0 -0.18625417947E+03 -0.15935607022E+03 -0.41479819494E+03  0.48181170493E+03  0.00000000000E+00 0.  1.
        -15    1    3    3    0    0  0.14134753932E+01 -0.18208243307E+02  0.69397861925E+02  0.71782720802E+02  0.17770000000E+01 0.  1.
         15    1    3    3    0    0  0.16664333386E+02  0.92160883418E+02  0.12744734789E+03  0.15816862095E+03  0.17770000000E+01 0. -1.
</event>
<event>
 7    1  0.4954109E-006  0.4384876E+03  0.7546771E-02  0.9549055E-01
        -11   -1    0    0    0    0  0.00000000000E+00  0.00000000000E+00  0.50000000000E+03  0.50000000000E+03  0.00000000000E+00 0.  1.
         11   -1    0    0    0    0 -0.00000000000E+00 -0.00000000000E+00 -0.50000000000E+03  0.50000000000E+03  0.00000000000E+00 0.  1.
         23    2    1    2    0    0 -0.62276312683E+02  0.17467041237E+03  0.35667206455E+03  0.41235961727E+03  0.91855322368E+02 0.  0.
        -11    1    1    2    0    0 -0.60754540519E+02  0.10757132151E+03 -0.99456557524E+01  0.12394200044E+03  0.00000000000E+00 0.  1.
         11    1    1    2    0    0  0.12303085320E+03 -0.28224173387E+03 -0.34672640880E+03  0.46369838229E+03  0.00000000000E+00 0.  1.
        -15    1    3    3    0    0 -0.38260806325E+02  0.16684578892E+03  0.25183740937E+03  0.30451050076E+03  0.17770000000E+01 0.  1.
         15    1    3    3    0    0 -0.24015506358E+02  0.78246234417E+01  0.10483465518E+03  0.10784911651E+03  0.17770000000E+01 0. -1.
</event>
<event>
 7    1  0.4954109E-006  0.5137736E+03  0.7546771E-02  0.9369507E-01
        -11   -1    0    0    0    0  0.00000000000E+00  0.00000000000E+00  0.50000000000E+03  0.50000000000E+03  0.00000000000E+00 0.  1.
         11   -1    0    0    0    0 -0.00000000000E+00 -0.00000000000E+00 -0.50000000000E+03  0.50000000000E+03  0.00000000000E+00 0. -1.
         23    2    1    2    0    0  0.50785835804E+02 -0.23156510149E+02  0.27840789461E+03  0.29703671331E+03  0.87203372601E+02 0.  0.
        -11    1    1    2    0    0  0.13291214304E+03  0.25430991479E+00  0.17119928139E+03  0.21673692899E+03  0.00000000000E+00 0.  1.
         11    1    1    2    0    0 -0.18369797885E+03  0.22902200234E+02 -0.44960717600E+03  0.48622635769E+03  0.00000000000E+00 0. -1.
        -15    1    3    3    0    0  0.26179170917E+02 -0.39318276620E+02  0.25510782706E+03  0.25945025925E+03  0.17770000000E+01 0. -1.
         15    1    3    3    0    0  0.24606664887E+02  0.16161766471E+02  0.23300067547E+02  0.37586454063E+02  0.17770000000E+01 0.  1.
</event>
<event>
 7    1  0.4954109E-006  0.5114136E+03  0.7546771E-02  0.9374627E-01
        -11   -1    0    0    0    0  0.00000000000E+00  0.00000000000E+00  0.50000000000E+03  0.50000000000E+03  0.00000000000E+00 0. -1.
         11   -1    0    0    0    0 -0.00000000000E+00 -0.00000000000E+00 -0.50000000000E+03  0.50000000000E+03  0.00000000000E+00 0.  1.
         23    2    1    2    0    0 -0.64006026166E+02 -0.43442841781E+02  0.31069269989E+03  0.33345136683E+03  0.93144019610E+02 0.  0.
        -11    1    1    2    0    0 -0.10187212362E+03 -0.25570728137E+02  0.14366201673E+03  0.17796226218E+03  0.00000000000E+00 0. -1.
         11    1    1    2    0    0  0.16587814979E+03  0.69013569918E+02 -0.45435471662E+03  0.48858637099E+03  0.00000000000E+00 0.  1.
        -15    1    3    3    0    0  0.10278084652E+02 -0.34426836666E+02  0.46093140145E+02  0.58468636074E+02  0.17770000000E+01 0. -1.
         15    1    3    3    0    0 -0.74284110818E+02 -0.90160051145E+01  0.26459955974E+03  0.27498273075E+03  0.17770000000E+01 0.  1.
</event>
<event>
 7    1  0.4954109E-006  0.5276962E+03  0.7546771E-02  0.9339884E-01
        -11   -1    0    0    0    0  0.00000000000E+00  0.00000000000E+00  0.50000000000E+03  0.50000000000E+03  0.00000000000E+00 0.  1.
         11   -1    0    0    0    0 -0.00000000000E+00 -0.00000000000E+00 -0.50000000000E+03  0.50000000000E+03  0.00000000000E+00 0. -1.
         23    2    1    2    0    0  0.88468480899E+02  0.96356485358E+02  0.37416673716E+03  0.40728813787E+03  0.93657010776E+02 0.  0.
        -11    1    1    2    0    0 -0.84353001994E+02  0.19944039873E+02  0.83575719793E+02  0.12040803383E+03  0.00000000000E+00 0.  1.
         11    1    1    2    0    0 -0.41154789044E+01 -0.11630052523E+03 -0.45774245695E+03  0.47230382830E+03  0.00000000000E+00 0. -1.
        -15    1    3    3    0    0  0.86214344901E+02  0.11133204186E+03  0.35964102873E+03  0.38622864224E+03  0.17770000000E+01 0.  1.
         15    1    3    3    0    0  0.22541359983E+01 -0.14975556503E+02  0.14525708428E+02  0.21059495625E+02  0.17770000000E+01 0. -1.
</event>
<event>
 7    1  0.4954109E-006  0.4499643E+03  0.7546771E-02  0.9519301E-01
        -11   -1    0    0    0    0  0.00000000000E+00  0.00000000000E+00  0.50000000000E+03  0.50000000000E+03  0.00000000000E+00 0. -1.
         11   -1    0    0    0    0 -0.00000000000E+00 -0.00000000000E+00 -0.50000000000E+03  0.50000000000E+03  0.00000000000E+00 0. -1.
         23    2    1    2    0    0 -0.31962674255E+02  0.11091404772E+03  0.40110862648E+03  0.42675630053E+03  0.88934083874E+02 0.  0.
        -11    1    1    2    0    0 -0.94762550322E+02  0.26707444111E+02  0.30305434005E+02  0.10301285281E+03  0.00000000000E+00 0. -1.
         11    1    1    2    0    0  0.12672522458E+03 -0.13762149183E+03 -0.43141406049E+03  0.47023084666E+03  0.00000000000E+00 0. -1.
        -15    1    3    3    0    0 -0.58140574119E+02  0.89282899911E+02  0.34564739354E+03  0.36170020869E+03  0.17770000000E+01 0.  1.
         15    1    3    3    0    0  0.26177899864E+02  0.21631147813E+02  0.55461232940E+02  0.65056091838E+02  0.17770000000E+01 0. -1.
</event>
<event>
 7    1  0.4954109E-006  0.4590133E+03  0.7546771E-02  0.9496501E-01
        -11   -1    0    0    0    0  0.00000000000E+00  0.00000000000E+00  0.50000000000E+03  0.50000000000E+03  0.00000000000E+00 0.  1.
         11   -1    0    0    0    0 -0.00000000000E+00 -0.00000000000E+00 -0.50000000000E+03  0.50000000000E+03  0.00000000000E+00 0. -1.
         23    2    1    2    0    0  0.78244635295E+02 -0.22429181205E+02  0.40675405201E+03  0.42459143360E+03  0.90574475071E+02 0.  0.
        -11    1    1    2    0    0 -0.35959443763E+01 -0.50601651489E+02  0.70504402968E+02  0.86858095692E+02  0.00000000000E+00 0.  1.
         11    1    1    2    0    0 -0.74648690919E+02  0.73030832693E+02 -0.47725845498E+03  0.48855047071E+03  0.00000000000E+00 0. -1.
        -15    1    3    3    0    0  0.85373547567E+02 -0.29748824412E+02  0.40381000826E+03  0.41381072446E+03  0.17770000000E+01 0.  1.
         15    1    3    3    0    0 -0.71289122720E+01  0.73196432072E+01  0.29440437495E+01  0.10780709135E+02  0.17770000000E+01 0. -1.
</event>
<event>
 7    1  0.4954109E-006  0.3818781E+03  0.7546771E-02  0.9711515E-01
        -11   -1    0    0    0    0  0.00000000000E+00  0.00000000000E+00  0.50000000000E+03  0.50000000000E+03  0.00000000000E+00 0. -1.
         11   -1    0    0    0    0 -0.00000000000E+00 -0.00000000000E+00 -0.50000000000E+03  0.50000000000E+03  0.00000000000E+00 0. -1.
         23    2    1    2    0    0 -0.48548716708E+02 -0.10123376396E+03  0.28972640566E+03  0.32417676000E+03  0.92433374559E+02 0.  0.
        -11    1    1    2    0    0  0.12112195840E+03  0.76920815476E+02  0.16272218515E+03  0.21694665289E+03  0.00000000000E+00 0. -1.
         11    1    1    2    0    0 -0.72573241691E+02  0.24312948482E+02 -0.45244859081E+03  0.45887658711E+03  0.00000000000E+00 0. -1.
        -15    1    3    3    0    0 -0.65865767537E+02 -0.68554546033E+02  0.25952383031E+03  0.27639428602E+03  0.17770000000E+01 0. -1.
         15    1    3    3    0    0  0.17317050829E+02 -0.32679217925E+02  0.30202575344E+02  0.47782473984E+02  0.17770000000E+01 0.  1.
</event>
<event>
 7    1  0.4954109E-006  0.5211914E+03  0.7546771E-02  0.9353602E-01
        -11   -1    0    0    0    0  0.00000000000E+00  0.00000000000E+00  0.50000000000E+03  0.50000000000E+03  0.00000000000E+00 0.  1.
         11   -1    0    0    0    0 -0.00000000000E+00 -0.00000000000E+00 -0.50000000000E+03  0.50000000000E+03  0.00000000000E+00 0. -1.
         23    2    1    2    0    0  0.67723374213E+02 -0.83086235913E+01  0.15120432604E+03  0.19057678626E+03  0.93815108645E+02 0.  0.
        -11    1    1    2    0    0 -0.11109704338E+02  0.96740257792E+02  0.31594921625E+03  0.33061459475E+03  0.00000000000E+00 0.  1.
         11    1    1    2    0    0 -0.56613669874E+02 -0.88431634201E+02 -0.46715354229E+03  0.47880861899E+03  0.00000000000E+00 0. -1.
        -15    1    3    3    0    0 -0.21288949582E+02  0.75284197514E+01  0.15287904019E+02  0.27327169933E+02  0.17770000000E+01 0.  1.
         15    1    3    3    0    0  0.89012323795E+02 -0.15837043343E+02  0.13591642202E+03  0.16324961633E+03  0.17770000000E+01 0. -1.
</event>
<event>
 7    1  0.4954109E-006  0.4394940E+03  0.7546771E-02  0.9546407E-01
        -11   -1    0    0    0    0  0.00000000000E+00  0.00000000000E+00  0.50000000000E+03  0.50000000000E+03  0.00000000000E+00 0. -1.
         11   -1    0    0    0    0 -0.00000000000E+00 -0.00000000000E+00 -0.50000000000E+03  0.50000000000E+03  0.00000000000E+00 0. -1.
         23    2    1    2    0    0  0.13157199025E+02  0.17609877760E+02  0.40244997853E+03  0.41267415692E+03  0.88604485727E+02 0.  0.
        -11    1    1    2    0    0  0.65097772454E+02  0.93202823893E+02  0.43099655635E+02  0.12158152276E+03  0.00000000000E+00 0. -1.
         11    1    1    2    0    0 -0.78254971479E+02 -0.11081270165E+03 -0.44554963416E+03  0.46574432032E+03  0.00000000000E+00 0. -1.
        -15    1    3    3    0    0  0.87122763068E+01 -0.35306997018E+02  0.20457582890E+03  0.20779055632E+03  0.17770000000E+01 0.  1.
         15    1    3    3    0    0  0.44449227179E+01  0.52916874778E+02  0.19787414963E+03  0.20488360060E+03  0.17770000000E+01 0. -1.
</event>
<event>
 7    1  0.4954109E-006  0.5221152E+03  0.7546771E-02  0.9351641E-01
        -11   -1    0    0    0    0  0.00000000000E+00  0.00000000000E+00  0.50000000000E+03  0.50000000000E+03  0.00000000000E+00 0. -1.
         11   -1    0    0    0    0 -0.00000000000E+00 -0.00000000000E+00 -0.50000000000E+03  0.50000000000E+03  0.00000000000E+00 0. -1.
         23    2    1    2    0    0  0.80273864819E+02  0.51961023825E+02  0.20891002126E+03  0.24633418192E+03  0.88844194122E+02 0.  0.
        -11    1    1    2    0    0 -0.83599738407E+02  0.48268878706E+02  0.25833381524E+03  0.27578100190E+03  0.00000000000E+00 0. -1.
         11    1    1    2    0    0  0.33258735873E+01 -0.10022990253E+03 -0.46724383649E+03  0.47788481618E+03  0.00000000000E+00 0. -1.
        -15    1    3    3    0    0  0.35881150578E+02 -0.23348033233E+02  0.61773060014E+02  0.75177498596E+02  0.17770000000E+01 0.  1.
         15    1    3    3    0    0  0.44392714241E+02  0.75309057058E+02  0.14713696124E+03  0.17115668332E+03  0.17770000000E+01 0. -1.
</event>
<event>
 7    1  0.4954109E-006  0.3556239E+03  0.7546771E-02  0.9797446E-01
        -11   -1    0    0    0    0  0.00000000000E+00  0.00000000000E+00  0.50000000000E+03  0.50000000000E+03  0.00000000000E+00 0.  1.
         11   -1    0    0    0    0 -0.00000000000E+00 -0.00000000000E+00 -0.50000000000E+03  0.50000000000E+03  0.00000000000E+00 0. -1.
         23    2    1    2    0    0 -0.12594409470E+03  0.14545299076E+03 -0.13316320097E+03  0.25125147849E+03  0.91522564632E+02 0.  0.
        -11    1    1    2    0    0 -0.20253666028E+02 -0.20557136778E+03  0.39335899588E+03  0.44429843335E+03  0.00000000000E+00 0.  1.
         11    1    1    2    0    0  0.14619776073E+03  0.60118377024E+02 -0.26019579490E+03  0.30445008817E+03  0.00000000000E+00 0. -1.
        -15    1    3    3    0    0 -0.16144974134E+02  0.25808616830E+02 -0.71158325730E+02  0.77417116597E+02  0.17770000000E+01 0.  1.
         15    1    3    3    0    0 -0.10979912057E+03  0.11964437393E+03 -0.62004875244E+02  0.17383436189E+03  0.17770000000E+01 0. -1.
</event>
<event>
 7    1  0.4954109E-006  0.5226196E+03  0.7546771E-02  0.9350572E-01
        -11   -1    0    0    0    0  0.00000000000E+00  0.00000000000E+00  0.50000000000E+03  0.50000000000E+03  0.00000000000E+00 0.  1.
         11   -1    0    0    0    0 -0.00000000000E+00 -0.00000000000E+00 -0.50000000000E+03  0.50000000000E+03  0.00000000000E+00 0. -1.
         23    2    1    2    0    0  0.35690484716E+01 -0.12004702943E+03  0.21076073553E+03  0.25577822648E+03  0.81107250697E+02 0.  0.
        -11    1    1    2    0    0  0.51462713562E+02  0.46413415040E+02  0.25768526453E+03  0.26684136025E+03  0.00000000000E+00 0.  1.
         11    1    1    2    0    0 -0.55031762033E+02  0.73633614392E+02 -0.46844600006E+03  0.47738041327E+03  0.00000000000E+00 0. -1.
        -15    1    3    3    0    0 -0.29022904040E+02 -0.53756500208E+02  0.14303682464E+03  0.15554671712E+03  0.17770000000E+01 0.  1.
         15    1    3    3    0    0  0.32591952512E+02 -0.66290529224E+02  0.67723910893E+02  0.10023150936E+03  0.17770000000E+01 0. -1.
</event>
<event>
 7    1  0.4954109E-006  0.5136437E+03  0.7546771E-02  0.9369788E-01
        -11   -1    0    0    0    0  0.00000000000E+00  0.00000000000E+00  0.50000000000E+03  0.50000000000E+03  0.00000000000E+00 0.  1.
         11   -1    0    0    0    0 -0.00000000000E+00 -0.00000000000E+00 -0.50000000000E+03  0.50000000000E+03  0.00000000000E+00 0.  1.
         23    2    1    2    0    0  0.45490288670E+02 -0.60226606682E+02 -0.14481436362E+03  0.18683953018E+03  0.90781053139E+02 0.  0.
        -11    1    1    2    0    0 -0.51929619377E+02  0.18820310673E+03  0.44544958084E+03  0.48635627252E+03  0.00000000000E+00 0.  1.
         11    1    1    2    0    0  0.64393307074E+01 -0.12797650005E+03 -0.30063521721E+03  0.32680419730E+03  0.00000000000E+00 0.  1.
        -15    1    3    3    0    0 -0.15740456993E+02 -0.18488395202E+02 -0.93671700076E+02  0.96783923601E+02  0.17770000000E+01 0.  1.
         15    1    3    3    0    0  0.61230745662E+02 -0.41738211480E+02 -0.51142663549E+02  0.90055606576E+02  0.17770000000E+01 0. -1.
</event>
<event>
 7    1  0.4954109E-006  0.3829279E+03  0.7546771E-02  0.9708233E-01
        -11   -1    0    0    0    0  0.00000000000E+00  0.00000000000E+00  0.50000000000E+03  0.50000000000E+03  0.00000000000E+00 0.  1.
         11   -1    0    0    0    0 -0.00000000000E+00 -0.00000000000E+00 -0.50000000000E+03  0.50000000000E+03  0.00000000000E+00 0.  1.
         23    2    1    2    0    0 -0.13635727334E+03  0.13156797390E+03  0.16133028270E+02  0.21088736786E+03  0.91157937530E+02 0.  0.
        -11    1    1    2    0    0  0.13692441685E+03 -0.25984173375E+03  0.31699081528E+03  0.43214488253E+03  0.00000000000E+00 0.  1.
         11    1    1    2    0    0 -0.56714351621E+00  0.12827375985E+03 -0.33312384355E+03  0.35696774960E+03  0.00000000000E+00 0.  1.
        -15    1    3    3    0    0 -0.17830626099E+02  0.27644835075E+01  0.30253033993E+02  0.35270063665E+02  0.17770000000E+01 0. -1.
         15    1    3    3    0    0 -0.11852664724E+03  0.12880349039E+03 -0.14120005723E+02  0.17561730420E+03  0.17770000000E+01 0.  1.
</event>
<event>
 7    1  0.6259861E-006  0.5082831E+03  0.7546771E-02  0.9381464E-01
        -11   -1    0    0    0    0  0.00000000000E+00  0.00000000000E+00  0.50000000000E+03  0.50000000000E+03  0.00000000000E+00 0. -1.
         11   -1    0    0    0    0 -0.00000000000E+00 -0.00000000000E+00 -0.50000000000E+03  0.50000000000E+03  0.00000000000E+00 0. -1.
         23    2    1    2    0    0  0.36015794686E+02  0.36867589626E+02 -0.25009421910E+03  0.26828751359E+03  0.82308656225E+02 0.  0.
        -11    1    1    2    0    0 -0.11381076165E+03 -0.10464501199E+03  0.46677839470E+03  0.49171692849E+03  0.00000000000E+00 0. -1.
         11    1    1    2    0    0  0.77794966962E+02  0.67777422364E+02 -0.21668417560E+03  0.23999555792E+03  0.00000000000E+00 0. -1.
        -15    1    3    3    0    0  0.58246976470E+02  0.10531234122E+02 -0.12179946891E+03  0.13543221742E+03  0.17770000000E+01 0. -1.
         15    1    3    3    0    0 -0.22231181784E+02  0.26336355504E+02 -0.12829475019E+03  0.13285529617E+03  0.17770000000E+01 0.  1.
</event>
<event>
 7    1  0.4954109E-006  0.5050087E+03  0.7546771E-02  0.9388672E-01
        -11   -1    0    0    0    0  0.00000000000E+00  0.00000000000E+00  0.50000000000E+03  0.50000000000E+03  0.00000000000E+00 0. -1.
         11   -1    0    0    0    0 -0.00000000000E+00 -0.00000000000E+00 -0.50000000000E+03  0.50000000000E+03  0.00000000000E+00 0.  1.
         23    2    1    2    0    0  0.98036236741E+02  0.12584080939E+03  0.45649885755E+03  0.49499130755E+03  0.10572688677E+03 0.  0.
        -11    1    1    2    0    0 -0.96815212524E+02 -0.29547478390E+02 -0.13093055733E+03  0.16549637367E+03  0.00000000000E+00 0. -1.
         11    1    1    2    0    0 -0.12210242174E+01 -0.96293331000E+02 -0.32556830022E+03  0.33951231878E+03  0.00000000000E+00 0.  1.
        -15    1    3    3    0    0  0.11724488831E+03  0.12585443316E+03  0.41442781877E+03  0.44870845421E+03  0.17770000000E+01 0. -1.
         15    1    3    3    0    0 -0.19208651567E+02 -0.13623767326E-01  0.42071038777E+02  0.46282853341E+02  0.17770000000E+01 0.  1.
</event>
<event>
 7    1  0.4954109E-006  0.5422045E+03  0.7546771E-02  0.9310030E-01
        -11   -1    0    0    0    0  0.00000000000E+00  0.00000000000E+00  0.50000000000E+03  0.50000000000E+03  0.00000000000E+00 0.  1.
         11   -1    0    0    0    0 -0.00000000000E+00 -0.00000000000E+00 -0.50000000000E+03  0.50000000000E+03  0.00000000000E+00 0.  1.
         23    2    1    2    0    0  0.15152982223E+03  0.70387629544E+02  0.30317495939E+02  0.19629919394E+03  0.98481051809E+02 0.  0.
        -11    1    1    2    0    0  0.23487732400E+03  0.36558253094E+02 -0.25128991528E+03  0.34590531178E+03  0.00000000000E+00 0.  1.
         11    1    1    2    0    0 -0.38640714623E+03 -0.10694588264E+03  0.22097241934E+03  0.45779549427E+03  0.00000000000E+00 0.  1.
        -15    1    3    3    0    0  0.14652474001E+03  0.46103526154E+02 -0.43047043301E+01  0.15367733329E+03  0.17770000000E+01 0.  1.
         15    1    3    3    0    0  0.50050822241E+01  0.24284103389E+02  0.34622200269E+02  0.42621860658E+02  0.17770000000E+01 0. -1.
</event>
<event>
 7    1  0.4954109E-006  0.5265475E+03  0.7546771E-02  0.9342292E-01
        -11   -1    0    0    0    0  0.00000000000E+00  0.00000000000E+00  0.50000000000E+03  0.50000000000E+03  0.00000000000E+00 0.  1.
         11   -1    0    0    0    0 -0.00000000000E+00 -0.00000000000E+00 -0.50000000000E+03  0.50000000000E+03  0.00000000000E+00 0. -1.
         23    2    1    2    0    0  0.53247029335E+01 -0.34037648216E+02  0.22174964336E+03  0.24350831162E+03  0.94532954785E+02 0.  0.
        -11    1    1    2    0    0 -0.86389230917E+02  0.13396852449E+03  0.23388139879E+03  0.28303917303E+03  0.00000000000E+00 0.  1.
         11    1    1    2    0    0  0.81064527984E+02 -0.99930876269E+02 -0.45563104214E+03  0.47345251535E+03  0.00000000000E+00 0. -1.
        -15    1    3    3    0    0  0.32531256870E+02  0.14908861276E+02  0.13922613092E+03  0.14376240843E+03  0.17770000000E+01 0.  1.
         15    1    3    3    0    0 -0.27206553936E+02 -0.48946509492E+02  0.82523512441E+02  0.99745903189E+02  0.17770000000E+01 0. -1.
</event>
<event>
 7    1  0.4954109E-006  0.5142995E+03  0.7546771E-02  0.9368370E-01
        -11   -1    0    0    0    0  0.00000000000E+00  0.00000000000E+00  0.50000000000E+03  0.50000000000E+03  0.00000000000E+00 0.  1.
         11   -1    0    0    0    0 -0.00000000000E+00 -0.00000000000E+00 -0.50000000000E+03  0.50000000000E+03  0.00000000000E+00 0. -1.
         23    2    1    2    0    0  0.32259970518E+02 -0.76175609372E+01  0.39164170453E+03  0.40347246918E+03  0.91148646340E+02 0.  0.
        -11    1    1    2    0    0  0.57202607567E+02 -0.46684454725E+02  0.82650138417E+02  0.11082699132E+03  0.00000000000E+00 0.  1.
         11    1    1    2    0    0 -0.89462578085E+02  0.54302015662E+02 -0.47429184294E+03  0.48570053950E+03  0.00000000000E+00 0. -1.
        -15    1    3    3    0    0  0.61135808753E+02  0.19631217661E+01  0.31694116280E+03  0.32279451570E+03  0.17770000000E+01 0.  1.
         15    1    3    3    0    0 -0.28875838235E+02 -0.95806827033E+01  0.74700541728E+02  0.80677953483E+02  0.17770000000E+01 0. -1.
</event>
<event>
 7    1  0.4954109E-006  0.4369706E+03  0.7546771E-02  0.9553060E-01
        -11   -1    0    0    0    0  0.00000000000E+00  0.00000000000E+00  0.50000000000E+03  0.50000000000E+03  0.00000000000E+00 0. -1.
         11   -1    0    0    0    0 -0.00000000000E+00 -0.00000000000E+00 -0.50000000000E+03  0.50000000000E+03  0.00000000000E+00 0.  1.
         23    2    1    2    0    0 -0.10052490792E+02  0.86642435951E+02  0.39860834449E+03  0.41862179918E+03  0.93528787954E+02 0.  0.
        -11    1    1    2    0    0 -0.89205620632E+02 -0.78366231727E+02  0.44808636351E+02  0.12691226465E+03  0.00000000000E+00 0. -1.
         11    1    1    2    0    0  0.99258111423E+02 -0.82762042235E+01 -0.44341698084E+03  0.45446593617E+03  0.00000000000E+00 0.  1.
        -15    1    3    3    0    0  0.47100536080E+01  0.80295254864E+02  0.39353900379E+03  0.40167850054E+03  0.17770000000E+01 0. -1.
         15    1    3    3    0    0 -0.14762544400E+02  0.63471810869E+01  0.50693406967E+01  0.16943298646E+02  0.17770000000E+01 0.  1.
</event>
<event>
 7    1  0.4954109E-006  0.5079570E+03  0.7546771E-02  0.9382179E-01
        -11   -1    0    0    0    0  0.00000000000E+00  0.00000000000E+00  0.50000000000E+03  0.50000000000E+03  0.00000000000E+00 0. -1.
         11   -1    0    0    0    0 -0.00000000000E+00 -0.00000000000E+00 -0.50000000000E+03  0.50000000000E+03  0.00000000000E+00 0.  1.
         23    2    1    2    0    0 -0.94676928240E+01 -0.58478855170E+02  0.29749605775E+03  0.31690887166E+03  0.91749195381E+02 0.  0.
        -11    1    1    2    0    0 -0.19723015454E+02 -0.70674682345E+02  0.17639584844E+03  0.19104817040E+03  0.00000000000E+00 0. -1.
         11    1    1    2    0    0  0.29190708278E+02  0.12915353752E+03 -0.47389190619E+03  0.49204295794E+03  0.00000000000E+00 0.  1.
        -15    1    3    3    0    0  0.40783718372E+02 -0.21138053339E+02  0.14271578758E+03  0.14993692919E+03  0.17770000000E+01 0. -1.
         15    1    3    3    0    0 -0.50251411196E+02 -0.37340801831E+02  0.15478027017E+03  0.16697194247E+03  0.17770000000E+01 0.  1.
</event>
<event>
 7    1  0.4954109E-006  0.3401602E+03  0.7546771E-02  0.9851871E-01
        -11   -1    0    0    0    0  0.00000000000E+00  0.00000000000E+00  0.50000000000E+03  0.50000000000E+03  0.00000000000E+00 0.  1.
         11   -1    0    0    0    0 -0.00000000000E+00 -0.00000000000E+00 -0.50000000000E+03  0.50000000000E+03  0.00000000000E+00 0. -1.
         23    2    1    2    0    0  0.10156151388E+03  0.10542694491E+03  0.23312445178E+03  0.29018116470E+03  0.91806952419E+02 0.  0.
        -11    1    1    2    0    0 -0.21980537723E+03  0.33108722377E+01  0.16868208785E+03  0.27709026056E+03  0.00000000000E+00 0.  1.
         11    1    1    2    0    0  0.11824386335E+03 -0.10873781714E+03 -0.40180653964E+03  0.43272857474E+03  0.00000000000E+00 0. -1.
        -15    1    3    3    0    0  0.76024843175E+02  0.23500284560E+02  0.70643369780E+02  0.10642219495E+03  0.17770000000E+01 0.  1.
         15    1    3    3    0    0  0.25536670703E+02  0.81926660347E+02  0.16248108201E+03  0.18375896975E+03  0.17770000000E+01 0. -1.
</event>
<event>
 7    1  0.4954109E-006  0.5139916E+03  0.7546771E-02  0.9369036E-01
        -11   -1    0    0    0    0  0.00000000000E+00  0.00000000000E+00  0.50000000000E+03  0.50000000000E+03  0.00000000000E+00 0. -1.
         11   -1    0    0    0    0 -0.00000000000E+00 -0.00000000000E+00 -0.50000000000E+03  0.50000000000E+03  0.00000000000E+00 0. -1.
         23    2    1    2    0    0  0.10970845881E+02 -0.21099622798E+02 -0.21809714496E+03  0.23735720585E+03  0.90589872443E+02 0.  0.
        -11    1    1    2    0    0 -0.13215409746E+03  0.34857702842E+02  0.46639515292E+03  0.48600843983E+03  0.00000000000E+00 0. -1.
         11    1    1    2    0    0  0.12118325158E+03 -0.13758080044E+02 -0.24829800796E+03  0.27663435431E+03  0.00000000000E+00 0. -1.
        -15    1    3    3    0    0  0.32874108346E+02 -0.46666246923E+02 -0.10740112683E+03  0.12164129798E+03  0.17770000000E+01 0. -1.
         15    1    3    3    0    0 -0.21903262464E+02  0.25566624124E+02 -0.11069601813E+03  0.11571590787E+03  0.17770000000E+01 0.  1.
</event>
<event>
 7    1  0.4954109E-006  0.5161126E+03  0.7546771E-02  0.9364461E-01
        -11   -1    0    0    0    0  0.00000000000E+00  0.00000000000E+00  0.50000000000E+03  0.50000000000E+03  0.00000000000E+00 0.  1.
         11   -1    0    0    0    0 -0.00000000000E+00 -0.00000000000E+00 -0.50000000000E+03  0.50000000000E+03  0.00000000000E+00 0. -1.
         23    2    1    2    0    0 -0.40035459432E+02 -0.48353471094E+02  0.40368082263E+03  0.41790849659E+03  0.88025046350E+02 0.  0.
        -11    1    1    2    0    0 -0.43365132384E+02 -0.65229063652E+02  0.59234198437E+02  0.98204153253E+02  0.00000000000E+00 0.  1.
         11    1    1    2    0    0  0.83400591817E+02  0.11358253475E+03 -0.46291502107E+03  0.48388735016E+03  0.00000000000E+00 0. -1.
        -15    1    3    3    0    0 -0.59352761545E+02 -0.29850326110E+02  0.36402002538E+03  0.37003719932E+03  0.17770000000E+01 0.  1.
         15    1    3    3    0    0  0.19317302112E+02 -0.18503144984E+02  0.39660797251E+02  0.47871297274E+02  0.17770000000E+01 0. -1.
</event>
<event>
 7    1  0.4954109E-006  0.3915658E+03  0.7546771E-02  0.9681655E-01
        -11   -1    0    0    0    0  0.00000000000E+00  0.00000000000E+00  0.50000000000E+03  0.50000000000E+03  0.00000000000E+00 0. -1.
         11   -1    0    0    0    0 -0.00000000000E+00 -0.00000000000E+00 -0.50000000000E+03  0.50000000000E+03  0.00000000000E+00 0. -1.
         23    2    1    2    0    0 -0.18752033367E+01 -0.18842909900E+03  0.30158271806E+03  0.36876750630E+03  0.97612991631E+02 0.  0.
        -11    1    1    2    0    0 -0.59425244842E+02  0.15195137877E+03  0.12071037904E+03  0.20295708128E+03  0.00000000000E+00 0. -1.
         11    1    1    2    0    0  0.61300448179E+02  0.36477720232E+02 -0.42229309710E+03  0.42827541242E+03  0.00000000000E+00 0. -1.
        -15    1    3    3    0    0  0.25840219881E+02 -0.16168449237E+03  0.28056982979E+03  0.32485716731E+03  0.17770000000E+01 0. -1.
         15    1    3    3    0    0 -0.27715423218E+02 -0.26744606630E+02  0.21012888271E+02  0.43910338992E+02  0.17770000000E+01 0.  1.
</event>
<event>
 7    1  0.4954109E-006  0.4481031E+03  0.7546771E-02  0.9524062E-01
        -11   -1    0    0    0    0  0.00000000000E+00  0.00000000000E+00  0.50000000000E+03  0.50000000000E+03  0.00000000000E+00 0. -1.
         11   -1    0    0    0    0 -0.00000000000E+00 -0.00000000000E+00 -0.50000000000E+03  0.50000000000E+03  0.00000000000E+00 0.  1.
         23    2    1    2    0    0 -0.87663158422E+01  0.16320603908E+03  0.38965246373E+03  0.43201251676E+03  0.89959505654E+02 0.  0.
        -11    1    1    2    0    0  0.35946159577E+02 -0.78002840741E+02  0.63043912616E+02  0.10654156217E+03  0.00000000000E+00 0. -1.
         11    1    1    2    0    0 -0.27179843735E+02 -0.85203198343E+02 -0.45269637635E+03  0.46144592107E+03  0.00000000000E+00 0.  1.
        -15    1    3    3    0    0 -0.32118611079E+02  0.13635080466E+02  0.81767364557E+02  0.88918953168E+02  0.17770000000E+01 0.  1.
         15    1    3    3    0    0  0.23352295237E+02  0.14957095862E+03  0.30788509918E+03  0.34309356359E+03  0.17770000000E+01 0. -1.
</event>
<event>
 7    1  0.4954109E-006  0.5402243E+03  0.7546771E-02  0.9314046E-01
        -11   -1    0    0    0    0  0.00000000000E+00  0.00000000000E+00  0.50000000000E+03  0.50000000000E+03  0.00000000000E+00 0.  1.
         11   -1    0    0    0    0 -0.00000000000E+00 -0.00000000000E+00 -0.50000000000E+03  0.50000000000E+03  0.00000000000E+00 0. -1.
         23    2    1    2    0    0  0.79007516614E+02  0.10075101117E+03  0.14088615378E+03  0.21316859508E+03  0.95911353167E+02 0.  0.
        -11    1    1    2    0    0 -0.15758867777E+03  0.75300226501E+02  0.27651607928E+03  0.32705574077E+03  0.00000000000E+00 0.  1.
         11    1    1    2    0    0  0.78581161155E+02 -0.17605123767E+03 -0.41740223306E+03  0.45977566415E+03  0.00000000000E+00 0. -1.
        -15    1    3    3    0    0  0.44371762962E+02  0.74093988511E+02  0.14547217414E+03  0.16918653510E+03  0.17770000000E+01 0.  1.
         15    1    3    3    0    0  0.34635753652E+02  0.26657022661E+02 -0.45860203556E+01  0.43982059978E+02  0.17770000000E+01 0. -1.
</event>
<event>
 7    1  0.4954109E-006  0.4583963E+03  0.7546771E-02  0.9498038E-01
        -11   -1    0    0    0    0  0.00000000000E+00  0.00000000000E+00  0.50000000000E+03  0.50000000000E+03  0.00000000000E+00 0. -1.
         11   -1    0    0    0    0 -0.00000000000E+00 -0.00000000000E+00 -0.50000000000E+03  0.50000000000E+03  0.00000000000E+00 0.  1.
         23    2    1    2    0    0  0.27593268876E+02  0.90401515591E+02  0.39788369951E+03  0.41945367681E+03  0.93253022172E+02 0.  0.
        -11    1    1    2    0    0  0.29479256462E+02  0.40305692718E+02  0.73051468909E+02  0.88487810103E+02  0.00000000000E+00 0. -1.
         11    1    1    2    0    0 -0.57072525339E+02 -0.13070720831E+03 -0.47093516842E+03  0.49205851309E+03  0.00000000000E+00 0.  1.
        -15    1    3    3    0    0  0.31812730992E+02  0.70489921084E+02  0.38992961084E+03  0.39752878885E+03  0.17770000000E+01 0. -1.
         15    1    3    3    0    0 -0.42194621163E+01  0.19911594506E+02  0.79540886704E+01  0.21924887957E+02  0.17770000000E+01 0.  1.
</event>
<event>
 7    1  0.4954109E-006  0.4830265E+03  0.7546771E-02  0.9438611E-01
        -11   -1    0    0    0    0  0.00000000000E+00  0.00000000000E+00  0.50000000000E+03  0.50000000000E+03  0.00000000000E+00 0.  1.
         11   -1    0    0    0    0 -0.00000000000E+00 -0.00000000000E+00 -0.50000000000E+03  0.50000000000E+03  0.00000000000E+00 0.  1.
         23    2    1    2    0    0  0.16928686143E+02 -0.18001999941E+03 -0.41650234621E+03  0.46305939475E+03  0.90862632947E+02 0.  0.
        -11    1    1    2    0    0 -0.15335982290E+02  0.19133018461E+03  0.45657026663E+03  0.49527652909E+03  0.00000000000E+00 0.  1.
         11    1    1    2    0    0 -0.15927038537E+01 -0.11310185205E+02 -0.40067920427E+02  0.41664076160E+02  0.00000000000E+00 0.  1.
        -15    1    3    3    0    0 -0.21644819069E+02 -0.11661382097E+03 -0.18336811050E+03  0.21839025416E+03  0.17770000000E+01 0.  1.
         15    1    3    3    0    0  0.38573505212E+02 -0.63406178435E+02 -0.23313423571E+03  0.24466914059E+03  0.17770000000E+01 0. -1.
</event>
<event>
 7    1  0.4954109E-006  0.5154853E+03  0.7546771E-02  0.9365812E-01
        -11   -1    0    0    0    0  0.00000000000E+00  0.00000000000E+00  0.50000000000E+03  0.50000000000E+03  0.00000000000E+00 0.  1.
         11   -1    0    0    0    0 -0.00000000000E+00 -0.00000000000E+00 -0.50000000000E+03  0.50000000000E+03  0.00000000000E+00 0. -1.
         23    2    1    2    0    0  0.65604953945E+02  0.12191072300E+02 -0.13741309392E+03  0.17729758085E+03  0.89996897556E+02 0.  0.
        -11    1    1    2    0    0 -0.13892025429E+03 -0.13247715039E+03  0.44486564687E+03  0.48451468110E+03  0.00000000000E+00 0.  1.
         11    1    1    2    0    0  0.73315300347E+02  0.12028607809E+03 -0.30745255296E+03  0.33818773805E+03  0.00000000000E+00 0. -1.
        -15    1    3    3    0    0  0.27361121830E+02  0.29410295561E+02 -0.12814806210E+03  0.13430815322E+03  0.17770000000E+01 0. -1.
         15    1    3    3    0    0  0.38243832115E+02 -0.17219223261E+02 -0.92650318204E+01  0.42989427633E+02  0.17770000000E+01 0.  1.
</event>
<event>
 7    1  0.4954109E-006  0.5305596E+03  0.7546771E-02  0.9333912E-01
        -11   -1    0    0    0    0  0.00000000000E+00  0.00000000000E+00  0.50000000000E+03  0.50000000000E+03  0.00000000000E+00 0.  1.
         11   -1    0    0    0    0 -0.00000000000E+00 -0.00000000000E+00 -0.50000000000E+03  0.50000000000E+03  0.00000000000E+00 0. -1.
         23    2    1    2    0    0  0.15544076262E+02 -0.60105440449E+02  0.26223051634E+02  0.11448307645E+03  0.92544281715E+02 0.  0.
        -11    1    1    2    0    0  0.24886624793E+03 -0.16438425665E+03  0.29010877282E+03  0.41607654735E+03  0.00000000000E+00 0.  1.
         11    1    1    2    0    0 -0.26441032419E+03  0.22448969710E+03 -0.31633182445E+03  0.46944037620E+03  0.00000000000E+00 0. -1.
        -15    1    3    3    0    0  0.14679948253E+02  0.14849975380E+02 -0.17832548189E+02  0.27516906683E+02  0.17770000000E+01 0. -1.
         15    1    3    3    0    0  0.86412800869E+00 -0.74955415828E+02  0.44055599823E+02  0.86966169767E+02  0.17770000000E+01 0.  1.
</event>
<event>
 7    1  0.4954109E-006  0.5335472E+03  0.7546771E-02  0.9327724E-01
        -11   -1    0    0    0    0  0.00000000000E+00  0.00000000000E+00  0.50000000000E+03  0.50000000000E+03  0.00000000000E+00 0.  1.
         11   -1    0    0    0    0 -0.00000000000E+00 -0.00000000000E+00 -0.50000000000E+03  0.50000000000E+03  0.00000000000E+00 0.  1.
         23    2    1    2    0    0 -0.46929864442E+02 -0.53735990286E+02  0.34014980989E+03  0.35896954958E+03  0.89818013388E+02 0.  0.
        -11    1    1    2    0    0 -0.61178141914E+02 -0.14987882095E+03  0.65352247880E+02  0.17457761117E+03  0.00000000000E+00 0.  1.
         11    1    1    2    0    0  0.10810800636E+03  0.20361481124E+03 -0.40550205777E+03  0.46645283925E+03  0.00000000000E+00 0.  1.
        -15    1    3    3    0    0  0.18104604966E+02 -0.45196761388E+02  0.13089703851E+03  0.13967002677E+03  0.17770000000E+01 0. -1.
         15    1    3    3    0    0 -0.65034469408E+02 -0.85392288987E+01  0.20925277138E+03  0.21929952280E+03  0.17770000000E+01 0.  1.
</event>
<event>
 7    1  0.4954109E-006  0.3264099E+03  0.7546771E-02  0.9902939E-01
        -11   -1    0    0    0    0  0.00000000000E+00  0.00000000000E+00  0.50000000000E+03  0.50000000000E+03  0.00000000000E+00 0. -1.
         11   -1    0    0    0    0 -0.00000000000E+00 -0.00000000000E+00 -0.50000000000E+03  0.50000000000E+03  0.00000000000E+00 0. -1.
         23    2    1    2    0    0  0.17611153938E+03  0.16759493295E+03  0.13231578718E+03  0.29092699727E+03  0.89597513082E+02 0.  0.
        -11    1    1    2    0    0 -0.26322678002E+03 -0.17720195996E+03  0.19351024673E+03  0.37166529018E+03  0.00000000000E+00 0. -1.
         11    1    1    2    0    0  0.87115240636E+02  0.96070270064E+01 -0.32582603391E+03  0.33740771255E+03  0.00000000000E+00 0. -1.
        -15    1    3    3    0    0  0.78808416907E+02  0.23996625168E+02  0.21766045040E+02  0.85226304862E+02  0.17770000000E+01 0. -1.
         15    1    3    3    0    0  0.97303122474E+02  0.14359830779E+03  0.11054974214E+03  0.20570069241E+03  0.17770000000E+01 0.  1.
</event>
<event>
 7    1  0.4954109E-006  0.4049473E+03  0.7546771E-02  0.9641895E-01
        -11   -1    0    0    0    0  0.00000000000E+00  0.00000000000E+00  0.50000000000E+03  0.50000000000E+03  0.00000000000E+00 0.  1.
         11   -1    0    0    0    0 -0.00000000000E+00 -0.00000000000E+00 -0.50000000000E+03  0.50000000000E+03  0.00000000000E+00 0. -1.
         23    2    1    2    0    0  0.14852101457E+03  0.13791443211E+02  0.20557135412E+02  0.17622778681E+03  0.91569325391E+02 0.  0.
        -11    1    1    2    0    0 -0.22461010004E+03 -0.16466117401E+03  0.33168264459E+03  0.43310088431E+03  0.00000000000E+00 0.  1.
         11    1    1    2    0    0  0.76089085476E+02  0.15086973080E+03 -0.35223978000E+03  0.39067132889E+03  0.00000000000E+00 0. -1.
        -15    1    3    3    0    0  0.80293847868E+02  0.20653890139E+02 -0.32949214732E+02  0.89232805984E+02  0.17770000000E+01 0.  1.
         15    1    3    3    0    0  0.68227166698E+02 -0.68624469279E+01  0.53506350144E+02  0.86994980822E+02  0.17770000000E+01 0. -1.
</event>
<event>
 7    1  0.4954109E-006  0.5223795E+03  0.7546771E-02  0.9351081E-01
        -11   -1    0    0    0    0  0.00000000000E+00  0.00000000000E+00  0.50000000000E+03  0.50000000000E+03  0.00000000000E+00 0.  1.
         11   -1    0    0    0    0 -0.00000000000E+00 -0.00000000000E+00 -0.50000000000E+03  0.50000000000E+03  0.00000000000E+00 0. -1.
         23    2    1    2    0    0 -0.42497852287E+02  0.38814923014E+02  0.22549689851E+03  0.24318744319E+03  0.70559305486E+02 0.  0.
        -11    1    1    2    0    0 -0.32568271218E+02 -0.15078370561E+03  0.23270542090E+03  0.27919210426E+03  0.00000000000E+00 0.  1.
         11    1    1    2    0    0  0.75066123505E+02  0.11196878260E+03 -0.45820231941E+03  0.47762045254E+03  0.00000000000E+00 0. -1.
        -15    1    3    3    0    0  0.13169762891E+02 -0.42484851799E+01  0.12068475134E+02  0.18447170569E+02  0.17770000000E+01 0. -1.
         15    1    3    3    0    0 -0.55667615178E+02  0.43063408193E+02  0.21342842338E+03  0.22474027263E+03  0.17770000000E+01 0.  1.
</event>
<event>
 7    1  0.4954109E-006  0.5146339E+03  0.7546771E-02  0.9367648E-01
        -11   -1    0    0    0    0  0.00000000000E+00  0.00000000000E+00  0.50000000000E+03  0.50000000000E+03  0.00000000000E+00 0. -1.
         11   -1    0    0    0    0 -0.00000000000E+00 -0.00000000000E+00 -0.50000000000E+03  0.50000000000E+03  0.00000000000E+00 0.  1.
         23    2    1    2    0    0  0.45098925733E+02  0.93591922649E+02  0.37402574349E+03  0.39837034432E+03  0.89500353905E+02 0.  0.
        -11    1    1    2    0    0  0.76393814891E+02  0.45748656882E+02  0.74754738833E+02  0.11626360367E+03  0.00000000000E+00 0. -1.
         11    1    1    2    0    0 -0.12149274062E+03 -0.13934057953E+03 -0.44878048233E+03  0.48536605201E+03  0.00000000000E+00 0.  1.
        -15    1    3    3    0    0 -0.33011343305E+01  0.49442553634E+02  0.27623971599E+03  0.28065459557E+03  0.17770000000E+01 0. -1.
         15    1    3    3    0    0  0.48400060064E+02  0.44149369015E+02  0.97786027507E+02  0.11771574875E+03  0.17770000000E+01 0.  1.
</event>
<event>
 7    1  0.4954109E-006  0.3785726E+03  0.7546771E-02  0.9721921E-01
        -11   -1    0    0    0    0  0.00000000000E+00  0.00000000000E+00  0.50000000000E+03  0.50000000000E+03  0.00000000000E+00 0. -1.
         11   -1    0    0    0    0 -0.00000000000E+00 -0.00000000000E+00 -0.50000000000E+03  0.50000000000E+03  0.00000000000E+00 0.  1.
         23    2    1    2    0    0 -0.68874298692E+02 -0.14156105739E+03  0.12015305768E+03  0.21738342905E+03  0.89641485759E+02 0.  0.
        -11    1    1    2    0    0  0.20036728426E+03  0.17942130154E+03  0.26274836313E+03  0.37599967337E+03  0.00000000000E+00 0. -1.
         11    1    1    2    0    0 -0.13149298556E+03 -0.37860244159E+02 -0.38290142081E+03  0.40661689758E+03  0.00000000000E+00 0.  1.
        -15    1    3    3    0    0 -0.61437980064E+02 -0.15249614283E+03  0.97668897452E+02  0.19123825515E+03  0.17770000000E+01 0. -1.
         15    1    3    3    0    0 -0.74363186275E+01  0.10935085448E+02  0.22484160225E+02  0.26145173905E+02  0.17770000000E+01 0.  1.
</event>
<event>
 7    1  0.4954109E-006  0.5252361E+03  0.7546771E-02  0.9345048E-01
        -11   -1    0    0    0    0  0.00000000000E+00  0.00000000000E+00  0.50000000000E+03  0.50000000000E+03  0.00000000000E+00 0. -1.
         11   -1    0    0    0    0 -0.00000000000E+00 -0.00000000000E+00 -0.50000000000E+03  0.50000000000E+03  0.00000000000E+00 0. -1.
         23    2    1    2    0    0 -0.12542821707E+03  0.22418678531E+03  0.12846224963E+03  0.30108524090E+03  0.90320653046E+02 0.  0.
        -11    1    1    2    0    0  0.29073375392E+01  0.90895145368E+02  0.20487363814E+03  0.22415081456E+03  0.00000000000E+00 0. -1.
         11    1    1    2    0    0  0.12252087953E+03 -0.31508193068E+03 -0.33333588777E+03  0.47476394454E+03  0.00000000000E+00 0. -1.
        -15    1    3    3    0    0 -0.63542148810E+01 -0.82347519416E+01  0.13471265831E+01  0.10637653187E+02  0.17770000000E+01 0.  1.
         15    1    3    3    0    0 -0.11907400219E+03  0.23242153725E+03  0.12711512305E+03  0.29044758772E+03  0.17770000000E+01 0. -1.
</event>
<event>
 7    1  0.4954109E-006  0.4573062E+03  0.7546771E-02  0.9500759E-01
        -11   -1    0    0    0    0  0.00000000000E+00  0.00000000000E+00  0.50000000000E+03  0.50000000000E+03  0.00000000000E+00 0. -1.
         11   -1    0    0    0    0 -0.00000000000E+00 -0.00000000000E+00 -0.50000000000E+03  0.50000000000E+03  0.00000000000E+00 0. -1.
         23    2    1    2    0    0 -0.27099821423E+01 -0.82640232698E+02  0.45155042010E+03  0.46783661122E+03  0.90202887078E+02 0.  0.
        -11    1    1    2    0    0  0.69698956106E+02  0.54711291199E+02 -0.15302146872E+02  0.89918994466E+02  0.00000000000E+00 0. -1.
         11    1    1    2    0    0 -0.66988973964E+02  0.27928941499E+02 -0.43624827323E+03  0.44224439432E+03  0.00000000000E+00 0. -1.
        -15    1    3    3    0    0 -0.28448276914E+02  0.19683851152E+01  0.60506205086E+02  0.66912910430E+02  0.17770000000E+01 0.  1.
         15    1    3    3    0    0  0.25738294772E+02 -0.84608617813E+02  0.39104421502E+03  0.40092370079E+03  0.17770000000E+01 0. -1.
</event>
<event>
 7    1  0.4954109E-006  0.4680449E+03  0.7546771E-02  0.9474295E-01
        -11   -1    0    0    0    0  0.00000000000E+00  0.00000000000E+00  0.50000000000E+03  0.50000000000E+03  0.00000000000E+00 0. -1.
         11   -1    0    0    0    0 -0.00000000000E+00 -0.00000000000E+00 -0.50000000000E+03  0.50000000000E+03  0.00000000000E+00 0.  1.
         23    2    1    2    0    0  0.18770434651E+03  0.16884824715E+03  0.39826498071E+03  0.48006238399E+03  0.90012473535E+02 0.  0.
        -11    1    1    2    0    0 -0.69861975942E+02 -0.32555043453E+01  0.31432075399E+01  0.70008383388E+02  0.00000000000E+00 0. -1.
         11    1    1    2    0    0 -0.11784237057E+03 -0.16559274280E+03 -0.40140818825E+03  0.44992923262E+03  0.00000000000E+00 0.  1.
        -15    1    3    3    0    0  0.18189986317E+03  0.11848829280E+03  0.33024808903E+03  0.39521385830E+03  0.17770000000E+01 0. -1.
         15    1    3    3    0    0  0.58044833452E+01  0.50359954349E+02  0.68016891684E+02  0.84848525693E+02  0.17770000000E+01 0.  1.
</event>
<event>
 7    1  0.4954109E-006  0.5265122E+03  0.7546771E-02  0.9342366E-01
        -11   -1    0    0    0    0  0.00000000000E+00  0.00000000000E+00  0.50000000000E+03  0.50000000000E+03  0.00000000000E+00 0. -1.
         11   -1    0    0    0    0 -0.00000000000E+00 -0.00000000000E+00 -0.50000000000E+03  0.50000000000E+03  0.00000000000E+00 0.  1.
         23    2    1    2    0    0 -0.10203853815E+03 -0.28290934100E+02  0.31789726248E+03  0.34646359910E+03  0.88125568280E+02 0.  0.
        -11    1    1    2    0    0  0.40934998942E+02  0.95986500310E+02  0.14672559920E+03  0.18004855968E+03  0.00000000000E+00 0. -1.
         11    1    1    2    0    0  0.61103539213E+02 -0.67695566210E+02 -0.46462286169E+03  0.47348784123E+03  0.00000000000E+00 0.  1.
        -15    1    3    3    0    0 -0.71718439213E+02  0.24629524994E+02  0.15635639411E+03  0.17378327805E+03  0.17770000000E+01 0.  1.
         15    1    3    3    0    0 -0.30320098941E+02 -0.52920459094E+02  0.16154086837E+03  0.17268032104E+03  0.17770000000E+01 0. -1.
</event>
<event>
 7    1  0.4954109E-006  0.5310594E+03  0.7546771E-02  0.9332874E-01
        -11   -1    0    0    0    0  0.00000000000E+00  0.00000000000E+00  0.50000000000E+03  0.50000000000E+03  0.00000000000E+00 0.  1.
         11   -1    0    0    0    0 -0.00000000000E+00 -0.00000000000E+00 -0.50000000000E+03  0.50000000000E+03  0.00000000000E+00 0. -1.
         23    2    1    2    0    0  0.19931591948E+02 -0.34059691544E+02  0.22244773041E+03  0.24534019462E+03  0.95663406744E+02 0.  0.
        -11    1    1    2    0    0 -0.16869522524E+03  0.65261097734E+02  0.22117500178E+03  0.28571921761E+03  0.00000000000E+00 0.  1.
         11    1    1    2    0    0  0.14876363329E+03 -0.31201406189E+02 -0.44362273219E+03  0.46894058777E+03  0.00000000000E+00 0. -1.
        -15    1    3    3    0    0  0.25771794973E+01 -0.63267516264E+02  0.10102938510E+03  0.11924560726E+03  0.17770000000E+01 0.  1.
         15    1    3    3    0    0  0.17354412451E+02  0.29207824720E+02  0.12141834531E+03  0.12609458737E+03  0.17770000000E+01 0. -1.
</event>
<event>
 7    1  0.4954109E-006  0.4561043E+03  0.7546771E-02  0.9503769E-01
        -11   -1    0    0    0    0  0.00000000000E+00  0.00000000000E+00  0.50000000000E+03  0.50000000000E+03  0.00000000000E+00 0.  1.
         11   -1    0    0    0    0 -0.00000000000E+00 -0.00000000000E+00 -0.50000000000E+03  0.50000000000E+03  0.00000000000E+00 0. -1.
         23    2    1    2    0    0 -0.11540186748E+03  0.19846891437E+03  0.35789479684E+03  0.43455966682E+03  0.89699038124E+02 0.  0.
        -11    1    1    2    0    0  0.26875968467E+02  0.87569621887E+02  0.88051026287E+01  0.92023291566E+02  0.00000000000E+00 0.  1.
         11    1    1    2    0    0  0.88525899011E+02 -0.28603853625E+03 -0.36669989947E+03  0.47341704161E+03  0.00000000000E+00 0. -1.
        -15    1    3    3    0    0 -0.12168654261E+03  0.13205729975E+03  0.26794261045E+03  0.32255719693E+03  0.17770000000E+01 0.  1.
         15    1    3    3    0    0  0.62846751275E+01  0.66411614614E+02  0.89952186389E+02  0.11200246989E+03  0.17770000000E+01 0. -1.
</event>
<event>
 7    1  0.4954109E-006  0.5153740E+03  0.7546771E-02  0.9366051E-01
        -11   -1    0    0    0    0  0.00000000000E+00  0.00000000000E+00  0.50000000000E+03  0.50000000000E+03  0.00000000000E+00 0.  1.
         11   -1    0    0    0    0 -0.00000000000E+00 -0.00000000000E+00 -0.50000000000E+03  0.50000000000E+03  0.00000000000E+00 0. -1.
         23    2    1    2    0    0 -0.37101290055E+02  0.52655335900E+01 -0.13372959451E+03  0.16681272010E+03  0.92404802756E+02 0.  0.
        -11    1    1    2    0    0  0.72322827051E+02 -0.77691302406E+02  0.47285922426E+03  0.48462601637E+03  0.00000000000E+00 0.  1.
         11    1    1    2    0    0 -0.35221536996E+02  0.72425768816E+02 -0.33912962975E+03  0.34856126352E+03  0.00000000000E+00 0. -1.
        -15    1    3    3    0    0  0.28111322689E+02 -0.11247337440E+02 -0.26821292777E+02  0.40488128359E+02  0.17770000000E+01 0. -1.
         15    1    3    3    0    0 -0.65212612744E+02  0.16512871030E+02 -0.10690830173E+03  0.12632459174E+03  0.17770000000E+01 0.  1.
</event>
<event>
 6    1  0.4954109E-006  0.5291751E+03  0.7546771E-02  0.9336795E-01
        -11   -1    0    0    0    0  0.00000000000E+00  0.00000000000E+00  0.50000000000E+03  0.50000000000E+03  0.00000000000E+00 0. -1.
         11   -1    0    0    0    0 -0.00000000000E+00 -0.00000000000E+00 -0.50000000000E+03  0.50000000000E+03  0.00000000000E+00 0.  1.
        -11    1    1    2    0    0  0.38449132996E+02  0.16655583847E+03  0.43869911541E+03  0.47082491122E+03  0.00000000000E+00 0. -1.
         11    1    1    2    0    0 -0.44477978518E+02 -0.14285115460E+02 -0.23419264175E+03  0.23880650859E+03  0.00000000000E+00 0.  1.
        -15    1    1    2    0    0 -0.55245145995E+02 -0.35607574295E+02 -0.31559278793E+02  0.72931963570E+02  0.17770000000E+01 0. -1.
         15    1    1    2    0    0  0.61273991517E+02 -0.11666314872E+03 -0.17294719487E+03  0.21743661662E+03  0.17770000000E+01 0.  1.
</event>
<event>
 7    1  0.4954109E-006  0.5155961E+03  0.7546771E-02  0.9365573E-01
        -11   -1    0    0    0    0  0.00000000000E+00  0.00000000000E+00  0.50000000000E+03  0.50000000000E+03  0.00000000000E+00 0. -1.
         11   -1    0    0    0    0 -0.00000000000E+00 -0.00000000000E+00 -0.50000000000E+03  0.50000000000E+03  0.00000000000E+00 0.  1.
         23    2    1    2    0    0  0.24648426892E+02 -0.17986211851E+02  0.12917667905E+03  0.16177681179E+03  0.92488235239E+02 0.  0.
        -11    1    1    2    0    0  0.58790767121E+02  0.26192526206E+02  0.34791624487E+03  0.35381932702E+03  0.00000000000E+00 0. -1.
         11    1    1    2    0    0 -0.83439194013E+02 -0.82063143547E+01 -0.47709292391E+03  0.48440386120E+03  0.00000000000E+00 0.  1.
        -15    1    3    3    0    0 -0.12499897837E+02  0.22019120502E+02  0.46599577635E+01  0.25806240505E+02  0.17770000000E+01 0.  1.
         15    1    3    3    0    0  0.37148324730E+02 -0.40005332354E+02  0.12451672128E+03  0.13597057128E+03  0.17770000000E+01 0. -1.
</event>
<event>
 7    1  0.4954109E-006  0.4158050E+03  0.7546771E-02  0.9610821E-01
        -11   -1    0    0    0    0  0.00000000000E+00  0.00000000000E+00  0.50000000000E+03  0.50000000000E+03  0.00000000000E+00 0.  1.
         11   -1    0    0    0    0 -0.00000000000E+00 -0.00000000000E+00 -0.50000000000E+03  0.50000000000E+03  0.00000000000E+00 0.  1.
         23    2    1    2    0    0  0.11296338006E+03 -0.12792615869E+02  0.37422884311E+03  0.40241801819E+03  0.94702999419E+02 0.  0.
        -11    1    1    2    0    0  0.11258239298E+03 -0.11534355475E+03 -0.25857602807E+02  0.16324076223E+03  0.00000000000E+00 0.  1.
         11    1    1    2    0    0 -0.22554577304E+03  0.12813617062E+03 -0.34837124030E+03  0.43434121958E+03  0.00000000000E+00 0.  1.
        -15    1    3    3    0    0  0.37632821990E+02  0.40690012274E+02  0.13301095252E+03  0.14410752100E+03  0.17770000000E+01 0.  1.
         15    1    3    3    0    0  0.75330558075E+02 -0.53482628142E+02  0.24121789058E+03  0.25831049719E+03  0.17770000000E+01 0. -1.
</event>
<event>
 7    1  0.5471030E-006  0.5111012E+03  0.7546771E-02  0.9375307E-01
        -11   -1    0    0    0    0  0.00000000000E+00  0.00000000000E+00  0.50000000000E+03  0.50000000000E+03  0.00000000000E+00 0. -1.
         11   -1    0    0    0    0 -0.00000000000E+00 -0.00000000000E+00 -0.50000000000E+03  0.50000000000E+03  0.00000000000E+00 0. -1.
         23    2    1    2    0    0 -0.83026003692E+01 -0.10891468461E+03 -0.33184705490E+03  0.36237680096E+03  0.96245188608E+02 0.  0.
        -11    1    1    2    0    0 -0.23146717308E+02  0.10409056789E+03  0.47712825966E+03  0.48889875538E+03  0.00000000000E+00 0. -1.
         11    1    1    2    0    0  0.31449317677E+02  0.48241167167E+01 -0.14528120476E+03  0.14872444366E+03  0.00000000000E+00 0. -1.
        -15    1    3    3    0    0 -0.27542904853E+02 -0.50309138903E+02 -0.57721153057E+02  0.81391094747E+02  0.17770000000E+01 0.  1.
         15    1    3    3    0    0  0.19240304484E+02 -0.58605545704E+02 -0.27412590185E+03  0.28098570621E+03  0.17770000000E+01 0. -1.
</event>
<event>
 7    1  0.4954109E-006  0.5291462E+03  0.7546771E-02  0.9336855E-01
        -11   -1    0    0    0    0  0.00000000000E+00  0.00000000000E+00  0.50000000000E+03  0.50000000000E+03  0.00000000000E+00 0. -1.
         11   -1    0    0    0    0 -0.00000000000E+00 -0.00000000000E+00 -0.50000000000E+03  0.50000000000E+03  0.00000000000E+00 0.  1.
         23    2    1    2    0    0 -0.24604419030E+02 -0.69539990405E+02 -0.69195494579E+02  0.13489286074E+03  0.89257379003E+02 0.  0.
        -11    1    1    2    0    0  0.12083574857E+03  0.58148404435E+02  0.45135441473E+03  0.47085382315E+03  0.00000000000E+00 0. -1.
         11    1    1    2    0    0 -0.96231329541E+02  0.11391585970E+02 -0.38215892015E+03  0.39425331612E+03  0.00000000000E+00 0.  1.
        -15    1    3    3    0    0  0.17895848428E+02 -0.64794134792E+02 -0.21024452708E+02  0.70453719810E+02  0.17770000000E+01 0.  1.
         15    1    3    3    0    0 -0.42500267458E+02 -0.47458556132E+01 -0.48171041871E+02  0.64439140927E+02  0.17770000000E+01 0. -1.
</event>
<event>
 7    1  0.4954109E-006  0.4702006E+03  0.7546771E-02  0.9469074E-01
        -11   -1    0    0    0    0  0.00000000000E+00  0.00000000000E+00  0.50000000000E+03  0.50000000000E+03  0.00000000000E+00 0.  1.
         11   -1    0    0    0    0 -0.00000000000E+00 -0.00000000000E+00 -0.50000000000E+03  0.50000000000E+03  0.00000000000E+00 0. -1.
         23    2    1    2    0    0  0.15209522082E+03  0.14774412612E+03 -0.38621457466E+03  0.44990081491E+03  0.91037149443E+02 0.  0.
        -11    1    1    2    0    0 -0.12659406594E+03 -0.19551169179E+03  0.42421191911E+03  0.48394899677E+03  0.00000000000E+00 0.  1.
         11    1    1    2    0    0 -0.25501154879E+02  0.47767565665E+02 -0.37997344454E+02  0.66150188323E+02  0.00000000000E+00 0. -1.
        -15    1    3    3    0    0  0.15809764207E+03  0.11400376408E+03 -0.34512550010E+03  0.39636661211E+03  0.17770000000E+01 0. -1.
         15    1    3    3    0    0 -0.60024212483E+01  0.33740362049E+02 -0.41089074557E+02  0.53534202796E+02  0.17770000000E+01 0.  1.
</event>
<event>
 7    1  0.4954109E-006  0.5357100E+03  0.7546771E-02  0.9323270E-01
        -11   -1    0    0    0    0  0.00000000000E+00  0.00000000000E+00  0.50000000000E+03  0.50000000000E+03  0.00000000000E+00 0.  1.
         11   -1    0    0    0    0 -0.00000000000E+00 -0.00000000000E+00 -0.50000000000E+03  0.50000000000E+03  0.00000000000E+00 0. -1.
         23    2    1    2    0    0 -0.68926410885E+02 -0.31815620655E+02  0.22125377835E+03  0.25116887289E+03  0.91484886389E+02 0.  0.
        -11    1    1    2    0    0  0.16678808979E+03 -0.46395410359E+02  0.22581595171E+03  0.28454111311E+03  0.00000000000E+00 0.  1.
         11    1    1    2    0    0 -0.97861678908E+02  0.78211031013E+02 -0.44706973006E+03  0.46429001401E+03  0.00000000000E+00 0. -1.
        -15    1    3    3    0    0 -0.39465884831E+02 -0.39413996063E+02  0.21214252932E+03  0.21935958977E+03  0.17770000000E+01 0.  1.
         15    1    3    3    0    0 -0.29460526055E+02  0.75983754082E+01  0.91112490327E+01  0.31809283114E+02  0.17770000000E+01 0. -1.
</event>
<event>
 7    1  0.4954109E-006  0.3637021E+03  0.7546771E-02  0.9770181E-01
        -11   -1    0    0    0    0  0.00000000000E+00  0.00000000000E+00  0.50000000000E+03  0.50000000000E+03  0.00000000000E+00 0. -1.
         11   -1    0    0    0    0 -0.00000000000E+00 -0.00000000000E+00 -0.50000000000E+03  0.50000000000E+03  0.00000000000E+00 0.  1.
         23    2    1    2    0    0  0.31946047863E+02  0.21653638238E+03 -0.26974476496E+02  0.23989931816E+03  0.94421955081E+02 0.  0.
        -11    1    1    2    0    0  0.17004736343E+03 -0.36398254062E+03  0.20702030239E+03  0.45194778602E+03  0.00000000000E+00 0. -1.
         11    1    1    2    0    0 -0.20199341129E+03  0.14744615824E+03 -0.18004582589E+03  0.30815289582E+03  0.00000000000E+00 0.  1.
        -15    1    3    3    0    0  0.14290170647E+02  0.41386189013E+02  0.31974371211E+02  0.54245218789E+02  0.17770000000E+01 0.  1.
         15    1    3    3    0    0  0.17655877215E+02  0.17515019337E+03 -0.58948847707E+02  0.18565409937E+03  0.17770000000E+01 0. -1.
</event>
<event>
 7    1  0.4954109E-006  0.5159399E+03  0.7546771E-02  0.9364833E-01
        -11   -1    0    0    0    0  0.00000000000E+00  0.00000000000E+00  0.50000000000E+03  0.50000000000E+03  0.00000000000E+00 0.  1.
         11   -1    0    0    0    0 -0.00000000000E+00 -0.00000000000E+00 -0.50000000000E+03  0.50000000000E+03  0.00000000000E+00 0.  1.
         23    2    1    2    0    0  0.48138826701E+01 -0.10206742296E+02  0.13104943348E+03  0.16000506018E+03  0.91106060240E+02 0.  0.
        -11    1    1    2    0    0  0.12544292509E+02 -0.12018998715E+03  0.33479340969E+03  0.35593485283E+03  0.00000000000E+00 0.  1.
         11    1    1    2    0    0 -0.17358175179E+02  0.13039672945E+03 -0.46584284317E+03  0.48406008700E+03  0.00000000000E+00 0.  1.
        -15    1    3    3    0    0 -0.25208805977E+01 -0.25977742178E+02  0.13853712498E+03  0.14098542710E+03  0.17770000000E+01 0. -1.
         15    1    3    3    0    0  0.73347632678E+01  0.15770999882E+02 -0.74876914999E+01  0.19019633079E+02  0.17770000000E+01 0.  1.
</event>
<event>
 6    1  0.4954109E-006  0.5253834E+03  0.7546771E-02  0.9344738E-01
        -11   -1    0    0    0    0  0.00000000000E+00  0.00000000000E+00  0.50000000000E+03  0.50000000000E+03  0.00000000000E+00 0.  1.
         11   -1    0    0    0    0 -0.00000000000E+00 -0.00000000000E+00 -0.50000000000E+03  0.50000000000E+03  0.00000000000E+00 0. -1.
        -11    1    1    2    0    0  0.30474350942E+02  0.26294756783E+03  0.39394264366E+03  0.47461659893E+03  0.00000000000E+00 0.  1.
         11    1    1    2    0    0 -0.73253346467E+02 -0.51603267393E+02 -0.14853176908E+03  0.17346652818E+03  0.00000000000E+00 0. -1.
        -15    1    1    2    0    0  0.46487270069E+01 -0.20859977367E+03 -0.17740251686E+03  0.27388005944E+03  0.17770000000E+01 0.  1.
         15    1    1    2    0    0  0.38130268519E+02 -0.27445267628E+01 -0.68008357719E+02  0.78036813448E+02  0.17770000000E+01 0. -1.
</event>
<event>
 7    1  0.4954109E-006  0.5140716E+03  0.7546771E-02  0.9368862E-01
        -11   -1    0    0    0    0  0.00000000000E+00  0.00000000000E+00  0.50000000000E+03  0.50000000000E+03  0.00000000000E+00 0.  1.
         11   -1    0    0    0    0 -0.00000000000E+00 -0.00000000000E+00 -0.50000000000E+03  0.50000000000E+03  0.00000000000E+00 0.  1.
         23    2    1    2    0    0  0.10170039094E+03 -0.31647616848E+02  0.31476680186E+03  0.34538834815E+03  0.94182961918E+02 0.  0.
        -11    1    1    2    0    0  0.16999283812E+01 -0.85634932907E+02  0.14531968712E+03  0.16868326222E+03  0.00000000000E+00 0.  1.
         11    1    1    2    0    0 -0.10340031933E+03  0.11728254975E+03 -0.46008648897E+03  0.48592838963E+03  0.00000000000E+00 0.  1.
        -15    1    3    3    0    0 -0.68379021390E+01 -0.17169844465E+02  0.90628844138E+01  0.20660446934E+02  0.17770000000E+01 0.  1.
         15    1    3    3    0    0  0.10853829308E+03 -0.14477772383E+02  0.30570391744E+03  0.32472790121E+03  0.17770000000E+01 0. -1.
</event>
<event>
 7    1  0.4954109E-006  0.3373619E+03  0.7546771E-02  0.9862051E-01
        -11   -1    0    0    0    0  0.00000000000E+00  0.00000000000E+00  0.50000000000E+03  0.50000000000E+03  0.00000000000E+00 0.  1.
         11   -1    0    0    0    0 -0.00000000000E+00 -0.00000000000E+00 -0.50000000000E+03  0.50000000000E+03  0.00000000000E+00 0.  1.
         23    2    1    2    0    0  0.17176540323E+03 -0.15214268576E+03  0.12422938688E+03  0.27658037870E+03  0.91722487631E+02 0.  0.
        -11    1    1    2    0    0 -0.18267342324E+03 -0.20214152302E+02  0.25056893196E+03  0.31074584659E+03  0.00000000000E+00 0.  1.
         11    1    1    2    0    0  0.10908020010E+02  0.17235683806E+03 -0.37479831884E+03  0.41267377471E+03  0.00000000000E+00 0.  1.
        -15    1    3    3    0    0  0.59924083636E+02 -0.49622871990E+02  0.93710085319E+02  0.12181158830E+03  0.17770000000E+01 0.  1.
         15    1    3    3    0    0  0.11184131960E+03 -0.10251981377E+03  0.30519301562E+02  0.15476879040E+03  0.17770000000E+01 0. -1.
</event>
<event>
 7    1  0.4954109E-006  0.5312148E+03  0.7546771E-02  0.9332551E-01
        -11   -1    0    0    0    0  0.00000000000E+00  0.00000000000E+00  0.50000000000E+03  0.50000000000E+03  0.00000000000E+00 0.  1.
         11   -1    0    0    0    0 -0.00000000000E+00 -0.00000000000E+00 -0.50000000000E+03  0.50000000000E+03  0.00000000000E+00 0. -1.
         23    2    1    2    0    0  0.59835533726E+02 -0.23858240041E+02  0.30160543806E+03  0.32185658040E+03  0.92066885269E+02 0.  0.
        -11    1    1    2    0    0 -0.67468680462E+02 -0.14421003896E+03  0.13594957868E+03  0.20935817664E+03  0.00000000000E+00 0.  1.
         11    1    1    2    0    0  0.76331467364E+01  0.16806827900E+03 -0.43755501675E+03  0.46878524296E+03  0.00000000000E+00 0. -1.
        -15    1    3    3    0    0  0.83620617404E+02 -0.14039651935E+02  0.25292077173E+03  0.26676130526E+03  0.17770000000E+01 0.  1.
         15    1    3    3    0    0 -0.23785083678E+02 -0.98185881064E+01  0.48684666331E+02  0.55095275140E+02  0.17770000000E+01 0. -1.
</event>
<event>
 7    1  0.4954109E-006  0.5084299E+03  0.7546771E-02  0.9381142E-01
        -11   -1    0    0    0    0  0.00000000000E+00  0.00000000000E+00  0.50000000000E+03  0.50000000000E+03  0.00000000000E+00 0.  1.
         11   -1    0    0    0    0 -0.00000000000E+00 -0.00000000000E+00 -0.50000000000E+03  0.50000000000E+03  0.00000000000E+00 0. -1.
         23    2    1    2    0    0  0.26240472642E+02  0.17589689305E+03 -0.30678295567E+03  0.36491979763E+03  0.86153336692E+02 0.  0.
        -11    1    1    2    0    0 -0.83058890945E+02 -0.22510265482E+03  0.42903518288E+03  0.49157010967E+03  0.00000000000E+00 0.  1.
         11    1    1    2    0    0  0.56818418303E+02  0.49205761766E+02 -0.12225222721E+03  0.14351009270E+03  0.00000000000E+00 0. -1.
        -15    1    3    3    0    0  0.29558196463E+02  0.11763340621E+03 -0.12582088966E+03  0.17477230684E+03  0.17770000000E+01 0.  1.
         15    1    3    3    0    0 -0.33177238208E+01  0.58263486845E+02 -0.18096206601E+03  0.19014749079E+03  0.17770000000E+01 0. -1.
</event>
<event>
 7    1  0.4954109E-006  0.4683343E+03  0.7546771E-02  0.9473592E-01
        -11   -1    0    0    0    0  0.00000000000E+00  0.00000000000E+00  0.50000000000E+03  0.50000000000E+03  0.00000000000E+00 0.  1.
         11   -1    0    0    0    0 -0.00000000000E+00 -0.00000000000E+00 -0.50000000000E+03  0.50000000000E+03  0.00000000000E+00 0. -1.
         23    2    1    2    0    0  0.11415055020E+03  0.23197109857E+02  0.41238555773E+03  0.43936408641E+03  0.97007722318E+02 0.  0.
        -11    1    1    2    0    0  0.50880634289E+02  0.13321505411E+02  0.47377557781E+02  0.70787954013E+02  0.00000000000E+00 0.  1.
         11    1    1    2    0    0 -0.16503118449E+03 -0.36518615268E+02 -0.45976311551E+03  0.48984795957E+03  0.00000000000E+00 0. -1.
        -15    1    3    3    0    0  0.12794331881E+03  0.30626692859E+02  0.39262953563E+03  0.41408766840E+03  0.17770000000E+01 0.  1.
         15    1    3    3    0    0 -0.13792768606E+02 -0.74295830018E+01  0.19756022100E+02  0.25276418014E+02  0.17770000000E+01 0. -1.
</event>
<event>
 6    1  0.5156868E-006  0.3873590E+03  0.7546771E-02  0.9694506E-01
        -11   -1    0    0    0    0  0.00000000000E+00  0.00000000000E+00  0.50000000000E+03  0.50000000000E+03  0.00000000000E+00 0.  1.
         11   -1    0    0    0    0 -0.00000000000E+00 -0.00000000000E+00 -0.50000000000E+03  0.50000000000E+03  0.00000000000E+00 0. -1.
        -11    1    1    2    0    0 -0.35571671718E+01  0.11611312702E+03  0.36979033875E+03  0.38760779964E+03  0.00000000000E+00 0.  1.
         11    1    1    2    0    0 -0.78331894033E+02 -0.23862005901E+02 -0.38855890980E+03  0.39709357504E+03  0.00000000000E+00 0. -1.
        -15    1    1    2    0    0  0.16392244414E+01 -0.46734300325E+02  0.88181510704E+02  0.99829446771E+02  0.17770000000E+01 0.  1.
         15    1    1    2    0    0  0.80249836763E+02 -0.45516820796E+02 -0.69412939654E+02  0.11546917856E+03  0.17770000000E+01 0. -1.
</event>
<event>
 7    1  0.4954109E-006  0.4786970E+03  0.7546771E-02  0.9448780E-01
        -11   -1    0    0    0    0  0.00000000000E+00  0.00000000000E+00  0.50000000000E+03  0.50000000000E+03  0.00000000000E+00 0.  1.
         11   -1    0    0    0    0 -0.00000000000E+00 -0.00000000000E+00 -0.50000000000E+03  0.50000000000E+03  0.00000000000E+00 0. -1.
         23    2    1    2    0    0  0.10316747044E+03 -0.44391667357E+02  0.46363952176E+03  0.48685024105E+03  0.97197757111E+02 0.  0.
        -11    1    1    2    0    0 -0.44780471628E+02 -0.22570192053E+02 -0.10308668443E+02  0.51195437820E+02  0.00000000000E+00 0.  1.
         11    1    1    2    0    0 -0.58386998812E+02  0.66961859410E+02 -0.45333085331E+03  0.46195432113E+03  0.00000000000E+00 0. -1.
        -15    1    3    3    0    0  0.11051789167E+03 -0.61640525750E+02  0.43067202228E+03  0.44888228668E+03  0.17770000000E+01 0.  1.
         15    1    3    3    0    0 -0.73504212263E+01  0.17248858393E+02  0.32967499475E+02  0.37967954365E+02  0.17770000000E+01 0. -1.
</event>
<event>
 7    1  0.4954109E-006  0.5275040E+03  0.7546771E-02  0.9340287E-01
        -11   -1    0    0    0    0  0.00000000000E+00  0.00000000000E+00  0.50000000000E+03  0.50000000000E+03  0.00000000000E+00 0.  1.
         11   -1    0    0    0    0 -0.00000000000E+00 -0.00000000000E+00 -0.50000000000E+03  0.50000000000E+03  0.00000000000E+00 0. -1.
         23    2    1    2    0    0  0.16175241926E+02  0.25915518867E+02  0.32138534891E+03  0.33535722820E+03  0.90789181323E+02 0.  0.
        -11    1    1    2    0    0 -0.13284856653E+03 -0.25400146815E+02  0.13647879081E+03  0.19214673931E+03  0.00000000000E+00 0.  1.
         11    1    1    2    0    0  0.11667332460E+03 -0.51537205163E+00 -0.45786413971E+03  0.47249603249E+03  0.00000000000E+00 0. -1.
        -15    1    3    3    0    0 -0.33391776477E+02  0.10985928429E+02  0.20453207830E+03  0.20753850279E+03  0.17770000000E+01 0.  1.
         15    1    3    3    0    0  0.49567018403E+02  0.14929590438E+02  0.11685327061E+03  0.12781872541E+03  0.17770000000E+01 0. -1.
</event>
<event>
 7    1  0.4954109E-006  0.4777934E+03  0.7546771E-02  0.9450917E-01
        -11   -1    0    0    0    0  0.00000000000E+00  0.00000000000E+00  0.50000000000E+03  0.50000000000E+03  0.00000000000E+00 0.  1.
         11   -1    0    0    0    0 -0.00000000000E+00 -0.00000000000E+00 -0.50000000000E+03  0.50000000000E+03  0.00000000000E+00 0. -1.
         23    2    1    2    0    0 -0.69748622998E+02 -0.43942228768E+03 -0.86578914848E+02  0.46192375226E+03  0.88999028527E+02 0.  0.
        -11    1    1    2    0    0  0.10518402608E+03  0.46050104470E+03  0.11724175126E+03  0.48669345563E+03  0.00000000000E+00 0.  1.
         11    1    1    2    0    0 -0.35435403077E+02 -0.21078757018E+02 -0.30662836412E+02  0.51382792115E+02  0.00000000000E+00 0. -1.
        -15    1    3    3    0    0 -0.11412590965E+02 -0.13627988227E+03  0.13412052303E+02  0.13742450444E+03  0.17770000000E+01 0.  1.
         15    1    3    3    0    0 -0.58336032034E+02 -0.30314240541E+03 -0.99990967152E+02  0.32449924782E+03  0.17770000000E+01 0. -1.
</event>
<event>
 7    1  0.4954109E-006  0.3523278E+03  0.7546771E-02  0.9808795E-01
        -11   -1    0    0    0    0  0.00000000000E+00  0.00000000000E+00  0.50000000000E+03  0.50000000000E+03  0.00000000000E+00 0. -1.
         11   -1    0    0    0    0 -0.00000000000E+00 -0.00000000000E+00 -0.50000000000E+03  0.50000000000E+03  0.00000000000E+00 0.  1.
         23    2    1    2    0    0  0.11888145766E+03 -0.21001980752E+03 -0.13046926639E+03  0.28965718799E+03  0.92940500086E+02 0.  0.
        -11    1    1    2    0    0 -0.15155306433E+03  0.17379887772E+03  0.38630657002E+03  0.44989681844E+03  0.00000000000E+00 0. -1.
         11    1    1    2    0    0  0.32671606674E+02  0.36220929804E+02 -0.25583730363E+03  0.26044599357E+03  0.00000000000E+00 0.  1.
        -15    1    3    3    0    0  0.89884164295E+02 -0.88278266396E+02 -0.30922124371E+02  0.12973646678E+03  0.17770000000E+01 0. -1.
         15    1    3    3    0    0  0.28997293361E+02 -0.12174154113E+03 -0.99547142021E+02  0.15992072121E+03  0.17770000000E+01 0.  1.
</event>
<event>
 7    1  0.4954109E-006  0.5245550E+03  0.7546771E-02  0.9346482E-01
        -11   -1    0    0    0    0  0.00000000000E+00  0.00000000000E+00  0.50000000000E+03  0.50000000000E+03  0.00000000000E+00 0. -1.
         11   -1    0    0    0    0 -0.00000000000E+00 -0.00000000000E+00 -0.50000000000E+03  0.50000000000E+03  0.00000000000E+00 0.  1.
         23    2    1    2    0    0 -0.66633547468E+02 -0.12495171889E+02 -0.21238428053E+03  0.24069260803E+03  0.90717638705E+02 0.  0.
        -11    1    1    2    0    0  0.85223565732E+02  0.20440499266E+03  0.42071785250E+03  0.47544502163E+03  0.00000000000E+00 0. -1.
         11    1    1    2    0    0 -0.18590018264E+02 -0.19190982077E+03 -0.20833357196E+03  0.28386237034E+03  0.00000000000E+00 0.  1.
        -15    1    3    3    0    0 -0.22617827282E+02 -0.35916096528E+02 -0.17000395649E+03  0.17523137576E+03  0.17770000000E+01 0.  1.
         15    1    3    3    0    0 -0.44015720186E+02  0.23420924639E+02 -0.42380324045E+02  0.65461232264E+02  0.17770000000E+01 0. -1.
</event>
<event>
 7    1  0.4954109E-006  0.5199009E+03  0.7546771E-02  0.9356349E-01
        -11   -1    0    0    0    0  0.00000000000E+00  0.00000000000E+00  0.50000000000E+03  0.50000000000E+03  0.00000000000E+00 0.  1.
         11   -1    0    0    0    0 -0.00000000000E+00 -0.00000000000E+00 -0.50000000000E+03  0.50000000000E+03  0.00000000000E+00 0.  1.
         23    2    1    2    0    0  0.17479229467E+02 -0.12474697558E+03  0.18507517610E+03  0.24139036891E+03  0.90272686979E+02 0.  0.
        -11    1    1    2    0    0  0.15293315237E+03 -0.55125934997E+02  0.22614311577E+03  0.27851055027E+03  0.00000000000E+00 0.  1.
         11    1    1    2    0    0 -0.17041238183E+03  0.17987291058E+03 -0.41121829187E+03  0.48009908082E+03  0.00000000000E+00 0.  1.
        -15    1    3    3    0    0  0.24536133976E+02  0.45947178943E+01  0.23885044192E+02  0.34594600274E+02  0.17770000000E+01 0. -1.
         15    1    3    3    0    0 -0.70569045086E+01 -0.12934169347E+03  0.16119013190E+03  0.20679576863E+03  0.17770000000E+01 0.  1.
</event>
<event>
 7    1  0.4954109E-006  0.4191567E+03  0.7546771E-02  0.9601433E-01
        -11   -1    0    0    0    0  0.00000000000E+00  0.00000000000E+00  0.50000000000E+03  0.50000000000E+03  0.00000000000E+00 0.  1.
         11   -1    0    0    0    0 -0.00000000000E+00 -0.00000000000E+00 -0.50000000000E+03  0.50000000000E+03  0.00000000000E+00 0. -1.
         23    2    1    2    0    0 -0.13178009946E+02  0.14110820127E+03  0.39246535151E+03  0.42712624663E+03  0.91228252280E+02 0.  0.
        -11    1    1    2    0    0  0.15238724075E+03  0.16789328422E+02 -0.33787477063E+02  0.15698836358E+03  0.00000000000E+00 0.  1.
         11    1    1    2    0    0 -0.13920923080E+03 -0.15789752969E+03 -0.35867787445E+03  0.41588538979E+03  0.00000000000E+00 0. -1.
        -15    1    3    3    0    0  0.26971008444E+02  0.12011625257E+03  0.28070304724E+03  0.30651705970E+03  0.17770000000E+01 0.  1.
         15    1    3    3    0    0 -0.40149018389E+02  0.20991948703E+02  0.11176230427E+03  0.12060918693E+03  0.17770000000E+01 0. -1.
</event>
<event>
 6    1  0.4954109E-006  0.5050043E+03  0.7546771E-02  0.9388681E-01
        -11   -1    0    0    0    0  0.00000000000E+00  0.00000000000E+00  0.50000000000E+03  0.50000000000E+03  0.00000000000E+00 0. -1.
         11   -1    0    0    0    0 -0.00000000000E+00 -0.00000000000E+00 -0.50000000000E+03  0.50000000000E+03  0.00000000000E+00 0. -1.
        -11    1    1    2    0    0  0.20489317878E+02  0.44528073194E+02  0.10187048791E+03  0.11304935983E+03  0.00000000000E+00 0. -1.
         11    1    1    2    0    0 -0.11372241577E+03 -0.46791664955E+02 -0.47947727835E+03  0.49499566484E+03  0.00000000000E+00 0. -1.
        -15    1    1    2    0    0  0.92963352872E+02  0.13253785127E+02  0.34007272274E+03  0.35280371636E+03  0.17770000000E+01 0. -1.
         15    1    1    2    0    0  0.26974502132E+00 -0.10990193365E+02  0.37534067689E+02  0.39151258969E+02  0.17770000000E+01 0.  1.
</event>
<event>
 7    1  0.4954109E-006  0.5181385E+03  0.7546771E-02  0.9360114E-01
        -11   -1    0    0    0    0  0.00000000000E+00  0.00000000000E+00  0.50000000000E+03  0.50000000000E+03  0.00000000000E+00 0.  1.
         11   -1    0    0    0    0 -0.00000000000E+00 -0.00000000000E+00 -0.50000000000E+03  0.50000000000E+03  0.00000000000E+00 0.  1.
         23    2    1    2    0    0 -0.62269740532E+02  0.11903089623E+03  0.22966908233E+03  0.28121023432E+03  0.91024357552E+02 0.  0.
        -11    1    1    2    0    0 -0.14363629390E+03  0.15189955243E+03  0.11149055901E+03  0.23692826700E+03  0.00000000000E+00 0.  1.
         11    1    1    2    0    0  0.20590603443E+03 -0.27093044866E+03 -0.34115964134E+03  0.48186149868E+03  0.00000000000E+00 0.  1.
        -15    1    3    3    0    0 -0.79274602586E+02  0.67337285436E+02  0.12032395174E+03  0.15905905732E+03  0.17770000000E+01 0. -1.
         15    1    3    3    0    0  0.17004862054E+02  0.51693610790E+02  0.10934513059E+03  0.12215117700E+03  0.17770000000E+01 0.  1.
</event>
<event>
 7    1  0.4954109E-006  0.5084578E+03  0.7546771E-02  0.9381081E-01
        -11   -1    0    0    0    0  0.00000000000E+00  0.00000000000E+00  0.50000000000E+03  0.50000000000E+03  0.00000000000E+00 0.  1.
         11   -1    0    0    0    0 -0.00000000000E+00 -0.00000000000E+00 -0.50000000000E+03  0.50000000000E+03  0.00000000000E+00 0.  1.
         23    2    1    2    0    0  0.98409641216E+01  0.50503784067E+02  0.32961993773E+03  0.34518498246E+03  0.88633469908E+02 0.  0.
        -11    1    1    2    0    0 -0.45283130147E+02  0.29412265741E+02  0.15408557767E+03  0.16327280391E+03  0.00000000000E+00 0.  1.
         11    1    1    2    0    0  0.35442166025E+02 -0.79916049808E+02 -0.48370551540E+03  0.49154221363E+03  0.00000000000E+00 0.  1.
        -15    1    3    3    0    0  0.30451680383E+02  0.67254668987E+02  0.20901613844E+03  0.22167859436E+03  0.17770000000E+01 0. -1.
         15    1    3    3    0    0 -0.20610716262E+02 -0.16750884920E+02  0.12060379929E+03  0.12350638811E+03  0.17770000000E+01 0.  1.
</event>
<event>
 7    1  0.4954109E-006  0.5083131E+03  0.7546771E-02  0.9381398E-01
        -11   -1    0    0    0    0  0.00000000000E+00  0.00000000000E+00  0.50000000000E+03  0.50000000000E+03  0.00000000000E+00 0.  1.
         11   -1    0    0    0    0 -0.00000000000E+00 -0.00000000000E+00 -0.50000000000E+03  0.50000000000E+03  0.00000000000E+00 0. -1.
         23    2    1    2    0    0  0.10419616603E+03  0.96880846763E+02 -0.23064021965E+03  0.28601866359E+03  0.91482378179E+02 0.  0.
        -11    1    1    2    0    0 -0.18745457103E+03 -0.14245103879E+03  0.43165319667E+03  0.49168688903E+03  0.00000000000E+00 0.  1.
         11    1    1    2    0    0  0.83258405009E+02  0.45570192031E+02 -0.20101297701E+03  0.22229444738E+03  0.00000000000E+00 0. -1.
        -15    1    3    3    0    0  0.44609573642E+02  0.39044226797E+01 -0.21944790576E+02  0.49899800996E+02  0.17770000000E+01 0.  1.
         15    1    3    3    0    0  0.59586592384E+02  0.92976424083E+02 -0.20869542908E+03  0.23611886260E+03  0.17770000000E+01 0. -1.
</event>
<event>
 7    1  0.4954109E-006  0.3400143E+03  0.7546771E-02  0.9852399E-01
        -11   -1    0    0    0    0  0.00000000000E+00  0.00000000000E+00  0.50000000000E+03  0.50000000000E+03  0.00000000000E+00 0.  1.
         11   -1    0    0    0    0 -0.00000000000E+00 -0.00000000000E+00 -0.50000000000E+03  0.50000000000E+03  0.00000000000E+00 0.  1.
         23    2    1    2    0    0 -0.10110825975E+03 -0.14742331338E+02  0.23737618052E+03  0.27252049263E+03  0.86485555432E+02 0.  0.
        -11    1    1    2    0    0  0.35767013970E+03 -0.12784800109E+03 -0.60050936405E+02  0.38455058858E+03  0.00000000000E+00 0.  1.
         11    1    1    2    0    0 -0.25656187994E+03  0.14259033243E+03 -0.17732524412E+03  0.34292891879E+03  0.00000000000E+00 0.  1.
        -15    1    3    3    0    0  0.67199625968E-01 -0.29069867443E+02  0.77265335654E+02  0.82572098991E+02  0.17770000000E+01 0. -1.
         15    1    3    3    0    0 -0.10117545938E+03  0.14327536105E+02  0.16011084487E+03  0.18994839364E+03  0.17770000000E+01 0.  1.
</event>
<event>
 7    1  0.4954109E-006  0.5380747E+03  0.7546771E-02  0.9318426E-01
        -11   -1    0    0    0    0  0.00000000000E+00  0.00000000000E+00  0.50000000000E+03  0.50000000000E+03  0.00000000000E+00 0.  1.
         11   -1    0    0    0    0 -0.00000000000E+00 -0.00000000000E+00 -0.50000000000E+03  0.50000000000E+03  0.00000000000E+00 0. -1.
         23    2    1    2    0    0 -0.24978597205E+00  0.65733923065E+01  0.27825200116E+02  0.95084020516E+02  0.90683280248E+02 0.  0.
        -11    1    1    2    0    0 -0.13323144334E+02 -0.26403363772E+03  0.35545668296E+03  0.44299065620E+03  0.00000000000E+00 0.  1.
         11    1    1    2    0    0  0.13572930306E+02  0.25746024541E+03 -0.38328188307E+03  0.46192532329E+03  0.00000000000E+00 0. -1.
        -15    1    3    3    0    0  0.21452645893E+02 -0.25489668224E+02  0.42156452897E+02  0.53761170484E+02  0.17770000000E+01 0.  1.
         15    1    3    3    0    0 -0.21702431865E+02  0.32063060531E+02 -0.14331252781E+02  0.41322850031E+02  0.17770000000E+01 0. -1.
</event>
<event>
 7    1  0.4954109E-006  0.5403719E+03  0.7546771E-02  0.9313746E-01
        -11   -1    0    0    0    0  0.00000000000E+00  0.00000000000E+00  0.50000000000E+03  0.50000000000E+03  0.00000000000E+00 0. -1.
         11   -1    0    0    0    0 -0.00000000000E+00 -0.00000000000E+00 -0.50000000000E+03  0.50000000000E+03  0.00000000000E+00 0.  1.
         23    2    1    2    0    0  0.67775737084E+02 -0.58023990804E+02  0.25638608734E+03  0.28619080634E+03  0.90614666605E+02 0.  0.
        -11    1    1    2    0    0 -0.67157798983E+02  0.14992385051E+03  0.19396050944E+03  0.25418105778E+03  0.00000000000E+00 0. -1.
         11    1    1    2    0    0 -0.61793810087E+00 -0.91899859702E+02 -0.45034659678E+03  0.45962813588E+03  0.00000000000E+00 0.  1.
        -15    1    3    3    0    0 -0.98722452868E+01 -0.31865376000E+02  0.28147520589E+02  0.43684139673E+02  0.17770000000E+01 0.  1.
         15    1    3    3    0    0  0.77647982371E+02 -0.26158614804E+02  0.22823856675E+03  0.24250666667E+03  0.17770000000E+01 0. -1.
</event>
<event>
 7    1  0.4954109E-006  0.3527171E+03  0.7546771E-02  0.9807448E-01
        -11   -1    0    0    0    0  0.00000000000E+00  0.00000000000E+00  0.50000000000E+03  0.50000000000E+03  0.00000000000E+00 0. -1.
         11   -1    0    0    0    0 -0.00000000000E+00 -0.00000000000E+00 -0.50000000000E+03  0.50000000000E+03  0.00000000000E+00 0.  1.
         23    2    1    2    0    0 -0.10988813352E+03 -0.37522243167E+02  0.20856734331E+03  0.25527118321E+03  0.90441802620E+02 0.  0.
        -11    1    1    2    0    0  0.15395521221E+03 -0.20426985898E+03  0.16001595012E+03  0.30171756155E+03  0.00000000000E+00 0. -1.
         11    1    1    2    0    0 -0.44067078683E+02  0.24179210215E+03 -0.36858329342E+03  0.44301125525E+03  0.00000000000E+00 0.  1.
        -15    1    3    3    0    0 -0.12363622711E+03 -0.28560029738E+02  0.16151047516E+03  0.20540297775E+03  0.17770000000E+01 0.  1.
         15    1    3    3    0    0  0.13748093588E+02 -0.89622134293E+01  0.47056868150E+02  0.49868205461E+02  0.17770000000E+01 0. -1.
</event>
<event>
 7    1  0.4954109E-006  0.5095339E+03  0.7546771E-02  0.9378726E-01
        -11   -1    0    0    0    0  0.00000000000E+00  0.00000000000E+00  0.50000000000E+03  0.50000000000E+03  0.00000000000E+00 0. -1.
         11   -1    0    0    0    0 -0.00000000000E+00 -0.00000000000E+00 -0.50000000000E+03  0.50000000000E+03  0.00000000000E+00 0. -1.
         23    2    1    2    0    0 -0.49967093783E+02 -0.12555781084E+03 -0.31112595584E+03  0.35117102710E+03  0.90885948050E+02 0.  0.
        -11    1    1    2    0    0  0.10915630909E+03  0.21695431165E+03  0.42611346627E+03  0.49046606335E+03  0.00000000000E+00 0. -1.
         11    1    1    2    0    0 -0.59189215303E+02 -0.91396500804E+02 -0.11498751043E+03  0.15836290956E+03  0.00000000000E+00 0. -1.
        -15    1    3    3    0    0 -0.25366534766E+02  0.90839720842E+00 -0.10538383021E+03  0.10841215647E+03  0.17770000000E+01 0. -1.
         15    1    3    3    0    0 -0.24600559017E+02 -0.12646620805E+03 -0.20574212563E+03  0.24275887063E+03  0.17770000000E+01 0.  1.
</event>
<event>
 7    1  0.4954109E-006  0.4798501E+03  0.7546771E-02  0.9446061E-01
        -11   -1    0    0    0    0  0.00000000000E+00  0.00000000000E+00  0.50000000000E+03  0.50000000000E+03  0.00000000000E+00 0. -1.
         11   -1    0    0    0    0 -0.00000000000E+00 -0.00000000000E+00 -0.50000000000E+03  0.50000000000E+03  0.00000000000E+00 0.  1.
         23    2    1    2    0    0  0.18244410888E+02 -0.11785681878E+03  0.44406875604E+03  0.46880885015E+03  0.91441728020E+02 0.  0.
        -11    1    1    2    0    0 -0.39279653754E+01 -0.46633513395E+02  0.10155823218E+02  0.47887934063E+02  0.00000000000E+00 0. -1.
         11    1    1    2    0    0 -0.14316445512E+02  0.16449033217E+03 -0.45422457926E+03  0.48330321579E+03  0.00000000000E+00 0.  1.
        -15    1    3    3    0    0  0.12908180152E+02  0.87930918160E+01  0.16279331702E+02  0.22629934781E+02  0.17770000000E+01 0.  1.
         15    1    3    3    0    0  0.53362307353E+01 -0.12664991059E+03  0.42778942434E+03  0.44617891537E+03  0.17770000000E+01 0. -1.
</event>
<event>
 7    1  0.4954109E-006  0.5146038E+03  0.7546771E-02  0.9367713E-01
        -11   -1    0    0    0    0  0.00000000000E+00  0.00000000000E+00  0.50000000000E+03  0.50000000000E+03  0.00000000000E+00 0.  1.
         11   -1    0    0    0    0 -0.00000000000E+00 -0.00000000000E+00 -0.50000000000E+03  0.50000000000E+03  0.00000000000E+00 0. -1.
         23    2    1    2    0    0  0.62988577533E+02 -0.15558256777E+03 -0.10623249832E+03  0.21825241205E+03  0.90417229388E+02 0.  0.
        -11    1    1    2    0    0 -0.13857689498E+03  0.30700316618E+03  0.34950674340E+03  0.48539619235E+03  0.00000000000E+00 0.  1.
         11    1    1    2    0    0  0.75588317449E+02 -0.15142059840E+03 -0.24327424508E+03  0.29635139560E+03  0.00000000000E+00 0. -1.
        -15    1    3    3    0    0 -0.58607047769E+01 -0.49193163737E+02 -0.71210117013E+02  0.86766086191E+02  0.17770000000E+01 0. -1.
         15    1    3    3    0    0  0.68849282310E+02 -0.10638940404E+03 -0.35022381310E+02  0.13148632586E+03  0.17770000000E+01 0.  1.
</event>
<event>
 7    1  0.4954109E-006  0.5313067E+03  0.7546771E-02  0.9332361E-01
        -11   -1    0    0    0    0  0.00000000000E+00  0.00000000000E+00  0.50000000000E+03  0.50000000000E+03  0.00000000000E+00 0.  1.
         11   -1    0    0    0    0 -0.00000000000E+00 -0.00000000000E+00 -0.50000000000E+03  0.50000000000E+03  0.00000000000E+00 0. -1.
         23    2    1    2    0    0  0.62441199079E+01  0.17938566522E+03  0.33453803351E+03  0.39402798269E+03  0.10547108304E+03 0.  0.
        -11    1    1    2    0    0 -0.30810864337E+02 -0.61987063905E+02  0.11854851477E+03  0.13727875220E+03  0.00000000000E+00 0.  1.
         11    1    1    2    0    0  0.24566744429E+02 -0.11739860131E+03 -0.45308654828E+03  0.46869326511E+03  0.00000000000E+00 0. -1.
        -15    1    3    3    0    0  0.18956151149E+02  0.18942809757E+03  0.31910768304E+03  0.37158472912E+03  0.17770000000E+01 0.  1.
         15    1    3    3    0    0 -0.12712031241E+02 -0.10042432355E+02  0.15430350478E+02  0.22443253568E+02  0.17770000000E+01 0. -1.
</event>
<event>
 7    1  0.4954109E-006  0.3486432E+03  0.7546771E-02  0.9821640E-01
        -11   -1    0    0    0    0  0.00000000000E+00  0.00000000000E+00  0.50000000000E+03  0.50000000000E+03  0.00000000000E+00 0. -1.
         11   -1    0    0    0    0 -0.00000000000E+00 -0.00000000000E+00 -0.50000000000E+03  0.50000000000E+03  0.00000000000E+00 0.  1.
         23    2    1    2    0    0  0.12624758891E+02 -0.31871780940E+02  0.26938332267E+03  0.28677156094E+03  0.92170270018E+02 0.  0.
        -11    1    1    2    0    0  0.83313416743E+02  0.21810157974E+03  0.12634840152E+03  0.26546815829E+03  0.00000000000E+00 0. -1.
         11    1    1    2    0    0 -0.95938175634E+02 -0.18622979881E+03 -0.39573172419E+03  0.44776028077E+03  0.00000000000E+00 0.  1.
        -15    1    3    3    0    0  0.31185826072E+02  0.20640856534E+02  0.65868303045E+02  0.75765373234E+02  0.17770000000E+01 0.  1.
         15    1    3    3    0    0 -0.18561067181E+02 -0.52512637473E+02  0.20351501962E+03  0.21100618771E+03  0.17770000000E+01 0. -1.
</event>
<event>
 7    1  0.4954109E-006  0.5095852E+03  0.7546771E-02  0.9378614E-01
        -11   -1    0    0    0    0  0.00000000000E+00  0.00000000000E+00  0.50000000000E+03  0.50000000000E+03  0.00000000000E+00 0.  1.
         11   -1    0    0    0    0 -0.00000000000E+00 -0.00000000000E+00 -0.50000000000E+03  0.50000000000E+03  0.00000000000E+00 0. -1.
         23    2    1    2    0    0 -0.85141832816E+02  0.41397235104E+02  0.20746882118E+03  0.24493160847E+03  0.89360608191E+02 0.  0.
        -11    1    1    2    0    0 -0.10987464020E+03  0.94091135341E+02  0.22162113210E+03  0.26465355562E+03  0.00000000000E+00 0.  1.
         11    1    1    2    0    0  0.19501647302E+03 -0.13548837045E+03 -0.42908995328E+03  0.49041483591E+03  0.00000000000E+00 0. -1.
        -15    1    3    3    0    0 -0.79821245115E+02 -0.30704928257E+01  0.96701589207E+02  0.12544008204E+03  0.17770000000E+01 0.  1.
         15    1    3    3    0    0 -0.53205877010E+01  0.44467727930E+02  0.11076723197E+03  0.11949152643E+03  0.17770000000E+01 0. -1.
</event>
<event>
 7    1  0.4954109E-006  0.5276700E+03  0.7546771E-02  0.9339939E-01
        -11   -1    0    0    0    0  0.00000000000E+00  0.00000000000E+00  0.50000000000E+03  0.50000000000E+03  0.00000000000E+00 0.  1.
         11   -1    0    0    0    0 -0.00000000000E+00 -0.00000000000E+00 -0.50000000000E+03  0.50000000000E+03  0.00000000000E+00 0. -1.
         23    2    1    2    0    0  0.98579526656E+01  0.33177983474E+02  0.19302667428E+03  0.22208733259E+03  0.10423784581E+03 0.  0.
        -11    1    1    2    0    0  0.16873545745E+03  0.15678087178E+03  0.20082053891E+03  0.30558269782E+03  0.00000000000E+00 0.  1.
         11    1    1    2    0    0 -0.17859341012E+03 -0.18995885526E+03 -0.39384721319E+03  0.47232996958E+03  0.00000000000E+00 0. -1.
        -15    1    3    3    0    0  0.48516456446E+02  0.18619134332E+02  0.16271044955E+03  0.17081676391E+03  0.17770000000E+01 0.  1.
         15    1    3    3    0    0 -0.38658503781E+02  0.14558849142E+02  0.30316224723E+02  0.51270568686E+02  0.17770000000E+01 0. -1.
</event>
<event>
 7    1  0.4954109E-006  0.5210496E+03  0.7546771E-02  0.9353904E-01
        -11   -1    0    0    0    0  0.00000000000E+00  0.00000000000E+00  0.50000000000E+03  0.50000000000E+03  0.00000000000E+00 0.  1.
         11   -1    0    0    0    0 -0.00000000000E+00 -0.00000000000E+00 -0.50000000000E+03  0.50000000000E+03  0.00000000000E+00 0. -1.
         23    2    1    2    0    0 -0.49097215706E+02  0.13670774668E+03 -0.24177032030E+03  0.29544247440E+03  0.87942158914E+02 0.  0.
        -11    1    1    2    0    0 -0.20483336362E+02 -0.14426788738E+03  0.45624632857E+03  0.47895041782E+03  0.00000000000E+00 0.  1.
         11    1    1    2    0    0  0.69580552069E+02  0.75601407017E+01 -0.21447600827E+03  0.22560710778E+03  0.00000000000E+00 0. -1.
        -15    1    3    3    0    0 -0.67917964334E+02  0.60493505692E+02 -0.13863422009E+03  0.16581591847E+03  0.17770000000E+01 0. -1.
         15    1    3    3    0    0  0.18820748628E+02  0.76214240985E+02 -0.10313610021E+03  0.12962655593E+03  0.17770000000E+01 0.  1.
</event>
<event>
 7    1  0.4954109E-006  0.5092793E+03  0.7546771E-02  0.9379283E-01
        -11   -1    0    0    0    0  0.00000000000E+00  0.00000000000E+00  0.50000000000E+03  0.50000000000E+03  0.00000000000E+00 0.  1.
         11   -1    0    0    0    0 -0.00000000000E+00 -0.00000000000E+00 -0.50000000000E+03  0.50000000000E+03  0.00000000000E+00 0. -1.
         23    2    1    2    0    0  0.16359087131E+02  0.54076864514E+02  0.32283938759E+03  0.34106447329E+03  0.94381024330E+02 0.  0.
        -11    1    1    2    0    0  0.57520922520E+01  0.76628349779E+02  0.14963707020E+03  0.16821487251E+03  0.00000000000E+00 0.  1.
         11    1    1    2    0    0 -0.22111179383E+02 -0.13070521429E+03 -0.47247645779E+03  0.49072065420E+03  0.00000000000E+00 0. -1.
        -15    1    3    3    0    0  0.44800598895E+02  0.11853481376E+02  0.76069089495E+02  0.89091317129E+02  0.17770000000E+01 0.  1.
         15    1    3    3    0    0 -0.28441511764E+02  0.42223383138E+02  0.24677029809E+03  0.25197315616E+03  0.17770000000E+01 0. -1.
</event>
<event>
 7    1  0.4954109E-006  0.5134999E+03  0.7546771E-02  0.9370099E-01
        -11   -1    0    0    0    0  0.00000000000E+00  0.00000000000E+00  0.50000000000E+03  0.50000000000E+03  0.00000000000E+00 0.  1.
         11   -1    0    0    0    0 -0.00000000000E+00 -0.00000000000E+00 -0.50000000000E+03  0.50000000000E+03  0.00000000000E+00 0. -1.
         23    2    1    2    0    0  0.87716639014E+01 -0.24711884016E+02  0.19197347395E+03  0.21913447673E+03  0.10236447085E+03 0.  0.
        -11    1    1    2    0    0  0.96238629425E+01 -0.85347297686E+02  0.28155679623E+03  0.29436543524E+03  0.00000000000E+00 0.  1.
         11    1    1    2    0    0 -0.18395526844E+02  0.11005918170E+03 -0.47353027018E+03  0.48650008803E+03  0.00000000000E+00 0. -1.
        -15    1    3    3    0    0  0.33204219723E+02 -0.53313370299E+02  0.15063733707E+03  0.16321642292E+03  0.17770000000E+01 0.  1.
         15    1    3    3    0    0 -0.24432555822E+02  0.28601486283E+02  0.41336136875E+02  0.55918053813E+02  0.17770000000E+01 0. -1.
</event>
<event>
 7    1  0.4954109E-006  0.3929723E+03  0.7546771E-02  0.9677396E-01
        -11   -1    0    0    0    0  0.00000000000E+00  0.00000000000E+00  0.50000000000E+03  0.50000000000E+03  0.00000000000E+00 0. -1.
         11   -1    0    0    0    0 -0.00000000000E+00 -0.00000000000E+00 -0.50000000000E+03  0.50000000000E+03  0.00000000000E+00 0.  1.
         23    2    1    2    0    0 -0.80391653910E+02  0.14317988350E+03 -0.27947530777E+02  0.19659892516E+03  0.10443551044E+03 0.  0.
        -11    1    1    2    0    0  0.18065004273E+02 -0.16839595734E+03  0.39524401528E+03  0.43000159819E+03  0.00000000000E+00 0. -1.
         11    1    1    2    0    0  0.62326649636E+02  0.25216073837E+02 -0.36729648450E+03  0.37339947665E+03  0.00000000000E+00 0.  1.
        -15    1    3    3    0    0  0.32684545565E+01  0.50758456456E+02  0.30039417368E+02  0.59098460401E+02  0.17770000000E+01 0. -1.
         15    1    3    3    0    0 -0.83660108466E+02  0.92421427047E+02 -0.57986948145E+02  0.13750046476E+03  0.17770000000E+01 0.  1.
</event>
<event>
 7    1  0.4954109E-006  0.5122667E+03  0.7546771E-02  0.9372773E-01
        -11   -1    0    0    0    0  0.00000000000E+00  0.00000000000E+00  0.50000000000E+03  0.50000000000E+03  0.00000000000E+00 0.  1.
         11   -1    0    0    0    0 -0.00000000000E+00 -0.00000000000E+00 -0.50000000000E+03  0.50000000000E+03  0.00000000000E+00 0. -1.
         23    2    1    2    0    0 -0.11113321850E+02  0.16843761625E+02  0.37888264061E+03  0.39010622500E+03  0.90684029448E+02 0.  0.
        -11    1    1    2    0    0 -0.61230679003E+02  0.30914872448E+02  0.10108534512E+03  0.12216043708E+03  0.00000000000E+00 0.  1.
         11    1    1    2    0    0  0.72344000852E+02 -0.47758634073E+02 -0.47996798573E+03  0.48773333792E+03  0.00000000000E+00 0. -1.
        -15    1    3    3    0    0 -0.13374685879E+01  0.50176102981E+02  0.29584917615E+03  0.30008219356E+03  0.17770000000E+01 0.  1.
         15    1    3    3    0    0 -0.97758532616E+01 -0.33332341356E+02  0.83033464464E+02  0.90024031443E+02  0.17770000000E+01 0. -1.
</event>
<event>
 6    1  0.4954109E-006  0.3655889E+03  0.7546771E-02  0.9763922E-01
        -11   -1    0    0    0    0  0.00000000000E+00  0.00000000000E+00  0.50000000000E+03  0.50000000000E+03  0.00000000000E+00 0. -1.
         11   -1    0    0    0    0 -0.00000000000E+00 -0.00000000000E+00 -0.50000000000E+03  0.50000000000E+03  0.00000000000E+00 0.  1.
        -11    1    1    2    0    0 -0.10515440845E+03  0.12306180434E+03  0.27791080007E+03  0.32161478526E+03  0.00000000000E+00 0. -1.
         11    1    1    2    0    0  0.17388303440E+03  0.99147272554E+01 -0.39785218124E+03  0.43430400595E+03  0.00000000000E+00 0.  1.
        -15    1    1    2    0    0  0.51548664985E+00 -0.11350387975E+03  0.12868547800E+03  0.17159984389E+03  0.17770000000E+01 0. -1.
         15    1    1    2    0    0 -0.69244112594E+02 -0.19472651845E+02 -0.87440968304E+01  0.72481364897E+02  0.17770000000E+01 0.  1.
</event>
<event>
 7    1  0.4954109E-006  0.3687277E+03  0.7546771E-02  0.9753599E-01
        -11   -1    0    0    0    0  0.00000000000E+00  0.00000000000E+00  0.50000000000E+03  0.50000000000E+03  0.00000000000E+00 0. -1.
         11   -1    0    0    0    0 -0.00000000000E+00 -0.00000000000E+00 -0.50000000000E+03  0.50000000000E+03  0.00000000000E+00 0. -1.
         23    2    1    2    0    0  0.92851692234E+02  0.18218295012E+02 -0.30329924261E+03  0.33007324411E+03  0.89468278640E+02 0.  0.
        -11    1    1    2    0    0 -0.16057471559E+03  0.20359734211E+03  0.34775051706E+03  0.43378167217E+03  0.00000000000E+00 0. -1.
         11    1    1    2    0    0  0.67723023353E+02 -0.22181563712E+03 -0.44451274445E+02  0.23614508372E+03  0.00000000000E+00 0. -1.
        -15    1    3    3    0    0  0.76798010806E+02  0.51965172439E+02 -0.21131559953E+03  0.23077208225E+03  0.17770000000E+01 0. -1.
         15    1    3    3    0    0  0.16053681428E+02 -0.33746877427E+02 -0.91983643081E+02  0.99301161861E+02  0.17770000000E+01 0.  1.
</event>
<event>
 7    1  0.4954109E-006  0.3315804E+03  0.7546771E-02  0.9883425E-01
        -11   -1    0    0    0    0  0.00000000000E+00  0.00000000000E+00  0.50000000000E+03  0.50000000000E+03  0.00000000000E+00 0.  1.
         11   -1    0    0    0    0 -0.00000000000E+00 -0.00000000000E+00 -0.50000000000E+03  0.50000000000E+03  0.00000000000E+00 0.  1.
         23    2    1    2    0    0  0.65710959792E+02 -0.92490479515E+02  0.24395981947E+03  0.28433877429E+03  0.91976768886E+02 0.  0.
        -11    1    1    2    0    0  0.27722216608E+03 -0.71568858867E+02 -0.15361169215E+03  0.32491657835E+03  0.00000000000E+00 0.  1.
         11    1    1    2    0    0 -0.34293312587E+03  0.16405933838E+03 -0.90348127318E+02  0.39074464736E+03  0.00000000000E+00 0.  1.
        -15    1    3    3    0    0  0.89083135707E+02 -0.78519471222E+02  0.19733283991E+03  0.23031395934E+03  0.17770000000E+01 0.  1.
         15    1    3    3    0    0 -0.23372175916E+02 -0.13971008293E+02  0.46626979551E+02  0.54024814954E+02  0.17770000000E+01 0. -1.
</event>
<event>
 7    1  0.4954109E-006  0.3078400E+03  0.7546771E-02  0.9976366E-01
        -11   -1    0    0    0    0  0.00000000000E+00  0.00000000000E+00  0.50000000000E+03  0.50000000000E+03  0.00000000000E+00 0.  1.
         11   -1    0    0    0    0 -0.00000000000E+00 -0.00000000000E+00 -0.50000000000E+03  0.50000000000E+03  0.00000000000E+00 0.  1.
         23    2    1    2    0    0 -0.11842409128E+03 -0.52825240009E+02  0.30591506821E+03  0.34488316709E+03  0.92442406980E+02 0.  0.
        -11    1    1    2    0    0  0.63341428835E+02  0.30699596261E+03 -0.12098828111E+03  0.33600122296E+03  0.00000000000E+00 0.  1.
         11    1    1    2    0    0  0.55082662446E+02 -0.25417072260E+03 -0.18492678710E+03  0.31911560995E+03  0.00000000000E+00 0.  1.
        -15    1    3    3    0    0 -0.10143623443E+03 -0.69380555939E+02  0.18812799130E+03  0.22471820139E+03  0.17770000000E+01 0.  1.
         15    1    3    3    0    0 -0.16987856854E+02  0.16555315929E+02  0.11778707691E+03  0.12016496570E+03  0.17770000000E+01 0. -1.
</event>
<event>
 7    1  0.4954109E-006  0.3970429E+03  0.7546771E-02  0.9665179E-01
        -11   -1    0    0    0    0  0.00000000000E+00  0.00000000000E+00  0.50000000000E+03  0.50000000000E+03  0.00000000000E+00 0.  1.
         11   -1    0    0    0    0 -0.00000000000E+00 -0.00000000000E+00 -0.50000000000E+03  0.50000000000E+03  0.00000000000E+00 0. -1.
         23    2    1    2    0    0  0.10350939070E+03  0.85998661795E+02  0.96355427968E+02  0.18884866602E+03  0.90936716255E+02 0.  0.
        -11    1    1    2    0    0 -0.84301421318E+02 -0.92040527562E+01  0.34882630173E+03  0.35898639668E+03  0.00000000000E+00 0.  1.
         11    1    1    2    0    0 -0.19207969387E+02 -0.76794609038E+02 -0.44518172970E+03  0.45216493730E+03  0.00000000000E+00 0. -1.
        -15    1    3    3    0    0  0.65512196401E+02  0.58025492362E+01  0.70430095135E+02  0.96379839617E+02  0.17770000000E+01 0. -1.
         15    1    3    3    0    0  0.37997194304E+02  0.80196112558E+02  0.25925332833E+02  0.92468826401E+02  0.17770000000E+01 0.  1.
</event>
<event>
 7    1  0.4954109E-006  0.4304963E+03  0.7546771E-02  0.9570352E-01
        -11   -1    0    0    0    0  0.00000000000E+00  0.00000000000E+00  0.50000000000E+03  0.50000000000E+03  0.00000000000E+00 0. -1.
         11   -1    0    0    0    0 -0.00000000000E+00 -0.00000000000E+00 -0.50000000000E+03  0.50000000000E+03  0.00000000000E+00 0.  1.
         23    2    1    2    0    0 -0.17182409837E+01  0.68357278476E+02 -0.88991745773E+02  0.13172394071E+03  0.68963728646E+02 0.  0.
        -11    1    1    2    0    0 -0.25727971962E+03  0.16790614114E+03  0.32378435951E+03  0.44634251178E+03  0.00000000000E+00 0. -1.
         11    1    1    2    0    0  0.25899796060E+03 -0.23626341962E+03 -0.23479261374E+03  0.42193354751E+03  0.00000000000E+00 0.  1.
        -15    1    3    3    0    0 -0.22490674709E+02 -0.24267532103E+01 -0.27633145839E+02  0.35755671690E+02  0.17770000000E+01 0. -1.
         15    1    3    3    0    0  0.20772433726E+02  0.70784031686E+02 -0.61358599934E+02  0.95968269024E+02  0.17770000000E+01 0.  1.
</event>
<event>
 6    1  0.4954109E-006  0.5570284E+03  0.7546771E-02  0.9280533E-01
        -11   -1    0    0    0    0  0.00000000000E+00  0.00000000000E+00  0.50000000000E+03  0.50000000000E+03  0.00000000000E+00 0.  1.
         11   -1    0    0    0    0 -0.00000000000E+00 -0.00000000000E+00 -0.50000000000E+03  0.50000000000E+03  0.00000000000E+00 0. -1.
        -11    1    1    2    0    0  0.96812470031E+02 -0.14997447958E+02  0.43200258759E+03  0.44297157187E+03  0.00000000000E+00 0.  1.
         11    1    1    2    0    0 -0.84227564922E+02 -0.48295052559E+02 -0.36630666209E+03  0.37895549275E+03  0.00000000000E+00 0. -1.
        -15    1    1    2    0    0 -0.79049982722E+02  0.41578454034E+02 -0.12517393355E+02  0.90208150816E+02  0.17770000000E+01 0.  1.
         15    1    1    2    0    0  0.66465077613E+02  0.21714046482E+02 -0.53178532140E+02  0.87864784563E+02  0.17770000000E+01 0. -1.
</event>
<event>
 7    1  0.4954109E-006  0.5350852E+03  0.7546771E-02  0.9324554E-01
        -11   -1    0    0    0    0  0.00000000000E+00  0.00000000000E+00  0.50000000000E+03  0.50000000000E+03  0.00000000000E+00 0.  1.
         11   -1    0    0    0    0 -0.00000000000E+00 -0.00000000000E+00 -0.50000000000E+03  0.50000000000E+03  0.00000000000E+00 0.  1.
         23    2    1    2    0    0 -0.46933492919E+02 -0.13800377755E+03  0.20558053435E+03  0.26806930316E+03  0.91378333413E+02 0.  0.
        -11    1    1    2    0    0  0.95239910972E+02  0.39769362127E+02  0.24626260275E+03  0.26701594020E+03  0.00000000000E+00 0.  1.
         11    1    1    2    0    0 -0.48306418053E+02  0.98234415418E+02 -0.45184313710E+03  0.46491475664E+03  0.00000000000E+00 0.  1.
        -15    1    3    3    0    0 -0.54429693525E+01 -0.92783699353E+01 -0.91877253998E+01  0.14257843142E+02  0.17770000000E+01 0. -1.
         15    1    3    3    0    0 -0.41490523567E+02 -0.12872540761E+03  0.21476825975E+03  0.25381146002E+03  0.17770000000E+01 0.  1.
</event>
<event>
 7    1  0.4954109E-006  0.3824233E+03  0.7546771E-02  0.9709809E-01
        -11   -1    0    0    0    0  0.00000000000E+00  0.00000000000E+00  0.50000000000E+03  0.50000000000E+03  0.00000000000E+00 0. -1.
         11   -1    0    0    0    0 -0.00000000000E+00 -0.00000000000E+00 -0.50000000000E+03  0.50000000000E+03  0.00000000000E+00 0. -1.
         23    2    1    2    0    0 -0.50302227301E+01  0.10159508022E+02 -0.18923592124E+03  0.21200952483E+03  0.94917258634E+02 0.  0.
        -11    1    1    2    0    0  0.76056434104E+02 -0.33209085179E+03  0.28555562869E+03  0.44453451170E+03  0.00000000000E+00 0. -1.
         11    1    1    2    0    0 -0.71026211374E+02  0.32193134377E+03 -0.96319707449E+02  0.34345596347E+03  0.00000000000E+00 0. -1.
        -15    1    3    3    0    0 -0.45648508548E+02  0.15845909701E+02 -0.13878000128E+03  0.14696232739E+03  0.17770000000E+01 0. -1.
         15    1    3    3    0    0  0.40618285818E+02 -0.56864016798E+01 -0.50455919959E+02  0.65047197440E+02  0.17770000000E+01 0.  1.
</event>
<event>
 7    1  0.4954109E-006  0.5279474E+03  0.7546771E-02  0.9339359E-01
        -11   -1    0    0    0    0  0.00000000000E+00  0.00000000000E+00  0.50000000000E+03  0.50000000000E+03  0.00000000000E+00 0.  1.
         11   -1    0    0    0    0 -0.00000000000E+00 -0.00000000000E+00 -0.50000000000E+03  0.50000000000E+03  0.00000000000E+00 0. -1.
         23    2    1    2    0    0 -0.16706939978E+01  0.32199698000E+02  0.80291405374E+02  0.12738358085E+03  0.93489331605E+02 0.  0.
        -11    1    1    2    0    0 -0.39251188259E+02 -0.10708729533E+03  0.38398315291E+03  0.40056386047E+03  0.00000000000E+00 0.  1.
         11    1    1    2    0    0  0.40921882257E+02  0.74887597328E+02 -0.46427455828E+03  0.47205255867E+03  0.00000000000E+00 0. -1.
        -15    1    3    3    0    0  0.31188265541E+02 -0.17144109577E+02  0.48219136697E+02  0.59957245379E+02  0.17770000000E+01 0.  1.
         15    1    3    3    0    0 -0.32858959539E+02  0.49343807577E+02  0.32072268677E+02  0.67426335473E+02  0.17770000000E+01 0. -1.
</event>
<event>
 7    1  0.4954109E-006  0.5125683E+03  0.7546771E-02  0.9372118E-01
        -11   -1    0    0    0    0  0.00000000000E+00  0.00000000000E+00  0.50000000000E+03  0.50000000000E+03  0.00000000000E+00 0.  1.
         11   -1    0    0    0    0 -0.00000000000E+00 -0.00000000000E+00 -0.50000000000E+03  0.50000000000E+03  0.00000000000E+00 0.  1.
         23    2    1    2    0    0  0.31864803514E+02 -0.24359503637E+02  0.29889526185E+03  0.31460522798E+03  0.89606477416E+02 0.  0.
        -11    1    1    2    0    0 -0.59246745179E+02 -0.50818456747E+02  0.18192499570E+03  0.19796311884E+03  0.00000000000E+00 0.  1.
         11    1    1    2    0    0  0.27381941664E+02  0.75177960383E+02 -0.48082025755E+03  0.48743165318E+03  0.00000000000E+00 0.  1.
        -15    1    3    3    0    0 -0.18028026738E+02  0.21786881090E+02  0.62390961652E+02  0.68523483278E+02  0.17770000000E+01 0.  1.
         15    1    3    3    0    0  0.49892830252E+02 -0.46146384727E+02  0.23650430020E+03  0.24608174470E+03  0.17770000000E+01 0. -1.
</event>
<event>
 7    1  0.4954109E-006  0.5374364E+03  0.7546771E-02  0.9319731E-01
        -11   -1    0    0    0    0  0.00000000000E+00  0.00000000000E+00  0.50000000000E+03  0.50000000000E+03  0.00000000000E+00 0. -1.
         11   -1    0    0    0    0 -0.00000000000E+00 -0.00000000000E+00 -0.50000000000E+03  0.50000000000E+03  0.00000000000E+00 0.  1.
         23    2    1    2    0    0 -0.18966376143E+03  0.92661687360E+02  0.26124613048E+03  0.34767907483E+03  0.89848025474E+02 0.  0.
        -11    1    1    2    0    0  0.24887487895E+03 -0.27203562654E+03 -0.27932595106E+03  0.46256358959E+03  0.00000000000E+00 0.  1.
         11    1    1    2    0    0 -0.59211117520E+02  0.17937393918E+03  0.18079820578E+02  0.18975733558E+03  0.00000000000E+00 0. -1.
        -15    1    3    3    0    0 -0.80458817685E+02 -0.12279671926E+00  0.58925768629E+02  0.99744876358E+02  0.17770000000E+01 0.  1.
         15    1    3    3    0    0 -0.10920494374E+03  0.92784484079E+02  0.20232036185E+03  0.24793419848E+03  0.17770000000E+01 0. -1.
</event>
<event>
 7    1  0.4954109E-006  0.5269841E+03  0.7546771E-02  0.9341376E-01
        -11   -1    0    0    0    0  0.00000000000E+00  0.00000000000E+00  0.50000000000E+03  0.50000000000E+03  0.00000000000E+00 0. -1.
         11   -1    0    0    0    0 -0.00000000000E+00 -0.00000000000E+00 -0.50000000000E+03  0.50000000000E+03  0.00000000000E+00 0. -1.
         23    2    1    2    0    0  0.16132057751E+02  0.16704557754E+03 -0.20798256905E+03  0.28192082217E+03  0.89767102438E+02 0.  0.
        -11    1    1    2    0    0  0.12858460798E+03 -0.21992058594E+03  0.39855361833E+03  0.47301591116E+03  0.00000000000E+00 0. -1.
         11    1    1    2    0    0 -0.14471666573E+03  0.52875008395E+02 -0.19057104927E+03  0.24506326668E+03  0.00000000000E+00 0. -1.
        -15    1    3    3    0    0 -0.65876942075E+01  0.68843090008E+02 -0.15106175017E+03  0.16614926678E+03  0.17770000000E+01 0. -1.
         15    1    3    3    0    0  0.22719751959E+02  0.98202487532E+02 -0.56920818877E+02  0.11577155539E+03  0.17770000000E+01 0.  1.
</event>
<event>
 7    1  0.4954109E-006  0.5063638E+03  0.7546771E-02  0.9385682E-01
        -11   -1    0    0    0    0  0.00000000000E+00  0.00000000000E+00  0.50000000000E+03  0.50000000000E+03  0.00000000000E+00 0. -1.
         11   -1    0    0    0    0 -0.00000000000E+00 -0.00000000000E+00 -0.50000000000E+03  0.50000000000E+03  0.00000000000E+00 0.  1.
         23    2    1    2    0    0  0.91714192866E+02  0.28740369945E+02  0.33888721891E+03  0.35828843104E+03  0.65487026478E+02 0.  0.
        -11    1    1    2    0    0  0.74128083743E+01 -0.30595996530E+02  0.14469017900E+03  0.14807536132E+03  0.00000000000E+00 0. -1.
         11    1    1    2    0    0 -0.99127001240E+02  0.18556265848E+01 -0.48357739791E+03  0.49363620764E+03  0.00000000000E+00 0.  1.
        -15    1    3    3    0    0  0.34310386031E+02  0.43495194054E+02  0.13449069776E+03  0.14546456616E+03  0.17770000000E+01 0. -1.
         15    1    3    3    0    0  0.57403806834E+02 -0.14754824109E+02  0.20439652115E+03  0.21282386488E+03  0.17770000000E+01 0.  1.
</event>
<event>
 7    1  0.4954109E-006  0.5166456E+03  0.7546771E-02  0.9363315E-01
        -11   -1    0    0    0    0  0.00000000000E+00  0.00000000000E+00  0.50000000000E+03  0.50000000000E+03  0.00000000000E+00 0.  1.
         11   -1    0    0    0    0 -0.00000000000E+00 -0.00000000000E+00 -0.50000000000E+03  0.50000000000E+03  0.00000000000E+00 0.  1.
         23    2    1    2    0    0 -0.16748910873E+02 -0.14235589231E+02  0.32588729817E+03  0.33846336881E+03  0.88722843176E+02 0.  0.
        -11    1    1    2    0    0 -0.98718606294E+02  0.40336310649E+02  0.14274635035E+03  0.17818221495E+03  0.00000000000E+00 0.  1.
         11    1    1    2    0    0  0.11546751717E+03 -0.26100721418E+02 -0.46863364852E+03  0.48335441624E+03  0.00000000000E+00 0.  1.
        -15    1    3    3    0    0  0.17663027966E+02  0.30220790784E+02  0.13325005626E+03  0.13778248791E+03  0.17770000000E+01 0. -1.
         15    1    3    3    0    0 -0.34411938839E+02 -0.44456380015E+02  0.19263724190E+03  0.20068088089E+03  0.17770000000E+01 0. -1.
</event>
<event>
 7    1  0.4954109E-006  0.3394095E+03  0.7546771E-02  0.9854592E-01
        -11   -1    0    0    0    0  0.00000000000E+00  0.00000000000E+00  0.50000000000E+03  0.50000000000E+03  0.00000000000E+00 0.  1.
         11   -1    0    0    0    0 -0.00000000000E+00 -0.00000000000E+00 -0.50000000000E+03  0.50000000000E+03  0.00000000000E+00 0. -1.
         23    2    1    2    0    0 -0.21886759483E+03  0.30752138808E+02  0.22918686947E+03  0.33310009252E+03  0.97879172396E+02 0.  0.
        -11    1    1    2    0    0  0.20640944380E+03 -0.11490032412E+03  0.14897693502E+03  0.27928671672E+03  0.00000000000E+00 0.  1.
         11    1    1    2    0    0  0.12458151037E+02  0.84148185308E+02 -0.37816380449E+03  0.38761319076E+03  0.00000000000E+00 0. -1.
        -15    1    3    3    0    0 -0.11031124406E+03 -0.43710486432E+01  0.51273103280E+02  0.12173645913E+03  0.17770000000E+01 0.  1.
         15    1    3    3    0    0 -0.10855635077E+03  0.35123187451E+02  0.17791376619E+03  0.21136363339E+03  0.17770000000E+01 0. -1.
</event>
<event>
 7    1  0.4954109E-006  0.3778459E+03  0.7546771E-02  0.9724224E-01
        -11   -1    0    0    0    0  0.00000000000E+00  0.00000000000E+00  0.50000000000E+03  0.50000000000E+03  0.00000000000E+00 0. -1.
         11   -1    0    0    0    0 -0.00000000000E+00 -0.00000000000E+00 -0.50000000000E+03  0.50000000000E+03  0.00000000000E+00 0. -1.
         23    2    1    2    0    0  0.17420230381E+03 -0.78821626810E+02  0.49364222312E+02  0.21893271448E+03  0.94527326848E+02 0.  0.
        -11    1    1    2    0    0 -0.10673809863E+03 -0.31440043147E+02  0.34687037625E+03  0.36428087506E+03  0.00000000000E+00 0. -1.
         11    1    1    2    0    0 -0.67464205180E+02  0.11026166996E+03 -0.39623459857E+03  0.41678641046E+03  0.00000000000E+00 0. -1.
        -15    1    3    3    0    0  0.15345741495E+03 -0.25391816987E+02  0.30096126054E+02  0.15843881186E+03  0.17770000000E+01 0.  1.
         15    1    3    3    0    0  0.20744888859E+02 -0.53429809823E+02  0.19268096258E+02  0.60493902618E+02  0.17770000000E+01 0. -1.
</event>
<event>
 7    1  0.4954109E-006  0.5152551E+03  0.7546771E-02  0.9366308E-01
        -11   -1    0    0    0    0  0.00000000000E+00  0.00000000000E+00  0.50000000000E+03  0.50000000000E+03  0.00000000000E+00 0.  1.
         11   -1    0    0    0    0 -0.00000000000E+00 -0.00000000000E+00 -0.50000000000E+03  0.50000000000E+03  0.00000000000E+00 0. -1.
         23    2    1    2    0    0 -0.36692626381E+02  0.65205482905E+02 -0.15615924532E+03  0.19410529537E+03  0.87710044799E+02 0.  0.
        -11    1    1    2    0    0 -0.25961957104E+02 -0.20185038201E+03  0.43995455415E+03  0.48474489131E+03  0.00000000000E+00 0.  1.
         11    1    1    2    0    0  0.62654583485E+02  0.13664489911E+03 -0.28379530883E+03  0.32114981332E+03  0.00000000000E+00 0. -1.
        -15    1    3    3    0    0 -0.44772660831E+02  0.33606070813E+02 -0.29503744747E+02  0.63305511897E+02  0.17770000000E+01 0.  1.
         15    1    3    3    0    0  0.80800344505E+01  0.31599412093E+02 -0.12665550057E+03  0.13079978347E+03  0.17770000000E+01 0. -1.
</event>
<event>
 7    1  0.4954109E-006  0.3551877E+03  0.7546771E-02  0.9798941E-01
        -11   -1    0    0    0    0  0.00000000000E+00  0.00000000000E+00  0.50000000000E+03  0.50000000000E+03  0.00000000000E+00 0.  1.
         11   -1    0    0    0    0 -0.00000000000E+00 -0.00000000000E+00 -0.50000000000E+03  0.50000000000E+03  0.00000000000E+00 0. -1.
         23    2    1    2    0    0 -0.47480093031E+02 -0.15673869000E+03  0.16798588811E+03  0.25188651930E+03  0.91685243223E+02 0.  0.
        -11    1    1    2    0    0  0.12161474054E+03  0.37014073378E+03  0.95396410575E+02  0.40111691946E+03  0.00000000000E+00 0.  1.
         11    1    1    2    0    0 -0.74134647507E+02 -0.21340204379E+03 -0.26338229869E+03  0.34699656124E+03  0.00000000000E+00 0. -1.
        -15    1    3    3    0    0 -0.11700283690E+02 -0.12835341230E+03  0.77210199849E+02  0.15025334531E+03  0.17770000000E+01 0.  1.
         15    1    3    3    0    0 -0.35779809342E+02 -0.28385277694E+02  0.90775688261E+02  0.10163317399E+03  0.17770000000E+01 0. -1.
</event>
<event>
 7    1  0.4954109E-006  0.5323902E+03  0.7546771E-02  0.9330115E-01
        -11   -1    0    0    0    0  0.00000000000E+00  0.00000000000E+00  0.50000000000E+03  0.50000000000E+03  0.00000000000E+00 0.  1.
         11   -1    0    0    0    0 -0.00000000000E+00 -0.00000000000E+00 -0.50000000000E+03  0.50000000000E+03  0.00000000000E+00 0.  1.
         23    2    1    2    0    0 -0.11719542237E+02 -0.27487973534E+02  0.49763700376E+02  0.11745342320E+03  0.10210751386E+03 0.  0.
        -11    1    1    2    0    0 -0.73261263253E+02 -0.14101723782E+02  0.40817457021E+03  0.41493680371E+03  0.00000000000E+00 0.  1.
         11    1    1    2    0    0  0.84980805490E+02  0.41589697316E+02 -0.45793827059E+03  0.46760977309E+03  0.00000000000E+00 0.  1.
        -15    1    3    3    0    0 -0.48440337330E+02 -0.44572356467E+02  0.30793511166E+02  0.72694974384E+02  0.17770000000E+01 0.  1.
         15    1    3    3    0    0  0.36720795094E+02  0.17084382933E+02  0.18970189210E+02  0.44758448813E+02  0.17770000000E+01 0. -1.
</event>
<event>
 7    1  0.4954109E-006  0.4666250E+03  0.7546771E-02  0.9477750E-01
        -11   -1    0    0    0    0  0.00000000000E+00  0.00000000000E+00  0.50000000000E+03  0.50000000000E+03  0.00000000000E+00 0.  1.
         11   -1    0    0    0    0 -0.00000000000E+00 -0.00000000000E+00 -0.50000000000E+03  0.50000000000E+03  0.00000000000E+00 0. -1.
         23    2    1    2    0    0 -0.50259262111E+02 -0.33388925668E+02  0.42344437008E+03  0.43929252077E+03  0.10015972474E+03 0.  0.
        -11    1    1    2    0    0  0.77734600235E+01 -0.51672892931E+02  0.53259971987E+02  0.74613263973E+02  0.00000000000E+00 0.  1.
         11    1    1    2    0    0  0.42485802087E+02  0.85061818599E+02 -0.47670434207E+03  0.48609421526E+03  0.00000000000E+00 0. -1.
        -15    1    3    3    0    0 -0.66846229222E+02 -0.29269253620E+02  0.41252537314E+03  0.41893370452E+03  0.17770000000E+01 0.  1.
         15    1    3    3    0    0  0.16586967111E+02 -0.41196720483E+01  0.10918996943E+02  0.20358816247E+02  0.17770000000E+01 0. -1.
</event>
<event>
 7    1  0.4954109E-006  0.3669663E+03  0.7546771E-02  0.9759379E-01
        -11   -1    0    0    0    0  0.00000000000E+00  0.00000000000E+00  0.50000000000E+03  0.50000000000E+03  0.00000000000E+00 0.  1.
         11   -1    0    0    0    0 -0.00000000000E+00 -0.00000000000E+00 -0.50000000000E+03  0.50000000000E+03  0.00000000000E+00 0. -1.
         23    2    1    2    0    0 -0.77720056237E+02 -0.34728957747E+02  0.19943008742E+03  0.23470539088E+03  0.89820671861E+02 0.  0.
        -11    1    1    2    0    0 -0.29598154505E+03 -0.96530575343E+02  0.20950658315E+02  0.31202909651E+03  0.00000000000E+00 0.  1.
         11    1    1    2    0    0  0.37370160129E+03  0.13125953309E+03 -0.22038074573E+03  0.45326551261E+03  0.00000000000E+00 0. -1.
        -15    1    3    3    0    0 -0.51244888460E+02  0.24816068096E+02  0.11191755241E+03  0.12558093843E+03  0.17770000000E+01 0.  1.
         15    1    3    3    0    0 -0.26475167777E+02 -0.59545025843E+02  0.87512535001E+02  0.10912445245E+03  0.17770000000E+01 0. -1.
</event>
<event>
 7    1  0.4991288E-006  0.4687078E+03  0.7546771E-02  0.9472686E-01
        -11   -1    0    0    0    0  0.00000000000E+00  0.00000000000E+00  0.50000000000E+03  0.50000000000E+03  0.00000000000E+00 0.  1.
         11   -1    0    0    0    0 -0.00000000000E+00 -0.00000000000E+00 -0.50000000000E+03  0.50000000000E+03  0.00000000000E+00 0. -1.
         23    2    1    2    0    0 -0.35507833304E+02 -0.55304350491E+02 -0.42709219016E+03  0.44291557030E+03  0.97196121882E+02 0.  0.
        -11    1    1    2    0    0  0.79080380979E+02  0.85850631586E+02  0.47276359846E+03  0.48695940039E+03  0.00000000000E+00 0.  1.
         11    1    1    2    0    0 -0.43572547675E+02 -0.30546281095E+02 -0.45671408298E+02  0.70125029309E+02  0.00000000000E+00 0. -1.
        -15    1    3    3    0    0 -0.55850771948E+02  0.22728865554E+01 -0.22034860528E+03  0.22733486384E+03  0.17770000000E+01 0.  1.
         15    1    3    3    0    0  0.20342938644E+02 -0.57577237046E+02 -0.20674358489E+03  0.21558070646E+03  0.17770000000E+01 0. -1.
</event>
<event>
 7    1  0.4954109E-006  0.5083316E+03  0.7546771E-02  0.9381358E-01
        -11   -1    0    0    0    0  0.00000000000E+00  0.00000000000E+00  0.50000000000E+03  0.50000000000E+03  0.00000000000E+00 0. -1.
         11   -1    0    0    0    0 -0.00000000000E+00 -0.00000000000E+00 -0.50000000000E+03  0.50000000000E+03  0.00000000000E+00 0. -1.
         23    2    1    2    0    0  0.10188196722E+03  0.21615984632E+02 -0.20525492307E+03  0.24518937707E+03  0.84504799559E+02 0.  0.
        -11    1    1    2    0    0 -0.17916464292E+03 -0.56443858387E+02  0.45436982701E+03  0.49166840260E+03  0.00000000000E+00 0. -1.
         11    1    1    2    0    0  0.77282675709E+02  0.34827873755E+02 -0.24911490394E+03  0.26314222033E+03  0.00000000000E+00 0. -1.
        -15    1    3    3    0    0  0.81111523485E+02 -0.21952263512E+02 -0.11047105431E+03  0.13880919524E+03  0.17770000000E+01 0. -1.
         15    1    3    3    0    0  0.20770443731E+02  0.43568248144E+02 -0.94783868761E+02  0.10638018183E+03  0.17770000000E+01 0.  1.
</event>
<event>
 7    1  0.4954109E-006  0.5331524E+03  0.7546771E-02  0.9328539E-01
        -11   -1    0    0    0    0  0.00000000000E+00  0.00000000000E+00  0.50000000000E+03  0.50000000000E+03  0.00000000000E+00 0. -1.
         11   -1    0    0    0    0 -0.00000000000E+00 -0.00000000000E+00 -0.50000000000E+03  0.50000000000E+03  0.00000000000E+00 0. -1.
         23    2    1    2    0    0 -0.33162767737E+02  0.49624367201E+02  0.10464776273E+03  0.14963628888E+03  0.88755381362E+02 0.  0.
        -11    1    1    2    0    0  0.59749728104E+02 -0.13707287489E+03  0.35316508681E+03  0.38351607735E+03  0.00000000000E+00 0. -1.
         11    1    1    2    0    0 -0.26586960367E+02  0.87448507686E+02 -0.45781284954E+03  0.46684763378E+03  0.00000000000E+00 0. -1.
        -15    1    3    3    0    0  0.28220796130E+02  0.32757000294E+02  0.42199923772E+02  0.60443574496E+02  0.17770000000E+01 0.  1.
         15    1    3    3    0    0 -0.61383563867E+02  0.16867366908E+02  0.62447838956E+02  0.89192714381E+02  0.17770000000E+01 0. -1.
</event>
<event>
 7    1  0.4954109E-006  0.4739319E+03  0.7546771E-02  0.9460106E-01
        -11   -1    0    0    0    0  0.00000000000E+00  0.00000000000E+00  0.50000000000E+03  0.50000000000E+03  0.00000000000E+00 0.  1.
         11   -1    0    0    0    0 -0.00000000000E+00 -0.00000000000E+00 -0.50000000000E+03  0.50000000000E+03  0.00000000000E+00 0.  1.
         23    2    1    2    0    0  0.58941269518E+02  0.52481658246E+02  0.42966663984E+03  0.44702479392E+03  0.94812168394E+02 0.  0.
        -11    1    1    2    0    0  0.28712657969E+02  0.48674530912E+01  0.52243661645E+02  0.59812281426E+02  0.00000000000E+00 0.  1.
         11    1    1    2    0    0 -0.87653927487E+02 -0.57349111337E+02 -0.48191030149E+03  0.49316292466E+03  0.00000000000E+00 0.  1.
        -15    1    3    3    0    0  0.73721991797E+02  0.97604252573E+01  0.31707842779E+03  0.32568709688E+03  0.17770000000E+01 0.  1.
         15    1    3    3    0    0 -0.14780722279E+02  0.42721232989E+02  0.11258821205E+03  0.12133769703E+03  0.17770000000E+01 0. -1.
</event>
<event>
 7    1  0.4954109E-006  0.5144741E+03  0.7546771E-02  0.9367993E-01
        -11   -1    0    0    0    0  0.00000000000E+00  0.00000000000E+00  0.50000000000E+03  0.50000000000E+03  0.00000000000E+00 0. -1.
         11   -1    0    0    0    0 -0.00000000000E+00 -0.00000000000E+00 -0.50000000000E+03  0.50000000000E+03  0.00000000000E+00 0. -1.
         23    2    1    2    0    0  0.62434020104E+02 -0.78005219938E+01 -0.13636155508E+03  0.17708433392E+03  0.93837799456E+02 0.  0.
        -11    1    1    2    0    0 -0.24103223814E+03 -0.24783333238E+02  0.42074299907E+03  0.48552592588E+03  0.00000000000E+00 0. -1.
         11    1    1    2    0    0  0.17859821804E+03  0.32583855232E+02 -0.28438144399E+03  0.33738974020E+03  0.00000000000E+00 0. -1.
        -15    1    3    3    0    0  0.76688943473E+02 -0.30301867792E+02 -0.80892609167E+02  0.11552562136E+03  0.17770000000E+01 0.  1.
         15    1    3    3    0    0 -0.14254923369E+02  0.22501345798E+02 -0.55468945917E+02  0.61558712569E+02  0.17770000000E+01 0. -1.
</event>
<event>
 7    1  0.4954109E-006  0.5126951E+03  0.7546771E-02  0.9371843E-01
        -11   -1    0    0    0    0  0.00000000000E+00  0.00000000000E+00  0.50000000000E+03  0.50000000000E+03  0.00000000000E+00 0.  1.
         11   -1    0    0    0    0 -0.00000000000E+00 -0.00000000000E+00 -0.50000000000E+03  0.50000000000E+03  0.00000000000E+00 0. -1.
         23    2    1    2    0    0  0.21138546047E+00  0.10996810277E+02  0.18447284957E+03  0.20597804626E+03  0.90971142631E+02 0.  0.
        -11    1    1    2    0    0 -0.29000145280E+02  0.93995405460E+02  0.29051544493E+03  0.30671708205E+03  0.00000000000E+00 0.  1.
         11    1    1    2    0    0  0.28788759820E+02 -0.10499221574E+03 -0.47498829451E+03  0.48730487169E+03  0.00000000000E+00 0. -1.
        -15    1    3    3    0    0 -0.39470704375E+02  0.14825626657E+01  0.41645715192E+02  0.57425236776E+02  0.17770000000E+01 0.  1.
         15    1    3    3    0    0  0.39682089835E+02  0.95142476111E+01  0.14282713438E+03  0.14855280948E+03  0.17770000000E+01 0. -1.
</event>
<event>
 6    1  0.4954109E-006  0.4633422E+03  0.7546771E-02  0.9485790E-01
        -11   -1    0    0    0    0  0.00000000000E+00  0.00000000000E+00  0.50000000000E+03  0.50000000000E+03  0.00000000000E+00 0. -1.
         11   -1    0    0    0    0 -0.00000000000E+00 -0.00000000000E+00 -0.50000000000E+03  0.50000000000E+03  0.00000000000E+00 0. -1.
        -11    1    1    2    0    0  0.79388212034E+02  0.33169972852E+02  0.44809343464E+03  0.45627892947E+03  0.00000000000E+00 0. -1.
         11    1    1    2    0    0 -0.50264265316E+02 -0.75036626997E+02 -0.46320815861E+03  0.47193091652E+03  0.00000000000E+00 0. -1.
        -15    1    1    2    0    0 -0.41982293432E+02  0.37227381633E+02  0.14551704599E+02  0.57993971590E+02  0.17770000000E+01 0. -1.
         15    1    1    2    0    0  0.12858346714E+02  0.46392725119E+01  0.56301937364E+00  0.13796182424E+02  0.17770000000E+01 0.  1.
</event>
<event>
 7    1  0.4954109E-006  0.4391781E+03  0.7546771E-02  0.9547238E-01
        -11   -1    0    0    0    0  0.00000000000E+00  0.00000000000E+00  0.50000000000E+03  0.50000000000E+03  0.00000000000E+00 0.  1.
         11   -1    0    0    0    0 -0.00000000000E+00 -0.00000000000E+00 -0.50000000000E+03  0.50000000000E+03  0.00000000000E+00 0. -1.
         23    2    1    2    0    0  0.79950542313E+01 -0.22191752290E+02  0.40662142461E+03  0.41765351570E+03  0.92396328199E+02 0.  0.
        -11    1    1    2    0    0  0.48232122555E+02  0.10491628534E+03  0.41876029440E+02  0.12283064120E+03  0.00000000000E+00 0.  1.
         11    1    1    2    0    0 -0.56227176787E+02 -0.82724533046E+02 -0.44849745405E+03  0.45951584310E+03  0.00000000000E+00 0. -1.
        -15    1    3    3    0    0 -0.27350986482E+02  0.19861098572E+02  0.87221581525E+02  0.93559081391E+02  0.17770000000E+01 0.  1.
         15    1    3    3    0    0  0.35346040714E+02 -0.42052850862E+02  0.31939984308E+03  0.32409443431E+03  0.17770000000E+01 0. -1.
</event>
<event>
 7    1  0.4954109E-006  0.3345508E+03  0.7546771E-02  0.9872385E-01
        -11   -1    0    0    0    0  0.00000000000E+00  0.00000000000E+00  0.50000000000E+03  0.50000000000E+03  0.00000000000E+00 0.  1.
         11   -1    0    0    0    0 -0.00000000000E+00 -0.00000000000E+00 -0.50000000000E+03  0.50000000000E+03  0.00000000000E+00 0. -1.
         23    2    1    2    0    0  0.31460211984E+02 -0.22459022016E+03  0.12986414545E+03  0.28167400833E+03  0.10509537939E+03 0.  0.
        -11    1    1    2    0    0  0.12312922704E+03  0.23894997838E+03  0.21233443566E+03  0.34255482961E+03  0.00000000000E+00 0.  1.
         11    1    1    2    0    0 -0.15458943902E+03 -0.14359758227E+02 -0.34219858112E+03  0.37577116206E+03  0.00000000000E+00 0. -1.
        -15    1    3    3    0    0 -0.13303533154E+02 -0.12678648512E+03  0.11751504631E+03  0.17339187017E+03  0.17770000000E+01 0.  1.
         15    1    3    3    0    0  0.44763745138E+02 -0.97803735041E+02  0.12349099142E+02  0.10828213816E+03  0.17770000000E+01 0. -1.
</event>
<event>
 7    1  0.5407332E-006  0.5170931E+03  0.7546771E-02  0.9362355E-01
        -11   -1    0    0    0    0  0.00000000000E+00  0.00000000000E+00  0.50000000000E+03  0.50000000000E+03  0.00000000000E+00 0.  1.
         11   -1    0    0    0    0 -0.00000000000E+00 -0.00000000000E+00 -0.50000000000E+03  0.50000000000E+03  0.00000000000E+00 0.  1.
         23    2    1    2    0    0 -0.13322983512E+02 -0.42821176151E+02 -0.33403188596E+03  0.34908993430E+03  0.90968820873E+02 0.  0.
        -11    1    1    2    0    0  0.11781769528E+03  0.60626232599E+02  0.46437330299E+03  0.48290694128E+03  0.00000000000E+00 0.  1.
         11    1    1    2    0    0 -0.10449471177E+03 -0.17805056448E+02 -0.13034141703E+03  0.16800312443E+03  0.00000000000E+00 0.  1.
        -15    1    3    3    0    0 -0.11209994062E+02 -0.71584796394E+02 -0.23393044738E+03  0.24490132499E+03  0.17770000000E+01 0. -1.
         15    1    3    3    0    0 -0.21129894491E+01  0.28763620243E+02 -0.10010143859E+03  0.10418860931E+03  0.17770000000E+01 0.  1.
</event>
<event>
 7    1  0.4954109E-006  0.4339544E+03  0.7546771E-02  0.9561076E-01
        -11   -1    0    0    0    0  0.00000000000E+00  0.00000000000E+00  0.50000000000E+03  0.50000000000E+03  0.00000000000E+00 0.  1.
         11   -1    0    0    0    0 -0.00000000000E+00 -0.00000000000E+00 -0.50000000000E+03  0.50000000000E+03  0.00000000000E+00 0. -1.
         23    2    1    2    0    0 -0.10476777720E+03  0.33076848259E+02 -0.48537385886E+01  0.12515156898E+03  0.59741036215E+02 0.  0.
        -11    1    1    2    0    0  0.30656776754E+03  0.14266261863E+03  0.31714380135E+03  0.46359099386E+03  0.00000000000E+00 0.  1.
         11    1    1    2    0    0 -0.20179999034E+03 -0.17573946689E+03 -0.31229006276E+03  0.41125743717E+03  0.00000000000E+00 0. -1.
        -15    1    3    3    0    0 -0.98751705607E+02  0.82729780970E+01 -0.16939458124E-01  0.99113568913E+02  0.17770000000E+01 0. -1.
         15    1    3    3    0    0 -0.60160715970E+01  0.24803870162E+02 -0.48367991305E+01  0.26038000063E+02  0.17770000000E+01 0.  1.
</event>
<event>
 7    1  0.4954109E-006  0.5098367E+03  0.7546771E-02  0.9378065E-01
        -11   -1    0    0    0    0  0.00000000000E+00  0.00000000000E+00  0.50000000000E+03  0.50000000000E+03  0.00000000000E+00 0.  1.
         11   -1    0    0    0    0 -0.00000000000E+00 -0.00000000000E+00 -0.50000000000E+03  0.50000000000E+03  0.00000000000E+00 0. -1.
         23    2    1    2    0    0  0.10053110386E+03  0.58189163012E+02  0.36033586718E+03  0.38951689320E+03  0.91591437252E+02 0.  0.
        -11    1    1    2    0    0  0.70755885197E+02 -0.11896778292E+02  0.96586319450E+02  0.12031976450E+03  0.00000000000E+00 0.  1.
         11    1    1    2    0    0 -0.17128698906E+03 -0.46292384720E+02 -0.45692218663E+03  0.49016334230E+03  0.00000000000E+00 0. -1.
        -15    1    3    3    0    0  0.17348663683E+02 -0.11687779433E+02  0.11054556723E+02  0.23726383480E+02  0.17770000000E+01 0. -1.
         15    1    3    3    0    0  0.83182440177E+02  0.69876942445E+02  0.34928131046E+03  0.36579050972E+03  0.17770000000E+01 0.  1.
</event>
<event>
 7    1  0.4954109E-006  0.4676596E+03  0.7546771E-02  0.9475231E-01
        -11   -1    0    0    0    0  0.00000000000E+00  0.00000000000E+00  0.50000000000E+03  0.50000000000E+03  0.00000000000E+00 0.  1.
         11   -1    0    0    0    0 -0.00000000000E+00 -0.00000000000E+00 -0.50000000000E+03  0.50000000000E+03  0.00000000000E+00 0.  1.
         23    2    1    2    0    0 -0.16634759455E+02  0.59196594145E+02  0.43470076721E+03  0.44723673304E+03  0.85293530716E+02 0.  0.
        -11    1    1    2    0    0  0.48693736057E+02  0.32327069969E+02  0.38329536733E+02  0.69894726340E+02  0.00000000000E+00 0.  1.
         11    1    1    2    0    0 -0.32058976602E+02 -0.91523664114E+02 -0.47303030394E+03  0.48286854062E+03  0.00000000000E+00 0.  1.
        -15    1    3    3    0    0  0.34171398488E+02  0.33380087100E+02  0.18078179552E+03  0.18699499996E+03  0.17770000000E+01 0. -1.
         15    1    3    3    0    0 -0.50806157942E+02  0.25816507045E+02  0.25391897169E+03  0.26024173307E+03  0.17770000000E+01 0.  1.
</event>
<event>
 7    1  0.4954109E-006  0.5067634E+03  0.7546771E-02  0.9384802E-01
        -11   -1    0    0    0    0  0.00000000000E+00  0.00000000000E+00  0.50000000000E+03  0.50000000000E+03  0.00000000000E+00 0. -1.
         11   -1    0    0    0    0 -0.00000000000E+00 -0.00000000000E+00 -0.50000000000E+03  0.50000000000E+03  0.00000000000E+00 0.  1.
         23    2    1    2    0    0 -0.85893441138E+02  0.30653628380E+02  0.47469521246E+03  0.49323657268E+03  0.98129729088E+02 0.  0.
        -11    1    1    2    0    0 -0.38697046120E+02 -0.40598425778E+01 -0.49904029286E+02  0.63279979766E+02  0.00000000000E+00 0. -1.
         11    1    1    2    0    0  0.12459048726E+03 -0.26593785802E+02 -0.42479118317E+03  0.44348344756E+03  0.00000000000E+00 0.  1.
        -15    1    3    3    0    0 -0.75834488424E+02  0.42898488292E+02  0.46782685888E+03  0.47587422451E+03  0.17770000000E+01 0. -1.
         15    1    3    3    0    0 -0.10058952714E+02 -0.12244859912E+02  0.68683535752E+01  0.17362348165E+02  0.17770000000E+01 0.  1.
</event>
<event>
 7    1  0.4954109E-006  0.4710147E+03  0.7546771E-02  0.9467109E-01
        -11   -1    0    0    0    0  0.00000000000E+00  0.00000000000E+00  0.50000000000E+03  0.50000000000E+03  0.00000000000E+00 0.  1.
         11   -1    0    0    0    0 -0.00000000000E+00 -0.00000000000E+00 -0.50000000000E+03  0.50000000000E+03  0.00000000000E+00 0. -1.
         23    2    1    2    0    0 -0.47166266864E+02  0.39282679112E+02  0.44291364182E+03  0.45698384890E+03  0.94307785688E+02 0.  0.
        -11    1    1    2    0    0 -0.42161275939E+02  0.46165171380E+02  0.18604566988E+02  0.65229794957E+02  0.00000000000E+00 0.  1.
         11    1    1    2    0    0  0.89327542804E+02 -0.85447850492E+02 -0.46151820880E+03  0.47778635614E+03  0.00000000000E+00 0. -1.
        -15    1    3    3    0    0 -0.72611738701E+02  0.35836465257E+02  0.38764194197E+03  0.39601281512E+03  0.17770000000E+01 0.  1.
         15    1    3    3    0    0  0.25445471837E+02  0.34462138553E+01  0.55271699847E+02  0.60971033778E+02  0.17770000000E+01 0. -1.
</event>
<event>
 7    1  0.4954109E-006  0.4162496E+03  0.7546771E-02  0.9609571E-01
        -11   -1    0    0    0    0  0.00000000000E+00  0.00000000000E+00  0.50000000000E+03  0.50000000000E+03  0.00000000000E+00 0.  1.
         11   -1    0    0    0    0 -0.00000000000E+00 -0.00000000000E+00 -0.50000000000E+03  0.50000000000E+03  0.00000000000E+00 0. -1.
         23    2    1    2    0    0 -0.27141325056E+02 -0.10895343271E+03  0.36308951918E+03  0.39106515054E+03  0.92143643307E+02 0.  0.
        -11    1    1    2    0    0 -0.75875194646E+02  0.12399672315E+03  0.71533766916E+02  0.16201639523E+03  0.00000000000E+00 0.  1.
         11    1    1    2    0    0  0.10301651970E+03 -0.15043290434E+02 -0.43462328609E+03  0.44691845423E+03  0.00000000000E+00 0. -1.
        -15    1    3    3    0    0 -0.33551981766E+02 -0.97268229222E+02  0.36332434500E+03  0.37761697697E+03  0.17770000000E+01 0.  1.
         15    1    3    3    0    0  0.64106567101E+01 -0.11685203493E+02 -0.23482582391E+00  0.13448173567E+02  0.17770000000E+01 0. -1.
</event>
<event>
 7    1  0.4954109E-006  0.4905731E+03  0.7546771E-02  0.9421154E-01
        -11   -1    0    0    0    0  0.00000000000E+00  0.00000000000E+00  0.50000000000E+03  0.50000000000E+03  0.00000000000E+00 0.  1.
         11   -1    0    0    0    0 -0.00000000000E+00 -0.00000000000E+00 -0.50000000000E+03  0.50000000000E+03  0.00000000000E+00 0. -1.
         23    2    1    2    0    0 -0.22819594509E+03 -0.58632700370E+01 -0.41681469338E+03  0.48339604577E+03  0.88484355437E+02 0.  0.
        -11    1    1    2    0    0  0.21850560898E+03  0.18087590137E+02  0.43828392232E+03  0.49006597376E+03  0.00000000000E+00 0.  1.
         11    1    1    2    0    0  0.96903361097E+01 -0.12224320100E+02 -0.21469228944E+02  0.26537980467E+02  0.00000000000E+00 0. -1.
        -15    1    3    3    0    0 -0.87548331078E+02 -0.45419024792E+02 -0.17331542386E+03  0.19942164367E+03  0.17770000000E+01 0.  1.
         15    1    3    3    0    0 -0.14064761401E+03  0.39555754755E+02 -0.24349926952E+03  0.28397440210E+03  0.17770000000E+01 0. -1.
</event>
<event>
 7    1  0.4954109E-006  0.3467833E+03  0.7546771E-02  0.9828189E-01
        -11   -1    0    0    0    0  0.00000000000E+00  0.00000000000E+00  0.50000000000E+03  0.50000000000E+03  0.00000000000E+00 0. -1.
         11   -1    0    0    0    0 -0.00000000000E+00 -0.00000000000E+00 -0.50000000000E+03  0.50000000000E+03  0.00000000000E+00 0.  1.
         23    2    1    2    0    0 -0.27957524274E+02 -0.16259632349E+03  0.18245589579E+03  0.26410337332E+03  0.96131422087E+02 0.  0.
        -11    1    1    2    0    0 -0.65005558784E+02  0.21094800291E+03  0.22499081838E+03  0.31519145128E+03  0.00000000000E+00 0. -1.
         11    1    1    2    0    0  0.92963083059E+02 -0.48351679416E+02 -0.40744671417E+03  0.42070517540E+03  0.00000000000E+00 0.  1.
        -15    1    3    3    0    0 -0.38464424985E+02 -0.13568340465E+03  0.18759907977E+03  0.23470421970E+03  0.17770000000E+01 0. -1.
         15    1    3    3    0    0  0.10506900711E+02 -0.26912918842E+02 -0.51431839738E+01  0.29399153619E+02  0.17770000000E+01 0. -1.
</event>
<event>
 7    1  0.4954109E-006  0.5254165E+03  0.7546771E-02  0.9344668E-01
        -11   -1    0    0    0    0  0.00000000000E+00  0.00000000000E+00  0.50000000000E+03  0.50000000000E+03  0.00000000000E+00 0.  1.
         11   -1    0    0    0    0 -0.00000000000E+00 -0.00000000000E+00 -0.50000000000E+03  0.50000000000E+03  0.00000000000E+00 0. -1.
         23    2    1    2    0    0 -0.16377065082E+02  0.89397768252E+01 -0.10545784493E+03  0.13971552357E+03  0.89727044965E+02 0.  0.
        -11    1    1    2    0    0  0.26815207146E+03 -0.14735921050E+03  0.36277988842E+03  0.47458352035E+03  0.00000000000E+00 0.  1.
         11    1    1    2    0    0 -0.25177500637E+03  0.13841943367E+03 -0.25732204350E+03  0.38570095608E+03  0.00000000000E+00 0. -1.
        -15    1    3    3    0    0 -0.48959121672E+02 -0.14924255197E+02 -0.58104302893E+02  0.77453190585E+02  0.17770000000E+01 0.  1.
         15    1    3    3    0    0  0.32582056590E+02  0.23864032023E+02 -0.47353542036E+02  0.62262332982E+02  0.17770000000E+01 0. -1.
</event>
<event>
 7    1  0.4954109E-006  0.4053861E+03  0.7546771E-02  0.9640619E-01
        -11   -1    0    0    0    0  0.00000000000E+00  0.00000000000E+00  0.50000000000E+03  0.50000000000E+03  0.00000000000E+00 0. -1.
         11   -1    0    0    0    0 -0.00000000000E+00 -0.00000000000E+00 -0.50000000000E+03  0.50000000000E+03  0.00000000000E+00 0. -1.
         23    2    1    2    0    0  0.67827835902E+01 -0.79443040014E+02  0.33843959315E+03  0.35946707646E+03  0.91203169279E+02 0.  0.
        -11    1    1    2    0    0  0.11015752931E+03  0.93196108448E+02  0.10710074748E+03  0.17969631606E+03  0.00000000000E+00 0. -1.
         11    1    1    2    0    0 -0.11694031290E+03 -0.13753068434E+02 -0.44554034063E+03  0.46083660749E+03  0.00000000000E+00 0. -1.
        -15    1    3    3    0    0 -0.15390495808E+01  0.20341230298E+02  0.70917466077E+02  0.73814490768E+02  0.17770000000E+01 0.  1.
         15    1    3    3    0    0  0.83218331710E+01 -0.99784270312E+02  0.26752212707E+03  0.28565258569E+03  0.17770000000E+01 0. -1.
</event>
<event>
 7    1  0.4954109E-006  0.4223177E+03  0.7546771E-02  0.9592664E-01
        -11   -1    0    0    0    0  0.00000000000E+00  0.00000000000E+00  0.50000000000E+03  0.50000000000E+03  0.00000000000E+00 0. -1.
         11   -1    0    0    0    0 -0.00000000000E+00 -0.00000000000E+00 -0.50000000000E+03  0.50000000000E+03  0.00000000000E+00 0.  1.
         23    2    1    2    0    0 -0.74085727032E+02 -0.14381929935E+03  0.34010707881E+03  0.38839892395E+03  0.94911607580E+02 0.  0.
        -11    1    1    2    0    0  0.10960806143E+03  0.26479766734E+02  0.10246504975E+03  0.15236204119E+03  0.00000000000E+00 0. -1.
         11    1    1    2    0    0 -0.35522334401E+02  0.11733953261E+03 -0.44257212856E+03  0.45923903485E+03  0.00000000000E+00 0.  1.
        -15    1    3    3    0    0  0.13335414443E+02 -0.19205105114E+02  0.11231819913E+02  0.25999631697E+02  0.17770000000E+01 0. -1.
         15    1    3    3    0    0 -0.87421141475E+02 -0.12461419423E+03  0.32887525890E+03  0.36239929226E+03  0.17770000000E+01 0.  1.
</event>
<event>
 7    1  0.4954109E-006  0.4777007E+03  0.7546771E-02  0.9451137E-01
        -11   -1    0    0    0    0  0.00000000000E+00  0.00000000000E+00  0.50000000000E+03  0.50000000000E+03  0.00000000000E+00 0. -1.
         11   -1    0    0    0    0 -0.00000000000E+00 -0.00000000000E+00 -0.50000000000E+03  0.50000000000E+03  0.00000000000E+00 0.  1.
         23    2    1    2    0    0 -0.62440459800E+02 -0.37884472914E+02  0.44112737988E+03  0.45643345549E+03  0.91673822353E+02 0.  0.
        -11    1    1    2    0    0 -0.33850094804E+02  0.16369313759E+01  0.39502502933E+02  0.52047633958E+02  0.00000000000E+00 0. -1.
         11    1    1    2    0    0  0.96290554604E+02  0.36247541538E+02 -0.48062988281E+03  0.49151891055E+03  0.00000000000E+00 0.  1.
        -15    1    3    3    0    0 -0.79658081548E+02 -0.47908989917E+01  0.29483128786E+03  0.30544559041E+03  0.17770000000E+01 0. -1.
         15    1    3    3    0    0  0.17217621748E+02 -0.33093573922E+02  0.14629609202E+03  0.15098786508E+03  0.17770000000E+01 0.  1.
</event>
<event>
 7    1  0.4954109E-006  0.3560375E+03  0.7546771E-02  0.9796032E-01
        -11   -1    0    0    0    0  0.00000000000E+00  0.00000000000E+00  0.50000000000E+03  0.50000000000E+03  0.00000000000E+00 0. -1.
         11   -1    0    0    0    0 -0.00000000000E+00 -0.00000000000E+00 -0.50000000000E+03  0.50000000000E+03  0.00000000000E+00 0.  1.
         23    2    1    2    0    0  0.25048460205E+03 -0.20167214295E+03  0.11418203893E+03  0.35316525604E+03  0.90961370704E+02 0.  0.
        -11    1    1    2    0    0 -0.24289256071E+01  0.17207639026E+03  0.18792608385E+03  0.25481836032E+03  0.00000000000E+00 0. -1.
         11    1    1    2    0    0 -0.24805567644E+03  0.29595752684E+02 -0.30210812278E+03  0.39201638364E+03  0.00000000000E+00 0.  1.
        -15    1    3    3    0    0  0.19017839133E+03 -0.10721157811E+03  0.49891250672E+02  0.22395186454E+03  0.17770000000E+01 0.  1.
         15    1    3    3    0    0  0.60306210721E+02 -0.94460564838E+02  0.64290788255E+02  0.12921339151E+03  0.17770000000E+01 0. -1.
</event>
<event>
 7    1  0.4954109E-006  0.5112324E+03  0.7546771E-02  0.9375021E-01
        -11   -1    0    0    0    0  0.00000000000E+00  0.00000000000E+00  0.50000000000E+03  0.50000000000E+03  0.00000000000E+00 0. -1.
         11   -1    0    0    0    0 -0.00000000000E+00 -0.00000000000E+00 -0.50000000000E+03  0.50000000000E+03  0.00000000000E+00 0.  1.
         23    2    1    2    0    0 -0.12864703217E+01 -0.82621924309E+02 -0.20697200829E+03  0.24084268380E+03  0.91322224819E+02 0.  0.
        -11    1    1    2    0    0  0.65294322867E+02  0.14516489305E+03  0.46212289166E+03  0.48876759484E+03  0.00000000000E+00 0. -1.
         11    1    1    2    0    0 -0.64007852545E+02 -0.62542968740E+02 -0.25515088337E+03  0.27038972135E+03  0.00000000000E+00 0.  1.
        -15    1    3    3    0    0 -0.43526807602E+02 -0.53707200539E+02 -0.93024760825E+02  0.11591294244E+03  0.17770000000E+01 0.  1.
         15    1    3    3    0    0  0.42240337280E+02 -0.28914723771E+02 -0.11394724746E+03  0.12492974136E+03  0.17770000000E+01 0. -1.
</event>
<event>
 7    1  0.4954109E-006  0.5140923E+03  0.7546771E-02  0.9368818E-01
        -11   -1    0    0    0    0  0.00000000000E+00  0.00000000000E+00  0.50000000000E+03  0.50000000000E+03  0.00000000000E+00 0.  1.
         11   -1    0    0    0    0 -0.00000000000E+00 -0.00000000000E+00 -0.50000000000E+03  0.50000000000E+03  0.00000000000E+00 0. -1.
         23    2    1    2    0    0  0.37444826200E+02  0.61032701259E+01  0.14420967069E+03  0.17714367864E+03  0.95624729258E+02 0.  0.
        -11    1    1    2    0    0  0.70144913065E+02  0.26957348346E+01  0.32955541479E+03  0.33694858248E+03  0.00000000000E+00 0.  1.
         11    1    1    2    0    0 -0.10758973926E+03 -0.87990049605E+01 -0.47376508548E+03  0.48590773888E+03  0.00000000000E+00 0. -1.
        -15    1    3    3    0    0  0.32068947434E+02 -0.29777475551E+02  0.20775751438E+02  0.48475818885E+02  0.17770000000E+01 0.  1.
         15    1    3    3    0    0  0.53758787665E+01  0.35880745677E+02  0.12343391925E+03  0.12866785975E+03  0.17770000000E+01 0. -1.
</event>
<event>
 7    1  0.4954109E-006  0.5088986E+03  0.7546771E-02  0.9380116E-01
        -11   -1    0    0    0    0  0.00000000000E+00  0.00000000000E+00  0.50000000000E+03  0.50000000000E+03  0.00000000000E+00 0. -1.
         11   -1    0    0    0    0 -0.00000000000E+00 -0.00000000000E+00 -0.50000000000E+03  0.50000000000E+03  0.00000000000E+00 0.  1.
         23    2    1    2    0    0  0.25263805219E+03  0.14616889504E+03 -0.15666491311E+03  0.34321957823E+03  0.89802297248E+02 0.  0.
        -11    1    1    2    0    0 -0.36354300808E+03 -0.18505330353E+03  0.27344524284E+03  0.49110135889E+03  0.00000000000E+00 0. -1.
         11    1    1    2    0    0  0.11090495589E+03  0.38884408494E+02 -0.11678032973E+03  0.16567906288E+03  0.00000000000E+00 0.  1.
        -15    1    3    3    0    0  0.17216749753E+03  0.61861905324E+02 -0.62364841251E+02  0.19329012828E+03  0.17770000000E+01 0.  1.
         15    1    3    3    0    0  0.80470554659E+02  0.84306989713E+02 -0.94300071859E+02  0.14992944995E+03  0.17770000000E+01 0. -1.
</event>
<event>
 7    1  0.4954109E-006  0.3678184E+03  0.7546771E-02  0.9756578E-01
        -11   -1    0    0    0    0  0.00000000000E+00  0.00000000000E+00  0.50000000000E+03  0.50000000000E+03  0.00000000000E+00 0.  1.
         11   -1    0    0    0    0 -0.00000000000E+00 -0.00000000000E+00 -0.50000000000E+03  0.50000000000E+03  0.00000000000E+00 0. -1.
         23    2    1    2    0    0 -0.13885811424E+03 -0.33056023013E+03  0.15707845974E+03  0.40159877638E+03  0.89756855105E+02 0.  0.
        -11    1    1    2    0    0  0.35916812767E+02  0.35473739020E+03  0.55624516108E+02  0.36086385277E+03  0.00000000000E+00 0.  1.
         11    1    1    2    0    0  0.10294130147E+03 -0.24177160066E+02 -0.21270297585E+03  0.23753737086E+03  0.00000000000E+00 0. -1.
        -15    1    3    3    0    0 -0.14846748412E+03 -0.26919948104E+03  0.12845978387E+03  0.33319067850E+03  0.17770000000E+01 0. -1.
         15    1    3    3    0    0  0.96093698820E+01 -0.61360749088E+02  0.28618675868E+02  0.68408097881E+02  0.17770000000E+01 0.  1.
</event>
<event>
 7    1  0.4954109E-006  0.5125024E+03  0.7546771E-02  0.9372261E-01
        -11   -1    0    0    0    0  0.00000000000E+00  0.00000000000E+00  0.50000000000E+03  0.50000000000E+03  0.00000000000E+00 0.  1.
         11   -1    0    0    0    0 -0.00000000000E+00 -0.00000000000E+00 -0.50000000000E+03  0.50000000000E+03  0.00000000000E+00 0. -1.
         23    2    1    2    0    0  0.61621752989E+02  0.52741999173E+01 -0.24725371267E+03  0.27362266188E+03  0.99548505978E+02 0.  0.
        -11    1    1    2    0    0 -0.67291345140E+02 -0.65335089724E+02  0.47839016048E+03  0.48749763561E+03  0.00000000000E+00 0.  1.
         11    1    1    2    0    0  0.56695921512E+01  0.60060889807E+02 -0.23113644782E+03  0.23887970250E+03  0.00000000000E+00 0. -1.
        -15    1    3    3    0    0 -0.21067730857E+01  0.13275045356E+02  0.41173797512E+01  0.14169540114E+02  0.17770000000E+01 0.  1.
         15    1    3    3    0    0  0.63728526075E+02 -0.80008454385E+01 -0.25137109242E+03  0.25945312177E+03  0.17770000000E+01 0. -1.
</event>
<event>
 7    1  0.4954109E-006  0.3153133E+03  0.7546771E-02  0.9946163E-01
        -11   -1    0    0    0    0  0.00000000000E+00  0.00000000000E+00  0.50000000000E+03  0.50000000000E+03  0.00000000000E+00 0. -1.
         11   -1    0    0    0    0 -0.00000000000E+00 -0.00000000000E+00 -0.50000000000E+03  0.50000000000E+03  0.00000000000E+00 0.  1.
         23    2    1    2    0    0 -0.16878922849E+03  0.23577460332E+03  0.34861816285E+01  0.30589508465E+03  0.97366226821E+02 0.  0.
        -11    1    1    2    0    0  0.17084076136E+03 -0.14157944219E+03  0.30181408853E+03  0.37459718128E+03  0.00000000000E+00 0. -1.
         11    1    1    2    0    0 -0.20515328665E+01 -0.94195161136E+02 -0.30530027015E+03  0.31950773406E+03  0.00000000000E+00 0.  1.
        -15    1    3    3    0    0 -0.11859275739E+03  0.85151159146E+02  0.14563224282E+02  0.14673175266E+03  0.17770000000E+01 0. -1.
         15    1    3    3    0    0 -0.50196471104E+02  0.15062344418E+03 -0.11077042654E+02  0.15916333199E+03  0.17770000000E+01 0.  1.
</event>
<event>
 7    1  0.4954109E-006  0.5099685E+03  0.7546771E-02  0.9377777E-01
        -11   -1    0    0    0    0  0.00000000000E+00  0.00000000000E+00  0.50000000000E+03  0.50000000000E+03  0.00000000000E+00 0. -1.
         11   -1    0    0    0    0 -0.00000000000E+00 -0.00000000000E+00 -0.50000000000E+03  0.50000000000E+03  0.00000000000E+00 0. -1.
         23    2    1    2    0    0  0.11488400777E+03  0.37904714397E+02 -0.35860793554E+03  0.38949064365E+03  0.92022863712E+02 0.  0.
        -11    1    1    2    0    0 -0.17248843939E+03 -0.92509110813E+02  0.44924457313E+03  0.49003151306E+03  0.00000000000E+00 0. -1.
         11    1    1    2    0    0  0.57604431616E+02  0.54604396416E+02 -0.90636637589E+02  0.12047784329E+03  0.00000000000E+00 0. -1.
        -15    1    3    3    0    0  0.12973508132E+03  0.38579760498E+02 -0.33730923587E+03  0.36345600501E+03  0.17770000000E+01 0. -1.
         15    1    3    3    0    0 -0.14851073546E+02 -0.67504610062E+00 -0.21298699669E+02  0.26034638644E+02  0.17770000000E+01 0.  1.
</event>
<event>
 7    1  0.4954109E-006  0.4778946E+03  0.7546771E-02  0.9450678E-01
        -11   -1    0    0    0    0  0.00000000000E+00  0.00000000000E+00  0.50000000000E+03  0.50000000000E+03  0.00000000000E+00 0.  1.
         11   -1    0    0    0    0 -0.00000000000E+00 -0.00000000000E+00 -0.50000000000E+03  0.50000000000E+03  0.00000000000E+00 0. -1.
         23    2    1    2    0    0 -0.61865847872E+02 -0.27494137822E+03 -0.36125484777E+03  0.46872548095E+03  0.98885625166E+02 0.  0.
        -11    1    1    2    0    0  0.10909746185E+03  0.26458489984E+03  0.38311442126E+03  0.47820924833E+03  0.00000000000E+00 0.  1.
         11    1    1    2    0    0 -0.47231613981E+02  0.10356478379E+02 -0.21859573498E+02  0.53065270726E+02  0.00000000000E+00 0. -1.
        -15    1    3    3    0    0 -0.59308109457E+02 -0.93673120517E+02 -0.18616187921E+03  0.21668296738E+03  0.17770000000E+01 0.  1.
         15    1    3    3    0    0 -0.25577384153E+01 -0.18126825770E+03 -0.17509296856E+03  0.25204251356E+03  0.17770000000E+01 0. -1.
</event>
<event>
 7    1  0.4954109E-006  0.3874055E+03  0.7546771E-02  0.9694363E-01
        -11   -1    0    0    0    0  0.00000000000E+00  0.00000000000E+00  0.50000000000E+03  0.50000000000E+03  0.00000000000E+00 0.  1.
         11   -1    0    0    0    0 -0.00000000000E+00 -0.00000000000E+00 -0.50000000000E+03  0.50000000000E+03  0.00000000000E+00 0.  1.
         23    2    1    2    0    0 -0.82046989340E+02  0.11805794370E+03 -0.10350789000E+03  0.20519468822E+03  0.10354511215E+03 0.  0.
        -11    1    1    2    0    0  0.88171751216E+02 -0.46432584038E+02  0.43978334139E+03  0.45093195710E+03  0.00000000000E+00 0.  1.
         11    1    1    2    0    0 -0.61247618754E+01 -0.71625359658E+02 -0.33627545139E+03  0.34387335468E+03  0.00000000000E+00 0.  1.
        -15    1    3    3    0    0 -0.35176681247E+02  0.11504758515E+03 -0.10269707552E+03  0.15818720808E+03  0.17770000000E+01 0.  1.
         15    1    3    3    0    0 -0.46870308094E+02  0.30103585433E+01 -0.81081448922E+00  0.47007480133E+02  0.17770000000E+01 0. -1.
</event>
<event>
 7    1  0.5354339E-006  0.5180018E+03  0.7546771E-02  0.9360406E-01
        -11   -1    0    0    0    0  0.00000000000E+00  0.00000000000E+00  0.50000000000E+03  0.50000000000E+03  0.00000000000E+00 0.  1.
         11   -1    0    0    0    0 -0.00000000000E+00 -0.00000000000E+00 -0.50000000000E+03  0.50000000000E+03  0.00000000000E+00 0. -1.
         23    2    1    2    0    0 -0.19237833969E+02 -0.98468354194E+02 -0.16662355899E+03  0.22201783774E+03  0.10706259305E+03 0.  0.
        -11    1    1    2    0    0  0.15010060681E+02  0.14842618304E+03  0.45833030373E+03  0.48199823760E+03  0.00000000000E+00 0.  1.
         11    1    1    2    0    0  0.42277732881E+01 -0.49957828849E+02 -0.29170674474E+03  0.29598392466E+03  0.00000000000E+00 0. -1.
        -15    1    3    3    0    0 -0.66961587456E+01 -0.34487830377E+02  0.75979747848E+01  0.35987997108E+02  0.17770000000E+01 0.  1.
         15    1    3    3    0    0 -0.12541675224E+02 -0.63980523817E+02 -0.17422153377E+03  0.18602984063E+03  0.17770000000E+01 0. -1.
</event>
<event>
 7    1  0.4954109E-006  0.3389740E+03  0.7546771E-02  0.9856174E-01
        -11   -1    0    0    0    0  0.00000000000E+00  0.00000000000E+00  0.50000000000E+03  0.50000000000E+03  0.00000000000E+00 0. -1.
         11   -1    0    0    0    0 -0.00000000000E+00 -0.00000000000E+00 -0.50000000000E+03  0.50000000000E+03  0.00000000000E+00 0. -1.
         23    2    1    2    0    0  0.66415965859E+02 -0.10922880687E+02  0.28840622059E+03  0.30972690344E+03  0.90676440126E+02 0.  0.
        -11    1    1    2    0    0  0.25282659933E+03 -0.10318199758E+03 -0.54679667961E+02  0.27849179529E+03  0.00000000000E+00 0. -1.
         11    1    1    2    0    0 -0.31924256519E+03  0.11410487827E+03 -0.23372655263E+03  0.41178130127E+03  0.00000000000E+00 0. -1.
        -15    1    3    3    0    0 -0.96393457244E+01 -0.70607980866E+01  0.69226737574E+00  0.12099951187E+02  0.17770000000E+01 0.  1.
         15    1    3    3    0    0  0.76055311584E+02 -0.38620826005E+01  0.28771395322E+03  0.29762695225E+03  0.17770000000E+01 0. -1.
</event>
<event>
 7    1  0.4954109E-006  0.5322718E+03  0.7546771E-02  0.9330360E-01
        -11   -1    0    0    0    0  0.00000000000E+00  0.00000000000E+00  0.50000000000E+03  0.50000000000E+03  0.00000000000E+00 0.  1.
         11   -1    0    0    0    0 -0.00000000000E+00 -0.00000000000E+00 -0.50000000000E+03  0.50000000000E+03  0.00000000000E+00 0. -1.
         23    2    1    2    0    0 -0.28059294786E+03  0.73741440808E+02 -0.23474083712E+03  0.38397710028E+03  0.90360115378E+02 0.  0.
        -11    1    1    2    0    0  0.25507774480E+03 -0.12337188241E+03  0.37213487194E+03  0.46772816911E+03  0.00000000000E+00 0.  1.
         11    1    1    2    0    0  0.25515203059E+02  0.49630441602E+02 -0.13739403482E+03  0.14829473061E+03  0.00000000000E+00 0. -1.
        -15    1    3    3    0    0 -0.25290026745E+02  0.21658727596E+02 -0.11805064126E+00  0.33344528768E+02  0.17770000000E+01 0. -1.
         15    1    3    3    0    0 -0.25530292112E+03  0.52082713213E+02 -0.23462278648E+03  0.35063257152E+03  0.17770000000E+01 0.  1.
</event>
<event>
 7    1  0.4954109E-006  0.5246741E+03  0.7546771E-02  0.9346231E-01
        -11   -1    0    0    0    0  0.00000000000E+00  0.00000000000E+00  0.50000000000E+03  0.50000000000E+03  0.00000000000E+00 0. -1.
         11   -1    0    0    0    0 -0.00000000000E+00 -0.00000000000E+00 -0.50000000000E+03  0.50000000000E+03  0.00000000000E+00 0. -1.
         23    2    1    2    0    0  0.54365517174E+01 -0.26300276386E+02  0.18161638162E+03  0.22315458460E+03  0.12685502719E+03 0.  0.
        -11    1    1    2    0    0 -0.10564788395E+03  0.21307303214E+01  0.28239684369E+03  0.30151947320E+03  0.00000000000E+00 0. -1.
         11    1    1    2    0    0  0.10021133223E+03  0.24169546065E+02 -0.46401322531E+03  0.47532594220E+03  0.00000000000E+00 0. -1.
        -15    1    3    3    0    0 -0.38926918839E+02 -0.59964868649E+02  0.80305166322E+02  0.10753217169E+03  0.17770000000E+01 0. -1.
         15    1    3    3    0    0  0.44363470557E+02  0.33664592262E+02  0.10131121530E+03  0.11562241291E+03  0.17770000000E+01 0.  1.
</event>
<event>
 7    1  0.4954109E-006  0.5156528E+03  0.7546771E-02  0.9365451E-01
        -11   -1    0    0    0    0  0.00000000000E+00  0.00000000000E+00  0.50000000000E+03  0.50000000000E+03  0.00000000000E+00 0. -1.
         11   -1    0    0    0    0 -0.00000000000E+00 -0.00000000000E+00 -0.50000000000E+03  0.50000000000E+03  0.00000000000E+00 0.  1.
         23    2    1    2    0    0 -0.35557367287E+02  0.79290847504E+00  0.26472284022E+03  0.28282625139E+03  0.92992210777E+02 0.  0.
        -11    1    1    2    0    0 -0.25763134400E+02  0.11259524573E+03  0.20215527265E+03  0.23282650776E+03  0.00000000000E+00 0. -1.
         11    1    1    2    0    0  0.61320501687E+02 -0.11338815420E+03 -0.46687811288E+03  0.48434724085E+03  0.00000000000E+00 0.  1.
        -15    1    3    3    0    0  0.63852209411E+01  0.38183781283E+02  0.15199695103E+03  0.15685981975E+03  0.17770000000E+01 0. -1.
         15    1    3    3    0    0 -0.41942588228E+02 -0.37390872808E+02  0.11272588919E+03  0.12596643164E+03  0.17770000000E+01 0.  1.
</event>
<event>
 7    1  0.4954109E-006  0.5094226E+03  0.7546771E-02  0.9378969E-01
        -11   -1    0    0    0    0  0.00000000000E+00  0.00000000000E+00  0.50000000000E+03  0.50000000000E+03  0.00000000000E+00 0. -1.
         11   -1    0    0    0    0 -0.00000000000E+00 -0.00000000000E+00 -0.50000000000E+03  0.50000000000E+03  0.00000000000E+00 0.  1.
         23    2    1    2    0    0 -0.10015968879E+02 -0.11740003812E+03 -0.37256751796E+03  0.40063521641E+03  0.88424728481E+02 0.  0.
        -11    1    1    2    0    0  0.56674439949E+02  0.12747714819E+03  0.47032302376E+03  0.49057737630E+03  0.00000000000E+00 0. -1.
         11    1    1    2    0    0 -0.46658471070E+02 -0.10077110078E+02 -0.97755505808E+02  0.10878740729E+03  0.00000000000E+00 0.  1.
        -15    1    3    3    0    0 -0.39134152002E+02 -0.18612900531E+02 -0.13201904777E+03  0.13896081686E+03  0.17770000000E+01 0. -1.
         15    1    3    3    0    0  0.29118183123E+02 -0.98787137585E+02 -0.24054847019E+03  0.26167439955E+03  0.17770000000E+01 0.  1.
</event>
<event>
 7    1  0.4954109E-006  0.5274121E+03  0.7546771E-02  0.9340479E-01
        -11   -1    0    0    0    0  0.00000000000E+00  0.00000000000E+00  0.50000000000E+03  0.50000000000E+03  0.00000000000E+00 0. -1.
         11   -1    0    0    0    0 -0.00000000000E+00 -0.00000000000E+00 -0.50000000000E+03  0.50000000000E+03  0.00000000000E+00 0.  1.
         23    2    1    2    0    0  0.59792536346E+02 -0.26970713592E+02  0.17594045813E+03  0.20754827638E+03  0.88423274235E+02 0.  0.
        -11    1    1    2    0    0 -0.32464227776E+02  0.15411476999E+03  0.27840180598E+03  0.31986380537E+03  0.00000000000E+00 0. -1.
         11    1    1    2    0    0 -0.27328308569E+02 -0.12714405639E+03 -0.45434226411E+03  0.47258791825E+03  0.00000000000E+00 0.  1.
        -15    1    3    3    0    0  0.23717154866E+02  0.14554646852E+02  0.54716202141E+01  0.28415445389E+02  0.17770000000E+01 0. -1.
         15    1    3    3    0    0  0.36075381480E+02 -0.41525360444E+02  0.17046883792E+03  0.17913283099E+03  0.17770000000E+01 0.  1.
</event>
<event>
 7    1  0.4954109E-006  0.3668975E+03  0.7546771E-02  0.9759605E-01
        -11   -1    0    0    0    0  0.00000000000E+00  0.00000000000E+00  0.50000000000E+03  0.50000000000E+03  0.00000000000E+00 0. -1.
         11   -1    0    0    0    0 -0.00000000000E+00 -0.00000000000E+00 -0.50000000000E+03  0.50000000000E+03  0.00000000000E+00 0.  1.
         23    2    1    2    0    0 -0.78081445091E+02 -0.10748389728E+03  0.28982908551E+03  0.33154965995E+03  0.90965806582E+02 0.  0.
        -11    1    1    2    0    0  0.38312065886E+02  0.19837219382E+03  0.12788902010E+03  0.23911282512E+03  0.00000000000E+00 0. -1.
         11    1    1    2    0    0  0.39769379205E+02 -0.90888296543E+02 -0.41771810561E+03  0.42933751493E+03  0.00000000000E+00 0.  1.
        -15    1    3    3    0    0 -0.42443329051E+02 -0.15459782163E+01  0.12793157116E+03  0.13480901623E+03  0.17770000000E+01 0. -1.
         15    1    3    3    0    0 -0.35638116040E+02 -0.10593791906E+03  0.16189751435E+03  0.19674064372E+03  0.17770000000E+01 0.  1.
</event>
<event>
 7    1  0.4954109E-006  0.5043129E+03  0.7546771E-02  0.9390211E-01
        -11   -1    0    0    0    0  0.00000000000E+00  0.00000000000E+00  0.50000000000E+03  0.50000000000E+03  0.00000000000E+00 0.  1.
         11   -1    0    0    0    0 -0.00000000000E+00 -0.00000000000E+00 -0.50000000000E+03  0.50000000000E+03  0.00000000000E+00 0. -1.
         23    2    1    2    0    0 -0.42801953138E+02  0.25026134135E+02  0.48389816838E+03  0.49568709825E+03  0.95341215785E+02 0.  0.
        -11    1    1    2    0    0 -0.29115545540E+02  0.70775113241E+01 -0.25940155286E+02  0.39632030164E+02  0.00000000000E+00 0.  1.
         11    1    1    2    0    0  0.71917498679E+02 -0.32103645459E+02 -0.45795801309E+03  0.46468087159E+03  0.00000000000E+00 0. -1.
        -15    1    3    3    0    0 -0.40467523181E+02  0.59886004983E+02  0.33930526039E+03  0.34692242862E+03  0.17770000000E+01 0.  1.
         15    1    3    3    0    0 -0.23344299574E+01 -0.34859870848E+02  0.14459290799E+03  0.14876466962E+03  0.17770000000E+01 0. -1.
</event>
<event>
 7    1  0.4954109E-006  0.4909933E+03  0.7546771E-02  0.9420192E-01
        -11   -1    0    0    0    0  0.00000000000E+00  0.00000000000E+00  0.50000000000E+03  0.50000000000E+03  0.00000000000E+00 0. -1.
         11   -1    0    0    0    0 -0.00000000000E+00 -0.00000000000E+00 -0.50000000000E+03  0.50000000000E+03  0.00000000000E+00 0.  1.
         23    2    1    2    0    0  0.83743866452E+02 -0.24399453546E+02  0.47440502404E+03  0.48921505527E+03  0.81626435436E+02 0.  0.
        -11    1    1    2    0    0  0.20503214954E+02 -0.13444436165E+02 -0.97384712222E+00  0.24537380982E+02  0.00000000000E+00 0. -1.
         11    1    1    2    0    0 -0.10424708141E+03  0.37843889711E+02 -0.47343117692E+03  0.48624756375E+03  0.00000000000E+00 0.  1.
        -15    1    3    3    0    0 -0.15612276413E+02 -0.26019623236E+01  0.39955340362E+02  0.43012792692E+02  0.17770000000E+01 0.  1.
         15    1    3    3    0    0  0.99356142864E+02 -0.21797491223E+02  0.43444968368E+03  0.44620226258E+03  0.17770000000E+01 0. -1.
</event>
<event>
 7    1  0.4954109E-006  0.4005903E+03  0.7546771E-02  0.9654658E-01
        -11   -1    0    0    0    0  0.00000000000E+00  0.00000000000E+00  0.50000000000E+03  0.50000000000E+03  0.00000000000E+00 0.  1.
         11   -1    0    0    0    0 -0.00000000000E+00 -0.00000000000E+00 -0.50000000000E+03  0.50000000000E+03  0.00000000000E+00 0.  1.
         23    2    1    2    0    0 -0.21389280781E+02 -0.19197127797E+02  0.15640326901E+03  0.18319004278E+03  0.90942719160E+02 0.  0.
        -11    1    1    2    0    0  0.11313567944E+03  0.28328793628E+03  0.19930612279E+03  0.36438258381E+03  0.00000000000E+00 0.  1.
         11    1    1    2    0    0 -0.91746398662E+02 -0.26409080848E+03 -0.35570939180E+03  0.45242737341E+03  0.00000000000E+00 0.  1.
        -15    1    3    3    0    0 -0.50530037087E+01 -0.53340271167E+02  0.11605720113E+03  0.12784032634E+03  0.17770000000E+01 0. -1.
         15    1    3    3    0    0 -0.16336277073E+02  0.34143143371E+02  0.40346067880E+02  0.55349716442E+02  0.17770000000E+01 0.  1.
</event>
<event>
 7    1  0.4954109E-006  0.3609109E+03  0.7546771E-02  0.9779515E-01
        -11   -1    0    0    0    0  0.00000000000E+00  0.00000000000E+00  0.50000000000E+03  0.50000000000E+03  0.00000000000E+00 0.  1.
         11   -1    0    0    0    0 -0.00000000000E+00 -0.00000000000E+00 -0.50000000000E+03  0.50000000000E+03  0.00000000000E+00 0.  1.
         23    2    1    2    0    0  0.15162568532E+03 -0.10633504468E+03 -0.12474767150E+03  0.24442987450E+03  0.99430839409E+02 0.  0.
        -11    1    1    2    0    0 -0.46727376429E+02  0.99917699805E+02  0.42415023914E+03  0.43825839387E+03  0.00000000000E+00 0.  1.
         11    1    1    2    0    0 -0.10489830889E+03  0.64173448796E+01 -0.29940256763E+03  0.31731173163E+03  0.00000000000E+00 0.  1.
        -15    1    3    3    0    0 -0.11494834924E+02 -0.14419595058E+02 -0.28253052931E+02  0.33785332327E+02  0.17770000000E+01 0. -1.
         15    1    3    3    0    0  0.16312052024E+03 -0.91915449626E+02 -0.96494618571E+02  0.21064454217E+03  0.17770000000E+01 0.  1.
</event>
<event>
 7    1  0.4954109E-006  0.5268987E+03  0.7546771E-02  0.9341555E-01
        -11   -1    0    0    0    0  0.00000000000E+00  0.00000000000E+00  0.50000000000E+03  0.50000000000E+03  0.00000000000E+00 0.  1.
         11   -1    0    0    0    0 -0.00000000000E+00 -0.00000000000E+00 -0.50000000000E+03  0.50000000000E+03  0.00000000000E+00 0. -1.
         23    2    1    2    0    0  0.62766461483E+02  0.66373375124E+02 -0.11048152818E+03  0.17080982608E+03  0.92869666752E+02 0.  0.
        -11    1    1    2    0    0 -0.10061096031E+03 -0.21962600756E+02  0.46175743000E+03  0.47310130556E+03  0.00000000000E+00 0.  1.
         11    1    1    2    0    0  0.37844498826E+02 -0.44410774368E+02 -0.35127590182E+03  0.35608886836E+03  0.00000000000E+00 0. -1.
        -15    1    3    3    0    0  0.72260773974E+02  0.58326694428E+02 -0.43327701098E+02  0.10248936603E+03  0.17770000000E+01 0.  1.
         15    1    3    3    0    0 -0.94943124910E+01  0.80466806960E+01 -0.67153827082E+02  0.68320460044E+02  0.17770000000E+01 0. -1.
</event>
<event>
 7    1  0.4954109E-006  0.4256959E+03  0.7546771E-02  0.9583383E-01
        -11   -1    0    0    0    0  0.00000000000E+00  0.00000000000E+00  0.50000000000E+03  0.50000000000E+03  0.00000000000E+00 0. -1.
         11   -1    0    0    0    0 -0.00000000000E+00 -0.00000000000E+00 -0.50000000000E+03  0.50000000000E+03  0.00000000000E+00 0. -1.
         23    2    1    2    0    0 -0.57855886236E+02  0.27561545273E+03  0.35753234957E+03  0.46445476684E+03  0.92615701106E+02 0.  0.
        -11    1    1    2    0    0 -0.52897767776E+02 -0.13580930686E+03 -0.11438530693E+02  0.14619569642E+03  0.00000000000E+00 0. -1.
         11    1    1    2    0    0  0.11075365401E+03 -0.13980614587E+03 -0.34609381888E+03  0.38934953675E+03  0.00000000000E+00 0. -1.
        -15    1    3    3    0    0 -0.77754282139E+02  0.24776900691E+03  0.33309443940E+03  0.42236272618E+03  0.17770000000E+01 0. -1.
         15    1    3    3    0    0  0.19898395902E+02  0.27846445816E+02  0.24437910171E+02  0.42092040656E+02  0.17770000000E+01 0.  1.
</event>
<event>
 7    1  0.4954109E-006  0.4543030E+03  0.7546771E-02  0.9508299E-01
        -11   -1    0    0    0    0  0.00000000000E+00  0.00000000000E+00  0.50000000000E+03  0.50000000000E+03  0.00000000000E+00 0. -1.
         11   -1    0    0    0    0 -0.00000000000E+00 -0.00000000000E+00 -0.50000000000E+03  0.50000000000E+03  0.00000000000E+00 0.  1.
         23    2    1    2    0    0 -0.36723548451E+01  0.14122926570E+03  0.39012163651E+03  0.43203349415E+03  0.12041120014E+03 0.  0.
        -11    1    1    2    0    0 -0.35673926087E+02 -0.66601922274E+02  0.68298203749E+02  0.10184836615E+03  0.00000000000E+00 0. -1.
         11    1    1    2    0    0  0.39346280933E+02 -0.74627343428E+02 -0.45841984026E+03  0.46611813969E+03  0.00000000000E+00 0.  1.
        -15    1    3    3    0    0 -0.31419308420E+02  0.11220554042E+03  0.36830512673E+03  0.38630179957E+03  0.17770000000E+01 0. -1.
         15    1    3    3    0    0  0.27746953575E+02  0.29023725279E+02  0.21816509773E+02  0.45731694583E+02  0.17770000000E+01 0.  1.
</event>
<event>
 7    1  0.4954109E-006  0.4794862E+03  0.7546771E-02  0.9446918E-01
        -11   -1    0    0    0    0  0.00000000000E+00  0.00000000000E+00  0.50000000000E+03  0.50000000000E+03  0.00000000000E+00 0.  1.
         11   -1    0    0    0    0 -0.00000000000E+00 -0.00000000000E+00 -0.50000000000E+03  0.50000000000E+03  0.00000000000E+00 0. -1.
         23    2    1    2    0    0 -0.13659487158E+03 -0.42390078935E+02  0.44586888826E+03  0.47719894577E+03  0.92003753166E+02 0.  0.
        -11    1    1    2    0    0  0.44918498759E+02  0.58494015948E+01  0.17856522804E+02  0.48690270449E+02  0.00000000000E+00 0.  1.
         11    1    1    2    0    0  0.91676372822E+02  0.36540677340E+02 -0.46372541106E+03  0.47411078378E+03  0.00000000000E+00 0. -1.
        -15    1    3    3    0    0 -0.13222390175E+03 -0.52098573221E+02  0.44406409449E+03  0.46625475790E+03  0.17770000000E+01 0.  1.
         15    1    3    3    0    0 -0.43709698321E+01  0.97084942864E+01  0.18047937701E+01  0.10944187870E+02  0.17770000000E+01 0. -1.
</event>
<event>
 7    1  0.4954109E-006  0.4749095E+03  0.7546771E-02  0.9457771E-01
        -11   -1    0    0    0    0  0.00000000000E+00  0.00000000000E+00  0.50000000000E+03  0.50000000000E+03  0.00000000000E+00 0.  1.
         11   -1    0    0    0    0 -0.00000000000E+00 -0.00000000000E+00 -0.50000000000E+03  0.50000000000E+03  0.00000000000E+00 0. -1.
         23    2    1    2    0    0  0.63134001877E+02  0.32466258269E+02  0.44555428741E+03  0.46082360651E+03  0.93807319384E+02 0.  0.
        -11    1    1    2    0    0  0.15226030182E+02  0.51191017939E+02  0.22011348594E+02  0.57765489521E+02  0.00000000000E+00 0.  1.
         11    1    1    2    0    0 -0.78360032059E+02 -0.83657276207E+02 -0.46756563600E+03  0.48141090397E+03  0.00000000000E+00 0. -1.
        -15    1    3    3    0    0  0.83850780743E+02  0.28054346429E+02  0.40975035316E+03  0.41918553104E+03  0.17770000000E+01 0.  1.
         15    1    3    3    0    0 -0.20716778866E+02  0.44119118393E+01  0.35803934249E+02  0.41638075476E+02  0.17770000000E+01 0. -1.
</event>
<event>
 7    1  0.4954109E-006  0.3886753E+03  0.7546771E-02  0.9690466E-01
        -11   -1    0    0    0    0  0.00000000000E+00  0.00000000000E+00  0.50000000000E+03  0.50000000000E+03  0.00000000000E+00 0.  1.
         11   -1    0    0    0    0 -0.00000000000E+00 -0.00000000000E+00 -0.50000000000E+03  0.50000000000E+03  0.00000000000E+00 0.  1.
         23    2    1    2    0    0  0.26291916268E+03  0.94404144766E+02 -0.21661772421E+03  0.36494427183E+03  0.90677750567E+02 0.  0.
        -11    1    1    2    0    0 -0.16141366836E+03 -0.60336756173E+02  0.39277381171E+03  0.42891276927E+03  0.00000000000E+00 0.  1.
         11    1    1    2    0    0 -0.10150549432E+03 -0.34067388592E+02 -0.17615608750E+03  0.20614295890E+03  0.00000000000E+00 0.  1.
        -15    1    3    3    0    0  0.12388944219E+03  0.92291447094E+02 -0.10821992569E+03  0.18862930615E+03  0.17770000000E+01 0.  1.
         15    1    3    3    0    0  0.13902972049E+03  0.21126976716E+01 -0.10839779852E+03  0.17631496568E+03  0.17770000000E+01 0. -1.
</event>
<event>
 7    1  0.4954109E-006  0.5201784E+03  0.7546771E-02  0.9355758E-01
        -11   -1    0    0    0    0  0.00000000000E+00  0.00000000000E+00  0.50000000000E+03  0.50000000000E+03  0.00000000000E+00 0.  1.
         11   -1    0    0    0    0 -0.00000000000E+00 -0.00000000000E+00 -0.50000000000E+03  0.50000000000E+03  0.00000000000E+00 0. -1.
         23    2    1    2    0    0  0.54656297645E+02  0.44792413888E+02  0.38327753738E+03  0.40047706536E+03  0.92122407738E+02 0.  0.
        -11    1    1    2    0    0  0.64377408588E+02 -0.59780968785E+02  0.81303050107E+02  0.11970129875E+03  0.00000000000E+00 0.  1.
         11    1    1    2    0    0 -0.11903370623E+03  0.14988554897E+02 -0.46458058749E+03  0.47982163589E+03  0.00000000000E+00 0. -1.
        -15    1    3    3    0    0  0.57886449625E+02  0.33951873232E+02  0.38319036047E+03  0.38902645261E+03  0.17770000000E+01 0.  1.
         15    1    3    3    0    0 -0.32301519802E+01  0.10840540656E+02  0.87176908919E-01  0.11450612749E+02  0.17770000000E+01 0. -1.
</event>
<event>
 7    1  0.4954109E-006  0.5379231E+03  0.7546771E-02  0.9318736E-01
        -11   -1    0    0    0    0  0.00000000000E+00  0.00000000000E+00  0.50000000000E+03  0.50000000000E+03  0.00000000000E+00 0.  1.
         11   -1    0    0    0    0 -0.00000000000E+00 -0.00000000000E+00 -0.50000000000E+03  0.50000000000E+03  0.00000000000E+00 0.  1.
         23    2    1    2    0    0 -0.40532836670E+02  0.11963080603E+03  0.17387434537E+03  0.23499063334E+03  0.95046668419E+02 0.  0.
        -11    1    1    2    0    0  0.20840778393E+03  0.10853289131E+03  0.19119331376E+03  0.30293246133E+03  0.00000000000E+00 0.  1.
         11    1    1    2    0    0 -0.16787494726E+03 -0.22816369734E+03 -0.36506765913E+03  0.46207690534E+03  0.00000000000E+00 0.  1.
        -15    1    3    3    0    0 -0.29349501241E+02  0.49600776631E+02  0.14908053137E+03  0.15984302559E+03  0.17770000000E+01 0.  1.
         15    1    3    3    0    0 -0.11183335429E+02  0.70030029398E+02  0.24793814000E+02  0.75147607749E+02  0.17770000000E+01 0. -1.
</event>
<event>
 7    1  0.4954109E-006  0.4544116E+03  0.7546771E-02  0.9508025E-01
        -11   -1    0    0    0    0  0.00000000000E+00  0.00000000000E+00  0.50000000000E+03  0.50000000000E+03  0.00000000000E+00 0.  1.
         11   -1    0    0    0    0 -0.00000000000E+00 -0.00000000000E+00 -0.50000000000E+03  0.50000000000E+03  0.00000000000E+00 0. -1.
         23    2    1    2    0    0 -0.52004478280E+02 -0.13075990439E+03  0.39981729270E+03  0.43394997436E+03  0.93038133812E+02 0.  0.
        -11    1    1    2    0    0  0.80739103756E+02  0.12221770354E+01  0.51405605353E+02  0.95722687247E+02  0.00000000000E+00 0.  1.
         11    1    1    2    0    0 -0.28734625476E+02  0.12953772736E+03 -0.45122289806E+03  0.47032733839E+03  0.00000000000E+00 0. -1.
        -15    1    3    3    0    0 -0.27322425920E+02 -0.10260812615E+03  0.37310246100E+03  0.38792208837E+03  0.17770000000E+01 0.  1.
         15    1    3    3    0    0 -0.24682052360E+02 -0.28151778243E+02  0.26714831705E+02  0.46027885993E+02  0.17770000000E+01 0. -1.
</event>
<event>
 7    1  0.4954109E-006  0.3624407E+03  0.7546771E-02  0.9774388E-01
        -11   -1    0    0    0    0  0.00000000000E+00  0.00000000000E+00  0.50000000000E+03  0.50000000000E+03  0.00000000000E+00 0.  1.
         11   -1    0    0    0    0 -0.00000000000E+00 -0.00000000000E+00 -0.50000000000E+03  0.50000000000E+03  0.00000000000E+00 0.  1.
         23    2    1    2    0    0  0.75798851327E+02  0.14397870207E+03 -0.15324130691E+03  0.24144129145E+03  0.91299871643E+02 0.  0.
        -11    1    1    2    0    0 -0.62531110095E+02 -0.71882643617E+02  0.44635870545E+03  0.45641357135E+03  0.00000000000E+00 0.  1.
         11    1    1    2    0    0 -0.13267741233E+02 -0.72096058453E+02 -0.29311739854E+03  0.30214513719E+03  0.00000000000E+00 0.  1.
        -15    1    3    3    0    0  0.26088491472E+02 -0.38998972535E+01 -0.64319559049E+01  0.27209306710E+02  0.17770000000E+01 0. -1.
         15    1    3    3    0    0  0.49710359856E+02  0.14787859932E+03 -0.14680935101E+03  0.21423198474E+03  0.17770000000E+01 0.  1.
</event>
<event>
 7    1  0.4954109E-006  0.5142642E+03  0.7546771E-02  0.9368446E-01
        -11   -1    0    0    0    0  0.00000000000E+00  0.00000000000E+00  0.50000000000E+03  0.50000000000E+03  0.00000000000E+00 0. -1.
         11   -1    0    0    0    0 -0.00000000000E+00 -0.00000000000E+00 -0.50000000000E+03  0.50000000000E+03  0.00000000000E+00 0. -1.
         23    2    1    2    0    0  0.50903895252E+02 -0.70970157289E+02  0.37434769959E+03  0.39526432132E+03  0.92031047680E+02 0.  0.
        -11    1    1    2    0    0  0.36298805756E+02  0.47449272383E+02  0.10291713087E+03  0.11899988477E+03  0.00000000000E+00 0. -1.
         11    1    1    2    0    0 -0.87202701007E+02  0.23520884906E+02 -0.47726483046E+03  0.48573579391E+03  0.00000000000E+00 0. -1.
        -15    1    3    3    0    0  0.19105118278E+02  0.72462779718E+01  0.13239427452E+02  0.24412174363E+02  0.17770000000E+01 0.  1.
         15    1    3    3    0    0  0.31798776974E+02 -0.78216435261E+02  0.36110827214E+03  0.37085214695E+03  0.17770000000E+01 0. -1.
</event>
<event>
 7    1  0.4954109E-006  0.5117291E+03  0.7546771E-02  0.9373941E-01
        -11   -1    0    0    0    0  0.00000000000E+00  0.00000000000E+00  0.50000000000E+03  0.50000000000E+03  0.00000000000E+00 0.  1.
         11   -1    0    0    0    0 -0.00000000000E+00 -0.00000000000E+00 -0.50000000000E+03  0.50000000000E+03  0.00000000000E+00 0. -1.
         23    2    1    2    0    0 -0.25687561624E+02 -0.39540426888E+02  0.34789842447E+03  0.36413787456E+03  0.96642546322E+02 0.  0.
        -11    1    1    2    0    0 -0.82741653223E+01 -0.78602043558E+02  0.12464517483E+03  0.14759120120E+03  0.00000000000E+00 0.  1.
         11    1    1    2    0    0  0.33961726947E+02  0.11814247045E+03 -0.47254359930E+03  0.48827092424E+03  0.00000000000E+00 0. -1.
        -15    1    3    3    0    0 -0.46428440231E+02 -0.61606828848E+02  0.25371442458E+03  0.26518892962E+03  0.17770000000E+01 0.  1.
         15    1    3    3    0    0  0.20740878607E+02  0.22066401960E+02  0.94183999885E+02  0.98948944937E+02  0.17770000000E+01 0. -1.
</event>
<event>
 7    1  0.4954109E-006  0.4585685E+03  0.7546771E-02  0.9497608E-01
        -11   -1    0    0    0    0  0.00000000000E+00  0.00000000000E+00  0.50000000000E+03  0.50000000000E+03  0.00000000000E+00 0. -1.
         11   -1    0    0    0    0 -0.00000000000E+00 -0.00000000000E+00 -0.50000000000E+03  0.50000000000E+03  0.00000000000E+00 0. -1.
         23    2    1    2    0    0  0.82107359799E+02 -0.18369357745E+02  0.45387832182E+03  0.47228893838E+03  0.99861196011E+02 0.  0.
        -11    1    1    2    0    0 -0.37076018703E+02  0.78362297186E+02 -0.22097582705E+02  0.89462751716E+02  0.00000000000E+00 0. -1.
         11    1    1    2    0    0 -0.45031341096E+02 -0.59992939441E+02 -0.43178073911E+03  0.43824830990E+03  0.00000000000E+00 0. -1.
        -15    1    3    3    0    0  0.49029141779E+01  0.35839623723E+02  0.12309278580E+03  0.12831020553E+03  0.17770000000E+01 0.  1.
         15    1    3    3    0    0  0.77204445621E+02 -0.54208981468E+02  0.33078553601E+03  0.34397873286E+03  0.17770000000E+01 0. -1.
</event>
<event>
 7    1  0.4954109E-006  0.5271796E+03  0.7546771E-02  0.9340966E-01
        -11   -1    0    0    0    0  0.00000000000E+00  0.00000000000E+00  0.50000000000E+03  0.50000000000E+03  0.00000000000E+00 0.  1.
         11   -1    0    0    0    0 -0.00000000000E+00 -0.00000000000E+00 -0.50000000000E+03  0.50000000000E+03  0.00000000000E+00 0.  1.
         23    2    1    2    0    0  0.60167874442E+02 -0.32444890917E+02  0.93904995560E+02  0.14746568710E+03  0.90857782374E+02 0.  0.
        -11    1    1    2    0    0 -0.67128096762E+02 -0.89899595593E+02  0.36275958442E+03  0.37971388538E+03  0.00000000000E+00 0.  1.
         11    1    1    2    0    0  0.69602223192E+01  0.12234448651E+03 -0.45666457998E+03  0.47282042752E+03  0.00000000000E+00 0.  1.
        -15    1    3    3    0    0  0.78276301553E+02 -0.38562783081E+02  0.93997497500E+02  0.12826907222E+03  0.17770000000E+01 0. -1.
         15    1    3    3    0    0 -0.18108427111E+02  0.61178921637E+01 -0.92501939729E-01  0.19196614873E+02  0.17770000000E+01 0.  1.
</event>
<event>
 7    1  0.4954109E-006  0.5084595E+03  0.7546771E-02  0.9381077E-01
        -11   -1    0    0    0    0  0.00000000000E+00  0.00000000000E+00  0.50000000000E+03  0.50000000000E+03  0.00000000000E+00 0. -1.
         11   -1    0    0    0    0 -0.00000000000E+00 -0.00000000000E+00 -0.50000000000E+03  0.50000000000E+03  0.00000000000E+00 0.  1.
         23    2    1    2    0    0 -0.54577170616E+02 -0.66216856446E+02 -0.25582469944E+03  0.28530189704E+03  0.92669067026E+02 0.  0.
        -11    1    1    2    0    0  0.10464490805E+03  0.87330427511E+02  0.47226576150E+03  0.49154054750E+03  0.00000000000E+00 0. -1.
         11    1    1    2    0    0 -0.50067737429E+02 -0.21113571065E+02 -0.21644106206E+03  0.22315755546E+03  0.00000000000E+00 0.  1.
        -15    1    3    3    0    0 -0.58662386030E+02 -0.87053266881E+02 -0.21237989981E+03  0.23691333095E+03  0.17770000000E+01 0. -1.
         15    1    3    3    0    0  0.40852154136E+01  0.20836410435E+02 -0.43444799621E+02  0.48388566087E+02  0.17770000000E+01 0.  1.
</event>
<event>
 7    1  0.4954109E-006  0.5067919E+03  0.7546771E-02  0.9384739E-01
        -11   -1    0    0    0    0  0.00000000000E+00  0.00000000000E+00  0.50000000000E+03  0.50000000000E+03  0.00000000000E+00 0.  1.
         11   -1    0    0    0    0 -0.00000000000E+00 -0.00000000000E+00 -0.50000000000E+03  0.50000000000E+03  0.00000000000E+00 0. -1.
         23    2    1    2    0    0 -0.10959906670E+03 -0.10080943074E+03 -0.25894724399E+03  0.31055411652E+03  0.84945202159E+02 0.  0.
        -11    1    1    2    0    0  0.19143635978E+03  0.19374532372E+03  0.41118011964E+03  0.49320809107E+03  0.00000000000E+00 0.  1.
         11    1    1    2    0    0 -0.81837293085E+02 -0.92935892982E+02 -0.15223287564E+03  0.19623779241E+03  0.00000000000E+00 0. -1.
        -15    1    3    3    0    0 -0.94519770402E+02 -0.54102295706E+02 -0.22751330410E+03  0.25224295167E+03  0.17770000000E+01 0. -1.
         15    1    3    3    0    0 -0.15079296297E+02 -0.46707135032E+02 -0.31433939893E+02  0.58311164847E+02  0.17770000000E+01 0.  1.
</event>
<event>
 7    1  0.4954109E-006  0.4743451E+03  0.7546771E-02  0.9459118E-01
        -11   -1    0    0    0    0  0.00000000000E+00  0.00000000000E+00  0.50000000000E+03  0.50000000000E+03  0.00000000000E+00 0.  1.
         11   -1    0    0    0    0 -0.00000000000E+00 -0.00000000000E+00 -0.50000000000E+03  0.50000000000E+03  0.00000000000E+00 0. -1.
         23    2    1    2    0    0  0.10243506419E+03 -0.51392362762E+02 -0.42524347310E+03  0.44974022359E+03  0.91105103955E+02 0.  0.
        -11    1    1    2    0    0 -0.12551000867E+03  0.30687521175E+02  0.47465551091E+03  0.49192716968E+03  0.00000000000E+00 0.  1.
         11    1    1    2    0    0  0.23074944479E+02  0.20704841587E+02 -0.49412037807E+02  0.58332606732E+02  0.00000000000E+00 0. -1.
        -15    1    3    3    0    0  0.84318318329E+02  0.19122290284E+01 -0.19065881548E+03  0.20848783436E+03  0.17770000000E+01 0.  1.
         15    1    3    3    0    0  0.18116745863E+02 -0.53304591791E+02 -0.23458465763E+03  0.24125238923E+03  0.17770000000E+01 0. -1.
</event>
<event>
 7    1  0.4954109E-006  0.4191523E+03  0.7546771E-02  0.9601445E-01
        -11   -1    0    0    0    0  0.00000000000E+00  0.00000000000E+00  0.50000000000E+03  0.50000000000E+03  0.00000000000E+00 0. -1.
         11   -1    0    0    0    0 -0.00000000000E+00 -0.00000000000E+00 -0.50000000000E+03  0.50000000000E+03  0.00000000000E+00 0.  1.
         23    2    1    2    0    0 -0.35277375908E+01 -0.10805956231E+03  0.57932499943E+02  0.15276919755E+03  0.91065576556E+02 0.  0.
        -11    1    1    2    0    0 -0.74007116966E+02  0.98897645782E+02  0.38145744742E+03  0.40095832937E+03  0.00000000000E+00 0. -1.
         11    1    1    2    0    0  0.77534854557E+02  0.91619165242E+01 -0.43938994736E+03  0.44627247308E+03  0.00000000000E+00 0.  1.
        -15    1    3    3    0    0  0.25178179706E+02 -0.10944122366E+03  0.49716489948E+02  0.12282593078E+03  0.17770000000E+01 0.  1.
         15    1    3    3    0    0 -0.28705917297E+02  0.13816613556E+01  0.82160099950E+01  0.29943266776E+02  0.17770000000E+01 0. -1.
</event>
<event>
 7    1  0.4954109E-006  0.3662557E+03  0.7546771E-02  0.9761720E-01
        -11   -1    0    0    0    0  0.00000000000E+00  0.00000000000E+00  0.50000000000E+03  0.50000000000E+03  0.00000000000E+00 0.  1.
         11   -1    0    0    0    0 -0.00000000000E+00 -0.00000000000E+00 -0.50000000000E+03  0.50000000000E+03  0.00000000000E+00 0.  1.
         23    2    1    2    0    0  0.17047026674E+03 -0.21235149014E+01  0.13405772701E+03  0.23605687760E+03  0.93202758169E+02 0.  0.
        -11    1    1    2    0    0 -0.25080409052E+03 -0.31935964369E+01  0.26028204192E+03  0.36146871542E+03  0.00000000000E+00 0.  1.
         11    1    1    2    0    0  0.80333823770E+02  0.53171113382E+01 -0.39433976893E+03  0.40247440699E+03  0.00000000000E+00 0.  1.
        -15    1    3    3    0    0  0.78857352998E+02  0.34657456899E+02  0.99099167736E+02  0.13131421940E+03  0.17770000000E+01 0.  1.
         15    1    3    3    0    0  0.91612913747E+02 -0.36780971801E+02  0.34958559277E+02  0.10474265820E+03  0.17770000000E+01 0. -1.
</event>
<event>
 7    1  0.4954109E-006  0.5217903E+03  0.7546771E-02  0.9352330E-01
        -11   -1    0    0    0    0  0.00000000000E+00  0.00000000000E+00  0.50000000000E+03  0.50000000000E+03  0.00000000000E+00 0.  1.
         11   -1    0    0    0    0 -0.00000000000E+00 -0.00000000000E+00 -0.50000000000E+03  0.50000000000E+03  0.00000000000E+00 0. -1.
         23    2    1    2    0    0 -0.57765942658E+02 -0.89717480850E+02  0.25018010316E+03  0.28565970164E+03  0.87322681017E+02 0.  0.
        -11    1    1    2    0    0 -0.57444019204E+02  0.81937176557E+02  0.21387879302E+03  0.23613058749E+03  0.00000000000E+00 0.  1.
         11    1    1    2    0    0  0.11520996186E+03  0.77803042930E+01 -0.46405889618E+03  0.47820971087E+03  0.00000000000E+00 0. -1.
        -15    1    3    3    0    0 -0.74160841777E+02 -0.86733488266E+02  0.17715152954E+03  0.21073288919E+03  0.17770000000E+01 0.  1.
         15    1    3    3    0    0  0.16394899119E+02 -0.29839925833E+01  0.73028573622E+02  0.74926812445E+02  0.17770000000E+01 0. -1.
</event>
<event>
 7    1  0.4954109E-006  0.4741189E+03  0.7546771E-02  0.9459659E-01
        -11   -1    0    0    0    0  0.00000000000E+00  0.00000000000E+00  0.50000000000E+03  0.50000000000E+03  0.00000000000E+00 0.  1.
         11   -1    0    0    0    0 -0.00000000000E+00 -0.00000000000E+00 -0.50000000000E+03  0.50000000000E+03  0.00000000000E+00 0. -1.
         23    2    1    2    0    0 -0.22054811781E+02 -0.20922814599E+03 -0.38524602566E+03  0.44859608640E+03  0.92526302469E+02 0.  0.
        -11    1    1    2    0    0  0.44521119008E+02  0.21836174763E+03  0.43905891310E+03  0.49237862670E+03  0.00000000000E+00 0.  1.
         11    1    1    2    0    0 -0.22466307227E+02 -0.91336016315E+01 -0.53812887435E+02  0.59025286897E+02  0.00000000000E+00 0. -1.
        -15    1    3    3    0    0  0.38270249985E+01 -0.20212649418E+03 -0.35087079129E+03  0.40494843583E+03  0.17770000000E+01 0. -1.
         15    1    3    3    0    0 -0.25881836780E+02 -0.71016518157E+01 -0.34375234366E+02  0.43647650571E+02  0.17770000000E+01 0.  1.
</event>
<event>
 7    1  0.4954109E-006  0.4432493E+03  0.7546771E-02  0.9536594E-01
        -11   -1    0    0    0    0  0.00000000000E+00  0.00000000000E+00  0.50000000000E+03  0.50000000000E+03  0.00000000000E+00 0.  1.
         11   -1    0    0    0    0 -0.00000000000E+00 -0.00000000000E+00 -0.50000000000E+03  0.50000000000E+03  0.00000000000E+00 0. -1.
         23    2    1    2    0    0 -0.75643267251E+02  0.96406733716E+02  0.38520069151E+03  0.41409394287E+03  0.89878020638E+02 0.  0.
        -11    1    1    2    0    0  0.88395167867E+02  0.10000156341E+02  0.73163196196E+02  0.11518056306E+03  0.00000000000E+00 0.  1.
         11    1    1    2    0    0 -0.12751900615E+02 -0.10640689006E+03 -0.45836388770E+03  0.47072549407E+03  0.00000000000E+00 0. -1.
        -15    1    3    3    0    0 -0.43333738688E+02  0.10704733964E+03  0.32515695489E+03  0.34506107992E+03  0.17770000000E+01 0.  1.
         15    1    3    3    0    0 -0.32309528563E+02 -0.10640605927E+02  0.60043736616E+02  0.69032862944E+02  0.17770000000E+01 0. -1.
</event>
<event>
 7    1  0.4954109E-006  0.4347760E+03  0.7546771E-02  0.9558886E-01
        -11   -1    0    0    0    0  0.00000000000E+00  0.00000000000E+00  0.50000000000E+03  0.50000000000E+03  0.00000000000E+00 0. -1.
         11   -1    0    0    0    0 -0.00000000000E+00 -0.00000000000E+00 -0.50000000000E+03  0.50000000000E+03  0.00000000000E+00 0.  1.
         23    2    1    2    0    0  0.70465152138E+02 -0.12538788124E+02  0.36707246175E+02  0.12673562496E+03  0.97938439028E+02 0.  0.
        -11    1    1    2    0    0 -0.14275471731E+03 -0.47872355799E+02  0.39953545710E+03  0.42696516632E+03  0.00000000000E+00 0. -1.
         11    1    1    2    0    0  0.72289565174E+02  0.60411143923E+02 -0.43624270328E+03  0.44629920872E+03  0.00000000000E+00 0.  1.
        -15    1    3    3    0    0  0.20795679798E+02  0.17787087616E+02  0.58467913882E+02  0.64579373386E+02  0.17770000000E+01 0. -1.
         15    1    3    3    0    0  0.49669472340E+02 -0.30325875740E+02 -0.21760667708E+02  0.62156251576E+02  0.17770000000E+01 0.  1.
</event>
<event>
 7    1  0.4954109E-006  0.5200584E+03  0.7546771E-02  0.9356013E-01
        -11   -1    0    0    0    0  0.00000000000E+00  0.00000000000E+00  0.50000000000E+03  0.50000000000E+03  0.00000000000E+00 0.  1.
         11   -1    0    0    0    0 -0.00000000000E+00 -0.00000000000E+00 -0.50000000000E+03  0.50000000000E+03  0.00000000000E+00 0. -1.
         23    2    1    2    0    0 -0.43440559499E+02 -0.10374251509E+03 -0.76405294436E+02  0.16443177607E+03  0.92468634228E+02 0.  0.
        -11    1    1    2    0    0  0.10615330766E+03  0.25734898600E+03  0.39095645497E+03  0.47994163708E+03  0.00000000000E+00 0.  1.
         11    1    1    2    0    0 -0.62712748161E+02 -0.15360647091E+03 -0.31455116053E+03  0.35562658686E+03  0.00000000000E+00 0. -1.
        -15    1    3    3    0    0 -0.91637774566E+01 -0.10543474037E+03 -0.36954411729E+02  0.11211264678E+03  0.17770000000E+01 0. -1.
         15    1    3    3    0    0 -0.34276782043E+02  0.16922252776E+01 -0.39450882708E+02  0.52319129284E+02  0.17770000000E+01 0.  1.
</event>
<event>
 7    1  0.4954109E-006  0.5123139E+03  0.7546771E-02  0.9372670E-01
        -11   -1    0    0    0    0  0.00000000000E+00  0.00000000000E+00  0.50000000000E+03  0.50000000000E+03  0.00000000000E+00 0.  1.
         11   -1    0    0    0    0 -0.00000000000E+00 -0.00000000000E+00 -0.50000000000E+03  0.50000000000E+03  0.00000000000E+00 0. -1.
         23    2    1    2    0    0  0.48891985018E+02 -0.13424452850E+03  0.34213026139E+03  0.38554018131E+03  0.10571705641E+03 0.  0.
        -11    1    1    2    0    0  0.66698555917E+02 -0.19433055732E+02  0.10604354695E+03  0.12677371520E+03  0.00000000000E+00 0.  1.
         11    1    1    2    0    0 -0.11559054094E+03  0.15367758423E+03 -0.44817380834E+03  0.48768610348E+03  0.00000000000E+00 0. -1.
        -15    1    3    3    0    0  0.92720722548E+01 -0.11244995506E+02 -0.46983866072E+01  0.15416024570E+02  0.17770000000E+01 0.  1.
         15    1    3    3    0    0  0.39619912763E+02 -0.12299953300E+03  0.34682864800E+03  0.37012415674E+03  0.17770000000E+01 0. -1.
</event>
<event>
 7    1  0.4954109E-006  0.5175017E+03  0.7546771E-02  0.9361478E-01
        -11   -1    0    0    0    0  0.00000000000E+00  0.00000000000E+00  0.50000000000E+03  0.50000000000E+03  0.00000000000E+00 0.  1.
         11   -1    0    0    0    0 -0.00000000000E+00 -0.00000000000E+00 -0.50000000000E+03  0.50000000000E+03  0.00000000000E+00 0. -1.
         23    2    1    2    0    0 -0.34603744931E+02 -0.68144635205E+01  0.12020219918E+03  0.15329072590E+03  0.88349430577E+02 0.  0.
        -11    1    1    2    0    0 -0.43933480851E+02  0.10863000154E+03  0.34484632698E+03  0.36421095152E+03  0.00000000000E+00 0.  1.
         11    1    1    2    0    0  0.78537225782E+02 -0.10181553801E+03 -0.46504852616E+03  0.48249832258E+03  0.00000000000E+00 0. -1.
        -15    1    3    3    0    0 -0.33903310455E+02  0.25389510949E+02  0.17891614602E+02  0.46014446950E+02  0.17770000000E+01 0. -1.
         15    1    3    3    0    0 -0.70043447635E+00 -0.32203974470E+02  0.10231058457E+03  0.10727627895E+03  0.17770000000E+01 0.  1.
</event>
<event>
 7    1  0.4954109E-006  0.5359305E+03  0.7546771E-02  0.9322817E-01
        -11   -1    0    0    0    0  0.00000000000E+00  0.00000000000E+00  0.50000000000E+03  0.50000000000E+03  0.00000000000E+00 0.  1.
         11   -1    0    0    0    0 -0.00000000000E+00 -0.00000000000E+00 -0.50000000000E+03  0.50000000000E+03  0.00000000000E+00 0. -1.
         23    2    1    2    0    0  0.35759821115E+02  0.98025077055E+02  0.26859330805E+03  0.30315195896E+03  0.94186328901E+02 0.  0.
        -11    1    1    2    0    0  0.42084001646E+02 -0.13107833004E+03  0.18770521477E+03  0.23277852017E+03  0.00000000000E+00 0.  1.
         11    1    1    2    0    0 -0.77843822761E+02  0.33053252986E+02 -0.45629852282E+03  0.46406952087E+03  0.00000000000E+00 0. -1.
        -15    1    3    3    0    0  0.54356976657E+02  0.10671518240E+03  0.23445768658E+03  0.26328003265E+03  0.17770000000E+01 0.  1.
         15    1    3    3    0    0 -0.18597155542E+02 -0.86901053486E+01  0.34135621474E+02  0.39871926309E+02  0.17770000000E+01 0. -1.
</event>
<event>
 7    1  0.4954109E-006  0.5388504E+03  0.7546771E-02  0.9316843E-01
        -11   -1    0    0    0    0  0.00000000000E+00  0.00000000000E+00  0.50000000000E+03  0.50000000000E+03  0.00000000000E+00 0. -1.
         11   -1    0    0    0    0 -0.00000000000E+00 -0.00000000000E+00 -0.50000000000E+03  0.50000000000E+03  0.00000000000E+00 0.  1.
         23    2    1    2    0    0 -0.16414755933E+03 -0.31742499234E+02  0.22350009915E+03  0.29354089982E+03  0.90895313704E+02 0.  0.
        -11    1    1    2    0    0  0.78047018840E+02  0.37603766815E+02  0.22950243801E+03  0.24530949733E+03  0.00000000000E+00 0. -1.
         11    1    1    2    0    0  0.86100540487E+02 -0.58612675808E+01 -0.45300253717E+03  0.46114960285E+03  0.00000000000E+00 0.  1.
        -15    1    3    3    0    0 -0.54614582672E+02  0.52806760419E+00  0.16422928650E+02  0.57060510078E+02  0.17770000000E+01 0.  1.
         15    1    3    3    0    0 -0.10953297665E+03 -0.32270566838E+02  0.20707717050E+03  0.23648038974E+03  0.17770000000E+01 0. -1.
</event>
<event>
 7    1  0.4954109E-006  0.4924426E+03  0.7546771E-02  0.9416881E-01
        -11   -1    0    0    0    0  0.00000000000E+00  0.00000000000E+00  0.50000000000E+03  0.50000000000E+03  0.00000000000E+00 0.  1.
         11   -1    0    0    0    0 -0.00000000000E+00 -0.00000000000E+00 -0.50000000000E+03  0.50000000000E+03  0.00000000000E+00 0.  1.
         23    2    1    2    0    0  0.60517874612E+02  0.16574522825E+02  0.47941966277E+03  0.49234615124E+03  0.92867602725E+02 0.  0.
        -11    1    1    2    0    0  0.17986085071E+02  0.15103883979E+02 -0.28907325423E+01  0.23663957870E+02  0.00000000000E+00 0.  1.
         11    1    1    2    0    0 -0.78503959683E+02 -0.31678406804E+02 -0.47652893023E+03  0.48398989089E+03  0.00000000000E+00 0.  1.
        -15    1    3    3    0    0  0.84213247721E+02  0.23276261635E+02  0.37324892719E+03  0.38334263372E+03  0.17770000000E+01 0.  1.
         15    1    3    3    0    0 -0.23695373109E+02 -0.67017388097E+01  0.10617073558E+03  0.10900351752E+03  0.17770000000E+01 0. -1.
</event>
<event>
 7    1  0.4954109E-006  0.5304217E+03  0.7546771E-02  0.9334199E-01
        -11   -1    0    0    0    0  0.00000000000E+00  0.00000000000E+00  0.50000000000E+03  0.50000000000E+03  0.00000000000E+00 0. -1.
         11   -1    0    0    0    0 -0.00000000000E+00 -0.00000000000E+00 -0.50000000000E+03  0.50000000000E+03  0.00000000000E+00 0.  1.
         23    2    1    2    0    0 -0.24618177390E+02 -0.66821710182E+02 -0.10295933057E+03  0.15861097410E+03  0.97394156617E+02 0.  0.
        -11    1    1    2    0    0  0.16581390160E+03 -0.51734757267E+01  0.43929800111E+03  0.46957826674E+03  0.00000000000E+00 0. -1.
         11    1    1    2    0    0 -0.14119572421E+03  0.71995185908E+02 -0.33633867054E+03  0.37181075916E+03  0.00000000000E+00 0.  1.
        -15    1    3    3    0    0 -0.37673348212E+02 -0.68549286656E+02 -0.28959014136E+02  0.83427022573E+02  0.17770000000E+01 0. -1.
         15    1    3    3    0    0  0.13055170822E+02  0.17275764749E+01 -0.74000316433E+02  0.75183951525E+02  0.17770000000E+01 0.  1.
</event>
<event>
 7    1  0.4954109E-006  0.4389502E+03  0.7546771E-02  0.9547837E-01
        -11   -1    0    0    0    0  0.00000000000E+00  0.00000000000E+00  0.50000000000E+03  0.50000000000E+03  0.00000000000E+00 0.  1.
         11   -1    0    0    0    0 -0.00000000000E+00 -0.00000000000E+00 -0.50000000000E+03  0.50000000000E+03  0.00000000000E+00 0. -1.
         23    2    1    2    0    0 -0.30526768680E+03  0.96381774158E+02  0.27188564320E+03  0.42986968529E+03  0.91587861407E+02 0.  0.
        -11    1    1    2    0    0  0.58888801135E+02 -0.46122432132E+02  0.97742620010E+02  0.12308041847E+03  0.00000000000E+00 0.  1.
         11    1    1    2    0    0  0.24637888567E+03 -0.50259342026E+02 -0.36962826321E+03  0.44704989624E+03  0.00000000000E+00 0. -1.
        -15    1    3    3    0    0 -0.30105447617E+03  0.82491637564E+02  0.27367353601E+03  0.41513736273E+03  0.17770000000E+01 0.  1.
         15    1    3    3    0    0 -0.42132106318E+01  0.13890136594E+02 -0.17878928092E+01  0.14732322563E+02  0.17770000000E+01 0. -1.
</event>
<event>
 7    1  0.4954109E-006  0.5299641E+03  0.7546771E-02  0.9335151E-01
        -11   -1    0    0    0    0  0.00000000000E+00  0.00000000000E+00  0.50000000000E+03  0.50000000000E+03  0.00000000000E+00 0. -1.
         11   -1    0    0    0    0 -0.00000000000E+00 -0.00000000000E+00 -0.50000000000E+03  0.50000000000E+03  0.00000000000E+00 0.  1.
         23    2    1    2    0    0  0.28452364727E+02 -0.64120281487E+01 -0.41803315682E+02  0.10715688753E+03  0.94257255314E+02 0.  0.
        -11    1    1    2    0    0 -0.10894056995E+03  0.10293018513E+03  0.44550097188E+03  0.47003594197E+03  0.00000000000E+00 0. -1.
         11    1    1    2    0    0  0.80488205228E+02 -0.96518156984E+02 -0.40369765620E+03  0.42280717050E+03  0.00000000000E+00 0.  1.
        -15    1    3    3    0    0  0.62000201781E+02  0.70867370361E+01 -0.27768647035E+02  0.68326439610E+02  0.17770000000E+01 0.  1.
         15    1    3    3    0    0 -0.33547837054E+02 -0.13498765185E+02 -0.14034668646E+02  0.38830447918E+02  0.17770000000E+01 0. -1.
</event>
<event>
 7    1  0.4954109E-006  0.5280964E+03  0.7546771E-02  0.9339047E-01
        -11   -1    0    0    0    0  0.00000000000E+00  0.00000000000E+00  0.50000000000E+03  0.50000000000E+03  0.00000000000E+00 0. -1.
         11   -1    0    0    0    0 -0.00000000000E+00 -0.00000000000E+00 -0.50000000000E+03  0.50000000000E+03  0.00000000000E+00 0.  1.
         23    2    1    2    0    0  0.14066343401E+03 -0.48132463310E+02  0.25053307887E+03  0.30513561852E+03  0.90763353778E+02 0.  0.
        -11    1    1    2    0    0 -0.53031155297E+02 -0.11494431784E+03  0.18354017260E+03  0.22296074675E+03  0.00000000000E+00 0. -1.
         11    1    1    2    0    0 -0.87632278712E+02  0.16307678115E+03 -0.43407325147E+03  0.47190363472E+03  0.00000000000E+00 0.  1.
        -15    1    3    3    0    0  0.36838166076E+02 -0.10468585672E+01  0.89013466966E+01  0.37954421280E+02  0.17770000000E+01 0.  1.
         15    1    3    3    0    0  0.10382526793E+03 -0.47085604742E+02  0.24163173218E+03  0.26718119724E+03  0.17770000000E+01 0. -1.
</event>
<event>
 7    1  0.4954109E-006  0.5117228E+03  0.7546771E-02  0.9373955E-01
        -11   -1    0    0    0    0  0.00000000000E+00  0.00000000000E+00  0.50000000000E+03  0.50000000000E+03  0.00000000000E+00 0.  1.
         11   -1    0    0    0    0 -0.00000000000E+00 -0.00000000000E+00 -0.50000000000E+03  0.50000000000E+03  0.00000000000E+00 0. -1.
         23    2    1    2    0    0  0.67508455209E+02  0.13208527650E+03  0.16012966469E+03  0.23648918237E+03  0.91003912398E+02 0.  0.
        -11    1    1    2    0    0  0.11478737086E+03  0.20770715147E+03  0.13940994692E+03  0.27523360002E+03  0.00000000000E+00 0.  1.
         11    1    1    2    0    0 -0.18229582607E+03 -0.33979242797E+03 -0.29953961161E+03  0.48827721761E+03  0.00000000000E+00 0. -1.
        -15    1    3    3    0    0 -0.14810268265E+02  0.67230048521E+02  0.56227055890E+02  0.88903672665E+02  0.17770000000E+01 0.  1.
         15    1    3    3    0    0  0.82318723475E+02  0.64855227979E+02  0.10390260880E+03  0.14758550971E+03  0.17770000000E+01 0. -1.
</event>
<event>
 7    1  0.4954109E-006  0.5204965E+03  0.7546771E-02  0.9355080E-01
        -11   -1    0    0    0    0  0.00000000000E+00  0.00000000000E+00  0.50000000000E+03  0.50000000000E+03  0.00000000000E+00 0. -1.
         11   -1    0    0    0    0 -0.00000000000E+00 -0.00000000000E+00 -0.50000000000E+03  0.50000000000E+03  0.00000000000E+00 0.  1.
         23    2    1    2    0    0  0.60883235584E+02  0.27285948388E+02 -0.22638862139E+03  0.25286977621E+03  0.90774580524E+02 0.  0.
        -11    1    1    2    0    0 -0.98187437112E+02  0.10080933731E+03  0.45838878513E+03  0.47950346571E+03  0.00000000000E+00 0. -1.
         11    1    1    2    0    0  0.37304201529E+02 -0.12809528570E+03 -0.23200016373E+03  0.26762675808E+03  0.00000000000E+00 0.  1.
        -15    1    3    3    0    0  0.42765132560E+02  0.59030171173E+02 -0.12057881342E+03  0.14091070097E+03  0.17770000000E+01 0.  1.
         15    1    3    3    0    0  0.18118103024E+02 -0.31744222785E+02 -0.10580980797E+03  0.11195907524E+03  0.17770000000E+01 0. -1.
</event>
<event>
 7    1  0.4954109E-006  0.3740106E+03  0.7546771E-02  0.9736470E-01
        -11   -1    0    0    0    0  0.00000000000E+00  0.00000000000E+00  0.50000000000E+03  0.50000000000E+03  0.00000000000E+00 0.  1.
         11   -1    0    0    0    0 -0.00000000000E+00 -0.00000000000E+00 -0.50000000000E+03  0.50000000000E+03  0.00000000000E+00 0. -1.
         23    2    1    2    0    0  0.13041999567E+03 -0.70146880418E+02  0.14116727247E+03  0.22450403736E+03  0.92433240076E+02 0.  0.
        -11    1    1    2    0    0  0.20822767630E+03  0.20263624260E+03  0.13352492109E+03  0.31976415770E+03  0.00000000000E+00 0.  1.
         11    1    1    2    0    0 -0.33864767198E+03 -0.13248936218E+03 -0.27469219357E+03  0.45573180494E+03  0.00000000000E+00 0. -1.
        -15    1    3    3    0    0  0.13672730245E+03 -0.82945469828E+02  0.13272530555E+03  0.20783038917E+03  0.17770000000E+01 0. -1.
         15    1    3    3    0    0 -0.63073067737E+01  0.12798589409E+02  0.84419669269E+01  0.16673648197E+02  0.17770000000E+01 0.  1.
</event>
<event>
 7    1  0.6561749E-006  0.5093231E+03  0.7546771E-02  0.9379187E-01
        -11   -1    0    0    0    0  0.00000000000E+00  0.00000000000E+00  0.50000000000E+03  0.50000000000E+03  0.00000000000E+00 0.  1.
         11   -1    0    0    0    0 -0.00000000000E+00 -0.00000000000E+00 -0.50000000000E+03  0.50000000000E+03  0.00000000000E+00 0. -1.
         23    2    1    2    0    0  0.53230804844E+02 -0.22114886534E+02 -0.25477624440E+03  0.27671316141E+03  0.91305269264E+02 0.  0.
        -11    1    1    2    0    0 -0.12400967688E+03 -0.47303347373E+01  0.47472414983E+03  0.49067687377E+03  0.00000000000E+00 0.  1.
         11    1    1    2    0    0  0.70778872034E+02  0.26845221271E+02 -0.21994790542E+03  0.23260996482E+03  0.00000000000E+00 0. -1.
        -15    1    3    3    0    0  0.48068023204E+02 -0.47712934058E+02 -0.10706548725E+03  0.12670136235E+03  0.17770000000E+01 0.  1.
         15    1    3    3    0    0  0.51627816400E+01  0.25598047524E+02 -0.14771075715E+03  0.15001179906E+03  0.17770000000E+01 0. -1.
</event>
<event>
 7    1  0.4954109E-006  0.5411651E+03  0.7546771E-02  0.9312136E-01
        -11   -1    0    0    0    0  0.00000000000E+00  0.00000000000E+00  0.50000000000E+03  0.50000000000E+03  0.00000000000E+00 0. -1.
         11   -1    0    0    0    0 -0.00000000000E+00 -0.00000000000E+00 -0.50000000000E+03  0.50000000000E+03  0.00000000000E+00 0. -1.
         23    2    1    2    0    0  0.81772302379E+02  0.59123964264E+02  0.17956877630E+03  0.22530339960E+03  0.91292518122E+02 0.  0.
        -11    1    1    2    0    0 -0.83731220606E+02 -0.13518951195E+03  0.27291293135E+03  0.31586166203E+03  0.00000000000E+00 0. -1.
         11    1    1    2    0    0  0.19589182266E+01  0.76065547685E+02 -0.45248170765E+03  0.45883493836E+03  0.00000000000E+00 0. -1.
        -15    1    3    3    0    0  0.12524279225E+02  0.26833915662E+02 -0.51762891869E+00  0.29670562323E+02  0.17770000000E+01 0.  1.
         15    1    3    3    0    0  0.69248023154E+02  0.32290048602E+02  0.18008640522E+03  0.19563283728E+03  0.17770000000E+01 0. -1.
</event>
<event>
 7    1  0.4954109E-006  0.4449683E+03  0.7546771E-02  0.9532136E-01
        -11   -1    0    0    0    0  0.00000000000E+00  0.00000000000E+00  0.50000000000E+03  0.50000000000E+03  0.00000000000E+00 0.  1.
         11   -1    0    0    0    0 -0.00000000000E+00 -0.00000000000E+00 -0.50000000000E+03  0.50000000000E+03  0.00000000000E+00 0. -1.
         23    2    1    2    0    0  0.13016684800E+03  0.32065033189E+02  0.40224316190E+03  0.43385816369E+03  0.91987880881E+02 0.  0.
        -11    1    1    2    0    0 -0.50385732798E+02  0.97412482592E+02  0.25130773425E+02  0.11251430846E+03  0.00000000000E+00 0.  1.
         11    1    1    2    0    0 -0.79781115206E+02 -0.12947751578E+03 -0.42737393533E+03  0.45362752786E+03  0.00000000000E+00 0. -1.
        -15    1    3    3    0    0  0.10833298382E+03  0.62144145146E+02  0.29543289439E+03  0.32075174665E+03  0.17770000000E+01 0.  1.
         15    1    3    3    0    0  0.21833864185E+02 -0.30079111957E+02  0.10681026751E+03  0.11310641704E+03  0.17770000000E+01 0. -1.
</event>
<event>
 7    1  0.4954109E-006  0.4866461E+03  0.7546771E-02  0.9430196E-01
        -11   -1    0    0    0    0  0.00000000000E+00  0.00000000000E+00  0.50000000000E+03  0.50000000000E+03  0.00000000000E+00 0. -1.
         11   -1    0    0    0    0 -0.00000000000E+00 -0.00000000000E+00 -0.50000000000E+03  0.50000000000E+03  0.00000000000E+00 0.  1.
         23    2    1    2    0    0 -0.18026483201E+03 -0.76204221506E+01  0.44490094985E+03  0.48702577199E+03  0.81876534582E+02 0.  0.
        -11    1    1    2    0    0  0.29038690384E+02 -0.12194496031E+02  0.10112753440E+02  0.33078982071E+02  0.00000000000E+00 0. -1.
         11    1    1    2    0    0  0.15122614162E+03  0.19814918182E+02 -0.45501370329E+03  0.47989524594E+03  0.00000000000E+00 0.  1.
        -15    1    3    3    0    0 -0.22598325393E+02  0.26072102611E+02  0.53151743814E+02  0.63393252359E+02  0.17770000000E+01 0.  1.
         15    1    3    3    0    0 -0.15766650661E+03 -0.33692524761E+02  0.39174920604E+03  0.42363251963E+03  0.17770000000E+01 0. -1.
</event>
<event>
 7    1  0.4954109E-006  0.5366944E+03  0.7546771E-02  0.9321251E-01
        -11   -1    0    0    0    0  0.00000000000E+00  0.00000000000E+00  0.50000000000E+03  0.50000000000E+03  0.00000000000E+00 0. -1.
         11   -1    0    0    0    0 -0.00000000000E+00 -0.00000000000E+00 -0.50000000000E+03  0.50000000000E+03  0.00000000000E+00 0.  1.
         23    2    1    2    0    0 -0.74371469461E+02 -0.61454002333E+02  0.77551219727E+02  0.15361546957E+03  0.90971484202E+02 0.  0.
        -11    1    1    2    0    0 -0.21401484335E+03  0.16995522877E+03  0.26844429092E+03  0.38307893480E+03  0.00000000000E+00 0. -1.
         11    1    1    2    0    0  0.28838631281E+03 -0.10850122643E+03 -0.34599551064E+03  0.46330559563E+03  0.00000000000E+00 0.  1.
        -15    1    3    3    0    0 -0.34603925986E+02  0.99186045201E+01 -0.62317024891E+01  0.36575979197E+02  0.17770000000E+01 0. -1.
         15    1    3    3    0    0 -0.39767543475E+02 -0.71372606853E+02  0.83782922216E+02  0.11703949037E+03  0.17770000000E+01 0.  1.
</event>
<event>
 7    1  0.4954109E-006  0.3785390E+03  0.7546771E-02  0.9722027E-01
        -11   -1    0    0    0    0  0.00000000000E+00  0.00000000000E+00  0.50000000000E+03  0.50000000000E+03  0.00000000000E+00 0. -1.
         11   -1    0    0    0    0 -0.00000000000E+00 -0.00000000000E+00 -0.50000000000E+03  0.50000000000E+03  0.00000000000E+00 0.  1.
         23    2    1    2    0    0  0.14392930299E+03  0.97473591221E+02 -0.86884245757E+02  0.21837808520E+03  0.99616116624E+02 0.  0.
        -11    1    1    2    0    0 -0.40028052566E+02 -0.99878867101E+02  0.41953504308E+03  0.43311394050E+03  0.00000000000E+00 0. -1.
         11    1    1    2    0    0 -0.10390125042E+03  0.24052758797E+01 -0.33265079732E+03  0.34850797430E+03  0.00000000000E+00 0.  1.
        -15    1    3    3    0    0  0.97003249930E+01  0.60236457114E+02 -0.26912854684E+02  0.66708219485E+02  0.17770000000E+01 0. -1.
         15    1    3    3    0    0  0.13422897800E+03  0.37237134107E+02 -0.59971391073E+02  0.15166986572E+03  0.17770000000E+01 0.  1.
</event>
<event>
 7    1  0.4954109E-006  0.3612584E+03  0.7546771E-02  0.9778349E-01
        -11   -1    0    0    0    0  0.00000000000E+00  0.00000000000E+00  0.50000000000E+03  0.50000000000E+03  0.00000000000E+00 0.  1.
         11   -1    0    0    0    0 -0.00000000000E+00 -0.00000000000E+00 -0.50000000000E+03  0.50000000000E+03  0.00000000000E+00 0. -1.
         23    2    1    2    0    0  0.63013327848E+01 -0.19041648770E+02 -0.22498134482E+03  0.24299978655E+03  0.89610264847E+02 0.  0.
        -11    1    1    2    0    0 -0.28431758966E+03 -0.10197566022E+03  0.31922627482E+03  0.43947803313E+03  0.00000000000E+00 0.  1.
         11    1    1    2    0    0  0.27801625687E+03  0.12101730899E+03 -0.94244930003E+02  0.31752218032E+03  0.00000000000E+00 0. -1.
        -15    1    3    3    0    0  0.28684486462E+02  0.23400462960E+02 -0.54660391277E+02  0.66040120638E+02  0.17770000000E+01 0.  1.
         15    1    3    3    0    0 -0.22383153677E+02 -0.42442111730E+02 -0.17032095354E+03  0.17695966592E+03  0.17770000000E+01 0. -1.
</event>
<event>
 7    1  0.4954109E-006  0.4633243E+03  0.7546771E-02  0.9485834E-01
        -11   -1    0    0    0    0  0.00000000000E+00  0.00000000000E+00  0.50000000000E+03  0.50000000000E+03  0.00000000000E+00 0.  1.
         11   -1    0    0    0    0 -0.00000000000E+00 -0.00000000000E+00 -0.50000000000E+03  0.50000000000E+03  0.00000000000E+00 0. -1.
         23    2    1    2    0    0  0.11522127860E+02  0.90406743065E+02 -0.40606791329E+03  0.42601729574E+03  0.91068366867E+02 0.  0.
        -11    1    1    2    0    0 -0.16909359503E+02 -0.10280578898E+03  0.48389807798E+03  0.49498717818E+03  0.00000000000E+00 0.  1.
         11    1    1    2    0    0  0.53872316427E+01  0.12399045912E+02 -0.77830164691E+02  0.78995526077E+02  0.00000000000E+00 0. -1.
        -15    1    3    3    0    0 -0.36039156269E+02  0.21358108000E+02 -0.18205649725E+03  0.18682268460E+03  0.17770000000E+01 0. -1.
         15    1    3    3    0    0  0.47561284128E+02  0.69048635065E+02 -0.22401141604E+03  0.23919461114E+03  0.17770000000E+01 0.  1.
</event>
<event>
 7    1  0.4954109E-006  0.5102590E+03  0.7546771E-02  0.9377143E-01
        -11   -1    0    0    0    0  0.00000000000E+00  0.00000000000E+00  0.50000000000E+03  0.50000000000E+03  0.00000000000E+00 0. -1.
         11   -1    0    0    0    0 -0.00000000000E+00 -0.00000000000E+00 -0.50000000000E+03  0.50000000000E+03  0.00000000000E+00 0.  1.
         23    2    1    2    0    0  0.49628316212E+02 -0.15826955005E+02  0.32550489299E+03  0.34286957926E+03  0.94300852328E+02 0.  0.
        -11    1    1    2    0    0  0.26618140023E+02  0.51824301736E+02  0.15692329527E+03  0.16738937908E+03  0.00000000000E+00 0. -1.
         11    1    1    2    0    0 -0.76246456235E+02 -0.35997346731E+02 -0.48242818826E+03  0.48974104166E+03  0.00000000000E+00 0.  1.
        -15    1    3    3    0    0  0.76366518775E+02 -0.28127697871E+01  0.25796088314E+03  0.26904782442E+03  0.17770000000E+01 0. -1.
         15    1    3    3    0    0 -0.26738202563E+02 -0.13014185218E+02  0.67544009844E+02  0.73821754842E+02  0.17770000000E+01 0. -1.
</event>
<event>
 7    1  0.4954109E-006  0.3970323E+03  0.7546771E-02  0.9665210E-01
        -11   -1    0    0    0    0  0.00000000000E+00  0.00000000000E+00  0.50000000000E+03  0.50000000000E+03  0.00000000000E+00 0.  1.
         11   -1    0    0    0    0 -0.00000000000E+00 -0.00000000000E+00 -0.50000000000E+03  0.50000000000E+03  0.00000000000E+00 0.  1.
         23    2    1    2    0    0  0.48805122242E+02  0.12502636466E+03  0.40466774171E+03  0.43806287005E+03  0.10064574066E+03 0.  0.
        -11    1    1    2    0    0 -0.10204059930E+02 -0.18930545831E+03 -0.45415897355E+02  0.19494430773E+03  0.00000000000E+00 0.  1.
         11    1    1    2    0    0 -0.38601062312E+02  0.64279093650E+02 -0.35925184436E+03  0.36699282223E+03  0.00000000000E+00 0.  1.
        -15    1    3    3    0    0  0.46227668989E+02  0.85911560842E+02  0.37855590003E+03  0.39092904835E+03  0.17770000000E+01 0.  1.
         15    1    3    3    0    0  0.25774532525E+01  0.39114803813E+02  0.26111841681E+02  0.47133821695E+02  0.17770000000E+01 0. -1.
</event>
<event>
 7    1  0.4954109E-006  0.5152976E+03  0.7546771E-02  0.9366216E-01
        -11   -1    0    0    0    0  0.00000000000E+00  0.00000000000E+00  0.50000000000E+03  0.50000000000E+03  0.00000000000E+00 0.  1.
         11   -1    0    0    0    0 -0.00000000000E+00 -0.00000000000E+00 -0.50000000000E+03  0.50000000000E+03  0.00000000000E+00 0. -1.
         23    2    1    2    0    0 -0.47173381448E+02 -0.54181486616E+01 -0.12322379568E+03  0.16095400945E+03  0.92018504024E+02 0.  0.
        -11    1    1    2    0    0  0.18329291193E+03  0.84436835313E+02  0.44069328921E+03  0.48470243023E+03  0.00000000000E+00 0.  1.
         11    1    1    2    0    0 -0.13611953048E+03 -0.79018686652E+02 -0.31746949353E+03  0.35434356032E+03  0.00000000000E+00 0. -1.
        -15    1    3    3    0    0  0.21586209770E+02 -0.19221939255E+02 -0.59526721599E+02  0.66196946412E+02  0.17770000000E+01 0.  1.
         15    1    3    3    0    0 -0.68759591219E+02  0.13803790593E+02 -0.63697074082E+02  0.94757063034E+02  0.17770000000E+01 0. -1.
</event>
<event>
 7    1  0.4954109E-006  0.4571235E+03  0.7546771E-02  0.9501216E-01
        -11   -1    0    0    0    0  0.00000000000E+00  0.00000000000E+00  0.50000000000E+03  0.50000000000E+03  0.00000000000E+00 0.  1.
         11   -1    0    0    0    0 -0.00000000000E+00 -0.00000000000E+00 -0.50000000000E+03  0.50000000000E+03  0.00000000000E+00 0.  1.
         23    2    1    2    0    0 -0.23978716003E+02 -0.14907495223E+03  0.41539461873E+03  0.45114571720E+03  0.90451360798E+02 0.  0.
        -11    1    1    2    0    0 -0.17840511953E+02  0.80814191139E+02  0.36119455298E+02  0.90298573672E+02  0.00000000000E+00 0.  1.
         11    1    1    2    0    0  0.41819227956E+02  0.68260761088E+02 -0.45151407403E+03  0.45855570913E+03  0.00000000000E+00 0.  1.
        -15    1    3    3    0    0  0.13935265771E+02 -0.12158933770E+03  0.34929645513E+03  0.37012069649E+03  0.17770000000E+01 0.  1.
         15    1    3    3    0    0 -0.37913981774E+02 -0.27485614530E+02  0.66098163598E+02  0.81025020704E+02  0.17770000000E+01 0. -1.
</event>
<event>
 7    1  0.4954109E-006  0.4853726E+03  0.7546771E-02  0.9433148E-01
        -11   -1    0    0    0    0  0.00000000000E+00  0.00000000000E+00  0.50000000000E+03  0.50000000000E+03  0.00000000000E+00 0.  1.
         11   -1    0    0    0    0 -0.00000000000E+00 -0.00000000000E+00 -0.50000000000E+03  0.50000000000E+03  0.00000000000E+00 0. -1.
         23    2    1    2    0    0  0.17480692717E+03  0.37009267503E+01  0.44047086932E+03  0.48246496641E+03  0.90480376045E+02 0.  0.
        -11    1    1    2    0    0 -0.32135104408E+02 -0.19095307392E+01  0.18340328717E+02  0.37049681516E+02  0.00000000000E+00 0.  1.
         11    1    1    2    0    0 -0.14267182276E+03 -0.17913960111E+01 -0.45881119804E+03  0.48048535207E+03  0.00000000000E+00 0. -1.
        -15    1    3    3    0    0  0.14156078063E+03 -0.28725900661E+02  0.37753990273E+03  0.40423281394E+03  0.17770000000E+01 0.  1.
         15    1    3    3    0    0  0.33246146538E+02  0.32426827411E+02  0.62930966589E+02  0.78232152472E+02  0.17770000000E+01 0. -1.
</event>
<event>
 7    1  0.4954109E-006  0.3693633E+03  0.7546771E-02  0.9751522E-01
        -11   -1    0    0    0    0  0.00000000000E+00  0.00000000000E+00  0.50000000000E+03  0.50000000000E+03  0.00000000000E+00 0. -1.
         11   -1    0    0    0    0 -0.00000000000E+00 -0.00000000000E+00 -0.50000000000E+03  0.50000000000E+03  0.00000000000E+00 0.  1.
         23    2    1    2    0    0 -0.73330759814E+02  0.25527502829E+02  0.19389247785E+03  0.23231495027E+03  0.10171966092E+03 0.  0.
        -11    1    1    2    0    0  0.73763741334E+01 -0.24390536397E+03  0.19799389101E+03  0.31423847368E+03  0.00000000000E+00 0. -1.
         11    1    1    2    0    0  0.65954385680E+02  0.21837786114E+03 -0.39188636886E+03  0.45344657604E+03  0.00000000000E+00 0.  1.
        -15    1    3    3    0    0 -0.29172312464E+02  0.27128661315E+02  0.72820760536E+01  0.40536088118E+02  0.17770000000E+01 0. -1.
         15    1    3    3    0    0 -0.44158447349E+02 -0.16011584862E+01  0.18661040180E+03  0.19177886216E+03  0.17770000000E+01 0.  1.
</event>
<event>
 7    1  0.4954109E-006  0.4612236E+03  0.7546771E-02  0.9491016E-01
        -11   -1    0    0    0    0  0.00000000000E+00  0.00000000000E+00  0.50000000000E+03  0.50000000000E+03  0.00000000000E+00 0.  1.
         11   -1    0    0    0    0 -0.00000000000E+00 -0.00000000000E+00 -0.50000000000E+03  0.50000000000E+03  0.00000000000E+00 0.  1.
         23    2    1    2    0    0  0.28052239460E+02 -0.74984071259E+02  0.41200314736E+03  0.42978892587E+03  0.92533173977E+02 0.  0.
        -11    1    1    2    0    0  0.46418345185E+02  0.19636417858E+02  0.66136265520E+02  0.83152013162E+02  0.00000000000E+00 0.  1.
         11    1    1    2    0    0 -0.74470584645E+02  0.55347653401E+02 -0.47813941288E+03  0.48705906096E+03  0.00000000000E+00 0.  1.
        -15    1    3    3    0    0 -0.23252269866E+02 -0.51854681710E+02  0.28860037673E+03  0.29414777110E+03  0.17770000000E+01 0.  1.
         15    1    3    3    0    0  0.51304509326E+02 -0.23129389549E+02  0.12340277064E+03  0.13564115477E+03  0.17770000000E+01 0. -1.
</event>
<event>
 7    1  0.4954109E-006  0.5162352E+03  0.7546771E-02  0.9364198E-01
        -11   -1    0    0    0    0  0.00000000000E+00  0.00000000000E+00  0.50000000000E+03  0.50000000000E+03  0.00000000000E+00 0. -1.
         11   -1    0    0    0    0 -0.00000000000E+00 -0.00000000000E+00 -0.50000000000E+03  0.50000000000E+03  0.00000000000E+00 0. -1.
         23    2    1    2    0    0 -0.74362075405E+02  0.14440521716E+02 -0.17932132017E+03  0.21440125237E+03  0.89852736337E+02 0.  0.
        -11    1    1    2    0    0  0.74986955054E+02 -0.11533392984E+03  0.46379247559E+03  0.48376483875E+03  0.00000000000E+00 0. -1.
         11    1    1    2    0    0 -0.62487964950E+00  0.10089340812E+03 -0.28447115542E+03  0.30183390887E+03  0.00000000000E+00 0. -1.
        -15    1    3    3    0    0 -0.63304773879E+02 -0.85512088788E+01 -0.46225332032E+02  0.78870505384E+02  0.17770000000E+01 0. -1.
         15    1    3    3    0    0 -0.11057301525E+02  0.22991730595E+02 -0.13309598814E+03  0.13553074699E+03  0.17770000000E+01 0.  1.
</event>
<event>
 7    1  0.4954109E-006  0.5428450E+03  0.7546771E-02  0.9308735E-01
        -11   -1    0    0    0    0  0.00000000000E+00  0.00000000000E+00  0.50000000000E+03  0.50000000000E+03  0.00000000000E+00 0.  1.
         11   -1    0    0    0    0 -0.00000000000E+00 -0.00000000000E+00 -0.50000000000E+03  0.50000000000E+03  0.00000000000E+00 0. -1.
         23    2    1    2    0    0  0.60596574338E+02 -0.38049617535E+02  0.20625220133E+03  0.23748123625E+03  0.93475391414E+02 0.  0.
        -11    1    1    2    0    0 -0.91180919905E+02  0.18421862884E+03  0.22582412774E+03  0.30536371762E+03  0.00000000000E+00 0.  1.
         11    1    1    2    0    0  0.30584345567E+02 -0.14616901130E+03 -0.43207632907E+03  0.45715504613E+03  0.00000000000E+00 0. -1.
        -15    1    3    3    0    0 -0.24751798482E+02 -0.85000444156E+01  0.61401257014E+02  0.66769561741E+02  0.17770000000E+01 0. -1.
         15    1    3    3    0    0  0.85348372820E+02 -0.29549573120E+02  0.14485094432E+03  0.17071167451E+03  0.17770000000E+01 0.  1.
</event>
<event>
 7    1  0.4954109E-006  0.4814456E+03  0.7546771E-02  0.9442311E-01
        -11   -1    0    0    0    0  0.00000000000E+00  0.00000000000E+00  0.50000000000E+03  0.50000000000E+03  0.00000000000E+00 0.  1.
         11   -1    0    0    0    0 -0.00000000000E+00 -0.00000000000E+00 -0.50000000000E+03  0.50000000000E+03  0.00000000000E+00 0. -1.
         23    2    1    2    0    0 -0.22573221288E+03  0.18065585476E+03  0.36264412432E+03  0.47328266259E+03  0.94308790732E+02 0.  0.
        -11    1    1    2    0    0 -0.43559746862E+02  0.69882468265E+01 -0.10538534045E+02  0.45357996431E+02  0.00000000000E+00 0.  1.
         11    1    1    2    0    0  0.26929195974E+03 -0.18764410159E+03 -0.35210559028E+03  0.48135934098E+03  0.00000000000E+00 0. -1.
        -15    1    3    3    0    0 -0.22319309089E+03  0.19060721138E+03  0.34703719075E+03  0.45451538406E+03  0.17770000000E+01 0.  1.
         15    1    3    3    0    0 -0.25391219874E+01 -0.99513566155E+01  0.15606933570E+02  0.18767278529E+02  0.17770000000E+01 0. -1.
</event>
<event>
 7    1  0.4954109E-006  0.4419006E+03  0.7546771E-02  0.9540106E-01
        -11   -1    0    0    0    0  0.00000000000E+00  0.00000000000E+00  0.50000000000E+03  0.50000000000E+03  0.00000000000E+00 0. -1.
         11   -1    0    0    0    0 -0.00000000000E+00 -0.00000000000E+00 -0.50000000000E+03  0.50000000000E+03  0.00000000000E+00 0.  1.
         23    2    1    2    0    0 -0.95710475082E+02  0.59399246775E+02  0.39084543156E+03  0.42035666257E+03  0.10606982059E+03 0.  0.
        -11    1    1    2    0    0  0.69523436430E+02  0.89147036197E+02  0.42515796290E+02  0.12078201526E+03  0.00000000000E+00 0. -1.
         11    1    1    2    0    0  0.26187038651E+02 -0.14854628297E+03 -0.43336122785E+03  0.45886132217E+03  0.00000000000E+00 0.  1.
        -15    1    3    3    0    0 -0.58945945158E+02  0.57786849963E+02  0.36767964783E+03  0.37683607263E+03  0.17770000000E+01 0. -1.
         15    1    3    3    0    0 -0.36764529923E+02  0.16123968127E+01  0.23165783732E+02  0.43520589942E+02  0.17770000000E+01 0.  1.
</event>
<event>
 7    1  0.4954109E-006  0.5125295E+03  0.7546771E-02  0.9372202E-01
        -11   -1    0    0    0    0  0.00000000000E+00  0.00000000000E+00  0.50000000000E+03  0.50000000000E+03  0.00000000000E+00 0. -1.
         11   -1    0    0    0    0 -0.00000000000E+00 -0.00000000000E+00 -0.50000000000E+03  0.50000000000E+03  0.00000000000E+00 0. -1.
         23    2    1    2    0    0  0.15871968220E+03 -0.16091761487E+03  0.42243965340E+03  0.48747053890E+03  0.89921350283E+02 0.  0.
        -11    1    1    2    0    0 -0.73697941414E+02  0.17785290491E+03 -0.22019353165E+03  0.29248629666E+03  0.00000000000E+00 0. -1.
         11    1    1    2    0    0 -0.85021740787E+02 -0.16935290039E+02 -0.20224612175E+03  0.22004316444E+03  0.00000000000E+00 0. -1.
        -15    1    3    3    0    0 -0.62494120798E+01 -0.31409915418E+02  0.75955713166E+02  0.82450385259E+02  0.17770000000E+01 0.  1.
         15    1    3    3    0    0  0.16496909428E+03 -0.12950769946E+03  0.34648394023E+03  0.40502015364E+03  0.17770000000E+01 0. -1.
</event>
<event>
 7    1  0.4954109E-006  0.3504186E+03  0.7546771E-02  0.9815429E-01
        -11   -1    0    0    0    0  0.00000000000E+00  0.00000000000E+00  0.50000000000E+03  0.50000000000E+03  0.00000000000E+00 0.  1.
         11   -1    0    0    0    0 -0.00000000000E+00 -0.00000000000E+00 -0.50000000000E+03  0.50000000000E+03  0.00000000000E+00 0.  1.
         23    2    1    2    0    0 -0.53839817914E+02 -0.70785708313E+02  0.28288559010E+03  0.30995001156E+03  0.90196508168E+02 0.  0.
        -11    1    1    2    0    0  0.60682718737E+02  0.22850968357E+03  0.11432195661E+03  0.26261869241E+03  0.00000000000E+00 0.  1.
         11    1    1    2    0    0 -0.68429008226E+01 -0.15772397526E+03 -0.39720754671E+03  0.42743129603E+03  0.00000000000E+00 0.  1.
        -15    1    3    3    0    0 -0.48595107915E+02 -0.90984369709E+02  0.20781619329E+03  0.23201372366E+03  0.17770000000E+01 0.  1.
         15    1    3    3    0    0 -0.52447099999E+01  0.20198661395E+02  0.75069396811E+02  0.77936287900E+02  0.17770000000E+01 0. -1.
</event>
<event>
 7    1  0.4954109E-006  0.5126888E+03  0.7546771E-02  0.9371857E-01
        -11   -1    0    0    0    0  0.00000000000E+00  0.00000000000E+00  0.50000000000E+03  0.50000000000E+03  0.00000000000E+00 0.  1.
         11   -1    0    0    0    0 -0.00000000000E+00 -0.00000000000E+00 -0.50000000000E+03  0.50000000000E+03  0.00000000000E+00 0. -1.
         23    2    1    2    0    0 -0.21466215708E+02 -0.31977038254E+02 -0.16296682514E+03  0.18964575758E+03  0.89016840443E+02 0.  0.
        -11    1    1    2    0    0 -0.13543325325E+02  0.10667197676E+03  0.47529972085E+03  0.48731115001E+03  0.00000000000E+00 0.  1.
         11    1    1    2    0    0  0.35009541033E+02 -0.74694938503E+02 -0.31233289572E+03  0.32304309240E+03  0.00000000000E+00 0. -1.
        -15    1    3    3    0    0  0.28694725163E+02 -0.24595280281E+02 -0.33279211473E+02  0.50388279486E+02  0.17770000000E+01 0.  1.
         15    1    3    3    0    0 -0.50160940870E+02 -0.73817579734E+01 -0.12968761366E+03  0.13925747810E+03  0.17770000000E+01 0. -1.
</event>
<event>
 7    1  0.4954109E-006  0.5106134E+03  0.7546771E-02  0.9376370E-01
        -11   -1    0    0    0    0  0.00000000000E+00  0.00000000000E+00  0.50000000000E+03  0.50000000000E+03  0.00000000000E+00 0.  1.
         11   -1    0    0    0    0 -0.00000000000E+00 -0.00000000000E+00 -0.50000000000E+03  0.50000000000E+03  0.00000000000E+00 0. -1.
         23    2    1    2    0    0  0.41251783110E+02  0.14589655771E+03 -0.34313671708E+03  0.38598648403E+03  0.90858373764E+02 0.  0.
        -11    1    1    2    0    0 -0.81328695021E+02 -0.14240369436E+03  0.46109225987E+03  0.48938659658E+03  0.00000000000E+00 0.  1.
         11    1    1    2    0    0  0.40076911911E+02 -0.34928633508E+01 -0.11795554279E+03  0.12462691939E+03  0.00000000000E+00 0. -1.
        -15    1    3    3    0    0  0.44241778112E+02  0.37255052574E+02 -0.63211083444E+02  0.85697565146E+02  0.17770000000E+01 0.  1.
         15    1    3    3    0    0 -0.29899950020E+01  0.10864150514E+03 -0.27992563364E+03  0.30028891888E+03  0.17770000000E+01 0. -1.
</event>
<event>
 7    1  0.4954109E-006  0.5069584E+03  0.7546771E-02  0.9384373E-01
        -11   -1    0    0    0    0  0.00000000000E+00  0.00000000000E+00  0.50000000000E+03  0.50000000000E+03  0.00000000000E+00 0. -1.
         11   -1    0    0    0    0 -0.00000000000E+00 -0.00000000000E+00 -0.50000000000E+03  0.50000000000E+03  0.00000000000E+00 0.  1.
         23    2    1    2    0    0  0.47529235433E+02 -0.13490940430E+02  0.19879451889E+03  0.21472092613E+03  0.64379978921E+02 0.  0.
        -11    1    1    2    0    0  0.27094498980E+02  0.44238789261E+02  0.28759616391E+03  0.29223746482E+03  0.00000000000E+00 0. -1.
         11    1    1    2    0    0 -0.74623734413E+02 -0.30747848832E+02 -0.48639068279E+03  0.49304160905E+03  0.00000000000E+00 0.  1.
        -15    1    3    3    0    0  0.30786068262E+02  0.24584076226E+02  0.91835535346E+02  0.99945395513E+02  0.17770000000E+01 0. -1.
         15    1    3    3    0    0  0.16743167171E+02 -0.38075016656E+02  0.10695898354E+03  0.11477553062E+03  0.17770000000E+01 0.  1.
</event>
<event>
 7    1  0.4954109E-006  0.4218057E+03  0.7546771E-02  0.9594079E-01
        -11   -1    0    0    0    0  0.00000000000E+00  0.00000000000E+00  0.50000000000E+03  0.50000000000E+03  0.00000000000E+00 0.  1.
         11   -1    0    0    0    0 -0.00000000000E+00 -0.00000000000E+00 -0.50000000000E+03  0.50000000000E+03  0.00000000000E+00 0. -1.
         23    2    1    2    0    0 -0.97583629078E+02 -0.63342305910E+02 -0.29774585080E+02  0.14788407358E+03  0.86303887051E+02 0.  0.
        -11    1    1    2    0    0  0.18066697709E+03  0.82548015078E+02  0.41365735158E+03  0.45887594829E+03  0.00000000000E+00 0.  1.
         11    1    1    2    0    0 -0.83083348011E+02 -0.19205709169E+02 -0.38388276650E+03  0.39323997813E+03  0.00000000000E+00 0. -1.
        -15    1    3    3    0    0 -0.45077499444E+02 -0.75759188895E+02 -0.32139981275E+02  0.93848664261E+02  0.17770000000E+01 0. -1.
         15    1    3    3    0    0 -0.52506129634E+02  0.12416882986E+02  0.23653961945E+01  0.54035409320E+02  0.17770000000E+01 0.  1.
</event>
<event>
 7    1  0.4954109E-006  0.5188725E+03  0.7546771E-02  0.9358544E-01
        -11   -1    0    0    0    0  0.00000000000E+00  0.00000000000E+00  0.50000000000E+03  0.50000000000E+03  0.00000000000E+00 0.  1.
         11   -1    0    0    0    0 -0.00000000000E+00 -0.00000000000E+00 -0.50000000000E+03  0.50000000000E+03  0.00000000000E+00 0. -1.
         23    2    1    2    0    0  0.56147589950E+02 -0.33426070932E+02  0.37632014214E+03  0.39248952541E+03  0.90340047023E+02 0.  0.
        -11    1    1    2    0    0  0.68508781893E+02 -0.74524641189E+02  0.75665589788E+02  0.12638297678E+03  0.00000000000E+00 0.  1.
         11    1    1    2    0    0 -0.12465637184E+03  0.10795071212E+03 -0.45198573193E+03  0.48112749782E+03  0.00000000000E+00 0. -1.
        -15    1    3    3    0    0  0.30474528314E+02 -0.63934448946E+02  0.26162557003E+03  0.27104871750E+03  0.17770000000E+01 0.  1.
         15    1    3    3    0    0  0.25673061636E+02  0.30508378014E+02  0.11469457211E+03  0.12144080790E+03  0.17770000000E+01 0. -1.
</event>
<event>
 7    1  0.4954109E-006  0.4872913E+03  0.7546771E-02  0.9428704E-01
        -11   -1    0    0    0    0  0.00000000000E+00  0.00000000000E+00  0.50000000000E+03  0.50000000000E+03  0.00000000000E+00 0.  1.
         11   -1    0    0    0    0 -0.00000000000E+00 -0.00000000000E+00 -0.50000000000E+03  0.50000000000E+03  0.00000000000E+00 0. -1.
         23    2    1    2    0    0 -0.33023696174E+02  0.66300383251E+02  0.46539380147E+03  0.48021236704E+03  0.92337542143E+02 0.  0.
        -11    1    1    2    0    0 -0.23982806797E+02  0.21713878329E+02  0.92895554363E+01  0.33659521300E+02  0.00000000000E+00 0.  1.
         11    1    1    2    0    0  0.57006502972E+02 -0.88014261580E+02 -0.47468335690E+03  0.48612811166E+03  0.00000000000E+00 0. -1.
        -15    1    3    3    0    0  0.33860795799E+01  0.72656563876E+02  0.38358541940E+03  0.39042460669E+03  0.17770000000E+01 0.  1.
         15    1    3    3    0    0 -0.36409775754E+02 -0.63561806248E+01  0.81808382070E+02  0.89787760349E+02  0.17770000000E+01 0. -1.
</event>
<event>
 7    1  0.4954109E-006  0.4125413E+03  0.7546771E-02  0.9620054E-01
        -11   -1    0    0    0    0  0.00000000000E+00  0.00000000000E+00  0.50000000000E+03  0.50000000000E+03  0.00000000000E+00 0. -1.
         11   -1    0    0    0    0 -0.00000000000E+00 -0.00000000000E+00 -0.50000000000E+03  0.50000000000E+03  0.00000000000E+00 0.  1.
         23    2    1    2    0    0 -0.59117442075E+02  0.12455661365E+03 -0.73248835450E+01  0.16344513974E+03  0.87472497534E+02 0.  0.
        -11    1    1    2    0    0 -0.31944925858E+01 -0.68781358652E+02  0.41485620116E+03  0.42053150622E+03  0.00000000000E+00 0. -1.
         11    1    1    2    0    0  0.62311934661E+02 -0.55775254994E+02 -0.40753131762E+03  0.41602335404E+03  0.00000000000E+00 0.  1.
        -15    1    3    3    0    0 -0.34433164234E+02  0.86014969342E+01 -0.25164990892E+02  0.43543806038E+02  0.17770000000E+01 0. -1.
         15    1    3    3    0    0 -0.24684277842E+02  0.11595511671E+03  0.17840107347E+02  0.11990133370E+03  0.17770000000E+01 0.  1.
</event>
<event>
 7    1  0.4954109E-006  0.5202000E+03  0.7546771E-02  0.9355712E-01
        -11   -1    0    0    0    0  0.00000000000E+00  0.00000000000E+00  0.50000000000E+03  0.50000000000E+03  0.00000000000E+00 0.  1.
         11   -1    0    0    0    0 -0.00000000000E+00 -0.00000000000E+00 -0.50000000000E+03  0.50000000000E+03  0.00000000000E+00 0. -1.
         23    2    1    2    0    0 -0.48237591610E+02 -0.96332865974E+02  0.36141573363E+03  0.38817601233E+03  0.91936922504E+02 0.  0.
        -11    1    1    2    0    0  0.79919836927E+02 -0.17347154294E+02  0.10364466494E+03  0.13202393975E+03  0.00000000000E+00 0.  1.
         11    1    1    2    0    0 -0.31682245317E+02  0.11368002027E+03 -0.46506039857E+03  0.47980004793E+03  0.00000000000E+00 0. -1.
        -15    1    3    3    0    0 -0.72046379761E+02 -0.89744223798E+02  0.27100790139E+03  0.29443699986E+03  0.17770000000E+01 0.  1.
         15    1    3    3    0    0  0.23808788151E+02 -0.65886421756E+01  0.90407832235E+02  0.93739012462E+02  0.17770000000E+01 0. -1.
</event>
<event>
 7    1  0.4954109E-006  0.3659507E+03  0.7546771E-02  0.9762727E-01
        -11   -1    0    0    0    0  0.00000000000E+00  0.00000000000E+00  0.50000000000E+03  0.50000000000E+03  0.00000000000E+00 0. -1.
         11   -1    0    0    0    0 -0.00000000000E+00 -0.00000000000E+00 -0.50000000000E+03  0.50000000000E+03  0.00000000000E+00 0. -1.
         23    2    1    2    0    0  0.59089260649E+02  0.14797752013E+03  0.12893235395E+03  0.23993935913E+03  0.12473354390E+03 0.  0.
        -11    1    1    2    0    0 -0.13443300685E+03 -0.23778498278E+03  0.24577161812E+03  0.36744743793E+03  0.00000000000E+00 0. -1.
         11    1    1    2    0    0  0.75343746199E+02  0.89807462644E+02 -0.37470397208E+03  0.39261320295E+03  0.00000000000E+00 0. -1.
        -15    1    3    3    0    0 -0.31018051804E+02  0.60702484312E+02  0.13618967124E+02  0.69538084054E+02  0.17770000000E+01 0. -1.
         15    1    3    3    0    0  0.90107312453E+02  0.87275035823E+02  0.11531338683E+03  0.17040127507E+03  0.17770000000E+01 0.  1.
</event>
<event>
 7    1  0.4954109E-006  0.5241164E+03  0.7546771E-02  0.9347408E-01
        -11   -1    0    0    0    0  0.00000000000E+00  0.00000000000E+00  0.50000000000E+03  0.50000000000E+03  0.00000000000E+00 0.  1.
         11   -1    0    0    0    0 -0.00000000000E+00 -0.00000000000E+00 -0.50000000000E+03  0.50000000000E+03  0.00000000000E+00 0. -1.
         23    2    1    2    0    0  0.11550928460E+03  0.14188595348E+02  0.20958399651E+03  0.25303485338E+03  0.80978233877E+02 0.  0.
        -11    1    1    2    0    0  0.22836430893E+02  0.17794095922E+03  0.20322577087E+03  0.27108154029E+03  0.00000000000E+00 0.  1.
         11    1    1    2    0    0 -0.13834571550E+03 -0.19212955456E+03 -0.41280976738E+03  0.47588360633E+03  0.00000000000E+00 0. -1.
        -15    1    3    3    0    0 -0.44198837508E+01 -0.16839670374E+02  0.20193433458E+02  0.26721570958E+02  0.17770000000E+01 0. -1.
         15    1    3    3    0    0  0.11992916835E+03  0.31028265722E+02  0.18939056305E+03  0.22631328242E+03  0.17770000000E+01 0.  1.
</event>
<event>
 7    1  0.4954109E-006  0.5258557E+03  0.7546771E-02  0.9343744E-01
        -11   -1    0    0    0    0  0.00000000000E+00  0.00000000000E+00  0.50000000000E+03  0.50000000000E+03  0.00000000000E+00 0. -1.
         11   -1    0    0    0    0 -0.00000000000E+00 -0.00000000000E+00 -0.50000000000E+03  0.50000000000E+03  0.00000000000E+00 0.  1.
         23    2    1    2    0    0 -0.64969725303E+02  0.35372892451E+02 -0.10528362894E+03  0.15782896133E+03  0.91394922103E+02 0.  0.
        -11    1    1    2    0    0  0.15419169082E+02 -0.77407837775E+02  0.46752870045E+03  0.47414429224E+03  0.00000000000E+00 0. -1.
         11    1    1    2    0    0  0.49550556220E+02  0.42034945323E+02 -0.36224507151E+03  0.36802674642E+03  0.00000000000E+00 0.  1.
        -15    1    3    3    0    0 -0.84423926658E+02  0.27626002596E+02 -0.10398714070E+03  0.13677382268E+03  0.17770000000E+01 0.  1.
         15    1    3    3    0    0  0.19454201356E+02  0.77468898556E+01 -0.12964882431E+01  0.21055138650E+02  0.17770000000E+01 0. -1.
</event>
<event>
 7    1  0.4954109E-006  0.5126413E+03  0.7546771E-02  0.9371960E-01
        -11   -1    0    0    0    0  0.00000000000E+00  0.00000000000E+00  0.50000000000E+03  0.50000000000E+03  0.00000000000E+00 0. -1.
         11   -1    0    0    0    0 -0.00000000000E+00 -0.00000000000E+00 -0.50000000000E+03  0.50000000000E+03  0.00000000000E+00 0. -1.
         23    2    1    2    0    0  0.46649282639E+01 -0.12570270932E+01  0.28423393351E+03  0.29846575352E+03  0.90936985825E+02 0.  0.
        -11    1    1    2    0    0  0.82532978556E+02  0.38800434707E+02  0.19378855921E+03  0.21417556341E+03  0.00000000000E+00 0. -1.
         11    1    1    2    0    0 -0.87197906819E+02 -0.37543407614E+02 -0.47802249272E+03  0.48735868307E+03  0.00000000000E+00 0. -1.
        -15    1    3    3    0    0 -0.19757413773E+02  0.35067147624E+02  0.19425999035E+03  0.19839395611E+03  0.17770000000E+01 0. -1.
         15    1    3    3    0    0  0.24422342037E+02 -0.36324174717E+02  0.89973943165E+02  0.10007179741E+03  0.17770000000E+01 0.  1.
</event>
<event>
 7    1  0.4954109E-006  0.3404401E+03  0.7546771E-02  0.9850858E-01
        -11   -1    0    0    0    0  0.00000000000E+00  0.00000000000E+00  0.50000000000E+03  0.50000000000E+03  0.00000000000E+00 0. -1.
         11   -1    0    0    0    0 -0.00000000000E+00 -0.00000000000E+00 -0.50000000000E+03  0.50000000000E+03  0.00000000000E+00 0.  1.
         23    2    1    2    0    0 -0.20248287529E+03 -0.14058938170E+03 -0.70996073607E+02  0.27239910674E+03  0.91630463572E+02 0.  0.
        -11    1    1    2    0    0  0.19463398187E+03  0.87834705684E+02  0.36820550416E+03  0.42564376621E+03  0.00000000000E+00 0. -1.
         11    1    1    2    0    0  0.78488934259E+01  0.52754676013E+02 -0.29720943055E+03  0.30195712705E+03  0.00000000000E+00 0.  1.
        -15    1    3    3    0    0 -0.10325733897E+03 -0.84245420699E+02 -0.84001632756E+02  0.15753983939E+03  0.17770000000E+01 0.  1.
         15    1    3    3    0    0 -0.99225536324E+02 -0.56343960998E+02  0.13005559149E+02  0.11485926736E+03  0.17770000000E+01 0. -1.
</event>
<event>
 7    1  0.4954109E-006  0.5194261E+03  0.7546771E-02  0.9357362E-01
        -11   -1    0    0    0    0  0.00000000000E+00  0.00000000000E+00  0.50000000000E+03  0.50000000000E+03  0.00000000000E+00 0.  1.
         11   -1    0    0    0    0 -0.00000000000E+00 -0.00000000000E+00 -0.50000000000E+03  0.50000000000E+03  0.00000000000E+00 0. -1.
         23    2    1    2    0    0  0.30640510189E+02  0.21981103741E+01  0.17128613646E+03  0.19649900121E+03  0.91264694042E+02 0.  0.
        -11    1    1    2    0    0 -0.11221564332E+03  0.32869042602E+02  0.30101361277E+03  0.32292711197E+03  0.00000000000E+00 0.  1.
         11    1    1    2    0    0  0.81575133134E+02 -0.35067152976E+02 -0.47229974924E+03  0.48057388682E+03  0.00000000000E+00 0. -1.
        -15    1    3    3    0    0  0.53534942582E+02  0.11413989003E+02  0.55028471986E+02  0.77637360081E+02  0.17770000000E+01 0.  1.
         15    1    3    3    0    0 -0.22894432393E+02 -0.92158786289E+01  0.11625766448E+03  0.11886164113E+03  0.17770000000E+01 0. -1.
</event>
<event>
 7    1  0.4954109E-006  0.3740029E+03  0.7546771E-02  0.9736495E-01
        -11   -1    0    0    0    0  0.00000000000E+00  0.00000000000E+00  0.50000000000E+03  0.50000000000E+03  0.00000000000E+00 0. -1.
         11   -1    0    0    0    0 -0.00000000000E+00 -0.00000000000E+00 -0.50000000000E+03  0.50000000000E+03  0.00000000000E+00 0. -1.
         23    2    1    2    0    0 -0.20698591939E+03 -0.94264884910E+02  0.20436323920E+03  0.32083983554E+03  0.97184500715E+02 0.  0.
        -11    1    1    2    0    0 -0.71591820475E+01  0.13037009839E+03  0.18906900095E+03  0.22977098068E+03  0.00000000000E+00 0. -1.
         11    1    1    2    0    0  0.21414510144E+03 -0.36105213479E+02 -0.39343224015E+03  0.44938918378E+03  0.00000000000E+00 0. -1.
        -15    1    3    3    0    0 -0.30568342611E+02  0.22555727215E+01  0.76752009550E+02  0.82665227740E+02  0.17770000000E+01 0.  1.
         15    1    3    3    0    0 -0.17641757678E+03 -0.96520457632E+02  0.12761122965E+03  0.23817460780E+03  0.17770000000E+01 0. -1.
</event>
<event>
 7    1  0.4954109E-006  0.5154413E+03  0.7546771E-02  0.9365906E-01
        -11   -1    0    0    0    0  0.00000000000E+00  0.00000000000E+00  0.50000000000E+03  0.50000000000E+03  0.00000000000E+00 0. -1.
         11   -1    0    0    0    0 -0.00000000000E+00 -0.00000000000E+00 -0.50000000000E+03  0.50000000000E+03  0.00000000000E+00 0.  1.
         23    2    1    2    0    0 -0.19663994004E+02 -0.33719469975E+02  0.16976395909E+03  0.19731841248E+03  0.92688072488E+02 0.  0.
        -11    1    1    2    0    0 -0.58272882153E+02  0.53902937121E+02  0.30805989259E+03  0.31812285811E+03  0.00000000000E+00 0. -1.
         11    1    1    2    0    0  0.77936876157E+02 -0.20183467146E+02 -0.47782385169E+03  0.48455872941E+03  0.00000000000E+00 0.  1.
        -15    1    3    3    0    0  0.23453810430E+02 -0.14194993811E+02  0.13699459272E+03  0.13972206425E+03  0.17770000000E+01 0. -1.
         15    1    3    3    0    0 -0.43117804434E+02 -0.19524476164E+02  0.32769366370E+02  0.57596348234E+02  0.17770000000E+01 0.  1.
</event>
<event>
 7    1  0.4954109E-006  0.5250826E+03  0.7546771E-02  0.9345371E-01
        -11   -1    0    0    0    0  0.00000000000E+00  0.00000000000E+00  0.50000000000E+03  0.50000000000E+03  0.00000000000E+00 0. -1.
         11   -1    0    0    0    0 -0.00000000000E+00 -0.00000000000E+00 -0.50000000000E+03  0.50000000000E+03  0.00000000000E+00 0.  1.
         23    2    1    2    0    0  0.30321002660E+02  0.10312703920E+03  0.39996978576E+03  0.42529340584E+03  0.96664895989E+02 0.  0.
        -11    1    1    2    0    0  0.56319641586E+02 -0.51696038714E+02  0.64136624653E+02  0.99789223211E+02  0.00000000000E+00 0. -1.
         11    1    1    2    0    0 -0.86640644246E+02 -0.51431000488E+02 -0.46410641041E+03  0.47491737095E+03  0.00000000000E+00 0.  1.
        -15    1    3    3    0    0  0.52310098987E+01 -0.17713153568E+02  0.29970841687E+02  0.35249515660E+02  0.17770000000E+01 0.  1.
         15    1    3    3    0    0  0.25089992761E+02  0.12084019277E+03  0.36999894407E+03  0.39004389018E+03  0.17770000000E+01 0. -1.
</event>
<event>
 7    1  0.4954109E-006  0.5256743E+03  0.7546771E-02  0.9344126E-01
        -11   -1    0    0    0    0  0.00000000000E+00  0.00000000000E+00  0.50000000000E+03  0.50000000000E+03  0.00000000000E+00 0.  1.
         11   -1    0    0    0    0 -0.00000000000E+00 -0.00000000000E+00 -0.50000000000E+03  0.50000000000E+03  0.00000000000E+00 0.  1.
         23    2    1    2    0    0  0.48597957393E+02 -0.47032822363E+02 -0.79074346671E+02  0.14009610511E+03  0.93810012915E+02 0.  0.
        -11    1    1    2    0    0 -0.39472592498E+02  0.11461763420E+03  0.45857343267E+03  0.47432571170E+03  0.00000000000E+00 0.  1.
         11    1    1    2    0    0 -0.91253648947E+01 -0.67584811840E+02 -0.37949908600E+03  0.38557818319E+03  0.00000000000E+00 0.  1.
        -15    1    3    3    0    0  0.16621922908E+02  0.28119082719E+02 -0.13694506316E+02  0.35463620322E+02  0.17770000000E+01 0.  1.
         15    1    3    3    0    0  0.31976034485E+02 -0.75151905082E+02 -0.65379840355E+02  0.10463248479E+03  0.17770000000E+01 0. -1.
</event>
<event>
 7    1  0.4954109E-006  0.5095317E+03  0.7546771E-02  0.9378731E-01
        -11   -1    0    0    0    0  0.00000000000E+00  0.00000000000E+00  0.50000000000E+03  0.50000000000E+03  0.00000000000E+00 0. -1.
         11   -1    0    0    0    0 -0.00000000000E+00 -0.00000000000E+00 -0.50000000000E+03  0.50000000000E+03  0.00000000000E+00 0.  1.
         23    2    1    2    0    0  0.66011823705E+02 -0.10833582489E+02  0.32369470279E+03  0.34007327695E+03  0.79979032915E+02 0.  0.
        -11    1    1    2    0    0  0.73367270484E+02  0.47734892612E+02  0.14510262852E+03  0.16945839948E+03  0.00000000000E+00 0. -1.
         11    1    1    2    0    0 -0.13937909419E+03 -0.36901310123E+02 -0.46879733131E+03  0.49046832357E+03  0.00000000000E+00 0.  1.
        -15    1    3    3    0    0 -0.18765156855E+02 -0.27230588824E+01  0.62840127533E+02  0.65662664574E+02  0.17770000000E+01 0.  1.
         15    1    3    3    0    0  0.84776980560E+02 -0.81105236069E+01  0.26085457526E+03  0.27441061238E+03  0.17770000000E+01 0. -1.
</event>
<event>
 7    1  0.4954109E-006  0.3508146E+03  0.7546771E-02  0.9814050E-01
        -11   -1    0    0    0    0  0.00000000000E+00  0.00000000000E+00  0.50000000000E+03  0.50000000000E+03  0.00000000000E+00 0. -1.
         11   -1    0    0    0    0 -0.00000000000E+00 -0.00000000000E+00 -0.50000000000E+03  0.50000000000E+03  0.00000000000E+00 0.  1.
         23    2    1    2    0    0 -0.21171253860E+03  0.11543345935E+03 -0.17692627314E+02  0.25787895257E+03  0.89674090912E+02 0.  0.
        -11    1    1    2    0    0  0.30193058916E+03  0.50814767590E+02  0.28256920944E+03  0.41664082781E+03  0.00000000000E+00 0. -1.
         11    1    1    2    0    0 -0.90218050558E+02 -0.16624822694E+03 -0.26487658213E+03  0.32548021962E+03  0.00000000000E+00 0.  1.
        -15    1    3    3    0    0 -0.15766219973E+03  0.12326941870E+03 -0.28552200875E+02  0.20216603254E+03  0.17770000000E+01 0. -1.
         15    1    3    3    0    0 -0.54050338871E+02 -0.78359593561E+01  0.10859573561E+02  0.55712920028E+02  0.17770000000E+01 0.  1.
</event>
<event>
 7    1  0.1504055E-005  0.5231519E+03  0.7546771E-02  0.9349445E-01
        -11   -1    0    0    0    0  0.00000000000E+00  0.00000000000E+00  0.50000000000E+03  0.50000000000E+03  0.00000000000E+00 0.  1.
         11   -1    0    0    0    0 -0.00000000000E+00 -0.00000000000E+00 -0.50000000000E+03  0.50000000000E+03  0.00000000000E+00 0.  1.
         23    2    1    2    0    0 -0.10122327386E+03 -0.87744744551E+02 -0.19458333332E+03  0.25857142417E+03  0.10512476601E+03 0.  0.
        -11    1    1    2    0    0  0.12996784520E+03  0.54734152120E+02  0.45551797563E+03  0.47684808306E+03  0.00000000000E+00 0.  1.
         11    1    1    2    0    0 -0.28744571341E+02  0.33010592431E+02 -0.26093464231E+03  0.26458049277E+03  0.00000000000E+00 0.  1.
        -15    1    3    3    0    0 -0.10540021491E+03 -0.66216287733E+02 -0.95022621029E+02  0.15660861502E+03  0.17770000000E+01 0.  1.
         15    1    3    3    0    0  0.41769410496E+01 -0.21528456818E+02 -0.99560712288E+02  0.10196280915E+03  0.17770000000E+01 0. -1.
</event>
<event>
 7    1  0.4954109E-006  0.3604482E+03  0.7546771E-02  0.9781071E-01
        -11   -1    0    0    0    0  0.00000000000E+00  0.00000000000E+00  0.50000000000E+03  0.50000000000E+03  0.00000000000E+00 0.  1.
         11   -1    0    0    0    0 -0.00000000000E+00 -0.00000000000E+00 -0.50000000000E+03  0.50000000000E+03  0.00000000000E+00 0. -1.
         23    2    1    2    0    0 -0.21298079836E+03 -0.15827529030E+02  0.39503479359E+03  0.45902284143E+03  0.95069183549E+02 0.  0.
        -11    1    1    2    0    0  0.18154007366E+03 -0.12448130023E+03 -0.19141180220E+03  0.29170339469E+03  0.00000000000E+00 0. -1.
         11    1    1    2    0    0  0.31440724699E+02  0.14030882926E+03 -0.20362299139E+03  0.24927376389E+03  0.00000000000E+00 0.  1.
        -15    1    3    3    0    0 -0.19262159029E+03 -0.40426681312E+02  0.36720145675E+03  0.41662628479E+03  0.17770000000E+01 0.  1.
         15    1    3    3    0    0 -0.20359208069E+02  0.24599152281E+02  0.27833336834E+02  0.42396556634E+02  0.17770000000E+01 0. -1.
</event>
<event>
 7    1  0.4954109E-006  0.4031256E+03  0.7546771E-02  0.9647211E-01
        -11   -1    0    0    0    0  0.00000000000E+00  0.00000000000E+00  0.50000000000E+03  0.50000000000E+03  0.00000000000E+00 0. -1.
         11   -1    0    0    0    0 -0.00000000000E+00 -0.00000000000E+00 -0.50000000000E+03  0.50000000000E+03  0.00000000000E+00 0.  1.
         23    2    1    2    0    0  0.10905584543E+03 -0.28510786360E+03  0.33457531330E+03  0.46264964437E+03  0.94468946501E+02 0.  0.
        -11    1    1    2    0    0 -0.49231478881E+02  0.17722411692E+03 -0.34228293907E+01  0.18396695869E+03  0.00000000000E+00 0. -1.
         11    1    1    2    0    0 -0.59824366551E+02  0.10788374668E+03 -0.33115248391E+03  0.35338339694E+03  0.00000000000E+00 0.  1.
        -15    1    3    3    0    0  0.24013254746E+02 -0.26299320411E+02  0.65591727178E+01  0.36255635884E+02  0.17770000000E+01 0.  1.
         15    1    3    3    0    0  0.85042590685E+02 -0.25880854319E+03  0.32801614058E+03  0.42639400848E+03  0.17770000000E+01 0. -1.
</event>
<event>
 7    1  0.4954109E-006  0.5151169E+03  0.7546771E-02  0.9366606E-01
        -11   -1    0    0    0    0  0.00000000000E+00  0.00000000000E+00  0.50000000000E+03  0.50000000000E+03  0.00000000000E+00 0.  1.
         11   -1    0    0    0    0 -0.00000000000E+00 -0.00000000000E+00 -0.50000000000E+03  0.50000000000E+03  0.00000000000E+00 0.  1.
         23    2    1    2    0    0 -0.34767631782E+02  0.37964414433E+02  0.14344381324E+03  0.17693052535E+03  0.89878797616E+02 0.  0.
        -11    1    1    2    0    0  0.23941535076E+02  0.12985658194E+03  0.31134242045E+03  0.33818638611E+03  0.00000000000E+00 0.  1.
         11    1    1    2    0    0  0.10826096706E+02 -0.16782099638E+03 -0.45478623369E+03  0.48488308854E+03  0.00000000000E+00 0.  1.
        -15    1    3    3    0    0 -0.90751736848E+01  0.18529607042E+02 -0.79158465903E+01  0.22170328612E+02  0.17770000000E+01 0.  1.
         15    1    3    3    0    0 -0.25692458097E+02  0.19434807391E+02  0.15135965983E+03  0.15476019674E+03  0.17770000000E+01 0. -1.
</event>
<event>
 7    1  0.4954109E-006  0.3640215E+03  0.7546771E-02  0.9769119E-01
        -11   -1    0    0    0    0  0.00000000000E+00  0.00000000000E+00  0.50000000000E+03  0.50000000000E+03  0.00000000000E+00 0. -1.
         11   -1    0    0    0    0 -0.00000000000E+00 -0.00000000000E+00 -0.50000000000E+03  0.50000000000E+03  0.00000000000E+00 0.  1.
         23    2    1    2    0    0 -0.10619771136E+03 -0.19416997527E+02  0.19244759794E+03  0.23925192946E+03  0.92468557374E+02 0.  0.
        -11    1    1    2    0    0  0.27674762263E+03 -0.17918521571E+02  0.19281719618E+03  0.33777032313E+03  0.00000000000E+00 0. -1.
         11    1    1    2    0    0 -0.17054991127E+03  0.37335519098E+02 -0.38526479412E+03  0.42297774741E+03  0.00000000000E+00 0.  1.
        -15    1    3    3    0    0 -0.97508869599E+01  0.28047748830E+02  0.19355920213E+02  0.35490356257E+02  0.17770000000E+01 0. -1.
         15    1    3    3    0    0 -0.96446824402E+02 -0.47464746358E+02  0.17309167773E+03  0.20376157320E+03  0.17770000000E+01 0.  1.
</event>
<event>
 7    1  0.6730882E-006  0.5076448E+03  0.7546771E-02  0.9382864E-01
        -11   -1    0    0    0    0  0.00000000000E+00  0.00000000000E+00  0.50000000000E+03  0.50000000000E+03  0.00000000000E+00 0. -1.
         11   -1    0    0    0    0 -0.00000000000E+00 -0.00000000000E+00 -0.50000000000E+03  0.50000000000E+03  0.00000000000E+00 0.  1.
         23    2    1    2    0    0 -0.31476961938E+02  0.89255189747E+02 -0.34861027523E+03  0.37337646428E+03  0.94464660354E+02 0.  0.
        -11    1    1    2    0    0  0.18024334177E+02 -0.14392719186E+03  0.47050365492E+03  0.49235515887E+03  0.00000000000E+00 0. -1.
         11    1    1    2    0    0  0.13452627761E+02  0.54672002113E+02 -0.12189337969E+03  0.13426837685E+03  0.00000000000E+00 0.  1.
        -15    1    3    3    0    0 -0.57590255094E+02  0.67549982792E+02 -0.17243709548E+03  0.19395192003E+03  0.17770000000E+01 0. -1.
         15    1    3    3    0    0  0.26113293156E+02  0.21705206955E+02 -0.17617317975E+03  0.17942454425E+03  0.17770000000E+01 0.  1.
</event>
<event>
 7    1  0.4954109E-006  0.5327224E+03  0.7546771E-02  0.9329428E-01
        -11   -1    0    0    0    0  0.00000000000E+00  0.00000000000E+00  0.50000000000E+03  0.50000000000E+03  0.00000000000E+00 0.  1.
         11   -1    0    0    0    0 -0.00000000000E+00 -0.00000000000E+00 -0.50000000000E+03  0.50000000000E+03  0.00000000000E+00 0. -1.
         23    2    1    2    0    0  0.10266084571E+03 -0.89112085395E+02  0.23987153209E+03  0.29227798517E+03  0.96994101376E+02 0.  0.
        -11    1    1    2    0    0 -0.82381308617E+02 -0.17061624202E+03  0.14804374407E+03  0.24044444724E+03  0.00000000000E+00 0.  1.
         11    1    1    2    0    0 -0.20279537095E+02  0.25972832742E+03 -0.38791527616E+03  0.46727756759E+03  0.00000000000E+00 0. -1.
        -15    1    3    3    0    0  0.54050345358E+02 -0.98643584687E+02  0.19645617477E+03  0.22638503256E+03  0.17770000000E+01 0.  1.
         15    1    3    3    0    0  0.48610500355E+02  0.95314992918E+01  0.43415357326E+02  0.65892952614E+02  0.17770000000E+01 0. -1.
</event>
<event>
 7    1  0.4954109E-006  0.5123675E+03  0.7546771E-02  0.9372554E-01
        -11   -1    0    0    0    0  0.00000000000E+00  0.00000000000E+00  0.50000000000E+03  0.50000000000E+03  0.00000000000E+00 0.  1.
         11   -1    0    0    0    0 -0.00000000000E+00 -0.00000000000E+00 -0.50000000000E+03  0.50000000000E+03  0.00000000000E+00 0. -1.
         23    2    1    2    0    0  0.22306023028E+03  0.13788202803E+03 -0.20687573021E+03  0.34526203306E+03  0.87412720689E+02 0.  0.
        -11    1    1    2    0    0 -0.26271478012E+03 -0.23485760963E+03  0.33705828077E+03  0.48763248162E+03  0.00000000000E+00 0.  1.
         11    1    1    2    0    0  0.39654549840E+02  0.96975581598E+02 -0.13018255057E+03  0.16710548531E+03  0.00000000000E+00 0. -1.
        -15    1    3    3    0    0  0.18941831102E+03  0.12810657149E+03 -0.20943342772E+03  0.31009048451E+03  0.17770000000E+01 0. -1.
         15    1    3    3    0    0  0.33641919260E+02  0.97754565414E+01  0.25576975087E+01  0.35171548553E+02  0.17770000000E+01 0.  1.
</event>
<event>
 7    1  0.4954109E-006  0.4188114E+03  0.7546771E-02  0.9602396E-01
        -11   -1    0    0    0    0  0.00000000000E+00  0.00000000000E+00  0.50000000000E+03  0.50000000000E+03  0.00000000000E+00 0.  1.
         11   -1    0    0    0    0 -0.00000000000E+00 -0.00000000000E+00 -0.50000000000E+03  0.50000000000E+03  0.00000000000E+00 0.  1.
         23    2    1    2    0    0 -0.22442263413E+03 -0.24615346463E+03 -0.25397835285E+03  0.42863773948E+03  0.90929979268E+02 0.  0.
        -11    1    1    2    0    0  0.24743035907E+03  0.10293189465E+03  0.31536503116E+03  0.41385004580E+03  0.00000000000E+00 0.  1.
         11    1    1    2    0    0 -0.23007724938E+02  0.14322156998E+03 -0.61386678309E+02  0.15751221472E+03  0.00000000000E+00 0.  1.
        -15    1    3    3    0    0 -0.20390441739E+03 -0.25156050139E+03 -0.23493889907E+03  0.40007391982E+03  0.17770000000E+01 0.  1.
         15    1    3    3    0    0 -0.20518216737E+02  0.54070367575E+01 -0.19039453778E+02  0.28563819663E+02  0.17770000000E+01 0. -1.
</event>
<event>
 7    1  0.4954109E-006  0.4271841E+03  0.7546771E-02  0.9579324E-01
        -11   -1    0    0    0    0  0.00000000000E+00  0.00000000000E+00  0.50000000000E+03  0.50000000000E+03  0.00000000000E+00 0. -1.
         11   -1    0    0    0    0 -0.00000000000E+00 -0.00000000000E+00 -0.50000000000E+03  0.50000000000E+03  0.00000000000E+00 0.  1.
         23    2    1    2    0    0 -0.24179992349E+03 -0.10939188288E+03 -0.27937489406E+03  0.39595489658E+03  0.91083267678E+02 0.  0.
        -11    1    1    2    0    0  0.22177586645E+03  0.37851104098E+02  0.40199816507E+03  0.46067316586E+03  0.00000000000E+00 0. -1.
         11    1    1    2    0    0  0.20024057045E+02  0.71540778782E+02 -0.12262327101E+03  0.14337193757E+03  0.00000000000E+00 0.  1.
        -15    1    3    3    0    0 -0.64622986177E+02 -0.18938521745E+00 -0.30389759429E+02  0.71434315398E+02  0.17770000000E+01 0. -1.
         15    1    3    3    0    0 -0.17717693732E+03 -0.10920249766E+03 -0.24898513463E+03  0.32452058118E+03  0.17770000000E+01 0.  1.
</event>
<event>
 7    1  0.4954109E-006  0.5326156E+03  0.7546771E-02  0.9329649E-01
        -11   -1    0    0    0    0  0.00000000000E+00  0.00000000000E+00  0.50000000000E+03  0.50000000000E+03  0.00000000000E+00 0.  1.
         11   -1    0    0    0    0 -0.00000000000E+00 -0.00000000000E+00 -0.50000000000E+03  0.50000000000E+03  0.00000000000E+00 0. -1.
         23    2    1    2    0    0  0.13256568921E+02 -0.74288354655E+02  0.12897901223E+03  0.17593042186E+03  0.92851663867E+02 0.  0.
        -11    1    1    2    0    0  0.48468086894E+02  0.12124513081E+03  0.33192586420E+03  0.35668517844E+03  0.00000000000E+00 0.  1.
         11    1    1    2    0    0 -0.61724655815E+02 -0.46956776150E+02 -0.46090487643E+03  0.46738439970E+03  0.00000000000E+00 0. -1.
        -15    1    3    3    0    0 -0.17191937929E+02 -0.83859940043E+02  0.78385235736E+02  0.11608382826E+03  0.17770000000E+01 0.  1.
         15    1    3    3    0    0  0.30448506850E+02  0.95715853872E+01  0.50593776495E+02  0.59846593598E+02  0.17770000000E+01 0. -1.
</event>
<event>
 7    1  0.4954109E-006  0.4710688E+03  0.7546771E-02  0.9466979E-01
        -11   -1    0    0    0    0  0.00000000000E+00  0.00000000000E+00  0.50000000000E+03  0.50000000000E+03  0.00000000000E+00 0. -1.
         11   -1    0    0    0    0 -0.00000000000E+00 -0.00000000000E+00 -0.50000000000E+03  0.50000000000E+03  0.00000000000E+00 0.  1.
         23    2    1    2    0    0  0.43546820888E+02 -0.12013608636E+03  0.41449521732E+03  0.44353638230E+03  0.92678111697E+02 0.  0.
        -11    1    1    2    0    0  0.36042395149E+02 -0.20406551604E+02  0.49861185544E+02  0.64819899879E+02  0.00000000000E+00 0. -1.
         11    1    1    2    0    0 -0.79589216036E+02  0.14054263796E+03 -0.46435640286E+03  0.49164371782E+03  0.00000000000E+00 0.  1.
        -15    1    3    3    0    0  0.26843496141E+02 -0.10780253727E+03  0.40617479436E+03  0.42109747283E+03  0.17770000000E+01 0. -1.
         15    1    3    3    0    0  0.16703324747E+02 -0.12333549090E+02  0.83204229617E+01  0.22438909466E+02  0.17770000000E+01 0.  1.
</event>
<event>
 7    1  0.4954109E-006  0.3340211E+03  0.7546771E-02  0.9874345E-01
        -11   -1    0    0    0    0  0.00000000000E+00  0.00000000000E+00  0.50000000000E+03  0.50000000000E+03  0.00000000000E+00 0.  1.
         11   -1    0    0    0    0 -0.00000000000E+00 -0.00000000000E+00 -0.50000000000E+03  0.50000000000E+03  0.00000000000E+00 0. -1.
         23    2    1    2    0    0  0.31115887302E+02 -0.16918727963E+03  0.22434923196E+03  0.29719680227E+03  0.91656027462E+02 0.  0.
        -11    1    1    2    0    0  0.90498745749E+02  0.20799544882E+03  0.17311389462E+03  0.28534286433E+03  0.00000000000E+00 0.  1.
         11    1    1    2    0    0 -0.12161463305E+03 -0.38808169191E+02 -0.39746312658E+03  0.41746033339E+03  0.00000000000E+00 0. -1.
        -15    1    3    3    0    0  0.12681049582E+02 -0.86465757516E+02  0.18316499056E+03  0.20295247655E+03  0.17770000000E+01 0.  1.
         15    1    3    3    0    0  0.18434837720E+02 -0.82721522117E+02  0.41184241398E+02  0.94244325727E+02  0.17770000000E+01 0. -1.
</event>
<event>
 6    1  0.4954109E-006  0.5978291E+03  0.7546771E-02  0.9204123E-01
        -11   -1    0    0    0    0  0.00000000000E+00  0.00000000000E+00  0.50000000000E+03  0.50000000000E+03  0.00000000000E+00 0.  1.
         11   -1    0    0    0    0 -0.00000000000E+00 -0.00000000000E+00 -0.50000000000E+03  0.50000000000E+03  0.00000000000E+00 0. -1.
        -11    1    1    2    0    0  0.49655181591E+02  0.84492198151E+01 -0.23475469516E+03  0.24009746620E+03  0.00000000000E+00 0. -1.
         11    1    1    2    0    0 -0.11307782501E+02  0.27442867874E+02 -0.15933245972E+03  0.16207346996E+03  0.00000000000E+00 0.  1.
        -15    1    1    2    0    0 -0.11600689778E+03  0.18323937945E+03  0.19856309809E+03  0.29404886017E+03  0.17770000000E+01 0. -1.
         15    1    1    2    0    0  0.77659498695E+02 -0.21913146714E+03  0.19552405679E+03  0.30378020367E+03  0.17770000000E+01 0.  1.
</event>
<event>
 7    1  0.4954109E-006  0.5187603E+03  0.7546771E-02  0.9358784E-01
        -11   -1    0    0    0    0  0.00000000000E+00  0.00000000000E+00  0.50000000000E+03  0.50000000000E+03  0.00000000000E+00 0.  1.
         11   -1    0    0    0    0 -0.00000000000E+00 -0.00000000000E+00 -0.50000000000E+03  0.50000000000E+03  0.00000000000E+00 0. -1.
         23    2    1    2    0    0 -0.11649169416E+03  0.12969706422E+03 -0.15913100898E+03  0.25359702189E+03  0.92720700056E+02 0.  0.
        -11    1    1    2    0    0  0.23021324181E+03 -0.14094811726E+03  0.39840573375E+03  0.48123968784E+03  0.00000000000E+00 0.  1.
         11    1    1    2    0    0 -0.11372154764E+03  0.11251053043E+02 -0.23927472477E+03  0.26516329027E+03  0.00000000000E+00 0. -1.
        -15    1    3    3    0    0 -0.69403191907E+02  0.22422755798E+02 -0.29051229565E+02  0.78528432384E+02  0.17770000000E+01 0.  1.
         15    1    3    3    0    0 -0.47088502258E+02  0.10727430842E+03 -0.13007977941E+03  0.17506858951E+03  0.17770000000E+01 0. -1.
</event>
<event>
 7    1  0.4954109E-006  0.4611635E+03  0.7546771E-02  0.9491165E-01
        -11   -1    0    0    0    0  0.00000000000E+00  0.00000000000E+00  0.50000000000E+03  0.50000000000E+03  0.00000000000E+00 0. -1.
         11   -1    0    0    0    0 -0.00000000000E+00 -0.00000000000E+00 -0.50000000000E+03  0.50000000000E+03  0.00000000000E+00 0.  1.
         23    2    1    2    0    0  0.15149850411E+03 -0.23330062811E+02  0.39176722658E+03  0.43074304944E+03  0.92530677305E+02 0.  0.
        -11    1    1    2    0    0 -0.28031842831E+02 -0.16905451531E+02  0.76557351712E+02  0.83262276002E+02  0.00000000000E+00 0. -1.
         11    1    1    2    0    0 -0.12346666128E+03  0.40235514342E+02 -0.46832457829E+03  0.48599467455E+03  0.00000000000E+00 0.  1.
        -15    1    3    3    0    0  0.34323197028E+02 -0.47729794342E+02  0.14502935719E+03  0.15650203608E+03  0.17770000000E+01 0.  1.
         15    1    3    3    0    0  0.11717530708E+03  0.24399731531E+02  0.24673786939E+03  0.27424101336E+03  0.17770000000E+01 0. -1.
</event>
<event>
 7    1  0.4954109E-006  0.5101570E+03  0.7546771E-02  0.9377365E-01
        -11   -1    0    0    0    0  0.00000000000E+00  0.00000000000E+00  0.50000000000E+03  0.50000000000E+03  0.00000000000E+00 0.  1.
         11   -1    0    0    0    0 -0.00000000000E+00 -0.00000000000E+00 -0.50000000000E+03  0.50000000000E+03  0.00000000000E+00 0. -1.
         23    2    1    2    0    0 -0.91723368303E+02 -0.10599742491E+03 -0.30874321646E+03  0.35858366568E+03  0.11666722418E+03 0.  0.
        -11    1    1    2    0    0  0.11489266957E+03  0.15038838271E+03  0.45180653094E+03  0.48984296726E+03  0.00000000000E+00 0.  1.
         11    1    1    2    0    0 -0.23169301270E+02 -0.44390957794E+02 -0.14306331447E+03  0.15157336706E+03  0.00000000000E+00 0. -1.
        -15    1    3    3    0    0 -0.60445617107E+02 -0.12469787332E+03 -0.19572446680E+03  0.23982171893E+03  0.17770000000E+01 0.  1.
         15    1    3    3    0    0 -0.31277751196E+02  0.18700448406E+02 -0.11301874966E+03  0.11876194675E+03  0.17770000000E+01 0. -1.
</event>
<event>
 7    1  0.4954109E-006  0.5256979E+03  0.7546771E-02  0.9344076E-01
        -11   -1    0    0    0    0  0.00000000000E+00  0.00000000000E+00  0.50000000000E+03  0.50000000000E+03  0.00000000000E+00 0.  1.
         11   -1    0    0    0    0 -0.00000000000E+00 -0.00000000000E+00 -0.50000000000E+03  0.50000000000E+03  0.00000000000E+00 0.  1.
         23    2    1    2    0    0  0.58779246037E+02 -0.86574926174E+02 -0.15190857093E+03  0.20522795878E+03  0.89956008887E+02 0.  0.
        -11    1    1    2    0    0 -0.12142798735E+03  0.16177203149E+02  0.45820955901E+03  0.47430207462E+03  0.00000000000E+00 0.  1.
         11    1    1    2    0    0  0.62648741316E+02  0.70397723025E+02 -0.30630098808E+03  0.32046996660E+03  0.00000000000E+00 0.  1.
        -15    1    3    3    0    0  0.33159081392E+02 -0.54946242541E+02 -0.20111648750E+02  0.67277413688E+02  0.17770000000E+01 0.  1.
         15    1    3    3    0    0  0.25620164645E+02 -0.31628683634E+02 -0.13179692218E+03  0.13795054509E+03  0.17770000000E+01 0. -1.
</event>
<event>
 7    1  0.4954109E-006  0.4655325E+03  0.7546771E-02  0.9480418E-01
        -11   -1    0    0    0    0  0.00000000000E+00  0.00000000000E+00  0.50000000000E+03  0.50000000000E+03  0.00000000000E+00 0.  1.
         11   -1    0    0    0    0 -0.00000000000E+00 -0.00000000000E+00 -0.50000000000E+03  0.50000000000E+03  0.00000000000E+00 0. -1.
         23    2    1    2    0    0  0.14551723018E+02  0.37462201480E+03 -0.19114249835E+03  0.43443910958E+03  0.10792811797E+03 0.  0.
        -11    1    1    2    0    0 -0.74656128855E+01 -0.41248475663E+03  0.25929817986E+03  0.48727297884E+03  0.00000000000E+00 0.  1.
         11    1    1    2    0    0 -0.70861101329E+01  0.37862741832E+02 -0.68155681518E+02  0.78287911577E+02  0.00000000000E+00 0. -1.
        -15    1    3    3    0    0 -0.24323356462E+02  0.14088883652E+03 -0.12103717231E+03  0.18733511346E+03  0.17770000000E+01 0.  1.
         15    1    3    3    0    0  0.38875079481E+02  0.23373317828E+03 -0.70105326038E+02  0.24710399613E+03  0.17770000000E+01 0. -1.
</event>
<event>
 7    1  0.4954109E-006  0.5114347E+03  0.7546771E-02  0.9374581E-01
        -11   -1    0    0    0    0  0.00000000000E+00  0.00000000000E+00  0.50000000000E+03  0.50000000000E+03  0.00000000000E+00 0.  1.
         11   -1    0    0    0    0 -0.00000000000E+00 -0.00000000000E+00 -0.50000000000E+03  0.50000000000E+03  0.00000000000E+00 0.  1.
         23    2    1    2    0    0  0.76680854475E+02  0.14907535400E+02  0.22125565632E+03  0.25159588533E+03  0.90797775342E+02 0.  0.
        -11    1    1    2    0    0  0.11182562103E+02  0.46400650737E+02  0.25541758171E+03  0.25983881759E+03  0.00000000000E+00 0.  1.
         11    1    1    2    0    0 -0.87863416578E+02 -0.61308186137E+02 -0.47667323802E+03  0.48856529708E+03  0.00000000000E+00 0.  1.
        -15    1    3    3    0    0 -0.28457400133E+01  0.22370264948E+02  0.82142187323E+01  0.24065703989E+02  0.17770000000E+01 0. -1.
         15    1    3    3    0    0  0.79526594488E+02 -0.74627295480E+01  0.21304143759E+03  0.22753018134E+03  0.17770000000E+01 0.  1.
</event>
<event>
 7    1  0.4954109E-006  0.5088034E+03  0.7546771E-02  0.9380324E-01
        -11   -1    0    0    0    0  0.00000000000E+00  0.00000000000E+00  0.50000000000E+03  0.50000000000E+03  0.00000000000E+00 0. -1.
         11   -1    0    0    0    0 -0.00000000000E+00 -0.00000000000E+00 -0.50000000000E+03  0.50000000000E+03  0.00000000000E+00 0.  1.
         23    2    1    2    0    0 -0.10000054437E+02  0.25880273499E+02  0.29784313155E+03  0.31252870409E+03  0.90519999039E+02 0.  0.
        -11    1    1    2    0    0  0.30495622706E+02  0.52682476451E+02  0.18659668904E+03  0.19627468174E+03  0.00000000000E+00 0. -1.
         11    1    1    2    0    0 -0.20495568269E+02 -0.78562749950E+02 -0.48443982059E+03  0.49119661417E+03  0.00000000000E+00 0.  1.
        -15    1    3    3    0    0  0.36639744544E+02 -0.62428712999E+01  0.13850973461E+03  0.14342087935E+03  0.17770000000E+01 0.  1.
         15    1    3    3    0    0 -0.46639798981E+02  0.32123144799E+02  0.15933339694E+03  0.16910782474E+03  0.17770000000E+01 0. -1.
</event>
<event>
 7    1  0.4954109E-006  0.5019679E+03  0.7546771E-02  0.9395417E-01
        -11   -1    0    0    0    0  0.00000000000E+00  0.00000000000E+00  0.50000000000E+03  0.50000000000E+03  0.00000000000E+00 0.  1.
         11   -1    0    0    0    0 -0.00000000000E+00 -0.00000000000E+00 -0.50000000000E+03  0.50000000000E+03  0.00000000000E+00 0. -1.
         23    2    1    2    0    0 -0.83714587462E+02  0.93498829403E+02  0.47328288874E+03  0.49803205475E+03  0.91044338310E+02 0.  0.
        -11    1    1    2    0    0  0.14831215049E+02 -0.34210554329E+02 -0.25785098430E+02  0.45334294616E+02  0.00000000000E+00 0.  1.
         11    1    1    2    0    0  0.68883372413E+02 -0.59288275074E+02 -0.44749779031E+03  0.45663365063E+03  0.00000000000E+00 0. -1.
        -15    1    3    3    0    0 -0.51611418255E+02  0.74535377039E+02  0.43579579139E+03  0.44512963330E+03  0.17770000000E+01 0.  1.
         15    1    3    3    0    0 -0.32103169207E+02  0.18963452364E+02  0.37487097348E+02  0.52902421450E+02  0.17770000000E+01 0. -1.
</event>
<event>
 7    1  0.4954109E-006  0.5025164E+03  0.7546771E-02  0.9394197E-01
        -11   -1    0    0    0    0  0.00000000000E+00  0.00000000000E+00  0.50000000000E+03  0.50000000000E+03  0.00000000000E+00 0.  1.
         11   -1    0    0    0    0 -0.00000000000E+00 -0.00000000000E+00 -0.50000000000E+03  0.50000000000E+03  0.00000000000E+00 0.  1.
         23    2    1    2    0    0 -0.24589242791E+02  0.43561781413E+02  0.48678256907E+03  0.49748356483E+03  0.89612320903E+02 0.  0.
        -11    1    1    2    0    0  0.42259448574E+02  0.22468509771E+02 -0.11599721405E+03  0.12548326021E+03  0.00000000000E+00 0.  1.
         11    1    1    2    0    0 -0.17670205783E+02 -0.66030291184E+02 -0.37078535502E+03  0.37703317496E+03  0.00000000000E+00 0.  1.
        -15    1    3    3    0    0 -0.58015725241E+02  0.18906310042E+02  0.29302409347E+03  0.29931513497E+03  0.17770000000E+01 0.  1.
         15    1    3    3    0    0  0.33426482450E+02  0.24655471371E+02  0.19375847560E+03  0.19816842986E+03  0.17770000000E+01 0. -1.
</event>
<event>
 7    1  0.4954109E-006  0.4003990E+03  0.7546771E-02  0.9655222E-01
        -11   -1    0    0    0    0  0.00000000000E+00  0.00000000000E+00  0.50000000000E+03  0.50000000000E+03  0.00000000000E+00 0. -1.
         11   -1    0    0    0    0 -0.00000000000E+00 -0.00000000000E+00 -0.50000000000E+03  0.50000000000E+03  0.00000000000E+00 0.  1.
         23    2    1    2    0    0  0.54945706601E+02  0.22161498444E+03 -0.27697715411E+03  0.37036969959E+03  0.91242196770E+02 0.  0.
        -11    1    1    2    0    0 -0.67370301128E+02 -0.10531514177E+03  0.42383413817E+03  0.44188846244E+03  0.00000000000E+00 0. -1.
         11    1    1    2    0    0  0.12424594527E+02 -0.11629984268E+03 -0.14685698407E+03  0.18774183797E+03  0.00000000000E+00 0.  1.
        -15    1    3    3    0    0 -0.88741551574E+01  0.14861743209E+03 -0.16610803056E+03  0.22307157438E+03  0.17770000000E+01 0. -1.
         15    1    3    3    0    0  0.63819861758E+02  0.72997552352E+02 -0.11086912355E+03  0.14729812521E+03  0.17770000000E+01 0.  1.
</event>
<event>
 7    1  0.4954109E-006  0.5144300E+03  0.7546771E-02  0.9368088E-01
        -11   -1    0    0    0    0  0.00000000000E+00  0.00000000000E+00  0.50000000000E+03  0.50000000000E+03  0.00000000000E+00 0.  1.
         11   -1    0    0    0    0 -0.00000000000E+00 -0.00000000000E+00 -0.50000000000E+03  0.50000000000E+03  0.00000000000E+00 0.  1.
         23    2    1    2    0    0  0.71829572395E+02 -0.19622943510E+02 -0.15857758861E+03  0.19488499786E+03  0.85374254900E+02 0.  0.
        -11    1    1    2    0    0 -0.81841338064E+02  0.90859883526E+02  0.46991992377E+03  0.48557003388E+03  0.00000000000E+00 0.  1.
         11    1    1    2    0    0  0.10011765669E+02 -0.71236940016E+02 -0.31134233516E+03  0.31954496826E+03  0.00000000000E+00 0.  1.
        -15    1    3    3    0    0  0.74854538028E+02  0.77842722934E+01 -0.72626935188E+02  0.10460222848E+03  0.17770000000E+01 0.  1.
         15    1    3    3    0    0 -0.30249656331E+01 -0.27407215803E+02 -0.85950653421E+02  0.90282769384E+02  0.17770000000E+01 0. -1.
</event>
<event>
 7    1  0.4954109E-006  0.5269146E+03  0.7546771E-02  0.9341522E-01
        -11   -1    0    0    0    0  0.00000000000E+00  0.00000000000E+00  0.50000000000E+03  0.50000000000E+03  0.00000000000E+00 0. -1.
         11   -1    0    0    0    0 -0.00000000000E+00 -0.00000000000E+00 -0.50000000000E+03  0.50000000000E+03  0.00000000000E+00 0.  1.
         23    2    1    2    0    0  0.10121059913E+03  0.52140051198E+02 -0.25371846662E+03  0.29221607152E+03  0.89749662023E+02 0.  0.
        -11    1    1    2    0    0 -0.54350138325E+01 -0.81946570175E+02  0.46590236764E+03  0.47308540023E+03  0.00000000000E+00 0. -1.
         11    1    1    2    0    0 -0.95775585300E+02  0.29806518976E+02 -0.21218390102E+03  0.23469852825E+03  0.00000000000E+00 0.  1.
        -15    1    3    3    0    0  0.26794987632E+02 -0.21699603348E+02 -0.10286640216E+03  0.10850575363E+03  0.17770000000E+01 0.  1.
         15    1    3    3    0    0  0.74415611500E+02  0.73839654547E+02 -0.15085206446E+03  0.18371031789E+03  0.17770000000E+01 0. -1.
</event>
<event>
 7    1  0.4954109E-006  0.3365774E+03  0.7546771E-02  0.9864924E-01
        -11   -1    0    0    0    0  0.00000000000E+00  0.00000000000E+00  0.50000000000E+03  0.50000000000E+03  0.00000000000E+00 0.  1.
         11   -1    0    0    0    0 -0.00000000000E+00 -0.00000000000E+00 -0.50000000000E+03  0.50000000000E+03  0.00000000000E+00 0. -1.
         23    2    1    2    0    0  0.17389671826E+03  0.16973665155E+03  0.81227660595E+02  0.27973202311E+03  0.11225628005E+03 0.  0.
        -11    1    1    2    0    0 -0.14615391219E+03 -0.79420289264E+02  0.29157175178E+03  0.33568234215E+03  0.00000000000E+00 0.  1.
         11    1    1    2    0    0 -0.27742806068E+02 -0.90316362283E+02 -0.37279941237E+03  0.38458563474E+03  0.00000000000E+00 0. -1.
        -15    1    3    3    0    0  0.17404661129E+03  0.10849756859E+03  0.73992377981E+02  0.21804122321E+03  0.17770000000E+01 0.  1.
         15    1    3    3    0    0 -0.14989302997E+00  0.61239082957E+02  0.72352826139E+01  0.61690799905E+02  0.17770000000E+01 0. -1.
</event>
<event>
 7    1  0.4954109E-006  0.4592274E+03  0.7546771E-02  0.9495968E-01
        -11   -1    0    0    0    0  0.00000000000E+00  0.00000000000E+00  0.50000000000E+03  0.50000000000E+03  0.00000000000E+00 0.  1.
         11   -1    0    0    0    0 -0.00000000000E+00 -0.00000000000E+00 -0.50000000000E+03  0.50000000000E+03  0.00000000000E+00 0. -1.
         23    2    1    2    0    0  0.13695010030E+03  0.65416676143E+02  0.40201677256E+03  0.44316605624E+03  0.10836972131E+03 0.  0.
        -11    1    1    2    0    0 -0.41319851583E+02 -0.58283932027E+02  0.54812174638E+02  0.90048438942E+02  0.00000000000E+00 0.  1.
         11    1    1    2    0    0 -0.95630248718E+02 -0.71327441161E+01 -0.45682894720E+03  0.46678550482E+03  0.00000000000E+00 0. -1.
        -15    1    3    3    0    0 -0.37522721116E+01  0.41857759994E+02  0.11912412054E+03  0.12633236102E+03  0.17770000000E+01 0.  1.
         15    1    3    3    0    0  0.14070237241E+03  0.23558916149E+02  0.28289265202E+03  0.31683369522E+03  0.17770000000E+01 0. -1.
</event>
<event>
 7    1  0.4954109E-006  0.4463385E+03  0.7546771E-02  0.9528598E-01
        -11   -1    0    0    0    0  0.00000000000E+00  0.00000000000E+00  0.50000000000E+03  0.50000000000E+03  0.00000000000E+00 0. -1.
         11   -1    0    0    0    0 -0.00000000000E+00 -0.00000000000E+00 -0.50000000000E+03  0.50000000000E+03  0.00000000000E+00 0. -1.
         23    2    1    2    0    0 -0.23426897872E+02  0.34528452924E+01  0.47707241501E+02  0.10573559789E+03  0.91341633909E+02 0.  0.
        -11    1    1    2    0    0  0.28096042523E+03 -0.13930143887E+03  0.30462162474E+03  0.43719330471E+03  0.00000000000E+00 0. -1.
         11    1    1    2    0    0 -0.25753352736E+03  0.13584859358E+03 -0.35232886625E+03  0.45707109740E+03  0.00000000000E+00 0. -1.
        -15    1    3    3    0    0  0.22510159818E+02  0.99214225686E+01 -0.14119706699E+02  0.28419461063E+02  0.17770000000E+01 0.  1.
         15    1    3    3    0    0 -0.45937057691E+02 -0.64685772762E+01  0.61826948200E+02  0.77316136828E+02  0.17770000000E+01 0. -1.
</event>
<event>
 7    1  0.4954109E-006  0.4140802E+03  0.7546771E-02  0.9615689E-01
        -11   -1    0    0    0    0  0.00000000000E+00  0.00000000000E+00  0.50000000000E+03  0.50000000000E+03  0.00000000000E+00 0.  1.
         11   -1    0    0    0    0 -0.00000000000E+00 -0.00000000000E+00 -0.50000000000E+03  0.50000000000E+03  0.00000000000E+00 0. -1.
         23    2    1    2    0    0 -0.86386135156E+02  0.89824714338E+02 -0.36574338677E+02  0.16171710487E+03  0.96351938770E+02 0.  0.
        -11    1    1    2    0    0  0.14956845557E+03 -0.10039945781E+03  0.41608338049E+03  0.45340506564E+03  0.00000000000E+00 0.  1.
         11    1    1    2    0    0 -0.63182320415E+02  0.10574743473E+02 -0.37950904181E+03  0.38487782949E+03  0.00000000000E+00 0. -1.
        -15    1    3    3    0    0  0.20037754623E+02  0.33668811814E+01 -0.50410724972E+01  0.21009941460E+02  0.17770000000E+01 0.  1.
         15    1    3    3    0    0 -0.10642388978E+03  0.86457833157E+02 -0.31533266180E+02  0.14070716341E+03  0.17770000000E+01 0. -1.
</event>
<event>
 7    1  0.4954109E-006  0.5191670E+03  0.7546771E-02  0.9357915E-01
        -11   -1    0    0    0    0  0.00000000000E+00  0.00000000000E+00  0.50000000000E+03  0.50000000000E+03  0.00000000000E+00 0.  1.
         11   -1    0    0    0    0 -0.00000000000E+00 -0.00000000000E+00 -0.50000000000E+03  0.50000000000E+03  0.00000000000E+00 0. -1.
         23    2    1    2    0    0 -0.10547700898E+03  0.83178491653E+01  0.20573382269E+03  0.24905326411E+03  0.92230887058E+02 0.  0.
        -11    1    1    2    0    0 -0.37861574562E+02  0.13725926147E+03  0.22953824096E+03  0.27011369412E+03  0.00000000000E+00 0.  1.
         11    1    1    2    0    0  0.14333858354E+03 -0.14557711063E+03 -0.43527206365E+03  0.48083304178E+03  0.00000000000E+00 0. -1.
        -15    1    3    3    0    0 -0.10578985834E+02 -0.68714538984E+00 -0.90552042933E+01  0.14054948020E+02  0.17770000000E+01 0. -1.
         15    1    3    3    0    0 -0.94898023142E+02  0.90049945551E+01  0.21478902698E+03  0.23499831609E+03  0.17770000000E+01 0.  1.
</event>
<event>
 6    1  0.4954109E-006  0.4336527E+03  0.7546771E-02  0.9561882E-01
        -11   -1    0    0    0    0  0.00000000000E+00  0.00000000000E+00  0.50000000000E+03  0.50000000000E+03  0.00000000000E+00 0.  1.
         11   -1    0    0    0    0 -0.00000000000E+00 -0.00000000000E+00 -0.50000000000E+03  0.50000000000E+03  0.00000000000E+00 0. -1.
        -11    1    1    2    0    0 -0.11779627099E+03 -0.70227764221E+02  0.59477824625E+02  0.14948415284E+03  0.00000000000E+00 0.  1.
         11    1    1    2    0    0 -0.34622930858E+02 -0.66346636554E+02 -0.40886731541E+03  0.41565984306E+03  0.00000000000E+00 0. -1.
        -15    1    1    2    0    0  0.11427686760E+03  0.20808429008E+00  0.12369110990E+03  0.16840989924E+03  0.17770000000E+01 0.  1.
         15    1    1    2    0    0  0.38142334253E+02  0.13636631648E+03  0.22569838088E+03  0.26644610486E+03  0.17770000000E+01 0. -1.
</event>
<event>
 7    1  0.4954109E-006  0.5310188E+03  0.7546771E-02  0.9332958E-01
        -11   -1    0    0    0    0  0.00000000000E+00  0.00000000000E+00  0.50000000000E+03  0.50000000000E+03  0.00000000000E+00 0. -1.
         11   -1    0    0    0    0 -0.00000000000E+00 -0.00000000000E+00 -0.50000000000E+03  0.50000000000E+03  0.00000000000E+00 0.  1.
         23    2    1    2    0    0  0.85198011133E+02 -0.22353544344E+03  0.27750662199E+03  0.37734880539E+03  0.90307253921E+02 0.  0.
        -11    1    1    2    0    0 -0.10495740715E+03 -0.72174082429E+02  0.85961121391E+02  0.15367000319E+03  0.00000000000E+00 0. -1.
         11    1    1    2    0    0  0.19759396021E+02  0.29570952587E+03 -0.36346774338E+03  0.46898119141E+03  0.00000000000E+00 0.  1.
        -15    1    3    3    0    0  0.54447318700E+02 -0.21757899917E+03  0.24147845592E+03  0.32957568751E+03  0.17770000000E+01 0.  1.
         15    1    3    3    0    0  0.30750692433E+02 -0.59564442691E+01  0.36028166067E+02  0.47773117886E+02  0.17770000000E+01 0. -1.
</event>
<event>
 7    1  0.4954109E-006  0.3753630E+03  0.7546771E-02  0.9732134E-01
        -11   -1    0    0    0    0  0.00000000000E+00  0.00000000000E+00  0.50000000000E+03  0.50000000000E+03  0.00000000000E+00 0.  1.
         11   -1    0    0    0    0 -0.00000000000E+00 -0.00000000000E+00 -0.50000000000E+03  0.50000000000E+03  0.00000000000E+00 0.  1.
         23    2    1    2    0    0  0.36610962385E+01 -0.69081510408E+02  0.31545010932E+03  0.33545075856E+03  0.90734674994E+02 0.  0.
        -11    1    1    2    0    0 -0.21435801453E+03  0.30224985081E+02  0.66628523513E+02  0.22650004032E+03  0.00000000000E+00 0.  1.
         11    1    1    2    0    0  0.21069691830E+03  0.38856525327E+02 -0.38207863283E+03  0.43804920112E+03  0.00000000000E+00 0.  1.
        -15    1    3    3    0    0 -0.19658289317E+02  0.14873853690E+02  0.10073047894E+03  0.10371820949E+03  0.17770000000E+01 0. -1.
         15    1    3    3    0    0  0.23319385555E+02 -0.83955364098E+02  0.21471963037E+03  0.23173254907E+03  0.17770000000E+01 0.  1.
</event>
<event>
 7    1  0.4954109E-006  0.3524659E+03  0.7546771E-02  0.9808317E-01
        -11   -1    0    0    0    0  0.00000000000E+00  0.00000000000E+00  0.50000000000E+03  0.50000000000E+03  0.00000000000E+00 0. -1.
         11   -1    0    0    0    0 -0.00000000000E+00 -0.00000000000E+00 -0.50000000000E+03  0.50000000000E+03  0.00000000000E+00 0. -1.
         23    2    1    2    0    0 -0.19720410923E+03 -0.14385739732E+03 -0.13158505575E+03  0.30154896241E+03  0.11845985977E+03 0.  0.
        -11    1    1    2    0    0  0.17652786640E+03  0.75829849756E+02  0.38767675629E+03  0.43267253332E+03  0.00000000000E+00 0. -1.
         11    1    1    2    0    0  0.20676242830E+02  0.68027547567E+02 -0.25609170053E+03  0.26577850426E+03  0.00000000000E+00 0. -1.
        -15    1    3    3    0    0 -0.84162955353E+02 -0.12965412861E+03 -0.54202955066E+02  0.16381304645E+03  0.17770000000E+01 0. -1.
         15    1    3    3    0    0 -0.11304115387E+03 -0.14203268710E+02 -0.77382100688E+02  0.13773591596E+03  0.17770000000E+01 0.  1.
</event>
<event>
 7    1  0.4954109E-006  0.4268104E+03  0.7546771E-02  0.9580341E-01
        -11   -1    0    0    0    0  0.00000000000E+00  0.00000000000E+00  0.50000000000E+03  0.50000000000E+03  0.00000000000E+00 0.  1.
         11   -1    0    0    0    0 -0.00000000000E+00 -0.00000000000E+00 -0.50000000000E+03  0.50000000000E+03  0.00000000000E+00 0.  1.
         23    2    1    2    0    0  0.55768458449E+02 -0.27128114713E+02  0.82129921579E+02  0.14019768992E+03  0.95205108453E+02 0.  0.
        -11    1    1    2    0    0 -0.27459862817E+03 -0.78235268036E+02  0.29543834118E+03  0.41086369662E+03  0.00000000000E+00 0.  1.
         11    1    1    2    0    0  0.21883016972E+03  0.10536338275E+03 -0.37756826276E+03  0.44893861346E+03  0.00000000000E+00 0.  1.
        -15    1    3    3    0    0  0.14350363297E+02  0.21619418910E+02  0.70517062830E+02  0.75160801485E+02  0.17770000000E+01 0. -1.
         15    1    3    3    0    0  0.41418095152E+02 -0.48747533624E+02  0.11612858750E+02  0.65036888438E+02  0.17770000000E+01 0.  1.
</event>
<event>
 7    1  0.4954109E-006  0.5323781E+03  0.7546771E-02  0.9330140E-01
        -11   -1    0    0    0    0  0.00000000000E+00  0.00000000000E+00  0.50000000000E+03  0.50000000000E+03  0.00000000000E+00 0. -1.
         11   -1    0    0    0    0 -0.00000000000E+00 -0.00000000000E+00 -0.50000000000E+03  0.50000000000E+03  0.00000000000E+00 0.  1.
         23    2    1    2    0    0 -0.89766823183E+01 -0.12577104073E+02 -0.60069092359E+02  0.10958051719E+03  0.90337309676E+02 0.  0.
        -11    1    1    2    0    0 -0.25003939071E+03  0.12013526106E+03  0.37645454003E+03  0.46762185424E+03  0.00000000000E+00 0. -1.
         11    1    1    2    0    0  0.25901607303E+03 -0.10755815699E+03 -0.31638544767E+03  0.42279762856E+03  0.00000000000E+00 0.  1.
        -15    1    3    3    0    0  0.31521802154E+02 -0.33698810378E+01 -0.60143951040E+02  0.68010533632E+02  0.17770000000E+01 0.  1.
         15    1    3    3    0    0 -0.40498484472E+02 -0.92072230354E+01  0.74858681444E-01  0.41569983562E+02  0.17770000000E+01 0. -1.
</event>
<event>
 7    1  0.4954109E-006  0.5196319E+03  0.7546771E-02  0.9356922E-01
        -11   -1    0    0    0    0  0.00000000000E+00  0.00000000000E+00  0.50000000000E+03  0.50000000000E+03  0.00000000000E+00 0.  1.
         11   -1    0    0    0    0 -0.00000000000E+00 -0.00000000000E+00 -0.50000000000E+03  0.50000000000E+03  0.00000000000E+00 0. -1.
         23    2    1    2    0    0 -0.13280173406E+03  0.11161556096E+03 -0.14046713301E+03  0.23873501670E+03  0.84670294222E+02 0.  0.
        -11    1    1    2    0    0  0.17011927941E+03 -0.35568322581E+03  0.27441278868E+03  0.48036809317E+03  0.00000000000E+00 0.  1.
         11    1    1    2    0    0 -0.37317545351E+02  0.24406766485E+03 -0.13394565566E+03  0.28089689013E+03  0.00000000000E+00 0. -1.
        -15    1    3    3    0    0 -0.48808647609E+02  0.36586162997E+02 -0.10356301131E+03  0.12020518477E+03  0.17770000000E+01 0. -1.
         15    1    3    3    0    0 -0.83993086448E+02  0.75029397961E+02 -0.36904121702E+02  0.11852983193E+03  0.17770000000E+01 0.  1.
</event>
<event>
 7    1  0.4954109E-006  0.4407575E+03  0.7546771E-02  0.9543094E-01
        -11   -1    0    0    0    0  0.00000000000E+00  0.00000000000E+00  0.50000000000E+03  0.50000000000E+03  0.00000000000E+00 0.  1.
         11   -1    0    0    0    0 -0.00000000000E+00 -0.00000000000E+00 -0.50000000000E+03  0.50000000000E+03  0.00000000000E+00 0. -1.
         23    2    1    2    0    0  0.77088725541E+02 -0.82912942799E+02  0.42651651630E+03  0.45090494869E+03  0.92637499895E+02 0.  0.
        -11    1    1    2    0    0 -0.11908432173E+03 -0.11741234993E+02 -0.10202664527E+02  0.12009590603E+03  0.00000000000E+00 0.  1.
         11    1    1    2    0    0  0.41995596187E+02  0.94654177792E+02 -0.41631385178E+03  0.42899914528E+03  0.00000000000E+00 0. -1.
        -15    1    3    3    0    0  0.13487876775E+02 -0.76746385749E+02  0.28780965790E+03  0.29817693984E+03  0.17770000000E+01 0.  1.
         15    1    3    3    0    0  0.63600848766E+02 -0.61665570497E+01  0.13870685840E+03  0.15272800885E+03  0.17770000000E+01 0. -1.
</event>
<event>
 7    1  0.6092919E-006  0.4580549E+03  0.7546771E-02  0.9498889E-01
        -11   -1    0    0    0    0  0.00000000000E+00  0.00000000000E+00  0.50000000000E+03  0.50000000000E+03  0.00000000000E+00 0. -1.
         11   -1    0    0    0    0 -0.00000000000E+00 -0.00000000000E+00 -0.50000000000E+03  0.50000000000E+03  0.00000000000E+00 0.  1.
         23    2    1    2    0    0  0.11156831249E+03 -0.19657596012E+02 -0.38121553073E+03  0.41569722559E+03  0.12101649913E+03 0.  0.
        -11    1    1    2    0    0 -0.11101449170E+03  0.35166389956E+02  0.47509024061E+03  0.48915399321E+03  0.00000000000E+00 0. -1.
         11    1    1    2    0    0 -0.55382078920E+00 -0.15508793944E+02 -0.93874709885E+02  0.95148781196E+02  0.00000000000E+00 0.  1.
        -15    1    3    3    0    0  0.32046810628E+01  0.98437283815E+01  0.62888412184E+01  0.12242394457E+02  0.17770000000E+01 0. -1.
         15    1    3    3    0    0  0.10836363143E+03 -0.29501324394E+02 -0.38750437195E+03  0.40345483113E+03  0.17770000000E+01 0.  1.
</event>
<event>
 7    1  0.4954109E-006  0.5336626E+03  0.7546771E-02  0.9327485E-01
        -11   -1    0    0    0    0  0.00000000000E+00  0.00000000000E+00  0.50000000000E+03  0.50000000000E+03  0.00000000000E+00 0. -1.
         11   -1    0    0    0    0 -0.00000000000E+00 -0.00000000000E+00 -0.50000000000E+03  0.50000000000E+03  0.00000000000E+00 0.  1.
         23    2    1    2    0    0 -0.54083216725E+02  0.38391415941E+02  0.23906352643E+03  0.26453739427E+03  0.91813768850E+02 0.  0.
        -11    1    1    2    0    0 -0.24161632997E+03  0.14273801842E+02  0.11766985457E+03  0.26912522550E+03  0.00000000000E+00 0. -1.
         11    1    1    2    0    0  0.29569954670E+03 -0.52665217783E+02 -0.35673338099E+03  0.46633738023E+03  0.00000000000E+00 0.  1.
        -15    1    3    3    0    0 -0.74036373941E+02  0.49578208999E+01  0.16095730137E+03  0.17724665088E+03  0.17770000000E+01 0. -1.
         15    1    3    3    0    0  0.19953157216E+02  0.33433595041E+02  0.78106225056E+02  0.87290743391E+02  0.17770000000E+01 0.  1.
</event>
<event>
 7    1  0.4954109E-006  0.3739651E+03  0.7546771E-02  0.9736617E-01
        -11   -1    0    0    0    0  0.00000000000E+00  0.00000000000E+00  0.50000000000E+03  0.50000000000E+03  0.00000000000E+00 0. -1.
         11   -1    0    0    0    0 -0.00000000000E+00 -0.00000000000E+00 -0.50000000000E+03  0.50000000000E+03  0.00000000000E+00 0.  1.
         23    2    1    2    0    0  0.41308282162E+02 -0.18190699768E+03  0.71080879546E+02  0.22588858355E+03  0.10571958551E+03 0.  0.
        -11    1    1    2    0    0 -0.15893014994E+03  0.93245403807E+02  0.31274593510E+03  0.36299244870E+03  0.00000000000E+00 0. -1.
         11    1    1    2    0    0  0.11762186778E+03  0.88661593869E+02 -0.38382681465E+03  0.41111896776E+03  0.00000000000E+00 0.  1.
        -15    1    3    3    0    0  0.18768089431E+02 -0.18400278706E+03  0.79957222011E+02  0.20150826759E+03  0.17770000000E+01 0. -1.
         15    1    3    3    0    0  0.22540192730E+02  0.20957893844E+01 -0.88763424648E+01  0.24380315954E+02  0.17770000000E+01 0.  1.
</event>
<event>
 7    1  0.4954109E-006  0.5110124E+03  0.7546771E-02  0.9375500E-01
        -11   -1    0    0    0    0  0.00000000000E+00  0.00000000000E+00  0.50000000000E+03  0.50000000000E+03  0.00000000000E+00 0. -1.
         11   -1    0    0    0    0 -0.00000000000E+00 -0.00000000000E+00 -0.50000000000E+03  0.50000000000E+03  0.00000000000E+00 0. -1.
         23    2    1    2    0    0 -0.85193151328E+02  0.10247076460E+03  0.46201430403E+03  0.48898757256E+03  0.88845362068E+02 0.  0.
        -11    1    1    2    0    0  0.62156920931E+02 -0.20637768608E+02 -0.32403824159E+02  0.73071253807E+02  0.00000000000E+00 0. -1.
         11    1    1    2    0    0  0.23036230396E+02 -0.81832995988E+02 -0.42961047987E+03  0.43794117363E+03  0.00000000000E+00 0. -1.
        -15    1    3    3    0    0 -0.16471549073E+02  0.62360838892E+02  0.10525716440E+03  0.12346017391E+03  0.17770000000E+01 0.  1.
         15    1    3    3    0    0 -0.68721602254E+02  0.40109925704E+02  0.35675713963E+03  0.36552739865E+03  0.17770000000E+01 0. -1.
</event>
<event>
 7    1  0.4954109E-006  0.5246710E+03  0.7546771E-02  0.9346238E-01
        -11   -1    0    0    0    0  0.00000000000E+00  0.00000000000E+00  0.50000000000E+03  0.50000000000E+03  0.00000000000E+00 0.  1.
         11   -1    0    0    0    0 -0.00000000000E+00 -0.00000000000E+00 -0.50000000000E+03  0.50000000000E+03  0.00000000000E+00 0. -1.
         23    2    1    2    0    0  0.11300361392E+03 -0.28164109421E+03 -0.14487484061E+03  0.35359011324E+03  0.10929650511E+03 0.  0.
        -11    1    1    2    0    0 -0.65412847927E+02  0.38232787865E+03  0.27474387318E+03  0.47532898430E+03  0.00000000000E+00 0.  1.
         11    1    1    2    0    0 -0.47590765995E+02 -0.10068678443E+03 -0.12986903256E+03  0.17108090246E+03  0.00000000000E+00 0. -1.
        -15    1    3    3    0    0  0.60993776416E+02 -0.18581876799E+03 -0.34806576399E+02  0.19865424936E+03  0.17770000000E+01 0.  1.
         15    1    3    3    0    0  0.52009837506E+02 -0.95822326221E+02 -0.11006826421E+03  0.15493586388E+03  0.17770000000E+01 0. -1.
</event>
<event>
 7    1  0.4954109E-006  0.4899589E+03  0.7546771E-02  0.9422562E-01
        -11   -1    0    0    0    0  0.00000000000E+00  0.00000000000E+00  0.50000000000E+03  0.50000000000E+03  0.00000000000E+00 0.  1.
         11   -1    0    0    0    0 -0.00000000000E+00 -0.00000000000E+00 -0.50000000000E+03  0.50000000000E+03  0.00000000000E+00 0. -1.
         23    2    1    2    0    0 -0.94858419923E+02 -0.37813747652E+02  0.47214544473E+03  0.49069043359E+03  0.86184576936E+02 0.  0.
        -11    1    1    2    0    0 -0.25981414412E+02 -0.40929005098E+01 -0.74534844067E+01  0.27337522917E+02  0.00000000000E+00 0.  1.
         11    1    1    2    0    0  0.12083983434E+03  0.41906648162E+02 -0.46469196032E+03  0.48197204349E+03  0.00000000000E+00 0. -1.
        -15    1    3    3    0    0  0.13691987154E+02  0.71813833909E+01  0.70960842388E+02  0.72647378900E+02  0.17770000000E+01 0. -1.
         15    1    3    3    0    0 -0.10855040708E+03 -0.44995131043E+02  0.40118460234E+03  0.41804305469E+03  0.17770000000E+01 0.  1.
</event>
<event>
 7    1  0.4954109E-006  0.5284769E+03  0.7546771E-02  0.9338252E-01
        -11   -1    0    0    0    0  0.00000000000E+00  0.00000000000E+00  0.50000000000E+03  0.50000000000E+03  0.00000000000E+00 0.  1.
         11   -1    0    0    0    0 -0.00000000000E+00 -0.00000000000E+00 -0.50000000000E+03  0.50000000000E+03  0.00000000000E+00 0. -1.
         23    2    1    2    0    0  0.24326108276E+03  0.16589382042E+03 -0.27359588315E+03  0.41155255620E+03  0.88453859157E+02 0.  0.
        -11    1    1    2    0    0 -0.30386150685E+03 -0.97980673705E+02  0.34698995450E+03  0.47152312381E+03  0.00000000000E+00 0.  1.
         11    1    1    2    0    0  0.60600424091E+02 -0.67913146712E+02 -0.73394071345E+02  0.11692431999E+03  0.00000000000E+00 0. -1.
        -15    1    3    3    0    0  0.19205936400E+03  0.14292299939E+03 -0.16969199042E+03  0.29344899454E+03  0.17770000000E+01 0. -1.
         15    1    3    3    0    0  0.51201718759E+02  0.22970821023E+02 -0.10390389274E+03  0.11810356166E+03  0.17770000000E+01 0.  1.
</event>
<event>
 7    1  0.4954109E-006  0.5170122E+03  0.7546771E-02  0.9362528E-01
        -11   -1    0    0    0    0  0.00000000000E+00  0.00000000000E+00  0.50000000000E+03  0.50000000000E+03  0.00000000000E+00 0.  1.
         11   -1    0    0    0    0 -0.00000000000E+00 -0.00000000000E+00 -0.50000000000E+03  0.50000000000E+03  0.00000000000E+00 0.  1.
         23    2    1    2    0    0  0.93228788781E+02 -0.35402153348E+02  0.37078005684E+03  0.39534888379E+03  0.94222979395E+02 0.  0.
        -11    1    1    2    0    0 -0.63744883022E+01  0.63641765814E+02  0.10349420981E+03  0.12166330557E+03  0.00000000000E+00 0.  1.
         11    1    1    2    0    0 -0.86854300478E+02 -0.28239612466E+02 -0.47427426665E+03  0.48298781064E+03  0.00000000000E+00 0.  1.
        -15    1    3    3    0    0  0.11073714060E+03 -0.38141424884E+02  0.29280150011E+03  0.31536226597E+03  0.17770000000E+01 0.  1.
         15    1    3    3    0    0 -0.17508351823E+02  0.27392715355E+01  0.77978556726E+02  0.79986617820E+02  0.17770000000E+01 0. -1.
</event>
<event>
 7    1  0.4954109E-006  0.5114412E+03  0.7546771E-02  0.9374567E-01
        -11   -1    0    0    0    0  0.00000000000E+00  0.00000000000E+00  0.50000000000E+03  0.50000000000E+03  0.00000000000E+00 0.  1.
         11   -1    0    0    0    0 -0.00000000000E+00 -0.00000000000E+00 -0.50000000000E+03  0.50000000000E+03  0.00000000000E+00 0.  1.
         23    2    1    2    0    0  0.17325778051E+02 -0.78882696018E+02  0.13406454111E+03  0.17574945486E+03  0.79949405162E+02 0.  0.
        -11    1    1    2    0    0  0.36196390619E+02 -0.88594763923E+02  0.32176038679E+03  0.33569175950E+03  0.00000000000E+00 0.  1.
         11    1    1    2    0    0 -0.53522168670E+02  0.16747745994E+03 -0.45582492790E+03  0.48855878564E+03  0.00000000000E+00 0.  1.
        -15    1    3    3    0    0  0.22735953791E+02 -0.44855385286E+01  0.80792428717E+02  0.84069125829E+02  0.17770000000E+01 0. -1.
         15    1    3    3    0    0 -0.54101757397E+01 -0.74397157489E+02  0.53272112390E+02  0.91680329032E+02  0.17770000000E+01 0.  1.
</event>
<event>
 7    1  0.4954109E-006  0.4086550E+03  0.7546771E-02  0.9631168E-01
        -11   -1    0    0    0    0  0.00000000000E+00  0.00000000000E+00  0.50000000000E+03  0.50000000000E+03  0.00000000000E+00 0.  1.
         11   -1    0    0    0    0 -0.00000000000E+00 -0.00000000000E+00 -0.50000000000E+03  0.50000000000E+03  0.00000000000E+00 0. -1.
         23    2    1    2    0    0  0.32177076607E+02  0.55193918830E+01 -0.35079211956E+03  0.36328254547E+03  0.88618670440E+02 0.  0.
        -11    1    1    2    0    0 -0.16603296234E+03 -0.90300209224E+02  0.42246471272E+03  0.46281476409E+03  0.00000000000E+00 0.  1.
         11    1    1    2    0    0  0.13385588573E+03  0.84780817341E+02 -0.71672593158E+02  0.17390269044E+03  0.00000000000E+00 0. -1.
        -15    1    3    3    0    0  0.60362035289E+02  0.15714087021E+02 -0.26931564277E+03  0.27644996113E+03  0.17770000000E+01 0. -1.
         15    1    3    3    0    0 -0.28184958683E+02 -0.10194695138E+02 -0.81476476785E+02  0.86832584340E+02  0.17770000000E+01 0.  1.
</event>
<event>
 7    1  0.4954109E-006  0.5196978E+03  0.7546771E-02  0.9356782E-01
        -11   -1    0    0    0    0  0.00000000000E+00  0.00000000000E+00  0.50000000000E+03  0.50000000000E+03  0.00000000000E+00 0.  1.
         11   -1    0    0    0    0 -0.00000000000E+00 -0.00000000000E+00 -0.50000000000E+03  0.50000000000E+03  0.00000000000E+00 0. -1.
         23    2    1    2    0    0  0.17158480000E+02 -0.18816906696E+02 -0.93079475200E+02  0.13173139663E+03  0.89670969338E+02 0.  0.
        -11    1    1    2    0    0  0.40905079921E+02  0.97566234009E+02  0.46850597953E+03  0.48030224697E+03  0.00000000000E+00 0.  1.
         11    1    1    2    0    0 -0.58063559921E+02 -0.78749327313E+02 -0.37542650433E+03  0.38796635640E+03  0.00000000000E+00 0. -1.
        -15    1    3    3    0    0  0.38362968232E+01 -0.39494362105E+02 -0.47254609317E+01  0.40000119017E+02  0.17770000000E+01 0. -1.
         15    1    3    3    0    0  0.13322183176E+02  0.20677455409E+02 -0.88354014268E+02  0.91731277616E+02  0.17770000000E+01 0.  1.
</event>
<event>
 7    1  0.4954109E-006  0.4703608E+03  0.7546771E-02  0.9468687E-01
        -11   -1    0    0    0    0  0.00000000000E+00  0.00000000000E+00  0.50000000000E+03  0.50000000000E+03  0.00000000000E+00 0.  1.
         11   -1    0    0    0    0 -0.00000000000E+00 -0.00000000000E+00 -0.50000000000E+03  0.50000000000E+03  0.00000000000E+00 0.  1.
         23    2    1    2    0    0  0.89142940084E+02  0.54405967885E+02  0.42203186395E+03  0.44417307231E+03  0.90952464859E+02 0.  0.
        -11    1    1    2    0    0  0.30337077334E+02  0.38421084749E+02  0.44016964055E+02  0.65833206964E+02  0.00000000000E+00 0.  1.
         11    1    1    2    0    0 -0.11948001742E+03 -0.92827052634E+02 -0.46604882801E+03  0.48999372073E+03  0.00000000000E+00 0.  1.
        -15    1    3    3    0    0  0.69835272731E+02  0.53794418787E+02  0.41381823170E+03  0.42310695035E+03  0.17770000000E+01 0.  1.
         15    1    3    3    0    0  0.19307667352E+02  0.61154909883E+00  0.82136322489E+01  0.21066121964E+02  0.17770000000E+01 0. -1.
</event>
<event>
 7    1  0.4954109E-006  0.4629890E+03  0.7546771E-02  0.9486659E-01
        -11   -1    0    0    0    0  0.00000000000E+00  0.00000000000E+00  0.50000000000E+03  0.50000000000E+03  0.00000000000E+00 0.  1.
         11   -1    0    0    0    0 -0.00000000000E+00 -0.00000000000E+00 -0.50000000000E+03  0.50000000000E+03  0.00000000000E+00 0.  1.
         23    2    1    2    0    0  0.33767532430E+02  0.78417262848E+02  0.42430426039E+03  0.44201257511E+03  0.89730138802E+02 0.  0.
        -11    1    1    2    0    0  0.13348603575E+02  0.73380768887E+02  0.27148712243E+02  0.79372382075E+02  0.00000000000E+00 0.  1.
         11    1    1    2    0    0 -0.47116136005E+02 -0.15179803174E+03 -0.45145297263E+03  0.47861504282E+03  0.00000000000E+00 0.  1.
        -15    1    3    3    0    0  0.55189271243E+02  0.15590681823E+02  0.18877500299E+03  0.19730201343E+03  0.17770000000E+01 0. -1.
         15    1    3    3    0    0 -0.21421738813E+02  0.62826581025E+02  0.23552925740E+03  0.24471056168E+03  0.17770000000E+01 0.  1.
</event>
<event>
 7    1  0.4954109E-006  0.4606201E+03  0.7546771E-02  0.9492510E-01
        -11   -1    0    0    0    0  0.00000000000E+00  0.00000000000E+00  0.50000000000E+03  0.50000000000E+03  0.00000000000E+00 0. -1.
         11   -1    0    0    0    0 -0.00000000000E+00 -0.00000000000E+00 -0.50000000000E+03  0.50000000000E+03  0.00000000000E+00 0.  1.
         23    2    1    2    0    0  0.83375479432E+02 -0.24293337710E+03  0.33848151120E+03  0.43466531981E+03  0.91630292691E+02 0.  0.
        -11    1    1    2    0    0 -0.52783237729E+02 -0.23488127678E+02  0.61110440845E+02  0.84096660500E+02  0.00000000000E+00 0. -1.
         11    1    1    2    0    0 -0.30592241702E+02  0.26642150478E+03 -0.39959195204E+03  0.48123801969E+03  0.00000000000E+00 0.  1.
        -15    1    3    3    0    0  0.80492048696E+02 -0.20840551510E+03  0.33072286109E+03  0.39911476696E+03  0.17770000000E+01 0. -1.
         15    1    3    3    0    0  0.28834307359E+01 -0.34527862000E+02  0.77586501043E+01  0.35550552844E+02  0.17770000000E+01 0.  1.
</event>
<event>
 7    1  0.4954109E-006  0.3612390E+03  0.7546771E-02  0.9778414E-01
        -11   -1    0    0    0    0  0.00000000000E+00  0.00000000000E+00  0.50000000000E+03  0.50000000000E+03  0.00000000000E+00 0. -1.
         11   -1    0    0    0    0 -0.00000000000E+00 -0.00000000000E+00 -0.50000000000E+03  0.50000000000E+03  0.00000000000E+00 0.  1.
         23    2    1    2    0    0  0.16792019618E+03 -0.17339893041E+03  0.19426149695E+03  0.32318236283E+03  0.91896295340E+02 0.  0.
        -11    1    1    2    0    0 -0.40893738562E+02  0.12041046564E+03  0.21236590429E+03  0.24752829211E+03  0.00000000000E+00 0. -1.
         11    1    1    2    0    0 -0.12702645762E+03  0.52988464769E+02 -0.40662740125E+03  0.42928934505E+03  0.00000000000E+00 0.  1.
        -15    1    3    3    0    0  0.54853860129E+02 -0.54329430039E+01  0.32476608591E+02  0.64002739592E+02  0.17770000000E+01 0.  1.
         15    1    3    3    0    0  0.11306633605E+03 -0.16796598741E+03  0.16178488836E+03  0.25917962324E+03  0.17770000000E+01 0. -1.
</event>
<event>
 7    1  0.4954109E-006  0.3603463E+03  0.7546771E-02  0.9781415E-01
        -11   -1    0    0    0    0  0.00000000000E+00  0.00000000000E+00  0.50000000000E+03  0.50000000000E+03  0.00000000000E+00 0. -1.
         11   -1    0    0    0    0 -0.00000000000E+00 -0.00000000000E+00 -0.50000000000E+03  0.50000000000E+03  0.00000000000E+00 0. -1.
         23    2    1    2    0    0  0.24703773895E+02  0.28488874219E+02  0.29880632378E+03  0.31487027575E+03  0.91848674574E+02 0.  0.
        -11    1    1    2    0    0 -0.19059540673E+03  0.14612200418E+03  0.65017183895E+02  0.24880812562E+03  0.00000000000E+00 0. -1.
         11    1    1    2    0    0  0.16589163283E+03 -0.17461087840E+03 -0.36382350767E+03  0.43632159863E+03  0.00000000000E+00 0. -1.
        -15    1    3    3    0    0 -0.32402458196E+02  0.25669901530E+02  0.14428361208E+03  0.15009923912E+03  0.17770000000E+01 0. -1.
         15    1    3    3    0    0  0.57106232092E+02  0.28189726888E+01  0.15452271170E+03  0.16477103663E+03  0.17770000000E+01 0.  1.
</event>
<event>
 7    1  0.4954109E-006  0.3469488E+03  0.7546771E-02  0.9827604E-01
        -11   -1    0    0    0    0  0.00000000000E+00  0.00000000000E+00  0.50000000000E+03  0.50000000000E+03  0.00000000000E+00 0.  1.
         11   -1    0    0    0    0 -0.00000000000E+00 -0.00000000000E+00 -0.50000000000E+03  0.50000000000E+03  0.00000000000E+00 0.  1.
         23    2    1    2    0    0  0.27153796777E+02  0.18957558145E+03  0.15566461716E+03  0.26352075495E+03  0.92387691223E+02 0.  0.
        -11    1    1    2    0    0 -0.26526539218E+01 -0.12095892272E+03  0.27460904906E+03  0.30008036821E+03  0.00000000000E+00 0.  1.
         11    1    1    2    0    0 -0.24501142855E+02 -0.68616658732E+02 -0.43027366623E+03  0.43639887684E+03  0.00000000000E+00 0.  1.
        -15    1    3    3    0    0  0.50485778790E+02  0.17822925023E+03  0.12583312439E+03  0.22394555682E+03  0.17770000000E+01 0.  1.
         15    1    3    3    0    0 -0.23331982013E+02  0.11346331227E+02  0.29831492770E+02  0.39575198128E+02  0.17770000000E+01 0. -1.
</event>
<event>
 7    1  0.4954109E-006  0.3743424E+03  0.7546771E-02  0.9735405E-01
        -11   -1    0    0    0    0  0.00000000000E+00  0.00000000000E+00  0.50000000000E+03  0.50000000000E+03  0.00000000000E+00 0.  1.
         11   -1    0    0    0    0 -0.00000000000E+00 -0.00000000000E+00 -0.50000000000E+03  0.50000000000E+03  0.00000000000E+00 0. -1.
         23    2    1    2    0    0 -0.28106950701E+03 -0.85134912280E+02  0.34714009927E+03  0.46362207674E+03  0.90505029982E+02 0.  0.
        -11    1    1    2    0    0  0.25770137903E+03  0.11690243884E+03 -0.12258839744E+03  0.30838952017E+03  0.00000000000E+00 0.  1.
         11    1    1    2    0    0  0.23368127985E+02 -0.31767526564E+02 -0.22455170183E+03  0.22798840309E+03  0.00000000000E+00 0. -1.
        -15    1    3    3    0    0 -0.13145120271E+03 -0.38605339502E+02  0.23100013389E+03  0.26857775507E+03  0.17770000000E+01 0. -1.
         15    1    3    3    0    0 -0.14961830431E+03 -0.46529572779E+02  0.11613996538E+03  0.19504432167E+03  0.17770000000E+01 0.  1.
</event>
<event>
 7    1  0.4954109E-006  0.5185342E+03  0.7546771E-02  0.9359267E-01
        -11   -1    0    0    0    0  0.00000000000E+00  0.00000000000E+00  0.50000000000E+03  0.50000000000E+03  0.00000000000E+00 0. -1.
         11   -1    0    0    0    0 -0.00000000000E+00 -0.00000000000E+00 -0.50000000000E+03  0.50000000000E+03  0.00000000000E+00 0. -1.
         23    2    1    2    0    0  0.10601448197E+03  0.79902923685E+02  0.45377076759E+03  0.48146581125E+03  0.90982802157E+02 0.  0.
        -11    1    1    2    0    0 -0.12367855179E+03 -0.12434100677E+03 -0.22742413406E+03  0.28719123749E+03  0.00000000000E+00 0. -1.
         11    1    1    2    0    0  0.17664069820E+02  0.44438083081E+02 -0.22634663353E+03  0.23134295126E+03  0.00000000000E+00 0. -1.
        -15    1    3    3    0    0  0.11521018580E+03  0.59506248124E+02  0.42837160212E+03  0.44757096388E+03  0.17770000000E+01 0. -1.
         15    1    3    3    0    0 -0.91957038317E+01  0.20396675561E+02  0.25399165467E+02  0.33894847371E+02  0.17770000000E+01 0.  1.
</event>
<event>
 7    1  0.6690009E-006  0.5104626E+03  0.7546771E-02  0.9376698E-01
        -11   -1    0    0    0    0  0.00000000000E+00  0.00000000000E+00  0.50000000000E+03  0.50000000000E+03  0.00000000000E+00 0. -1.
         11   -1    0    0    0    0 -0.00000000000E+00 -0.00000000000E+00 -0.50000000000E+03  0.50000000000E+03  0.00000000000E+00 0. -1.
         23    2    1    2    0    0  0.46847452201E+02  0.53692401747E+02 -0.35580138384E+03  0.37399566701E+03  0.90557034046E+02 0.  0.
        -11    1    1    2    0    0 -0.88952927101E+01 -0.95423634901E+02  0.48006465517E+03  0.48953740355E+03  0.00000000000E+00 0. -1.
         11    1    1    2    0    0 -0.37952159491E+02  0.41731233154E+02 -0.12426327133E+03  0.13646692945E+03  0.00000000000E+00 0. -1.
        -15    1    3    3    0    0  0.60484359931E+02  0.69884816167E+02 -0.26234716765E+03  0.27815722071E+03  0.17770000000E+01 0.  1.
         15    1    3    3    0    0 -0.13636907731E+02 -0.16192414420E+02 -0.93454216183E+02  0.95838446297E+02  0.17770000000E+01 0. -1.
</event>
<event>
 7    1  0.4954109E-006  0.4076048E+03  0.7546771E-02  0.9634194E-01
        -11   -1    0    0    0    0  0.00000000000E+00  0.00000000000E+00  0.50000000000E+03  0.50000000000E+03  0.00000000000E+00 0.  1.
         11   -1    0    0    0    0 -0.00000000000E+00 -0.00000000000E+00 -0.50000000000E+03  0.50000000000E+03  0.00000000000E+00 0. -1.
         23    2    1    2    0    0 -0.12748224412E+03  0.12249238878E+03  0.31823030389E+03  0.37616782200E+03  0.94739622728E+02 0.  0.
        -11    1    1    2    0    0  0.13424997075E+03 -0.10367721889E+02  0.11450597252E+03  0.17675452483E+03  0.00000000000E+00 0.  1.
         11    1    1    2    0    0 -0.67677266303E+01 -0.11212466689E+03 -0.43273627641E+03  0.44707765318E+03  0.00000000000E+00 0. -1.
        -15    1    3    3    0    0 -0.10214008662E+03  0.32785558722E+02  0.16582301976E+03  0.19750423228E+03  0.17770000000E+01 0.  1.
         15    1    3    3    0    0 -0.25342157501E+02  0.89706830061E+02  0.15240728413E+03  0.17866358972E+03  0.17770000000E+01 0. -1.
</event>
<event>
 7    1  0.4954109E-006  0.4449651E+03  0.7546771E-02  0.9532145E-01
        -11   -1    0    0    0    0  0.00000000000E+00  0.00000000000E+00  0.50000000000E+03  0.50000000000E+03  0.00000000000E+00 0.  1.
         11   -1    0    0    0    0 -0.00000000000E+00 -0.00000000000E+00 -0.50000000000E+03  0.50000000000E+03  0.00000000000E+00 0. -1.
         23    2    1    2    0    0  0.22885437515E+02  0.11826182914E+03  0.40867283448E+03  0.43561076223E+03  0.90739445906E+02 0.  0.
        -11    1    1    2    0    0 -0.10634202864E+03 -0.25192240984E+02  0.25800595855E+02  0.11228956678E+03  0.00000000000E+00 0.  1.
         11    1    1    2    0    0  0.83456591130E+02 -0.93069588158E+02 -0.43447343033E+03  0.45209967099E+03  0.00000000000E+00 0. -1.
        -15    1    3    3    0    0  0.11272022441E+02  0.77313953669E+02  0.36971009122E+03  0.37787989521E+03  0.17770000000E+01 0.  1.
         15    1    3    3    0    0  0.11613415073E+02  0.40947875473E+02  0.38962743255E+02  0.57730867016E+02  0.17770000000E+01 0. -1.
</event>
<event>
 7    1  0.4954109E-006  0.4662999E+03  0.7546771E-02  0.9478544E-01
        -11   -1    0    0    0    0  0.00000000000E+00  0.00000000000E+00  0.50000000000E+03  0.50000000000E+03  0.00000000000E+00 0.  1.
         11   -1    0    0    0    0 -0.00000000000E+00 -0.00000000000E+00 -0.50000000000E+03  0.50000000000E+03  0.00000000000E+00 0.  1.
         23    2    1    2    0    0 -0.86832921060E+02 -0.38667306641E+01  0.41243381939E+03  0.43183532335E+03  0.93942446871E+02 0.  0.
        -11    1    1    2    0    0 -0.18348450165E+02  0.14040092769E+02  0.70300510198E+02  0.73999672719E+02  0.00000000000E+00 0.  1.
         11    1    1    2    0    0  0.10518137123E+03 -0.10173362105E+02 -0.48273432959E+03  0.49416500394E+03  0.00000000000E+00 0.  1.
        -15    1    3    3    0    0 -0.71599577226E+02 -0.15633989819E+02  0.40425052670E+03  0.41084372596E+03  0.17770000000E+01 0.  1.
         15    1    3    3    0    0 -0.15233343834E+02  0.11767259154E+02  0.81832926927E+01  0.20991597383E+02  0.17770000000E+01 0. -1.
</event>
<event>
 7    1  0.4954109E-006  0.3451582E+03  0.7546771E-02  0.9833947E-01
        -11   -1    0    0    0    0  0.00000000000E+00  0.00000000000E+00  0.50000000000E+03  0.50000000000E+03  0.00000000000E+00 0.  1.
         11   -1    0    0    0    0 -0.00000000000E+00 -0.00000000000E+00 -0.50000000000E+03  0.50000000000E+03  0.00000000000E+00 0. -1.
         23    2    1    2    0    0  0.74145665516E+00 -0.14405063207E+02  0.33344194355E+03  0.34639942289E+03  0.92741440865E+02 0.  0.
        -11    1    1    2    0    0  0.45577515452E+02  0.26267400907E+03 -0.45258537272E+02  0.27041316564E+03  0.00000000000E+00 0.  1.
         11    1    1    2    0    0 -0.46318972107E+02 -0.24826894586E+03 -0.28818340628E+03  0.38318741147E+03  0.00000000000E+00 0. -1.
        -15    1    3    3    0    0 -0.40429283878E+02  0.11002016198E+02  0.10885560916E+03  0.11665450154E+03  0.17770000000E+01 0.  1.
         15    1    3    3    0    0  0.41170740533E+02 -0.25407079405E+02  0.22458633439E+03  0.22974492135E+03  0.17770000000E+01 0. -1.
</event>
<event>
 7    1  0.4954109E-006  0.5071045E+03  0.7546771E-02  0.9384052E-01
        -11   -1    0    0    0    0  0.00000000000E+00  0.00000000000E+00  0.50000000000E+03  0.50000000000E+03  0.00000000000E+00 0. -1.
         11   -1    0    0    0    0 -0.00000000000E+00 -0.00000000000E+00 -0.50000000000E+03  0.50000000000E+03  0.00000000000E+00 0.  1.
         23    2    1    2    0    0  0.92139679912E+02  0.24810571048E+03  0.40558238728E+03  0.49289547830E+03  0.91666326790E+02 0.  0.
        -11    1    1    2    0    0 -0.17237950195E+01 -0.59641165993E+02 -0.11138625277E+02  0.60696862550E+02  0.00000000000E+00 0. -1.
         11    1    1    2    0    0 -0.90415884893E+02 -0.18846454448E+03 -0.39444376200E+03  0.44640765915E+03  0.00000000000E+00 0.  1.
        -15    1    3    3    0    0  0.22127485064E+02  0.69118099096E+02  0.48297491994E+02  0.87193707800E+02  0.17770000000E+01 0.  1.
         15    1    3    3    0    0  0.70012194848E+02  0.17898761138E+03  0.35728489529E+03  0.40570177050E+03  0.17770000000E+01 0. -1.
</event>
<event>
 6    1  0.4954109E-006  0.4883823E+03  0.7546771E-02  0.9426187E-01
        -11   -1    0    0    0    0  0.00000000000E+00  0.00000000000E+00  0.50000000000E+03  0.50000000000E+03  0.00000000000E+00 0.  1.
         11   -1    0    0    0    0 -0.00000000000E+00 -0.00000000000E+00 -0.50000000000E+03  0.50000000000E+03  0.00000000000E+00 0. -1.
        -11    1    1    2    0    0 -0.10526105422E+03  0.57175876625E+02  0.45817160793E+03  0.47357173978E+03  0.00000000000E+00 0.  1.
         11    1    1    2    0    0 -0.29681500437E+02 -0.24413662278E+02 -0.30380916938E+02  0.48989983548E+02  0.00000000000E+00 0. -1.
        -15    1    1    2    0    0  0.71560809334E+02  0.34217903867E+02 -0.63412337285E+02  0.10156818708E+03  0.17770000000E+01 0.  1.
         15    1    1    2    0    0  0.63381745327E+02 -0.66980118213E+02 -0.36437835370E+03  0.37587008960E+03  0.17770000000E+01 0. -1.
</event>
<event>
 7    1  0.4954109E-006  0.5207245E+03  0.7546771E-02  0.9354595E-01
        -11   -1    0    0    0    0  0.00000000000E+00  0.00000000000E+00  0.50000000000E+03  0.50000000000E+03  0.00000000000E+00 0. -1.
         11   -1    0    0    0    0 -0.00000000000E+00 -0.00000000000E+00 -0.50000000000E+03  0.50000000000E+03  0.00000000000E+00 0.  1.
         23    2    1    2    0    0 -0.94718658789E+02 -0.91445116609E+02  0.20835472997E+03  0.26289762040E+03  0.91485690881E+02 0.  0.
        -11    1    1    2    0    0  0.41036993840E+02 -0.25921607653E+02  0.25321681885E+03  0.25782692248E+03  0.00000000000E+00 0. -1.
         11    1    1    2    0    0  0.53681664949E+02  0.11736672426E+03 -0.46157154882E+03  0.47927545712E+03  0.00000000000E+00 0.  1.
        -15    1    3    3    0    0 -0.11203041200E+03 -0.77803831663E+02  0.19139420398E+03  0.23503010122E+03  0.17770000000E+01 0. -1.
         15    1    3    3    0    0  0.17311753211E+02 -0.13641284946E+02  0.16960525990E+02  0.27867519177E+02  0.17770000000E+01 0.  1.
</event>
<event>
 7    1  0.4954109E-006  0.4813757E+03  0.7546771E-02  0.9442475E-01
        -11   -1    0    0    0    0  0.00000000000E+00  0.00000000000E+00  0.50000000000E+03  0.50000000000E+03  0.00000000000E+00 0.  1.
         11   -1    0    0    0    0 -0.00000000000E+00 -0.00000000000E+00 -0.50000000000E+03  0.50000000000E+03  0.00000000000E+00 0.  1.
         23    2    1    2    0    0  0.73779979496E+02  0.16809745991E+03  0.43386630644E+03  0.47891304187E+03  0.86124841951E+02 0.  0.
        -11    1    1    2    0    0  0.29767719886E+02  0.29953446994E+02 -0.12365090269E+02  0.44002518012E+02  0.00000000000E+00 0.  1.
         11    1    1    2    0    0 -0.10354769938E+03 -0.19805090690E+03 -0.42150121617E+03  0.47708444012E+03  0.00000000000E+00 0.  1.
        -15    1    3    3    0    0  0.54093082185E+02  0.46165950595E+02  0.98347057902E+02  0.12137816139E+03  0.17770000000E+01 0. -1.
         15    1    3    3    0    0  0.19686897311E+02  0.12193150931E+03  0.33551924854E+03  0.35753488048E+03  0.17770000000E+01 0.  1.
</event>
<event>
 7    1  0.4954109E-006  0.4723417E+03  0.7546771E-02  0.9463917E-01
        -11   -1    0    0    0    0  0.00000000000E+00  0.00000000000E+00  0.50000000000E+03  0.50000000000E+03  0.00000000000E+00 0.  1.
         11   -1    0    0    0    0 -0.00000000000E+00 -0.00000000000E+00 -0.50000000000E+03  0.50000000000E+03  0.00000000000E+00 0. -1.
         23    2    1    2    0    0  0.20473170593E+03 -0.45582920534E+02  0.40763749158E+03  0.46769206683E+03  0.92599518210E+02 0.  0.
        -11    1    1    2    0    0 -0.50301873251E+02 -0.19489840188E+02  0.31369605900E+02  0.62403401329E+02  0.00000000000E+00 0.  1.
         11    1    1    2    0    0 -0.15442983268E+03  0.65072760722E+02 -0.43900709748E+03  0.46990453184E+03  0.00000000000E+00 0. -1.
        -15    1    3    3    0    0  0.15028699493E+03 -0.42738825794E+02  0.36936543130E+03  0.40105706283E+03  0.17770000000E+01 0.  1.
         15    1    3    3    0    0  0.54444710998E+02 -0.28440947402E+01  0.38272060278E+02  0.66635003996E+02  0.17770000000E+01 0. -1.
</event>
<event>
 7    1  0.4954109E-006  0.5125613E+03  0.7546771E-02  0.9372133E-01
        -11   -1    0    0    0    0  0.00000000000E+00  0.00000000000E+00  0.50000000000E+03  0.50000000000E+03  0.00000000000E+00 0.  1.
         11   -1    0    0    0    0 -0.00000000000E+00 -0.00000000000E+00 -0.50000000000E+03  0.50000000000E+03  0.00000000000E+00 0. -1.
         23    2    1    2    0    0  0.23721461285E+02  0.79748444228E+02  0.32061601440E+03  0.34325098868E+03  0.90022721872E+02 0.  0.
        -11    1    1    2    0    0 -0.30002623630E+02  0.10236452601E+03  0.13148124290E+03  0.16931027980E+03  0.00000000000E+00 0.  1.
         11    1    1    2    0    0  0.62811623450E+01 -0.18211297024E+03 -0.45209725730E+03  0.48743873153E+03  0.00000000000E+00 0. -1.
        -15    1    3    3    0    0  0.21285415965E+02  0.92029461241E+02  0.31594857202E+03  0.32977135800E+03  0.17770000000E+01 0. -1.
         15    1    3    3    0    0  0.24360453196E+01 -0.12281017013E+02  0.46674423836E+01  0.13479630673E+02  0.17770000000E+01 0.  1.
</event>
<event>
 7    1  0.4954109E-006  0.5410255E+03  0.7546771E-02  0.9312419E-01
        -11   -1    0    0    0    0  0.00000000000E+00  0.00000000000E+00  0.50000000000E+03  0.50000000000E+03  0.00000000000E+00 0.  1.
         11   -1    0    0    0    0 -0.00000000000E+00 -0.00000000000E+00 -0.50000000000E+03  0.50000000000E+03  0.00000000000E+00 0. -1.
         23    2    1    2    0    0 -0.33948717045E+01 -0.16525415704E+03  0.13018596652E+03  0.22988701559E+03  0.92623930416E+02 0.  0.
        -11    1    1    2    0    0 -0.16808434176E+03 -0.80968856695E+00  0.26182844586E+03  0.31113845246E+03  0.00000000000E+00 0.  1.
         11    1    1    2    0    0  0.17147921347E+03  0.16606384560E+03 -0.39201441238E+03  0.45897453195E+03  0.00000000000E+00 0. -1.
        -15    1    3    3    0    0 -0.42581802032E+01 -0.17700686166E+03  0.12572281606E+03  0.21716110467E+03  0.17770000000E+01 0. -1.
         15    1    3    3    0    0  0.86330849870E+00  0.11752704628E+02  0.44631504551E+01  0.12725910915E+02  0.17770000000E+01 0.  1.
</event>
<event>
 7    1  0.4954109E-006  0.5344609E+03  0.7546771E-02  0.9325839E-01
        -11   -1    0    0    0    0  0.00000000000E+00  0.00000000000E+00  0.50000000000E+03  0.50000000000E+03  0.00000000000E+00 0. -1.
         11   -1    0    0    0    0 -0.00000000000E+00 -0.00000000000E+00 -0.50000000000E+03  0.50000000000E+03  0.00000000000E+00 0. -1.
         23    2    1    2    0    0  0.59457169233E+02  0.97411778840E+02 -0.13588910015E+03  0.20695244779E+03  0.10648595436E+03 0.  0.
        -11    1    1    2    0    0  0.20072099576E+02 -0.10305831950E+03  0.45354460938E+03  0.46553906291E+03  0.00000000000E+00 0. -1.
         11    1    1    2    0    0 -0.79529268809E+02  0.56465406636E+01 -0.31765550923E+03  0.32750848930E+03  0.00000000000E+00 0. -1.
        -15    1    3    3    0    0  0.45863469361E+02  0.24343230342E+02  0.11659098443E+00  0.51954037454E+02  0.17770000000E+01 0.  1.
         15    1    3    3    0    0  0.13593699871E+02  0.73068548497E+02 -0.13600569113E+03  0.15499841033E+03  0.17770000000E+01 0. -1.
</event>
<event>
 7    1  0.4954109E-006  0.5206644E+03  0.7546771E-02  0.9354723E-01
        -11   -1    0    0    0    0  0.00000000000E+00  0.00000000000E+00  0.50000000000E+03  0.50000000000E+03  0.00000000000E+00 0. -1.
         11   -1    0    0    0    0 -0.00000000000E+00 -0.00000000000E+00 -0.50000000000E+03  0.50000000000E+03  0.00000000000E+00 0. -1.
         23    2    1    2    0    0 -0.85771099055E+02 -0.12082886580E+02 -0.10178402526E+03  0.15572125509E+03  0.79915229505E+02 0.  0.
        -11    1    1    2    0    0  0.14539073574E+03 -0.81790341938E+02  0.44937118769E+03  0.47933557181E+03  0.00000000000E+00 0. -1.
         11    1    1    2    0    0 -0.59619636688E+02  0.93873228518E+02 -0.34758716243E+03  0.36494317311E+03  0.00000000000E+00 0. -1.
        -15    1    3    3    0    0 -0.41117885462E+02  0.26316682068E+02 -0.78308775195E+02  0.92296642742E+02  0.17770000000E+01 0. -1.
         15    1    3    3    0    0 -0.44653213593E+02 -0.38399568648E+02 -0.23475250062E+02  0.63424612344E+02  0.17770000000E+01 0.  1.
</event>
<event>
 7    1  0.4954109E-006  0.5293218E+03  0.7546771E-02  0.9336489E-01
        -11   -1    0    0    0    0  0.00000000000E+00  0.00000000000E+00  0.50000000000E+03  0.50000000000E+03  0.00000000000E+00 0.  1.
         11   -1    0    0    0    0 -0.00000000000E+00 -0.00000000000E+00 -0.50000000000E+03  0.50000000000E+03  0.00000000000E+00 0. -1.
         23    2    1    2    0    0  0.67327584357E+01 -0.98638491234E+01 -0.45543566757E+02  0.10253957946E+03  0.91090742273E+02 0.  0.
        -11    1    1    2    0    0 -0.45995545264E+02 -0.64383103209E+02  0.46397977068E+03  0.47067823591E+03  0.00000000000E+00 0.  1.
         11    1    1    2    0    0  0.39262786829E+02  0.74246952333E+02 -0.41843620392E+03  0.42678218462E+03  0.00000000000E+00 0. -1.
        -15    1    3    3    0    0  0.39898636972E+02 -0.29639268868E+02 -0.11537446293E+02  0.51055439350E+02  0.17770000000E+01 0.  1.
         15    1    3    3    0    0 -0.33165878537E+02  0.19775419745E+02 -0.34006120464E+02  0.51484140113E+02  0.17770000000E+01 0. -1.
</event>
<event>
 7    1  0.4954109E-006  0.3855053E+03  0.7546771E-02  0.9700225E-01
        -11   -1    0    0    0    0  0.00000000000E+00  0.00000000000E+00  0.50000000000E+03  0.50000000000E+03  0.00000000000E+00 0. -1.
         11   -1    0    0    0    0 -0.00000000000E+00 -0.00000000000E+00 -0.50000000000E+03  0.50000000000E+03  0.00000000000E+00 0.  1.
         23    2    1    2    0    0  0.23738970972E+03 -0.33376327934E+02  0.32641880985E+03  0.41933144480E+03  0.10872795236E+03 0.  0.
        -11    1    1    2    0    0 -0.10550752486E+03  0.18582376751E+03 -0.20987215227E+02  0.21471556435E+03  0.00000000000E+00 0. -1.
         11    1    1    2    0    0 -0.13188218486E+03 -0.15244743957E+03 -0.30543159462E+03  0.36595299085E+03  0.00000000000E+00 0.  1.
        -15    1    3    3    0    0  0.15820187999E+03 -0.37492612877E+02  0.28907752775E+03  0.33166625640E+03  0.17770000000E+01 0. -1.
         15    1    3    3    0    0  0.79187829731E+02  0.41162849427E+01  0.37341282096E+02  0.87665188398E+02  0.17770000000E+01 0.  1.
</event>
<event>
 7    1  0.4954109E-006  0.4070337E+03  0.7546771E-02  0.9635844E-01
        -11   -1    0    0    0    0  0.00000000000E+00  0.00000000000E+00  0.50000000000E+03  0.50000000000E+03  0.00000000000E+00 0. -1.
         11   -1    0    0    0    0 -0.00000000000E+00 -0.00000000000E+00 -0.50000000000E+03  0.50000000000E+03  0.00000000000E+00 0.  1.
         23    2    1    2    0    0 -0.25521970704E+02  0.63658485955E+02  0.45464215419E+03  0.46898370696E+03  0.92425403467E+02 0.  0.
        -11    1    1    2    0    0  0.10663050776E+02 -0.13910252935E+03 -0.10932957397E+03  0.17724607208E+03  0.00000000000E+00 0. -1.
         11    1    1    2    0    0  0.14858919929E+02  0.75444043391E+02 -0.34531258022E+03  0.35377022097E+03  0.00000000000E+00 0.  1.
        -15    1    3    3    0    0  0.32150095485E+02  0.40650190724E+02  0.17479462137E+03  0.18232494079E+03  0.17770000000E+01 0.  1.
         15    1    3    3    0    0 -0.57672066189E+02  0.23008295231E+02  0.27984753281E+03  0.28665876616E+03  0.17770000000E+01 0. -1.
</event>
<event>
 7    1  0.4954109E-006  0.5438344E+03  0.7546771E-02  0.9306738E-01
        -11   -1    0    0    0    0  0.00000000000E+00  0.00000000000E+00  0.50000000000E+03  0.50000000000E+03  0.00000000000E+00 0. -1.
         11   -1    0    0    0    0 -0.00000000000E+00 -0.00000000000E+00 -0.50000000000E+03  0.50000000000E+03  0.00000000000E+00 0. -1.
         23    2    1    2    0    0 -0.15755462303E+02 -0.19429445066E+03 -0.15490700388E+03  0.26898878664E+03  0.10178516266E+03 0.  0.
        -11    1    1    2    0    0  0.61563429154E+02  0.15802006674E+03  0.42346972975E+03  0.45616555034E+03  0.00000000000E+00 0. -1.
         11    1    1    2    0    0 -0.45807966852E+02  0.36274383921E+02 -0.26856272587E+03  0.27484566302E+03  0.00000000000E+00 0. -1.
        -15    1    3    3    0    0 -0.42823927835E+02 -0.16690087834E+03 -0.15291997067E+03  0.23038547512E+03  0.17770000000E+01 0.  1.
         15    1    3    3    0    0  0.27068465533E+02 -0.27393572320E+02 -0.19870332097E+01  0.38603311526E+02  0.17770000000E+01 0. -1.
</event>
<event>
 7    1  0.5539108E-006  0.5153965E+03  0.7546771E-02  0.9366003E-01
        -11   -1    0    0    0    0  0.00000000000E+00  0.00000000000E+00  0.50000000000E+03  0.50000000000E+03  0.00000000000E+00 0.  1.
         11   -1    0    0    0    0 -0.00000000000E+00 -0.00000000000E+00 -0.50000000000E+03  0.50000000000E+03  0.00000000000E+00 0. -1.
         23    2    1    2    0    0 -0.30685947928E+02 -0.10226891754E+02 -0.20561459573E+03  0.22725577107E+03  0.91222841393E+02 0.  0.
        -11    1    1    2    0    0  0.17654207535E+03 -0.35178432491E+02  0.44992879636E+03  0.48460349594E+03  0.00000000000E+00 0.  1.
         11    1    1    2    0    0 -0.14585612742E+03  0.45405324245E+02 -0.24431420063E+03  0.28814073299E+03  0.00000000000E+00 0. -1.
        -15    1    3    3    0    0 -0.48533566966E+02 -0.36492436867E+02 -0.10048687971E+03  0.11742221167E+03  0.17770000000E+01 0.  1.
         15    1    3    3    0    0  0.17847619037E+02  0.26265545113E+02 -0.10512771603E+03  0.10983355940E+03  0.17770000000E+01 0. -1.
</event>
<event>
 7    1  0.4954109E-006  0.3882219E+03  0.7546771E-02  0.9691856E-01
        -11   -1    0    0    0    0  0.00000000000E+00  0.00000000000E+00  0.50000000000E+03  0.50000000000E+03  0.00000000000E+00 0.  1.
         11   -1    0    0    0    0 -0.00000000000E+00 -0.00000000000E+00 -0.50000000000E+03  0.50000000000E+03  0.00000000000E+00 0. -1.
         23    2    1    2    0    0 -0.36510619029E+03 -0.18548546981E+03 -0.14346201060E+03  0.44341189112E+03  0.91243449094E+02 0.  0.
        -11    1    1    2    0    0  0.17128027933E+03  0.22818021831E+03  0.20209472697E+03  0.34963613198E+03  0.00000000000E+00 0.  1.
         11    1    1    2    0    0  0.19382591097E+03 -0.42694748505E+02 -0.58632716375E+02  0.20695197690E+03  0.00000000000E+00 0. -1.
        -15    1    3    3    0    0 -0.12090734912E+03 -0.10671573789E+03 -0.74869089206E+02  0.17780712593E+03  0.17770000000E+01 0.  1.
         15    1    3    3    0    0 -0.24419884118E+03 -0.78769731920E+02 -0.68592921391E+02  0.26560476519E+03  0.17770000000E+01 0. -1.
</event>
<event>
 6    1  0.4954109E-006  0.3569580E+03  0.7546771E-02  0.9792890E-01
        -11   -1    0    0    0    0  0.00000000000E+00  0.00000000000E+00  0.50000000000E+03  0.50000000000E+03  0.00000000000E+00 0. -1.
         11   -1    0    0    0    0 -0.00000000000E+00 -0.00000000000E+00 -0.50000000000E+03  0.50000000000E+03  0.00000000000E+00 0. -1.
        -11    1    1    2    0    0 -0.13082341432E+03 -0.54943894827E+02 -0.29776295940E+02  0.14498353394E+03  0.00000000000E+00 0. -1.
         11    1    1    2    0    0 -0.71742292916E+02 -0.13010050407E+02 -0.33513162625E+03  0.34297146371E+03  0.00000000000E+00 0. -1.
        -15    1    1    2    0    0 -0.41688102545E+02  0.95022341893E+02  0.58068005318E+02  0.11892095830E+03  0.17770000000E+01 0.  1.
         15    1    1    2    0    0  0.24425380978E+03 -0.27068396659E+02  0.30683991688E+03  0.39312404405E+03  0.17770000000E+01 0. -1.
</event>
<event>
 7    1  0.4954109E-006  0.3403515E+03  0.7546771E-02  0.9851179E-01
        -11   -1    0    0    0    0  0.00000000000E+00  0.00000000000E+00  0.50000000000E+03  0.50000000000E+03  0.00000000000E+00 0.  1.
         11   -1    0    0    0    0 -0.00000000000E+00 -0.00000000000E+00 -0.50000000000E+03  0.50000000000E+03  0.00000000000E+00 0. -1.
         23    2    1    2    0    0 -0.16434428322E+03 -0.12016226731E+03 -0.15672588548E+03  0.27242352414E+03  0.90573502837E+02 0.  0.
        -11    1    1    2    0    0  0.51860507193E+02  0.84546889182E+02  0.42398494941E+03  0.43543188446E+03  0.00000000000E+00 0.  1.
         11    1    1    2    0    0  0.11248377602E+03  0.35615378124E+02 -0.26725906393E+03  0.29214459139E+03  0.00000000000E+00 0. -1.
        -15    1    3    3    0    0 -0.77781862959E+02 -0.46683179875E+02 -0.16899385525E+02  0.92293469156E+02  0.17770000000E+01 0. -1.
         15    1    3    3    0    0 -0.86562420258E+02 -0.73479087432E+02 -0.13982649996E+03  0.18013005499E+03  0.17770000000E+01 0.  1.
</event>
<event>
 7    1  0.4954109E-006  0.5328571E+03  0.7546771E-02  0.9329149E-01
        -11   -1    0    0    0    0  0.00000000000E+00  0.00000000000E+00  0.50000000000E+03  0.50000000000E+03  0.00000000000E+00 0.  1.
         11   -1    0    0    0    0 -0.00000000000E+00 -0.00000000000E+00 -0.50000000000E+03  0.50000000000E+03  0.00000000000E+00 0. -1.
         23    2    1    2    0    0 -0.98979119049E+02 -0.46202790757E+02  0.17900159504E+03  0.22874824445E+03  0.91392693533E+02 0.  0.
        -11    1    1    2    0    0  0.28238897302E+02  0.12431345812E+03  0.27609950743E+03  0.30410887720E+03  0.00000000000E+00 0.  1.
         11    1    1    2    0    0  0.70740221747E+02 -0.78110667364E+02 -0.45510110246E+03  0.46714287835E+03  0.00000000000E+00 0. -1.
        -15    1    3    3    0    0  0.28493128707E+01 -0.25443746104E+02  0.51201335077E+01  0.26170141302E+02  0.17770000000E+01 0. -1.
         15    1    3    3    0    0 -0.10182843192E+03 -0.20759044653E+02  0.17388146153E+03  0.20257810315E+03  0.17770000000E+01 0.  1.
</event>
<event>
 7    1  0.4954109E-006  0.3833181E+03  0.7546771E-02  0.9707017E-01
        -11   -1    0    0    0    0  0.00000000000E+00  0.00000000000E+00  0.50000000000E+03  0.50000000000E+03  0.00000000000E+00 0.  1.
         11   -1    0    0    0    0 -0.00000000000E+00 -0.00000000000E+00 -0.50000000000E+03  0.50000000000E+03  0.00000000000E+00 0. -1.
         23    2    1    2    0    0  0.42384049769E+02 -0.81189530648E+02  0.32317013636E+03  0.34799629609E+03  0.90963385463E+02 0.  0.
        -11    1    1    2    0    0  0.58975596674E+02  0.18581070027E+03  0.89404097883E+02  0.21446871580E+03  0.00000000000E+00 0.  1.
         11    1    1    2    0    0 -0.10135964644E+03 -0.10462116963E+03 -0.41257423424E+03  0.43753498811E+03  0.00000000000E+00 0. -1.
        -15    1    3    3    0    0  0.61766951885E+01 -0.20512310759E+02  0.49996614030E+01  0.22069453987E+02  0.17770000000E+01 0. -1.
         15    1    3    3    0    0  0.36207354580E+02 -0.60677219889E+02  0.31817047496E+03  0.32592684210E+03  0.17770000000E+01 0.  1.
</event>
<event>
 7    1  0.4954109E-006  0.4631978E+03  0.7546771E-02  0.9486145E-01
        -11   -1    0    0    0    0  0.00000000000E+00  0.00000000000E+00  0.50000000000E+03  0.50000000000E+03  0.00000000000E+00 0. -1.
         11   -1    0    0    0    0 -0.00000000000E+00 -0.00000000000E+00 -0.50000000000E+03  0.50000000000E+03  0.00000000000E+00 0.  1.
         23    2    1    2    0    0 -0.22706949412E+02 -0.37439184652E+02  0.41999286093E+03  0.43562665236E+03  0.10704802156E+03 0.  0.
        -11    1    1    2    0    0  0.13552181336E+02 -0.63128362801E+02  0.51248551887E+02  0.82433402693E+02  0.00000000000E+00 0. -1.
         11    1    1    2    0    0  0.91547680752E+01  0.10056754745E+03 -0.47124141282E+03  0.48193994494E+03  0.00000000000E+00 0.  1.
        -15    1    3    3    0    0 -0.34893691453E+02 -0.64621680058E+02  0.37144821212E+03  0.37864292315E+03  0.17770000000E+01 0. -1.
         15    1    3    3    0    0  0.12186742041E+02  0.27182495406E+02  0.48544648813E+02  0.56983729216E+02  0.17770000000E+01 0.  1.
</event>
<event>
 7    1  0.4954109E-006  0.4764468E+03  0.7546771E-02  0.9454111E-01
        -11   -1    0    0    0    0  0.00000000000E+00  0.00000000000E+00  0.50000000000E+03  0.50000000000E+03  0.00000000000E+00 0.  1.
         11   -1    0    0    0    0 -0.00000000000E+00 -0.00000000000E+00 -0.50000000000E+03  0.50000000000E+03  0.00000000000E+00 0.  1.
         23    2    1    2    0    0 -0.56452355457E+02 -0.88804488734E+02  0.44184047217E+03  0.46111708865E+03  0.79579274603E+02 0.  0.
        -11    1    1    2    0    0 -0.25937300310E+02  0.30131312620E+02  0.34060348730E+02  0.52352143253E+02  0.00000000000E+00 0.  1.
         11    1    1    2    0    0  0.82389655767E+02  0.58673176114E+02 -0.47590082090E+03  0.48653076809E+03  0.00000000000E+00 0.  1.
        -15    1    3    3    0    0  0.47236307609E+01 -0.62412627877E+02  0.16821242854E+03  0.17948879533E+03  0.17770000000E+01 0.  1.
         15    1    3    3    0    0 -0.61175986218E+02 -0.26391860857E+02  0.27362804363E+03  0.28162829332E+03  0.17770000000E+01 0. -1.
</event>
<event>
 7    1  0.4954109E-006  0.5301928E+03  0.7546771E-02  0.9334675E-01
        -11   -1    0    0    0    0  0.00000000000E+00  0.00000000000E+00  0.50000000000E+03  0.50000000000E+03  0.00000000000E+00 0.  1.
         11   -1    0    0    0    0 -0.00000000000E+00 -0.00000000000E+00 -0.50000000000E+03  0.50000000000E+03  0.00000000000E+00 0.  1.
         23    2    1    2    0    0 -0.12641643320E+03 -0.83052425712E+02  0.34057208448E+03  0.38380654632E+03  0.91865664265E+02 0.  0.
        -11    1    1    2    0    0  0.48160563897E+02  0.64441960295E+02  0.12229772494E+03  0.14638626878E+03  0.00000000000E+00 0.  1.
         11    1    1    2    0    0  0.78255869302E+02  0.18610465417E+02 -0.46286980943E+03  0.46980718490E+03  0.00000000000E+00 0.  1.
        -15    1    3    3    0    0 -0.64508887735E+02 -0.55089935536E+01  0.68837954223E+02  0.94517550102E+02  0.17770000000E+01 0. -1.
         15    1    3    3    0    0 -0.61907545463E+02 -0.77543432159E+02  0.27173413026E+03  0.28928899622E+03  0.17770000000E+01 0.  1.
</event>
<event>
 7    1  0.4954109E-006  0.5331567E+03  0.7546771E-02  0.9328530E-01
        -11   -1    0    0    0    0  0.00000000000E+00  0.00000000000E+00  0.50000000000E+03  0.50000000000E+03  0.00000000000E+00 0.  1.
         11   -1    0    0    0    0 -0.00000000000E+00 -0.00000000000E+00 -0.50000000000E+03  0.50000000000E+03  0.00000000000E+00 0. -1.
         23    2    1    2    0    0  0.75028391517E+02 -0.24197890076E+02  0.22216666707E+03  0.25223297900E+03  0.89714270438E+02 0.  0.
        -11    1    1    2    0    0 -0.11537274337E+03  0.96459248557E+02  0.23728225732E+03  0.28092370171E+03  0.00000000000E+00 0.  1.
         11    1    1    2    0    0  0.40344351851E+02 -0.72261358481E+02 -0.45944892438E+03  0.46684331930E+03  0.00000000000E+00 0. -1.
        -15    1    3    3    0    0  0.14493890902E+02 -0.24996491122E+02  0.85339809946E+01  0.30180854901E+02  0.17770000000E+01 0. -1.
         15    1    3    3    0    0  0.60534500614E+02  0.79860104660E+00  0.21363268607E+03  0.22205212410E+03  0.17770000000E+01 0.  1.
</event>
<event>
 7    1  0.5521117E-006  0.4272725E+03  0.7546771E-02  0.9579083E-01
        -11   -1    0    0    0    0  0.00000000000E+00  0.00000000000E+00  0.50000000000E+03  0.50000000000E+03  0.00000000000E+00 0.  1.
         11   -1    0    0    0    0 -0.00000000000E+00 -0.00000000000E+00 -0.50000000000E+03  0.50000000000E+03  0.00000000000E+00 0. -1.
         23    2    1    2    0    0 -0.66966058572E+02 -0.14660147353E+02 -0.13553575281E+01  0.14270875867E+03  0.12515821941E+03 0.  0.
        -11    1    1    2    0    0  0.76844113031E+02 -0.74138538551E+02  0.41787246345E+03  0.43129912626E+03  0.00000000000E+00 0.  1.
         11    1    1    2    0    0 -0.98780544594E+01  0.88798685904E+02 -0.41651710592E+03  0.42599211507E+03  0.00000000000E+00 0. -1.
        -15    1    3    3    0    0 -0.29418728718E+02  0.54799803756E+02  0.96519477036E+01  0.62966641284E+02  0.17770000000E+01 0.  1.
         15    1    3    3    0    0 -0.37547329854E+02 -0.69459951108E+02 -0.11007305232E+02  0.79742117382E+02  0.17770000000E+01 0.  1.
</event>
<event>
 7    1  0.4954109E-006  0.5070597E+03  0.7546771E-02  0.9384150E-01
        -11   -1    0    0    0    0  0.00000000000E+00  0.00000000000E+00  0.50000000000E+03  0.50000000000E+03  0.00000000000E+00 0.  1.
         11   -1    0    0    0    0 -0.00000000000E+00 -0.00000000000E+00 -0.50000000000E+03  0.50000000000E+03  0.00000000000E+00 0. -1.
         23    2    1    2    0    0 -0.40535871589E+02 -0.82799009470E+02  0.31541878254E+03  0.34021340813E+03  0.88075659718E+02 0.  0.
        -11    1    1    2    0    0 -0.47794248292E+02 -0.19180948780E+02  0.15869936116E+03  0.16684629513E+03  0.00000000000E+00 0.  1.
         11    1    1    2    0    0  0.88330119881E+02  0.10197995825E+03 -0.47411814370E+03  0.49294029674E+03  0.00000000000E+00 0. -1.
        -15    1    3    3    0    0  0.19887975684E+01 -0.29001020018E+02  0.16393032543E+02  0.33420109557E+02  0.17770000000E+01 0. -1.
         15    1    3    3    0    0 -0.42524669158E+02 -0.53797989451E+02  0.29902575000E+03  0.30679329857E+03  0.17770000000E+01 0.  1.
</event>
<event>
 7    1  0.4954109E-006  0.4761564E+03  0.7546771E-02  0.9454801E-01
        -11   -1    0    0    0    0  0.00000000000E+00  0.00000000000E+00  0.50000000000E+03  0.50000000000E+03  0.00000000000E+00 0.  1.
         11   -1    0    0    0    0 -0.00000000000E+00 -0.00000000000E+00 -0.50000000000E+03  0.50000000000E+03  0.00000000000E+00 0. -1.
         23    2    1    2    0    0  0.63555257182E+02  0.11593264026E+03  0.44953111191E+03  0.47696514349E+03  0.89094779493E+02 0.  0.
        -11    1    1    2    0    0 -0.35508399710E+02 -0.39635253765E+02  0.11874418551E+02  0.54523404212E+02  0.00000000000E+00 0.  1.
         11    1    1    2    0    0 -0.28046857473E+02 -0.76297386499E+02 -0.46140553046E+03  0.46851145230E+03  0.00000000000E+00 0. -1.
        -15    1    3    3    0    0  0.64183199602E+02  0.48764032935E+02  0.33133669224E+03  0.34100524244E+03  0.17770000000E+01 0.  1.
         15    1    3    3    0    0 -0.62794241938E+00  0.67168607329E+02  0.11819441967E+03  0.13595990104E+03  0.17770000000E+01 0. -1.
</event>
<event>
 7    1  0.4954109E-006  0.4648335E+03  0.7546771E-02  0.9482129E-01
        -11   -1    0    0    0    0  0.00000000000E+00  0.00000000000E+00  0.50000000000E+03  0.50000000000E+03  0.00000000000E+00 0.  1.
         11   -1    0    0    0    0 -0.00000000000E+00 -0.00000000000E+00 -0.50000000000E+03  0.50000000000E+03  0.00000000000E+00 0. -1.
         23    2    1    2    0    0  0.95575142573E+02  0.12101415648E+03  0.40042602928E+03  0.44298441593E+03  0.11006885975E+03 0.  0.
        -11    1    1    2    0    0  0.59773102026E+02  0.50618771767E+02  0.16579435922E+02  0.80062235021E+02  0.00000000000E+00 0.  1.
         11    1    1    2    0    0 -0.15534824460E+03 -0.17163292825E+03 -0.41700546520E+03  0.47695334905E+03  0.00000000000E+00 0. -1.
        -15    1    3    3    0    0  0.12062809100E+03  0.10015383285E+03  0.32949764351E+03  0.36490242721E+03  0.17770000000E+01 0.  1.
         15    1    3    3    0    0 -0.25052948423E+02  0.20860323633E+02  0.70928385764E+02  0.78081988723E+02  0.17770000000E+01 0. -1.
</event>
<event>
 7    1  0.4954109E-006  0.4711159E+03  0.7546771E-02  0.9466866E-01
        -11   -1    0    0    0    0  0.00000000000E+00  0.00000000000E+00  0.50000000000E+03  0.50000000000E+03  0.00000000000E+00 0. -1.
         11   -1    0    0    0    0 -0.00000000000E+00 -0.00000000000E+00 -0.50000000000E+03  0.50000000000E+03  0.00000000000E+00 0. -1.
         23    2    1    2    0    0  0.65175759851E+02 -0.84671997106E+02  0.46781820801E+03  0.48679096910E+03  0.81818977557E+02 0.  0.
        -11    1    1    2    0    0  0.48323271893E+02  0.13428801693E+02 -0.37826335623E+02  0.62819606716E+02  0.00000000000E+00 0. -1.
         11    1    1    2    0    0 -0.11349903174E+03  0.71243195412E+02 -0.42999187238E+03  0.45038942418E+03  0.00000000000E+00 0. -1.
        -15    1    3    3    0    0 -0.72351277184E+01 -0.45824417590E+02  0.10543976432E+03  0.11520818525E+03  0.17770000000E+01 0.  1.
         15    1    3    3    0    0  0.72410887569E+02 -0.38847579515E+02  0.36237844369E+03  0.37158278385E+03  0.17770000000E+01 0. -1.
</event>
<event>
 7    1  0.4954109E-006  0.3729677E+03  0.7546771E-02  0.9739827E-01
        -11   -1    0    0    0    0  0.00000000000E+00  0.00000000000E+00  0.50000000000E+03  0.50000000000E+03  0.00000000000E+00 0. -1.
         11   -1    0    0    0    0 -0.00000000000E+00 -0.00000000000E+00 -0.50000000000E+03  0.50000000000E+03  0.00000000000E+00 0. -1.
         23    2    1    2    0    0  0.39736921367E+02 -0.43733439696E+02  0.30360604225E+03  0.32289022292E+03  0.92681338490E+02 0.  0.
        -11    1    1    2    0    0 -0.12241466550E+03 -0.18087722775E+03  0.73515687540E+02  0.23044842842E+03  0.00000000000E+00 0. -1.
         11    1    1    2    0    0  0.82677744130E+02  0.22461066745E+03 -0.37712172979E+03  0.44666134865E+03  0.00000000000E+00 0. -1.
        -15    1    3    3    0    0 -0.27576531964E+02 -0.34057609407E+01  0.12042520744E+03  0.12360199286E+03  0.17770000000E+01 0.  1.
         15    1    3    3    0    0  0.67313453331E+02 -0.40327678755E+02  0.18318083480E+03  0.19928823006E+03  0.17770000000E+01 0. -1.
</event>
<event>
 7    1  0.4954109E-006  0.5056700E+03  0.7546771E-02  0.9387211E-01
        -11   -1    0    0    0    0  0.00000000000E+00  0.00000000000E+00  0.50000000000E+03  0.50000000000E+03  0.00000000000E+00 0.  1.
         11   -1    0    0    0    0 -0.00000000000E+00 -0.00000000000E+00 -0.50000000000E+03  0.50000000000E+03  0.00000000000E+00 0. -1.
         23    2    1    2    0    0  0.75778235214E+02 -0.84239107838E+02 -0.36822625252E+03  0.39542718931E+03  0.89070313697E+02 0.  0.
        -11    1    1    2    0    0 -0.11322366930E+03  0.11503405864E+03  0.46723627103E+03  0.49433001821E+03  0.00000000000E+00 0.  1.
         11    1    1    2    0    0  0.37445434084E+02 -0.30794950800E+02 -0.99010018512E+02  0.11024279248E+03  0.00000000000E+00 0. -1.
        -15    1    3    3    0    0  0.79568847807E+02 -0.39728535563E+02 -0.30692340637E+03  0.31955389715E+03  0.17770000000E+01 0. -1.
         15    1    3    3    0    0 -0.37906125935E+01 -0.44510572275E+02 -0.61302846147E+02  0.75873292158E+02  0.17770000000E+01 0.  1.
</event>
<event>
 7    1  0.4954109E-006  0.3452581E+03  0.7546771E-02  0.9833592E-01
        -11   -1    0    0    0    0  0.00000000000E+00  0.00000000000E+00  0.50000000000E+03  0.50000000000E+03  0.00000000000E+00 0.  1.
         11   -1    0    0    0    0 -0.00000000000E+00 -0.00000000000E+00 -0.50000000000E+03  0.50000000000E+03  0.00000000000E+00 0. -1.
         23    2    1    2    0    0  0.14486694425E+03  0.21103834039E+03  0.24453901683E+03  0.36467450967E+03  0.87547442021E+02 0.  0.
        -11    1    1    2    0    0 -0.84660165873E+02 -0.22779412690E+03  0.11608959300E+03  0.26932192918E+03  0.00000000000E+00 0.  1.
         11    1    1    2    0    0 -0.60206778380E+02  0.16755786512E+02 -0.36062860982E+03  0.36600356114E+03  0.00000000000E+00 0. -1.
        -15    1    3    3    0    0 -0.69313296795E+01  0.32800652495E+02  0.50251130783E+02  0.60433930943E+02  0.17770000000E+01 0. -1.
         15    1    3    3    0    0  0.15179827393E+03  0.17823768789E+03  0.19428788604E+03  0.30424057873E+03  0.17770000000E+01 0.  1.
</event>
<event>
 7    1  0.4954109E-006  0.3654633E+03  0.7546771E-02  0.9764338E-01
        -11   -1    0    0    0    0  0.00000000000E+00  0.00000000000E+00  0.50000000000E+03  0.50000000000E+03  0.00000000000E+00 0. -1.
         11   -1    0    0    0    0 -0.00000000000E+00 -0.00000000000E+00 -0.50000000000E+03  0.50000000000E+03  0.00000000000E+00 0.  1.
         23    2    1    2    0    0 -0.90342627625E+02 -0.10739206007E+03  0.16728576612E+03  0.23715462999E+03  0.92536187774E+02 0.  0.
        -11    1    1    2    0    0  0.77591018570E+02  0.18749653532E+03  0.25893664849E+03  0.32897341055E+03  0.00000000000E+00 0. -1.
         11    1    1    2    0    0  0.12751609055E+02 -0.80104475246E+02 -0.42622241461E+03  0.43387195946E+03  0.00000000000E+00 0.  1.
        -15    1    3    3    0    0 -0.54404752308E+02 -0.19304702519E+02  0.11474267205E+03  0.12845850354E+03  0.17770000000E+01 0. -1.
         15    1    3    3    0    0 -0.35937875317E+02 -0.88087357552E+02  0.52543094071E+02  0.10869612646E+03  0.17770000000E+01 0.  1.
</event>
<event>
 7    1  0.4954109E-006  0.5374844E+03  0.7546771E-02  0.9319633E-01
        -11   -1    0    0    0    0  0.00000000000E+00  0.00000000000E+00  0.50000000000E+03  0.50000000000E+03  0.00000000000E+00 0. -1.
         11   -1    0    0    0    0 -0.00000000000E+00 -0.00000000000E+00 -0.50000000000E+03  0.50000000000E+03  0.00000000000E+00 0.  1.
         23    2    1    2    0    0  0.65271460879E+02  0.17720037874E+03 -0.16277188622E+03  0.26155338394E+03  0.79089492815E+02 0.  0.
        -11    1    1    2    0    0 -0.11144216164E+03 -0.12784660626E+03  0.43029828204E+03  0.46251564476E+03  0.00000000000E+00 0. -1.
         11    1    1    2    0    0  0.46170700758E+02 -0.49353772485E+02 -0.26752639582E+03  0.27593097131E+03  0.00000000000E+00 0.  1.
        -15    1    3    3    0    0  0.26215267985E+02  0.72426451583E+02 -0.11835904524E+03  0.14122624573E+03  0.17770000000E+01 0. -1.
         15    1    3    3    0    0  0.39056192894E+02  0.10477392716E+03 -0.44412840979E+02  0.12032713821E+03  0.17770000000E+01 0.  1.
</event>
<event>
 7    1  0.4954109E-006  0.4784582E+03  0.7546771E-02  0.9449345E-01
        -11   -1    0    0    0    0  0.00000000000E+00  0.00000000000E+00  0.50000000000E+03  0.50000000000E+03  0.00000000000E+00 0. -1.
         11   -1    0    0    0    0 -0.00000000000E+00 -0.00000000000E+00 -0.50000000000E+03  0.50000000000E+03  0.00000000000E+00 0. -1.
         23    2    1    2    0    0  0.60289413129E+02  0.29870834716E+02  0.45262735902E+03  0.46693383515E+03  0.92890258760E+02 0.  0.
        -11    1    1    2    0    0  0.19394162882E+02 -0.41046688774E+02  0.22853135340E+02  0.50825485812E+02  0.00000000000E+00 0. -1.
         11    1    1    2    0    0 -0.79683576011E+02  0.11175854058E+02 -0.47548049436E+03  0.48224067904E+03  0.00000000000E+00 0. -1.
        -15    1    3    3    0    0  0.41934134599E+02 -0.26166343606E+02  0.28424757681E+03  0.28851861610E+03  0.17770000000E+01 0. -1.
         15    1    3    3    0    0  0.18355278530E+02  0.56037178322E+02  0.16837978221E+03  0.17841521905E+03  0.17770000000E+01 0.  1.
</event>
<event>
 7    1  0.4954109E-006  0.3543476E+03  0.7546771E-02  0.9801825E-01
        -11   -1    0    0    0    0  0.00000000000E+00  0.00000000000E+00  0.50000000000E+03  0.50000000000E+03  0.00000000000E+00 0. -1.
         11   -1    0    0    0    0 -0.00000000000E+00 -0.00000000000E+00 -0.50000000000E+03  0.50000000000E+03  0.00000000000E+00 0.  1.
         23    2    1    2    0    0 -0.16787467478E+03  0.86224358837E+02  0.14309052899E+03  0.25277816425E+03  0.88347916484E+02 0.  0.
        -11    1    1    2    0    0 -0.23379755108E+02 -0.12941301673E+03  0.26424108274E+03  0.29515706269E+03  0.00000000000E+00 0. -1.
         11    1    1    2    0    0  0.19125442989E+03  0.43188657891E+02 -0.40733161173E+03  0.45206477306E+03  0.00000000000E+00 0.  1.
        -15    1    3    3    0    0 -0.15131730951E+03  0.80028816730E+02  0.15536952479E+03  0.23118042007E+03  0.17770000000E+01 0.  1.
         15    1    3    3    0    0 -0.16557365272E+02  0.61955421072E+01 -0.12278995799E+02  0.21597744178E+02  0.17770000000E+01 0. -1.
</event>
<event>
 7    1  0.4954109E-006  0.4021975E+03  0.7546771E-02  0.9649930E-01
        -11   -1    0    0    0    0  0.00000000000E+00  0.00000000000E+00  0.50000000000E+03  0.50000000000E+03  0.00000000000E+00 0.  1.
         11   -1    0    0    0    0 -0.00000000000E+00 -0.00000000000E+00 -0.50000000000E+03  0.50000000000E+03  0.00000000000E+00 0. -1.
         23    2    1    2    0    0 -0.15126144784E+02 -0.15526323565E+03 -0.32806879611E+01  0.18061153284E+03  0.90963125953E+02 0.  0.
        -11    1    1    2    0    0  0.30887849719E+03  0.16429768635E+02 -0.25773618323E+03  0.40262116619E+03  0.00000000000E+00 0. -1.
         11    1    1    2    0    0 -0.29375235240E+03  0.13883346701E+03  0.26101687119E+03  0.41676730096E+03  0.00000000000E+00 0.  1.
        -15    1    3    3    0    0  0.17511139442E+01 -0.16138654993E+03  0.32107564113E+01  0.16143776381E+03  0.17770000000E+01 0. -1.
         15    1    3    3    0    0 -0.16877258728E+02  0.61233142816E+01 -0.64914443724E+01  0.19173769035E+02  0.17770000000E+01 0.  1.
</event>
<event>
 7    1  0.4954109E-006  0.3531898E+03  0.7546771E-02  0.9805814E-01
        -11   -1    0    0    0    0  0.00000000000E+00  0.00000000000E+00  0.50000000000E+03  0.50000000000E+03  0.00000000000E+00 0. -1.
         11   -1    0    0    0    0 -0.00000000000E+00 -0.00000000000E+00 -0.50000000000E+03  0.50000000000E+03  0.00000000000E+00 0.  1.
         23    2    1    2    0    0 -0.35883101942E+02  0.12284159123E+03  0.20316526008E+03  0.25392642073E+03  0.82612654601E+02 0.  0.
        -11    1    1    2    0    0 -0.47017804323E+02 -0.31347244546E+03  0.13867750808E+03  0.34598713738E+03  0.00000000000E+00 0. -1.
         11    1    1    2    0    0  0.82900906265E+02  0.19063085423E+03 -0.34184276816E+03  0.40008644189E+03  0.00000000000E+00 0.  1.
        -15    1    3    3    0    0 -0.39555749952E+02  0.13417182468E+02  0.43624706489E+02  0.60423098935E+02  0.17770000000E+01 0.  1.
         15    1    3    3    0    0  0.36726480104E+01  0.10942440876E+03  0.15954055359E+03  0.19350332179E+03  0.17770000000E+01 0. -1.
</event>
<event>
 7    1  0.4954109E-006  0.4375715E+03  0.7546771E-02  0.9551472E-01
        -11   -1    0    0    0    0  0.00000000000E+00  0.00000000000E+00  0.50000000000E+03  0.50000000000E+03  0.00000000000E+00 0.  1.
         11   -1    0    0    0    0 -0.00000000000E+00 -0.00000000000E+00 -0.50000000000E+03  0.50000000000E+03  0.00000000000E+00 0.  1.
         23    2    1    2    0    0  0.11240267504E+01  0.69493482999E+02  0.42083092252E+02  0.12109344127E+03  0.89788792454E+02 0.  0.
        -11    1    1    2    0    0 -0.13683477011E+03 -0.89320625094E+02  0.39145466704E+03  0.42419180181E+03  0.00000000000E+00 0.  1.
         11    1    1    2    0    0  0.13571074336E+03  0.19827142095E+02 -0.43353775929E+03  0.45471475692E+03  0.00000000000E+00 0.  1.
        -15    1    3    3    0    0 -0.11999230019E+02  0.87055550812E+02  0.20454000106E+02  0.90245079077E+02  0.17770000000E+01 0.  1.
         15    1    3    3    0    0  0.13123256770E+02 -0.17562067813E+02  0.21629092146E+02  0.30848362196E+02  0.17770000000E+01 0. -1.
</event>
<event>
 7    1  0.4954109E-006  0.5137598E+03  0.7546771E-02  0.9369537E-01
        -11   -1    0    0    0    0  0.00000000000E+00  0.00000000000E+00  0.50000000000E+03  0.50000000000E+03  0.00000000000E+00 0.  1.
         11   -1    0    0    0    0 -0.00000000000E+00 -0.00000000000E+00 -0.50000000000E+03  0.50000000000E+03  0.00000000000E+00 0. -1.
         23    2    1    2    0    0  0.27810354687E+02 -0.17835746416E+02  0.25306602692E+03  0.26968836655E+03  0.87165769617E+02 0.  0.
        -11    1    1    2    0    0  0.12849119252E+03  0.95196817617E+01  0.20729271411E+03  0.24407146539E+03  0.00000000000E+00 0.  1.
         11    1    1    2    0    0 -0.15630154720E+03  0.83160646539E+01 -0.46035874103E+03  0.48624016806E+03  0.00000000000E+00 0. -1.
        -15    1    3    3    0    0  0.18875362323E+01  0.34233632172E+02  0.78522315625E+02  0.85699569105E+02  0.17770000000E+01 0. -1.
         15    1    3    3    0    0  0.25922818455E+02 -0.52069378588E+02  0.17454371129E+03  0.18398879744E+03  0.17770000000E+01 0.  1.
</event>
<event>
 7    1  0.4954109E-006  0.5078194E+03  0.7546771E-02  0.9382481E-01
        -11   -1    0    0    0    0  0.00000000000E+00  0.00000000000E+00  0.50000000000E+03  0.50000000000E+03  0.00000000000E+00 0.  1.
         11   -1    0    0    0    0 -0.00000000000E+00 -0.00000000000E+00 -0.50000000000E+03  0.50000000000E+03  0.00000000000E+00 0. -1.
         23    2    1    2    0    0  0.50802159343E+02 -0.27939409665E+02  0.36539873444E+03  0.38290031212E+03  0.98665819244E+02 0.  0.
        -11    1    1    2    0    0  0.95143496953E+01 -0.38092738321E+02  0.11858831212E+03  0.12491904313E+03  0.00000000000E+00 0.  1.
         11    1    1    2    0    0 -0.60316509039E+02  0.66032147986E+02 -0.48398704656E+03  0.49218064475E+03  0.00000000000E+00 0. -1.
        -15    1    3    3    0    0  0.65405638028E+02  0.11248608817E+01  0.32229713080E+03  0.32887347271E+03  0.17770000000E+01 0.  1.
         15    1    3    3    0    0 -0.14603478684E+02 -0.29064270547E+02  0.43101603634E+02  0.54026839413E+02  0.17770000000E+01 0. -1.
</event>
<event>
 7    1  0.4954109E-006  0.5361874E+03  0.7546771E-02  0.9322290E-01
        -11   -1    0    0    0    0  0.00000000000E+00  0.00000000000E+00  0.50000000000E+03  0.50000000000E+03  0.00000000000E+00 0.  1.
         11   -1    0    0    0    0 -0.00000000000E+00 -0.00000000000E+00 -0.50000000000E+03  0.50000000000E+03  0.00000000000E+00 0. -1.
         23    2    1    2    0    0 -0.53261691505E+02  0.14630028078E+02  0.69434536249E+02  0.12691205736E+03  0.90745082381E+02 0.  0.
        -11    1    1    2    0    0  0.11118694519E+03 -0.73482811633E+02  0.38696780747E+03  0.40927538944E+03  0.00000000000E+00 0.  1.
         11    1    1    2    0    0 -0.57925253681E+02  0.58852783555E+02 -0.45640234372E+03  0.46381255319E+03  0.00000000000E+00 0. -1.
        -15    1    3    3    0    0 -0.17200545046E+02  0.49918047322E+01 -0.21830237911E+02  0.28293000559E+02  0.17770000000E+01 0.  1.
         15    1    3    3    0    0 -0.36061146459E+02  0.96382233457E+01  0.91264774161E+02  0.98619056804E+02  0.17770000000E+01 0. -1.
</event>
<event>
 7    1  0.5392740E-006  0.5063678E+03  0.7546771E-02  0.9385673E-01
        -11   -1    0    0    0    0  0.00000000000E+00  0.00000000000E+00  0.50000000000E+03  0.50000000000E+03  0.00000000000E+00 0.  1.
         11   -1    0    0    0    0 -0.00000000000E+00 -0.00000000000E+00 -0.50000000000E+03  0.50000000000E+03  0.00000000000E+00 0. -1.
         23    2    1    2    0    0 -0.22212138001E+02  0.10900657569E+03 -0.37862897721E+03  0.40508622552E+03  0.91428305819E+02 0.  0.
        -11    1    1    2    0    0  0.21739833649E+02 -0.15852064441E+03  0.46698107500E+03  0.49363219048E+03  0.00000000000E+00 0.  1.
         11    1    1    2    0    0  0.47230435184E+00  0.49514068723E+02 -0.88352097795E+02  0.10128158400E+03  0.00000000000E+00 0. -1.
        -15    1    3    3    0    0 -0.55780987792E+02  0.86895064904E+02 -0.25695151552E+03  0.27692870917E+03  0.17770000000E+01 0. -1.
         15    1    3    3    0    0  0.33568849791E+02  0.22111510783E+02 -0.12167746169E+03  0.12815751635E+03  0.17770000000E+01 0.  1.
</event>
<event>
 7    1  0.4954109E-006  0.5301071E+03  0.7546771E-02  0.9334853E-01
        -11   -1    0    0    0    0  0.00000000000E+00  0.00000000000E+00  0.50000000000E+03  0.50000000000E+03  0.00000000000E+00 0. -1.
         11   -1    0    0    0    0 -0.00000000000E+00 -0.00000000000E+00 -0.50000000000E+03  0.50000000000E+03  0.00000000000E+00 0.  1.
         23    2    1    2    0    0 -0.48514575675E+02 -0.92903211620E+01  0.16481021718E+03  0.19535665097E+03  0.92530207346E+02 0.  0.
        -11    1    1    2    0    0  0.15603925989E+03  0.62280992202E+02  0.28953525373E+03  0.33475040816E+03  0.00000000000E+00 0. -1.
         11    1    1    2    0    0 -0.10752468421E+03 -0.52990671040E+02 -0.45434547091E+03  0.46989294086E+03  0.00000000000E+00 0.  1.
        -15    1    3    3    0    0 -0.29687072987E+02  0.34255976843E+02  0.35491075317E+02  0.57598336853E+02  0.17770000000E+01 0. -1.
         15    1    3    3    0    0 -0.18827502688E+02 -0.43546298005E+02  0.12931914187E+03  0.13775831412E+03  0.17770000000E+01 0.  1.
</event>
<event>
 7    1  0.4954109E-006  0.5176389E+03  0.7546771E-02  0.9361184E-01
        -11   -1    0    0    0    0  0.00000000000E+00  0.00000000000E+00  0.50000000000E+03  0.50000000000E+03  0.00000000000E+00 0. -1.
         11   -1    0    0    0    0 -0.00000000000E+00 -0.00000000000E+00 -0.50000000000E+03  0.50000000000E+03  0.00000000000E+00 0. -1.
         23    2    1    2    0    0 -0.11054386846E+02 -0.63747906252E+02  0.20992989977E+03  0.23868613291E+03  0.93351551710E+02 0.  0.
        -11    1    1    2    0    0  0.81827956537E+02  0.24266900596E+02  0.26557470370E+03  0.27895272033E+03  0.00000000000E+00 0. -1.
         11    1    1    2    0    0 -0.70773569691E+02  0.39481005656E+02 -0.47550460347E+03  0.48236114675E+03  0.00000000000E+00 0. -1.
        -15    1    3    3    0    0  0.20527410204E+02 -0.37307879420E+02  0.25415596231E+02  0.49622199642E+02  0.17770000000E+01 0.  1.
         15    1    3    3    0    0 -0.31581797050E+02 -0.26440026832E+02  0.18451430354E+03  0.18906393327E+03  0.17770000000E+01 0. -1.
</event>
<event>
 7    1  0.4954109E-006  0.4883951E+03  0.7546771E-02  0.9426158E-01
        -11   -1    0    0    0    0  0.00000000000E+00  0.00000000000E+00  0.50000000000E+03  0.50000000000E+03  0.00000000000E+00 0. -1.
         11   -1    0    0    0    0 -0.00000000000E+00 -0.00000000000E+00 -0.50000000000E+03  0.50000000000E+03  0.00000000000E+00 0. -1.
         23    2    1    2    0    0  0.62173808195E+02  0.61590466353E+02  0.46924032391E+03  0.48512264525E+03  0.86594060893E+02 0.  0.
        -11    1    1    2    0    0 -0.10615517153E+02  0.28284466887E+02  0.39570140398E+01  0.30468971621E+02  0.00000000000E+00 0. -1.
         11    1    1    2    0    0 -0.51558291041E+02 -0.89874933239E+02 -0.47319733795E+03  0.48440838313E+03  0.00000000000E+00 0. -1.
        -15    1    3    3    0    0 -0.20021493930E+02  0.27406231464E+02  0.13811036202E+03  0.14223076871E+03  0.17770000000E+01 0.  1.
         15    1    3    3    0    0  0.82195302125E+02  0.34184234888E+02  0.33112996189E+03  0.34289187654E+03  0.17770000000E+01 0. -1.
</event>
<event>
 7    1  0.4954109E-006  0.5132268E+03  0.7546771E-02  0.9370691E-01
        -11   -1    0    0    0    0  0.00000000000E+00  0.00000000000E+00  0.50000000000E+03  0.50000000000E+03  0.00000000000E+00 0. -1.
         11   -1    0    0    0    0 -0.00000000000E+00 -0.00000000000E+00 -0.50000000000E+03  0.50000000000E+03  0.00000000000E+00 0.  1.
         23    2    1    2    0    0 -0.21336994366E+03  0.66938371487E+02  0.42279807244E+03  0.48677320586E+03  0.90456981207E+02 0.  0.
        -11    1    1    2    0    0  0.36165946203E+02 -0.87461868510E+02 -0.69416708385E+02  0.11737220076E+03  0.00000000000E+00 0. -1.
         11    1    1    2    0    0  0.17720399746E+03  0.20523497023E+02 -0.35338136405E+03  0.39585459338E+03  0.00000000000E+00 0.  1.
        -15    1    3    3    0    0 -0.19310554471E+03  0.76064271660E+02  0.31878830257E+03  0.38040066299E+03  0.17770000000E+01 0. -1.
         15    1    3    3    0    0 -0.20264398953E+02 -0.91259001726E+01  0.10400976987E+03  0.10637254287E+03  0.17770000000E+01 0.  1.
</event>
<event>
 7    1  0.4954109E-006  0.4198627E+03  0.7546771E-02  0.9599467E-01
        -11   -1    0    0    0    0  0.00000000000E+00  0.00000000000E+00  0.50000000000E+03  0.50000000000E+03  0.00000000000E+00 0.  1.
         11   -1    0    0    0    0 -0.00000000000E+00 -0.00000000000E+00 -0.50000000000E+03  0.50000000000E+03  0.00000000000E+00 0. -1.
         23    2    1    2    0    0  0.10771244971E+03 -0.50418962456E+02  0.17663331958E+02  0.15171065384E+03  0.92520730631E+02 0.  0.
        -11    1    1    2    0    0 -0.80319080826E+02  0.12807699520E+03  0.39737483154E+03  0.42516070866E+03  0.00000000000E+00 0.  1.
         11    1    1    2    0    0 -0.27393368884E+02 -0.77658032744E+02 -0.41503816350E+03  0.42312863750E+03  0.00000000000E+00 0. -1.
        -15    1    3    3    0    0  0.26730584922E+02 -0.36307086567E+02  0.46295579086E+02  0.64646477686E+02  0.17770000000E+01 0.  1.
         15    1    3    3    0    0  0.80981864787E+02 -0.14111875889E+02 -0.28632247128E+02  0.87064176158E+02  0.17770000000E+01 0. -1.
</event>
<event>
 7    1  0.4954109E-006  0.5168822E+03  0.7546771E-02  0.9362807E-01
        -11   -1    0    0    0    0  0.00000000000E+00  0.00000000000E+00  0.50000000000E+03  0.50000000000E+03  0.00000000000E+00 0.  1.
         11   -1    0    0    0    0 -0.00000000000E+00 -0.00000000000E+00 -0.50000000000E+03  0.50000000000E+03  0.00000000000E+00 0. -1.
         23    2    1    2    0    0 -0.51405419598E+02  0.47088202173E+02  0.16855881239E+03  0.20114504540E+03  0.84778771553E+02 0.  0.
        -11    1    1    2    0    0  0.70550561765E+02  0.76108572982E+02  0.29819467144E+03  0.31573716715E+03  0.00000000000E+00 0.  1.
         11    1    1    2    0    0 -0.19145142166E+02 -0.12319677515E+03 -0.46675348383E+03  0.48311778745E+03  0.00000000000E+00 0. -1.
        -15    1    3    3    0    0 -0.57030498662E+02  0.36833600930E+02  0.17497073797E+03  0.18768886171E+03  0.17770000000E+01 0. -1.
         15    1    3    3    0    0  0.56250790639E+01  0.10254601243E+02 -0.64119255716E+01  0.13456183696E+02  0.17770000000E+01 0.  1.
</event>
<event>
 7    1  0.4954109E-006  0.3204484E+03  0.7546771E-02  0.9925927E-01
        -11   -1    0    0    0    0  0.00000000000E+00  0.00000000000E+00  0.50000000000E+03  0.50000000000E+03  0.00000000000E+00 0. -1.
         11   -1    0    0    0    0 -0.00000000000E+00 -0.00000000000E+00 -0.50000000000E+03  0.50000000000E+03  0.00000000000E+00 0. -1.
         23    2    1    2    0    0  0.38127274925E+02 -0.42161333243E+02  0.27886826735E+03  0.29875299497E+03  0.90854688130E+02 0.  0.
        -11    1    1    2    0    0  0.11570426608E+03  0.30690881959E+03 -0.84970417690E+02  0.33882218436E+03  0.00000000000E+00 0. -1.
         11    1    1    2    0    0 -0.15383154100E+03 -0.26474748635E+03 -0.19389784966E+03  0.36242482067E+03  0.00000000000E+00 0. -1.
        -15    1    3    3    0    0 -0.22933054941E+02  0.77505989934E+01  0.36192958426E+02  0.43578489674E+02  0.17770000000E+01 0.  1.
         15    1    3    3    0    0  0.61060329865E+02 -0.49911932236E+02  0.24267530893E+03  0.25517450530E+03  0.17770000000E+01 0. -1.
</event>
<event>
 7    1  0.4954109E-006  0.5193430E+03  0.7546771E-02  0.9357539E-01
        -11   -1    0    0    0    0  0.00000000000E+00  0.00000000000E+00  0.50000000000E+03  0.50000000000E+03  0.00000000000E+00 0.  1.
         11   -1    0    0    0    0 -0.00000000000E+00 -0.00000000000E+00 -0.50000000000E+03  0.50000000000E+03  0.00000000000E+00 0. -1.
         23    2    1    2    0    0 -0.24870837431E+02 -0.56684010949E+02  0.15003012773E+03  0.18476942766E+03  0.88312323719E+02 0.  0.
        -11    1    1    2    0    0  0.90444996262E+02 -0.53708859902E+01  0.32207194238E+03  0.33457357911E+03  0.00000000000E+00 0.  1.
         11    1    1    2    0    0 -0.65574158830E+02  0.62054896939E+02 -0.47210207011E+03  0.48065699323E+03  0.00000000000E+00 0. -1.
        -15    1    3    3    0    0 -0.42994736670E+01 -0.42600147514E+02  0.15365063890E+03  0.15951468461E+03  0.17770000000E+01 0.  1.
         15    1    3    3    0    0 -0.20571363764E+02 -0.14083863435E+02 -0.36205111760E+01  0.25254743051E+02  0.17770000000E+01 0. -1.
</event>
<event>
 7    1  0.4954109E-006  0.3746503E+03  0.7546771E-02  0.9734417E-01
        -11   -1    0    0    0    0  0.00000000000E+00  0.00000000000E+00  0.50000000000E+03  0.50000000000E+03  0.00000000000E+00 0.  1.
         11   -1    0    0    0    0 -0.00000000000E+00 -0.00000000000E+00 -0.50000000000E+03  0.50000000000E+03  0.00000000000E+00 0.  1.
         23    2    1    2    0    0  0.59065045856E+01  0.56348458921E+02  0.30887689507E+03  0.32673426364E+03  0.90223650492E+02 0.  0.
        -11    1    1    2    0    0 -0.18296668860E+03 -0.92390959759E+02  0.98651782994E+02  0.22747543356E+03  0.00000000000E+00 0.  1.
         11    1    1    2    0    0  0.17706018402E+03  0.36042500837E+02 -0.40752867806E+03  0.44579030281E+03  0.00000000000E+00 0.  1.
        -15    1    3    3    0    0 -0.37095591213E+02  0.22128525991E+02  0.20164285294E+03  0.20622500435E+03  0.17770000000E+01 0.  1.
         15    1    3    3    0    0  0.43002095799E+02  0.34219932931E+02  0.10723404213E+03  0.12050925929E+03  0.17770000000E+01 0. -1.
</event>
<event>
 7    1  0.4954109E-006  0.4656864E+03  0.7546771E-02  0.9480042E-01
        -11   -1    0    0    0    0  0.00000000000E+00  0.00000000000E+00  0.50000000000E+03  0.50000000000E+03  0.00000000000E+00 0. -1.
         11   -1    0    0    0    0 -0.00000000000E+00 -0.00000000000E+00 -0.50000000000E+03  0.50000000000E+03  0.00000000000E+00 0.  1.
         23    2    1    2    0    0 -0.18726168881E+03 -0.10048302604E+03 -0.37565495474E+03  0.44105720437E+03  0.90835201787E+02 0.  0.
        -11    1    1    2    0    0  0.16157500247E+03  0.99572235073E+02  0.44564822209E+03  0.48437944761E+03  0.00000000000E+00 0. -1.
         11    1    1    2    0    0  0.25686686332E+02  0.91079096554E+00 -0.69993267342E+02  0.74563348021E+02  0.00000000000E+00 0.  1.
        -15    1    3    3    0    0 -0.17426118818E+03 -0.11131638923E+03 -0.36858691596E+03  0.42263195876E+03  0.17770000000E+01 0.  1.
         15    1    3    3    0    0 -0.13000500623E+02  0.10833363191E+02 -0.70680387837E+01  0.18425245608E+02  0.17770000000E+01 0. -1.
</event>
<event>
 7    1  0.4954109E-006  0.4433309E+03  0.7546771E-02  0.9536382E-01
        -11   -1    0    0    0    0  0.00000000000E+00  0.00000000000E+00  0.50000000000E+03  0.50000000000E+03  0.00000000000E+00 0.  1.
         11   -1    0    0    0    0 -0.00000000000E+00 -0.00000000000E+00 -0.50000000000E+03  0.50000000000E+03  0.00000000000E+00 0. -1.
         23    2    1    2    0    0  0.24700070840E+03 -0.42480273318E+02 -0.32383218518E+03  0.41909070511E+03  0.89195355136E+02 0.  0.
        -11    1    1    2    0    0 -0.19245580401E+03  0.25905305538E+02  0.42360686234E+03  0.46599688323E+03  0.00000000000E+00 0.  1.
         11    1    1    2    0    0 -0.54544904385E+02  0.16574967780E+02 -0.99774677167E+02  0.11491241167E+03  0.00000000000E+00 0. -1.
        -15    1    3    3    0    0  0.17354829835E+03 -0.68420254052E+02 -0.20703319981E+03  0.27868664586E+03  0.17770000000E+01 0. -1.
         15    1    3    3    0    0  0.73452410051E+02  0.25939980734E+02 -0.11679898536E+03  0.14040405925E+03  0.17770000000E+01 0.  1.
</event>
<event>
 7    1  0.4954109E-006  0.3661148E+03  0.7546771E-02  0.9762185E-01
        -11   -1    0    0    0    0  0.00000000000E+00  0.00000000000E+00  0.50000000000E+03  0.50000000000E+03  0.00000000000E+00 0. -1.
         11   -1    0    0    0    0 -0.00000000000E+00 -0.00000000000E+00 -0.50000000000E+03  0.50000000000E+03  0.00000000000E+00 0.  1.
         23    2    1    2    0    0 -0.59584175595E+02 -0.73037313005E+02  0.19613694823E+03  0.23611871905E+03  0.91638550586E+02 0.  0.
        -11    1    1    2    0    0  0.17614230466E+03 -0.24071684622E+03  0.10241474659E+03  0.31537198967E+03  0.00000000000E+00 0. -1.
         11    1    1    2    0    0 -0.11655812907E+03  0.31375415923E+03 -0.29855169482E+03  0.44850929128E+03  0.00000000000E+00 0.  1.
        -15    1    3    3    0    0 -0.48103724298E+02  0.85494793806E+01  0.67415766389E+02  0.83277278869E+02  0.17770000000E+01 0.  1.
         15    1    3    3    0    0 -0.11480451298E+02 -0.81586792385E+02  0.12872118184E+03  0.15284144018E+03  0.17770000000E+01 0. -1.
</event>
<event>
 7    1  0.4954109E-006  0.3355334E+03  0.7546771E-02  0.9868761E-01
        -11   -1    0    0    0    0  0.00000000000E+00  0.00000000000E+00  0.50000000000E+03  0.50000000000E+03  0.00000000000E+00 0. -1.
         11   -1    0    0    0    0 -0.00000000000E+00 -0.00000000000E+00 -0.50000000000E+03  0.50000000000E+03  0.00000000000E+00 0. -1.
         23    2    1    2    0    0  0.54433455654E+02 -0.23397914476E+03  0.10626815391E+03  0.27935251627E+03  0.95056123078E+02 0.  0.
        -11    1    1    2    0    0 -0.28809817486E+03 -0.48636174703E+02  0.88692806020E+02  0.30533989207E+03  0.00000000000E+00 0. -1.
         11    1    1    2    0    0  0.23366471921E+03  0.28261531946E+03 -0.19496095993E+03  0.41530759166E+03  0.00000000000E+00 0. -1.
        -15    1    3    3    0    0  0.13137688482E+02 -0.11723634816E+03  0.10114227845E+03  0.15540231146E+03  0.17770000000E+01 0. -1.
         15    1    3    3    0    0  0.41295767171E+02 -0.11674279660E+03  0.51258754610E+01  0.12395020481E+03  0.17770000000E+01 0.  1.
</event>
<event>
 7    1  0.4954109E-006  0.5239232E+03  0.7546771E-02  0.9347815E-01
        -11   -1    0    0    0    0  0.00000000000E+00  0.00000000000E+00  0.50000000000E+03  0.50000000000E+03  0.00000000000E+00 0.  1.
         11   -1    0    0    0    0 -0.00000000000E+00 -0.00000000000E+00 -0.50000000000E+03  0.50000000000E+03  0.00000000000E+00 0.  1.
         23    2    1    2    0    0 -0.84763124254E+02 -0.84442021894E+02  0.20603489843E+03  0.25516295346E+03  0.91337348073E+02 0.  0.
        -11    1    1    2    0    0  0.89233014068E+02 -0.10685104701E+03  0.22989644289E+03  0.26876021190E+03  0.00000000000E+00 0.  1.
         11    1    1    2    0    0 -0.44698898140E+01  0.19129306890E+03 -0.43593134133E+03  0.47607683463E+03  0.00000000000E+00 0.  1.
        -15    1    3    3    0    0 -0.48514963988E+02 -0.57874200439E+02  0.19461128249E+03  0.20875783532E+03  0.17770000000E+01 0.  1.
         15    1    3    3    0    0 -0.36248160265E+02 -0.26567821456E+02  0.11423615944E+02  0.46405118142E+02  0.17770000000E+01 0. -1.
</event>
<event>
 7    1  0.4954109E-006  0.5153663E+03  0.7546771E-02  0.9366068E-01
        -11   -1    0    0    0    0  0.00000000000E+00  0.00000000000E+00  0.50000000000E+03  0.50000000000E+03  0.00000000000E+00 0.  1.
         11   -1    0    0    0    0 -0.00000000000E+00 -0.00000000000E+00 -0.50000000000E+03  0.50000000000E+03  0.00000000000E+00 0. -1.
         23    2    1    2    0    0 -0.67370669992E+02  0.25881772659E+02 -0.12098062724E+03  0.16814871816E+03  0.91809617794E+02 0.  0.
        -11    1    1    2    0    0  0.19927589931E+03 -0.83536037577E+01  0.44168896146E+03  0.48463368168E+03  0.00000000000E+00 0.  1.
         11    1    1    2    0    0 -0.13190522931E+03 -0.17528168901E+02 -0.32070833422E+03  0.34721760016E+03  0.00000000000E+00 0. -1.
        -15    1    3    3    0    0 -0.27275724579E+02 -0.19279457010E+02 -0.97927259865E+02  0.10348221377E+03  0.17770000000E+01 0.  1.
         15    1    3    3    0    0 -0.40094945413E+02  0.45161229669E+02 -0.23053367378E+02  0.64666504385E+02  0.17770000000E+01 0. -1.
</event>
<event>
 7    1  0.4954109E-006  0.3738246E+03  0.7546771E-02  0.9737068E-01
        -11   -1    0    0    0    0  0.00000000000E+00  0.00000000000E+00  0.50000000000E+03  0.50000000000E+03  0.00000000000E+00 0.  1.
         11   -1    0    0    0    0 -0.00000000000E+00 -0.00000000000E+00 -0.50000000000E+03  0.50000000000E+03  0.00000000000E+00 0. -1.
         23    2    1    2    0    0 -0.12281752243E+03 -0.35317136579E+02  0.33218372987E+03  0.36924333900E+03  0.98301419384E+02 0.  0.
        -11    1    1    2    0    0  0.58707417426E+02  0.22205535965E+03  0.16264658870E+02  0.23026003287E+03  0.00000000000E+00 0.  1.
         11    1    1    2    0    0  0.64110105004E+02 -0.18673822307E+03 -0.34844838874E+03  0.40049662812E+03  0.00000000000E+00 0. -1.
        -15    1    3    3    0    0 -0.64413159926E+02 -0.26011654231E+02  0.63537356758E+02  0.94158455596E+02  0.17770000000E+01 0.  1.
         15    1    3    3    0    0 -0.58404362504E+02 -0.93054823487E+01  0.26864637312E+03  0.27508488341E+03  0.17770000000E+01 0. -1.
</event>
<event>
 7    1  0.4954109E-006  0.5276710E+03  0.7546771E-02  0.9339937E-01
        -11   -1    0    0    0    0  0.00000000000E+00  0.00000000000E+00  0.50000000000E+03  0.50000000000E+03  0.00000000000E+00 0. -1.
         11   -1    0    0    0    0 -0.00000000000E+00 -0.00000000000E+00 -0.50000000000E+03  0.50000000000E+03  0.00000000000E+00 0.  1.
         23    2    1    2    0    0 -0.50915956126E+02  0.28552143251E+02  0.33460222025E+03  0.35510155994E+03  0.10358963561E+03 0.  0.
        -11    1    1    2    0    0  0.10140037174E+03  0.58163161522E+02  0.12694570896E+03  0.17256941146E+03  0.00000000000E+00 0. -1.
         11    1    1    2    0    0 -0.50484415616E+02 -0.86715304773E+02 -0.46154792921E+03  0.47232902860E+03  0.00000000000E+00 0.  1.
        -15    1    3    3    0    0 -0.10712369286E+01  0.46322941414E+02  0.25704740880E+03  0.26119626826E+03  0.17770000000E+01 0. -1.
         15    1    3    3    0    0 -0.49844719197E+02 -0.17770798162E+02  0.77554811444E+02  0.93905291684E+02  0.17770000000E+01 0.  1.
</event>
<event>
 7    1  0.4954109E-006  0.5271047E+03  0.7546771E-02  0.9341123E-01
        -11   -1    0    0    0    0  0.00000000000E+00  0.00000000000E+00  0.50000000000E+03  0.50000000000E+03  0.00000000000E+00 0.  1.
         11   -1    0    0    0    0 -0.00000000000E+00 -0.00000000000E+00 -0.50000000000E+03  0.50000000000E+03  0.00000000000E+00 0. -1.
         23    2    1    2    0    0  0.38091616297E+02 -0.80932112187E+02  0.26280651952E+03  0.29198740207E+03  0.90489768772E+02 0.  0.
        -11    1    1    2    0    0  0.54199368381E+02  0.11106959509E+03  0.20001531647E+03  0.23511731818E+03  0.00000000000E+00 0.  1.
         11    1    1    2    0    0 -0.92290984678E+02 -0.30137482900E+02 -0.46282183599E+03  0.47289527974E+03  0.00000000000E+00 0. -1.
        -15    1    3    3    0    0  0.97723308133E+01  0.54223347725E+01 -0.24591342265E+01  0.11580381430E+02  0.17770000000E+01 0. -1.
         15    1    3    3    0    0  0.28319285484E+02 -0.86354446959E+02  0.26526565375E+03  0.28040702065E+03  0.17770000000E+01 0.  1.
</event>
<event>
 7    1  0.4954109E-006  0.4826594E+03  0.7546771E-02  0.9439469E-01
        -11   -1    0    0    0    0  0.00000000000E+00  0.00000000000E+00  0.50000000000E+03  0.50000000000E+03  0.00000000000E+00 0.  1.
         11   -1    0    0    0    0 -0.00000000000E+00 -0.00000000000E+00 -0.50000000000E+03  0.50000000000E+03  0.00000000000E+00 0. -1.
         23    2    1    2    0    0  0.37939668270E+02  0.38654693989E+02  0.46026082394E+03  0.47206649902E+03  0.89850707562E+02 0.  0.
        -11    1    1    2    0    0  0.84165642389E-02  0.38222262114E+02  0.17858513828E+02  0.42188480751E+02  0.00000000000E+00 0.  1.
         11    1    1    2    0    0 -0.37948084834E+02 -0.76876956103E+02 -0.47811933777E+03  0.48574502022E+03  0.00000000000E+00 0. -1.
        -15    1    3    3    0    0 -0.17210328036E+02  0.40726356479E+02  0.13266980081E+03  0.13985444319E+03  0.17770000000E+01 0. -1.
         15    1    3    3    0    0  0.55149996306E+02 -0.20716624901E+01  0.32759102313E+03  0.33221205584E+03  0.17770000000E+01 0.  1.
</event>
<event>
 7    1  0.4954109E-006  0.4209798E+03  0.7546771E-02  0.9596366E-01
        -11   -1    0    0    0    0  0.00000000000E+00  0.00000000000E+00  0.50000000000E+03  0.50000000000E+03  0.00000000000E+00 0.  1.
         11   -1    0    0    0    0 -0.00000000000E+00 -0.00000000000E+00 -0.50000000000E+03  0.50000000000E+03  0.00000000000E+00 0. -1.
         23    2    1    2    0    0 -0.49108666173E+02  0.15482214104E+03  0.36180462297E+03  0.40918198147E+03  0.10072612522E+03 0.  0.
        -11    1    1    2    0    0  0.11649030980E+03 -0.82831978632E+02  0.61918974819E+02  0.15577255343E+03  0.00000000000E+00 0.  1.
         11    1    1    2    0    0 -0.67381643623E+02 -0.71990162411E+02 -0.42372359779E+03  0.43504546510E+03  0.00000000000E+00 0. -1.
        -15    1    3    3    0    0  0.13530016511E+02  0.11295952630E+03  0.18812046375E+03  0.21985309309E+03  0.17770000000E+01 0.  1.
         15    1    3    3    0    0 -0.62638682683E+02  0.41862614739E+02  0.17368415922E+03  0.18932888838E+03  0.17770000000E+01 0. -1.
</event>
<event>
 7    1  0.4954109E-006  0.5125183E+03  0.7546771E-02  0.9372227E-01
        -11   -1    0    0    0    0  0.00000000000E+00  0.00000000000E+00  0.50000000000E+03  0.50000000000E+03  0.00000000000E+00 0. -1.
         11   -1    0    0    0    0 -0.00000000000E+00 -0.00000000000E+00 -0.50000000000E+03  0.50000000000E+03  0.00000000000E+00 0.  1.
         23    2    1    2    0    0 -0.10108488514E+03  0.15665232452E+03  0.44095584410E+03  0.48748172094E+03  0.91860040414E+02 0.  0.
        -11    1    1    2    0    0  0.88165686143E+02 -0.60472005346E+02 -0.66988447749E+02  0.12616459002E+03  0.00000000000E+00 0. -1.
         11    1    1    2    0    0  0.12919198994E+02 -0.96180319177E+02 -0.37396739635E+03  0.38635368904E+03  0.00000000000E+00 0.  1.
        -15    1    3    3    0    0 -0.15868159401E+02  0.10348432334E+03  0.26386512712E+03  0.28388160684E+03  0.17770000000E+01 0. -1.
         15    1    3    3    0    0 -0.85216725737E+02  0.53168001185E+02  0.17709071698E+03  0.20360011410E+03  0.17770000000E+01 0.  1.
</event>
<event>
 7    1  0.4954109E-006  0.5073366E+03  0.7546771E-02  0.9383542E-01
        -11   -1    0    0    0    0  0.00000000000E+00  0.00000000000E+00  0.50000000000E+03  0.50000000000E+03  0.00000000000E+00 0.  1.
         11   -1    0    0    0    0 -0.00000000000E+00 -0.00000000000E+00 -0.50000000000E+03  0.50000000000E+03  0.00000000000E+00 0. -1.
         23    2    1    2    0    0 -0.14182023836E+03  0.14717293189E+02 -0.29171781997E+03  0.33755197808E+03  0.92263062421E+02 0.  0.
        -11    1    1    2    0    0  0.20021181306E+03  0.31986912852E+01  0.45013579676E+03  0.49266341171E+03  0.00000000000E+00 0.  1.
         11    1    1    2    0    0 -0.58391574700E+02 -0.17915984474E+02 -0.15841797679E+03  0.16978461021E+03  0.00000000000E+00 0. -1.
        -15    1    3    3    0    0 -0.39031550868E+02 -0.18339587951E+02 -0.25181631575E+02  0.49970738909E+02  0.17770000000E+01 0.  1.
         15    1    3    3    0    0 -0.10278868749E+03  0.33056881140E+02 -0.26653618840E+03  0.28758123917E+03  0.17770000000E+01 0. -1.
</event>
<event>
 7    1  0.4954109E-006  0.4145242E+03  0.7546771E-02  0.9614434E-01
        -11   -1    0    0    0    0  0.00000000000E+00  0.00000000000E+00  0.50000000000E+03  0.50000000000E+03  0.00000000000E+00 0.  1.
         11   -1    0    0    0    0 -0.00000000000E+00 -0.00000000000E+00 -0.50000000000E+03  0.50000000000E+03  0.00000000000E+00 0. -1.
         23    2    1    2    0    0  0.14230046796E+03 -0.91386007976E+02  0.40894884270E+03  0.45165900925E+03  0.90309905627E+02 0.  0.
        -11    1    1    2    0    0 -0.15999012775E+03  0.21270701017E+02 -0.32026485975E+02  0.16454476444E+03  0.00000000000E+00 0.  1.
         11    1    1    2    0    0  0.17689659796E+02  0.70115306959E+02 -0.37692235672E+03  0.38379622631E+03  0.00000000000E+00 0. -1.
        -15    1    3    3    0    0  0.14005024694E+03 -0.10641992414E+03  0.38429969431E+03  0.42264486830E+03  0.17770000000E+01 0.  1.
         15    1    3    3    0    0  0.22502210206E+01  0.15033916163E+02  0.24649148388E+02  0.29014140950E+02  0.17770000000E+01 0. -1.
</event>
<event>
 7    1  0.4954109E-006  0.5114100E+03  0.7546771E-02  0.9374635E-01
        -11   -1    0    0    0    0  0.00000000000E+00  0.00000000000E+00  0.50000000000E+03  0.50000000000E+03  0.00000000000E+00 0. -1.
         11   -1    0    0    0    0 -0.00000000000E+00 -0.00000000000E+00 -0.50000000000E+03  0.50000000000E+03  0.00000000000E+00 0.  1.
         23    2    1    2    0    0 -0.37890444147E+02  0.45627860132E+02  0.40341495131E+03  0.41788314279E+03  0.91460979152E+02 0.  0.
        -11    1    1    2    0    0 -0.24608751096E+02  0.56627821755E+02  0.70249319785E+02  0.93526829079E+02  0.00000000000E+00 0. -1.
         11    1    1    2    0    0  0.62499195242E+02 -0.10225568189E+03 -0.47366427109E+03  0.48859002814E+03  0.00000000000E+00 0.  1.
        -15    1    3    3    0    0  0.25664500525E+02  0.24190601027E+02  0.77976092952E+02  0.85599536017E+02  0.17770000000E+01 0.  1.
         15    1    3    3    0    0 -0.63554944671E+02  0.21437259106E+02  0.32543885836E+03  0.33228360677E+03  0.17770000000E+01 0. -1.
</event>
<event>
 7    1  0.4954109E-006  0.5168069E+03  0.7546771E-02  0.9362969E-01
        -11   -1    0    0    0    0  0.00000000000E+00  0.00000000000E+00  0.50000000000E+03  0.50000000000E+03  0.00000000000E+00 0.  1.
         11   -1    0    0    0    0 -0.00000000000E+00 -0.00000000000E+00 -0.50000000000E+03  0.50000000000E+03  0.00000000000E+00 0. -1.
         23    2    1    2    0    0 -0.10270828777E+03  0.50618631618E+02  0.31074846630E+03  0.34357949332E+03  0.91493282143E+02 0.  0.
        -11    1    1    2    0    0  0.94000083917E+01 -0.57011158153E+02  0.16330672061E+03  0.17322735728E+03  0.00000000000E+00 0.  1.
         11    1    1    2    0    0  0.93308279376E+02  0.63925265347E+01 -0.47405518691E+03  0.48319314941E+03  0.00000000000E+00 0. -1.
        -15    1    3    3    0    0 -0.32665153076E+02 -0.98791402105E+01  0.18097644961E+03  0.18417448976E+03  0.17770000000E+01 0.  1.
         15    1    3    3    0    0 -0.70043134692E+02  0.60497771829E+02  0.12977201669E+03  0.15940500356E+03  0.17770000000E+01 0. -1.
</event>
<event>
 7    1  0.4954109E-006  0.5179855E+03  0.7546771E-02  0.9360441E-01
        -11   -1    0    0    0    0  0.00000000000E+00  0.00000000000E+00  0.50000000000E+03  0.50000000000E+03  0.00000000000E+00 0.  1.
         11   -1    0    0    0    0 -0.00000000000E+00 -0.00000000000E+00 -0.50000000000E+03  0.50000000000E+03  0.00000000000E+00 0. -1.
         23    2    1    2    0    0 -0.42330006626E+02  0.31924982712E+02  0.36923826350E+03  0.38477262678E+03  0.94350649707E+02 0.  0.
        -11    1    1    2    0    0 -0.39915425394E+02 -0.73174712928E+02  0.10391295875E+03  0.13321292277E+03  0.00000000000E+00 0.  1.
         11    1    1    2    0    0  0.82245432019E+02  0.41249730217E+02 -0.47315122225E+03  0.48201445046E+03  0.00000000000E+00 0. -1.
        -15    1    3    3    0    0 -0.54237829022E+02  0.57706507343E+02  0.25352614517E+03  0.26561334135E+03  0.17770000000E+01 0.  1.
         15    1    3    3    0    0  0.11907822396E+02 -0.25781524632E+02  0.11571211833E+03  0.11915928543E+03  0.17770000000E+01 0. -1.
</event>
<event>
 7    1  0.4954109E-006  0.4884271E+03  0.7546771E-02  0.9426084E-01
        -11   -1    0    0    0    0  0.00000000000E+00  0.00000000000E+00  0.50000000000E+03  0.50000000000E+03  0.00000000000E+00 0.  1.
         11   -1    0    0    0    0 -0.00000000000E+00 -0.00000000000E+00 -0.50000000000E+03  0.50000000000E+03  0.00000000000E+00 0. -1.
         23    2    1    2    0    0 -0.41548725226E+02  0.50377459509E+02  0.47602129505E+03  0.48900742920E+03  0.90927484730E+02 0.  0.
        -11    1    1    2    0    0  0.14665324927E+02  0.27318753823E+02 -0.33071416994E+01  0.31182098260E+02  0.00000000000E+00 0.  1.
         11    1    1    2    0    0  0.26883400299E+02 -0.77696213333E+02 -0.47271415335E+03  0.47981047254E+03  0.00000000000E+00 0. -1.
        -15    1    3    3    0    0  0.87116517780E+01  0.58186353527E+02  0.30262552481E+03  0.30829678981E+03  0.17770000000E+01 0.  1.
         15    1    3    3    0    0 -0.50260377004E+02 -0.78088940179E+01  0.17339577024E+03  0.18071063939E+03  0.17770000000E+01 0. -1.
</event>
<event>
 7    1  0.4954109E-006  0.5277196E+03  0.7546771E-02  0.9339836E-01
        -11   -1    0    0    0    0  0.00000000000E+00  0.00000000000E+00  0.50000000000E+03  0.50000000000E+03  0.00000000000E+00 0.  1.
         11   -1    0    0    0    0 -0.00000000000E+00 -0.00000000000E+00 -0.50000000000E+03  0.50000000000E+03  0.00000000000E+00 0. -1.
         23    2    1    2    0    0 -0.13711101636E+03 -0.13559279008E+03 -0.30223892285E+03  0.36975983483E+03  0.90493830922E+02 0.  0.
        -11    1    1    2    0    0  0.64436580930E+02  0.15646419780E+03  0.44092594105E+03  0.47228042903E+03  0.00000000000E+00 0.  1.
         11    1    1    2    0    0  0.72674435430E+02 -0.20871407719E+02 -0.13868701820E+03  0.15795973614E+03  0.00000000000E+00 0. -1.
        -15    1    3    3    0    0 -0.14668072587E+03 -0.12649695516E+03 -0.25233394214E+03  0.31810735781E+03  0.17770000000E+01 0.  1.
         15    1    3    3    0    0  0.95697095149E+01 -0.90958349243E+01 -0.49904980715E+02  0.51652477020E+02  0.17770000000E+01 0. -1.
</event>
<event>
 7    1  0.4954109E-006  0.5279780E+03  0.7546771E-02  0.9339295E-01
        -11   -1    0    0    0    0  0.00000000000E+00  0.00000000000E+00  0.50000000000E+03  0.50000000000E+03  0.00000000000E+00 0.  1.
         11   -1    0    0    0    0 -0.00000000000E+00 -0.00000000000E+00 -0.50000000000E+03  0.50000000000E+03  0.00000000000E+00 0. -1.
         23    2    1    2    0    0 -0.38917241432E+02  0.62080772854E+02  0.22493513941E+03  0.25247427189E+03  0.88197885382E+02 0.  0.
        -11    1    1    2    0    0  0.16232895929E+03  0.75695606750E+02  0.20933660073E+03  0.27550377187E+03  0.00000000000E+00 0.  1.
         11    1    1    2    0    0 -0.12341171786E+03 -0.13777637960E+03 -0.43427174015E+03  0.47202195624E+03  0.00000000000E+00 0. -1.
        -15    1    3    3    0    0 -0.93804996487E+01 -0.19297604617E+02  0.17685801229E+02  0.27862817728E+02  0.17770000000E+01 0. -1.
         15    1    3    3    0    0 -0.29536741784E+02  0.81378377471E+02  0.20724933818E+03  0.22461145416E+03  0.17770000000E+01 0.  1.
</event>
<event>
 7    1  0.4954109E-006  0.5132834E+03  0.7546771E-02  0.9370568E-01
        -11   -1    0    0    0    0  0.00000000000E+00  0.00000000000E+00  0.50000000000E+03  0.50000000000E+03  0.00000000000E+00 0. -1.
         11   -1    0    0    0    0 -0.00000000000E+00 -0.00000000000E+00 -0.50000000000E+03  0.50000000000E+03  0.00000000000E+00 0. -1.
         23    2    1    2    0    0  0.79680655741E+00 -0.58626975534E+00  0.33172138973E+03  0.34382455142E+03  0.90417161768E+02 0.  0.
        -11    1    1    2    0    0  0.62623310791E+02 -0.54654966655E+02  0.14767342620E+03  0.16945880101E+03  0.00000000000E+00 0. -1.
         11    1    1    2    0    0 -0.63420117348E+02  0.55241236410E+02 -0.47939481593E+03  0.48671664757E+03  0.00000000000E+00 0. -1.
        -15    1    3    3    0    0 -0.11556448940E+02 -0.43717895217E+02  0.15330181967E+03  0.15984183281E+03  0.17770000000E+01 0.  1.
         15    1    3    3    0    0  0.12353255498E+02  0.43131625462E+02  0.17841957006E+03  0.18398271861E+03  0.17770000000E+01 0. -1.
</event>
<event>
 6    1  0.4954109E-006  0.4092625E+03  0.7546771E-02  0.9629422E-01
        -11   -1    0    0    0    0  0.00000000000E+00  0.00000000000E+00  0.50000000000E+03  0.50000000000E+03  0.00000000000E+00 0. -1.
         11   -1    0    0    0    0 -0.00000000000E+00 -0.00000000000E+00 -0.50000000000E+03  0.50000000000E+03  0.00000000000E+00 0. -1.
        -11    1    1    2    0    0 -0.16887466051E+03 -0.80062601687E+02  0.28053657121E+02  0.18898592230E+03  0.00000000000E+00 0. -1.
         11    1    1    2    0    0  0.31305725186E+03 -0.29218272376E+01 -0.31597611280E+03  0.44480814278E+03  0.00000000000E+00 0. -1.
        -15    1    1    2    0    0 -0.15958237603E+03  0.86830285125E+02  0.29675457044E+03  0.34795468953E+03  0.17770000000E+01 0.  1.
         15    1    1    2    0    0  0.15399784682E+02 -0.38458562012E+01 -0.88321147642E+01  0.18251245393E+02  0.17770000000E+01 0. -1.
</event>
<event>
 7    1  0.4954109E-006  0.5299560E+03  0.7546771E-02  0.9335168E-01
        -11   -1    0    0    0    0  0.00000000000E+00  0.00000000000E+00  0.50000000000E+03  0.50000000000E+03  0.00000000000E+00 0.  1.
         11   -1    0    0    0    0 -0.00000000000E+00 -0.00000000000E+00 -0.50000000000E+03  0.50000000000E+03  0.00000000000E+00 0. -1.
         23    2    1    2    0    0  0.67662113040E+02 -0.35700313657E+02  0.12523869360E+03  0.17152743273E+03  0.88793332340E+02 0.  0.
        -11    1    1    2    0    0 -0.12130295246E+03 -0.57456906004E+02  0.33234820108E+03  0.35842855507E+03  0.00000000000E+00 0.  1.
         11    1    1    2    0    0  0.53640839423E+02  0.93157219661E+02 -0.45758689468E+03  0.47004401221E+03  0.00000000000E+00 0. -1.
        -15    1    3    3    0    0  0.60431190026E+02 -0.50916338284E+02  0.48047603146E+02  0.92499362859E+02  0.17770000000E+01 0. -1.
         15    1    3    3    0    0  0.72309230136E+01  0.15216024628E+02  0.77191090451E+02  0.79028069868E+02  0.17770000000E+01 0.  1.
</event>
<event>
 7    1  0.4954109E-006  0.4569734E+03  0.7546771E-02  0.9501592E-01
        -11   -1    0    0    0    0  0.00000000000E+00  0.00000000000E+00  0.50000000000E+03  0.50000000000E+03  0.00000000000E+00 0.  1.
         11   -1    0    0    0    0 -0.00000000000E+00 -0.00000000000E+00 -0.50000000000E+03  0.50000000000E+03  0.00000000000E+00 0.  1.
         23    2    1    2    0    0 -0.17399722380E+02 -0.85768796057E+02 -0.39789103721E+03  0.41752945213E+03  0.91403113675E+02 0.  0.
        -11    1    1    2    0    0  0.47430024063E+02  0.78006302178E+02  0.48317349045E+03  0.49172269852E+03  0.00000000000E+00 0.  1.
         11    1    1    2    0    0 -0.30030301682E+02  0.77624938790E+01 -0.85282453243E+02  0.90747849349E+02  0.00000000000E+00 0.  1.
        -15    1    3    3    0    0 -0.29582360545E+02 -0.10710981020E+02 -0.36499247794E+02  0.48220265328E+02  0.17770000000E+01 0. -1.
         15    1    3    3    0    0  0.12182638165E+02 -0.75057815038E+02 -0.36139178942E+03  0.36930918680E+03  0.17770000000E+01 0.  1.
</event>
<event>
 6    1  0.4954109E-006  0.5486530E+03  0.7546771E-02  0.9297077E-01
        -11   -1    0    0    0    0  0.00000000000E+00  0.00000000000E+00  0.50000000000E+03  0.50000000000E+03  0.00000000000E+00 0. -1.
         11   -1    0    0    0    0 -0.00000000000E+00 -0.00000000000E+00 -0.50000000000E+03  0.50000000000E+03  0.00000000000E+00 0.  1.
        -11    1    1    2    0    0  0.87974585090E+02  0.37528205750E+02  0.44109661015E+03  0.45134699881E+03  0.00000000000E+00 0. -1.
         11    1    1    2    0    0  0.49966225940E+02 -0.43481858001E+02 -0.26970383680E+03  0.27771830205E+03  0.00000000000E+00 0.  1.
        -15    1    1    2    0    0 -0.34933166663E+02 -0.45141600335E+01  0.28807639370E+02  0.45538352945E+02  0.17770000000E+01 0.  1.
         15    1    1    2    0    0 -0.10300764437E+03  0.10467812285E+02 -0.20020041272E+03  0.22539634619E+03  0.17770000000E+01 0. -1.
</event>
<event>
 6    1  0.4954109E-006  0.3956884E+03  0.7546771E-02  0.9669227E-01
        -11   -1    0    0    0    0  0.00000000000E+00  0.00000000000E+00  0.50000000000E+03  0.50000000000E+03  0.00000000000E+00 0.  1.
         11   -1    0    0    0    0 -0.00000000000E+00 -0.00000000000E+00 -0.50000000000E+03  0.50000000000E+03  0.00000000000E+00 0. -1.
        -11    1    1    2    0    0 -0.73497828581E+02 -0.68274596088E+02  0.36523727777E+03  0.37876327745E+03  0.00000000000E+00 0.  1.
         11    1    1    2    0    0 -0.60332348687E+02  0.60832145711E+02 -0.41682637145E+03  0.42554055763E+03  0.00000000000E+00 0. -1.
        -15    1    1    2    0    0  0.11051771832E+03 -0.52458777206E+02  0.47560312317E+02  0.13126778129E+03  0.17770000000E+01 0.  1.
         15    1    1    2    0    0  0.23312458953E+02  0.59901227583E+02  0.40287813706E+01  0.64428383627E+02  0.17770000000E+01 0. -1.
</event>
<event>
 7    1  0.4954109E-006  0.5361152E+03  0.7546771E-02  0.9322438E-01
        -11   -1    0    0    0    0  0.00000000000E+00  0.00000000000E+00  0.50000000000E+03  0.50000000000E+03  0.00000000000E+00 0.  1.
         11   -1    0    0    0    0 -0.00000000000E+00 -0.00000000000E+00 -0.50000000000E+03  0.50000000000E+03  0.00000000000E+00 0. -1.
         23    2    1    2    0    0  0.77391875780E+01 -0.62369896102E+02 -0.12729079018E+03  0.16912329897E+03  0.91923044034E+02 0.  0.
        -11    1    1    2    0    0 -0.17247320248E+03 -0.78570971482E+02  0.42340132547E+03  0.46388477615E+03  0.00000000000E+00 0.  1.
         11    1    1    2    0    0  0.16473401490E+03  0.14094086758E+03 -0.29611053529E+03  0.36699192489E+03  0.00000000000E+00 0. -1.
        -15    1    3    3    0    0  0.39747038538E+02 -0.26338744135E+01 -0.69103509219E+02  0.79782310585E+02  0.17770000000E+01 0.  1.
         15    1    3    3    0    0 -0.32007850960E+02 -0.59736021688E+02 -0.58187280960E+02  0.89340988380E+02  0.17770000000E+01 0. -1.
</event>
<event>
 7    1  0.4954109E-006  0.4210695E+03  0.7546771E-02  0.9596117E-01
        -11   -1    0    0    0    0  0.00000000000E+00  0.00000000000E+00  0.50000000000E+03  0.50000000000E+03  0.00000000000E+00 0.  1.
         11   -1    0    0    0    0 -0.00000000000E+00 -0.00000000000E+00 -0.50000000000E+03  0.50000000000E+03  0.00000000000E+00 0. -1.
         23    2    1    2    0    0  0.12304575535E+02  0.10183724432E+03  0.61359878394E+02  0.14942062212E+03  0.89661924634E+02 0.  0.
        -11    1    1    2    0    0  0.33124979889E+03 -0.28177215859E+02  0.22152568181E+03  0.39949219324E+03  0.00000000000E+00 0.  1.
         11    1    1    2    0    0 -0.34355437442E+03 -0.73660028461E+02 -0.28288556020E+03  0.45108718464E+03  0.00000000000E+00 0. -1.
        -15    1    3    3    0    0 -0.31312189736E+01 -0.13833298910E+02  0.22032673364E+02  0.26263303592E+02  0.17770000000E+01 0.  1.
         15    1    3    3    0    0  0.15435794508E+02  0.11567054323E+03  0.39327205030E+02  0.12315731853E+03  0.17770000000E+01 0. -1.
</event>
<event>
 7    1  0.4954109E-006  0.5210828E+03  0.7546771E-02  0.9353833E-01
        -11   -1    0    0    0    0  0.00000000000E+00  0.00000000000E+00  0.50000000000E+03  0.50000000000E+03  0.00000000000E+00 0. -1.
         11   -1    0    0    0    0 -0.00000000000E+00 -0.00000000000E+00 -0.50000000000E+03  0.50000000000E+03  0.00000000000E+00 0.  1.
         23    2    1    2    0    0  0.25198000417E+02 -0.31880093978E+02 -0.20428094612E+03  0.22615737842E+03  0.88120231788E+02 0.  0.
        -11    1    1    2    0    0  0.91893283973E+02 -0.22296977787E+02  0.46948928109E+03  0.47891723284E+03  0.00000000000E+00 0. -1.
         11    1    1    2    0    0 -0.11709128439E+03  0.54177071765E+02 -0.26520833497E+03  0.29492538873E+03  0.00000000000E+00 0.  1.
        -15    1    3    3    0    0 -0.71502565574E+01 -0.54494018162E+02 -0.14338064535E+03  0.15356396509E+03  0.17770000000E+01 0. -1.
         15    1    3    3    0    0  0.32348256975E+02  0.22613924185E+02 -0.60900300767E+02  0.72593413330E+02  0.17770000000E+01 0.  1.
</event>
<event>
 7    1  0.4954109E-006  0.5094674E+03  0.7546771E-02  0.9378871E-01
        -11   -1    0    0    0    0  0.00000000000E+00  0.00000000000E+00  0.50000000000E+03  0.50000000000E+03  0.00000000000E+00 0.  1.
         11   -1    0    0    0    0 -0.00000000000E+00 -0.00000000000E+00 -0.50000000000E+03  0.50000000000E+03  0.00000000000E+00 0. -1.
         23    2    1    2    0    0  0.60701612756E+01 -0.36618193985E+02  0.34432056951E+03  0.36139940277E+03  0.10332054365E+03 0.  0.
        -11    1    1    2    0    0  0.65815818571E+01 -0.54532295227E+02  0.13750283805E+03  0.14806795371E+03  0.00000000000E+00 0.  1.
         11    1    1    2    0    0 -0.12651743133E+02  0.91150489212E+02 -0.48182340757E+03  0.49053264353E+03  0.00000000000E+00 0. -1.
        -15    1    3    3    0    0 -0.42246754439E+02 -0.26072726128E+02  0.24997471299E+03  0.25486288505E+03  0.17770000000E+01 0.  1.
         15    1    3    3    0    0  0.48316915715E+02 -0.10545467857E+02  0.94345856519E+02  0.10653651772E+03  0.17770000000E+01 0. -1.
</event>
<event>
 7    1  0.4954109E-006  0.5149824E+03  0.7546771E-02  0.9366896E-01
        -11   -1    0    0    0    0  0.00000000000E+00  0.00000000000E+00  0.50000000000E+03  0.50000000000E+03  0.00000000000E+00 0.  1.
         11   -1    0    0    0    0 -0.00000000000E+00 -0.00000000000E+00 -0.50000000000E+03  0.50000000000E+03  0.00000000000E+00 0. -1.
         23    2    1    2    0    0  0.26091316417E+02  0.48229174888E+02  0.29426838814E+03  0.31308936381E+03  0.91783742402E+02 0.  0.
        -11    1    1    2    0    0  0.67329385550E+02 -0.57046406296E+02  0.18158544285E+03  0.20189306993E+03  0.00000000000E+00 0.  1.
         11    1    1    2    0    0 -0.93420701968E+02  0.88172314086E+01 -0.47585383098E+03  0.48501756627E+03  0.00000000000E+00 0. -1.
        -15    1    3    3    0    0 -0.28494311374E+02  0.72197507792E+01  0.39160874553E+02  0.48997779610E+02  0.17770000000E+01 0. -1.
         15    1    3    3    0    0  0.54585627792E+02  0.41009424108E+02  0.25510751358E+03  0.26409158420E+03  0.17770000000E+01 0.  1.
</event>
<event>
 7    1  0.4954109E-006  0.5275035E+03  0.7546771E-02  0.9340288E-01
        -11   -1    0    0    0    0  0.00000000000E+00  0.00000000000E+00  0.50000000000E+03  0.50000000000E+03  0.00000000000E+00 0. -1.
         11   -1    0    0    0    0 -0.00000000000E+00 -0.00000000000E+00 -0.50000000000E+03  0.50000000000E+03  0.00000000000E+00 0.  1.
         23    2    1    2    0    0 -0.18320930062E+02  0.22285143521E+02 -0.14174558713E+03  0.17034893822E+03  0.89970357235E+02 0.  0.
        -11    1    1    2    0    0 -0.75481951024E+02  0.14376107955E+03  0.44372083073E+03  0.47249650638E+03  0.00000000000E+00 0. -1.
         11    1    1    2    0    0  0.93802881085E+02 -0.16604622307E+03 -0.30197524360E+03  0.35715455540E+03  0.00000000000E+00 0.  1.
        -15    1    3    3    0    0 -0.48685179273E+02  0.20680093728E+02 -0.46840693582E+02  0.70676171810E+02  0.17770000000E+01 0. -1.
         15    1    3    3    0    0  0.30364249212E+02  0.16050497929E+01 -0.94904893550E+02  0.99672766410E+02  0.17770000000E+01 0.  1.
</event>
<event>
 7    1  0.4954109E-006  0.4680324E+03  0.7546771E-02  0.9474325E-01
        -11   -1    0    0    0    0  0.00000000000E+00  0.00000000000E+00  0.50000000000E+03  0.50000000000E+03  0.00000000000E+00 0.  1.
         11   -1    0    0    0    0 -0.00000000000E+00 -0.00000000000E+00 -0.50000000000E+03  0.50000000000E+03  0.00000000000E+00 0. -1.
         23    2    1    2    0    0  0.88136435545E+02 -0.30425732230E+02  0.43788509304E+03  0.45675866172E+03  0.90506153889E+02 0.  0.
        -11    1    1    2    0    0  0.55863591334E+02 -0.41807232572E+02  0.69616262696E+01  0.70121678334E+02  0.00000000000E+00 0.  1.
         11    1    1    2    0    0 -0.14400002688E+03  0.72232964803E+02 -0.44484671931E+03  0.47311965995E+03  0.00000000000E+00 0. -1.
        -15    1    3    3    0    0  0.78601425232E+01 -0.19600955628E+02  0.14470789608E+02  0.25662049468E+02  0.17770000000E+01 0. -1.
         15    1    3    3    0    0  0.80276293022E+02 -0.10824776602E+02  0.42341430344E+03  0.43109661225E+03  0.17770000000E+01 0.  1.
</event>
<event>
 7    1  0.4954109E-006  0.5143827E+03  0.7546771E-02  0.9368190E-01
        -11   -1    0    0    0    0  0.00000000000E+00  0.00000000000E+00  0.50000000000E+03  0.50000000000E+03  0.00000000000E+00 0. -1.
         11   -1    0    0    0    0 -0.00000000000E+00 -0.00000000000E+00 -0.50000000000E+03  0.50000000000E+03  0.00000000000E+00 0.  1.
         23    2    1    2    0    0 -0.26519325681E+02 -0.97382656592E+02 -0.32801616290E+03  0.35565178790E+03  0.93310956853E+02 0.  0.
        -11    1    1    2    0    0  0.59291215275E+02  0.58603916653E+02  0.47840805971E+03  0.48561727610E+03  0.00000000000E+00 0. -1.
         11    1    1    2    0    0 -0.32771889594E+02  0.38778739939E+02 -0.15039189680E+03  0.15873093600E+03  0.00000000000E+00 0.  1.
        -15    1    3    3    0    0  0.61859224565E+01 -0.10338212667E+03 -0.26146266626E+03  0.28123302318E+03  0.17770000000E+01 0.  1.
         15    1    3    3    0    0 -0.32705248137E+02  0.59994700817E+01 -0.66553496648E+02  0.74418764717E+02  0.17770000000E+01 0. -1.
</event>
<event>
 7    1  0.4954109E-006  0.5116889E+03  0.7546771E-02  0.9374028E-01
        -11   -1    0    0    0    0  0.00000000000E+00  0.00000000000E+00  0.50000000000E+03  0.50000000000E+03  0.00000000000E+00 0.  1.
         11   -1    0    0    0    0 -0.00000000000E+00 -0.00000000000E+00 -0.50000000000E+03  0.50000000000E+03  0.00000000000E+00 0. -1.
         23    2    1    2    0    0  0.12113565769E+03 -0.26083580160E+02 -0.37004016625E+03  0.40086381624E+03  0.91694459029E+02 0.  0.
        -11    1    1    2    0    0 -0.10332204996E+03  0.43115059813E+01  0.47723551302E+03  0.48831114054E+03  0.00000000000E+00 0.  1.
         11    1    1    2    0    0 -0.17813607737E+02  0.21772074179E+02 -0.10719534677E+03  0.11082504322E+03  0.00000000000E+00 0. -1.
        -15    1    3    3    0    0  0.62470251094E+02  0.32901430234E+02 -0.15725025882E+03  0.17238282401E+03  0.17770000000E+01 0.  1.
         15    1    3    3    0    0  0.58665406599E+02 -0.58985010394E+02 -0.21278990743E+03  0.22848099224E+03  0.17770000000E+01 0. -1.
</event>
<event>
 7    1  0.4954109E-006  0.4308819E+03  0.7546771E-02  0.9569313E-01
        -11   -1    0    0    0    0  0.00000000000E+00  0.00000000000E+00  0.50000000000E+03  0.50000000000E+03  0.00000000000E+00 0.  1.
         11   -1    0    0    0    0 -0.00000000000E+00 -0.00000000000E+00 -0.50000000000E+03  0.50000000000E+03  0.00000000000E+00 0. -1.
         23    2    1    2    0    0  0.14974931594E+02  0.23080423297E+02  0.40929739889E+03  0.42050357856E+03  0.92422639691E+02 0.  0.
        -11    1    1    2    0    0 -0.10626141449E+03  0.86404481056E+02  0.93202119040E+01  0.13727377355E+03  0.00000000000E+00 0.  1.
         11    1    1    2    0    0  0.91286482891E+02 -0.10948490435E+03 -0.41861761079E+03  0.44222264789E+03  0.00000000000E+00 0. -1.
        -15    1    3    3    0    0 -0.37924979824E+02 -0.15660757909E+01  0.16769322059E+03  0.17194455690E+03  0.17770000000E+01 0. -1.
         15    1    3    3    0    0  0.52899911418E+02  0.24646499088E+02  0.24160417830E+03  0.24855902166E+03  0.17770000000E+01 0.  1.
</event>
<event>
 7    1  0.4954109E-006  0.4140441E+03  0.7546771E-02  0.9615792E-01
        -11   -1    0    0    0    0  0.00000000000E+00  0.00000000000E+00  0.50000000000E+03  0.50000000000E+03  0.00000000000E+00 0.  1.
         11   -1    0    0    0    0 -0.00000000000E+00 -0.00000000000E+00 -0.50000000000E+03  0.50000000000E+03  0.00000000000E+00 0.  1.
         23    2    1    2    0    0  0.42663455874E+02 -0.37869154717E+02 -0.11966001540E+03  0.16136855859E+03  0.92016569539E+02 0.  0.
        -11    1    1    2    0    0  0.79251665736E+02  0.39247434144E+03  0.21114124518E+03  0.45265611741E+03  0.00000000000E+00 0.  1.
         11    1    1    2    0    0 -0.12191512161E+03 -0.35460518673E+03 -0.91481229778E+02  0.38597532399E+03  0.00000000000E+00 0.  1.
        -15    1    3    3    0    0  0.49361242425E+02  0.53857886069E+01 -0.22010134215E+02  0.54342825744E+02  0.17770000000E+01 0.  1.
         15    1    3    3    0    0 -0.66977865511E+01 -0.43254943324E+02 -0.97649881189E+02  0.10702573285E+03  0.17770000000E+01 0. -1.
</event>
<event>
 7    1  0.4954109E-006  0.4133623E+03  0.7546771E-02  0.9617723E-01
        -11   -1    0    0    0    0  0.00000000000E+00  0.00000000000E+00  0.50000000000E+03  0.50000000000E+03  0.00000000000E+00 0. -1.
         11   -1    0    0    0    0 -0.00000000000E+00 -0.00000000000E+00 -0.50000000000E+03  0.50000000000E+03  0.00000000000E+00 0.  1.
         23    2    1    2    0    0 -0.10844499203E+03  0.37690445693E+03  0.17396769193E+03  0.43873655686E+03  0.91693634122E+02 0.  0.
        -11    1    1    2    0    0  0.13570550859E+03 -0.37034160719E+03 -0.96184563879E+01  0.39453948570E+03  0.00000000000E+00 0. -1.
         11    1    1    2    0    0 -0.27260516558E+02 -0.65628497460E+01 -0.16434923555E+03  0.16672395744E+03  0.00000000000E+00 0.  1.
        -15    1    3    3    0    0 -0.12439986540E+03  0.34702283672E+03  0.16308236737E+03  0.40311188520E+03  0.17770000000E+01 0. -1.
         15    1    3    3    0    0  0.15954873372E+02  0.29881620215E+02  0.10885324565E+02  0.35624671660E+02  0.17770000000E+01 0.  1.
</event>
<event>
 7    1  0.4954109E-006  0.3842805E+03  0.7546771E-02  0.9704022E-01
        -11   -1    0    0    0    0  0.00000000000E+00  0.00000000000E+00  0.50000000000E+03  0.50000000000E+03  0.00000000000E+00 0. -1.
         11   -1    0    0    0    0 -0.00000000000E+00 -0.00000000000E+00 -0.50000000000E+03  0.50000000000E+03  0.00000000000E+00 0. -1.
         23    2    1    2    0    0 -0.11294163247E+03 -0.11369497804E+02  0.29178461976E+03  0.33125842093E+03  0.10820720532E+03 0.  0.
        -11    1    1    2    0    0  0.10027202353E+03  0.12462872491E+03  0.14587549364E+03  0.21648662180E+03  0.00000000000E+00 0. -1.
         11    1    1    2    0    0  0.12669608937E+02 -0.11325922710E+03 -0.43766011340E+03  0.45225495727E+03  0.00000000000E+00 0. -1.
        -15    1    3    3    0    0 -0.87412515607E+02  0.38066021360E+02  0.22462576540E+03  0.24402840425E+03  0.17770000000E+01 0. -1.
         15    1    3    3    0    0 -0.25529116862E+02 -0.49435519165E+02  0.67158854358E+02  0.87230016683E+02  0.17770000000E+01 0.  1.
</event>
<event>
 7    1  0.4954109E-006  0.5208001E+03  0.7546771E-02  0.9354434E-01
        -11   -1    0    0    0    0  0.00000000000E+00  0.00000000000E+00  0.50000000000E+03  0.50000000000E+03  0.00000000000E+00 0. -1.
         11   -1    0    0    0    0 -0.00000000000E+00 -0.00000000000E+00 -0.50000000000E+03  0.50000000000E+03  0.00000000000E+00 0. -1.
         23    2    1    2    0    0  0.91711549142E+01  0.10104023913E+02  0.39916079786E+03  0.40956090009E+03  0.90689508491E+02 0.  0.
        -11    1    1    2    0    0  0.84980089629E+02  0.16013004839E+02  0.69972394478E+02  0.11123923744E+03  0.00000000000E+00 0. -1.
         11    1    1    2    0    0 -0.94151244543E+02 -0.26117028752E+02 -0.46913319234E+03  0.47919986247E+03  0.00000000000E+00 0. -1.
        -15    1    3    3    0    0 -0.39372766504E+02  0.93024213690E+00  0.12810716698E+03  0.13403612966E+03  0.17770000000E+01 0.  1.
         15    1    3    3    0    0  0.48543921418E+02  0.91737817762E+01  0.27105363088E+03  0.27552477043E+03  0.17770000000E+01 0. -1.
</event>
<event>
 7    1  0.4954109E-006  0.3892092E+03  0.7546771E-02  0.9688833E-01
        -11   -1    0    0    0    0  0.00000000000E+00  0.00000000000E+00  0.50000000000E+03  0.50000000000E+03  0.00000000000E+00 0. -1.
         11   -1    0    0    0    0 -0.00000000000E+00 -0.00000000000E+00 -0.50000000000E+03  0.50000000000E+03  0.00000000000E+00 0. -1.
         23    2    1    2    0    0  0.45174974437E+01 -0.15701653086E+03 -0.75903236115E+02  0.20227137076E+03  0.10236116172E+03 0.  0.
        -11    1    1    2    0    0  0.41316798354E+02  0.78854148823E+02  0.42645919644E+03  0.43565181148E+03  0.00000000000E+00 0. -1.
         11    1    1    2    0    0 -0.45834295798E+02  0.78162382041E+02 -0.35055596033E+03  0.36207681776E+03  0.00000000000E+00 0. -1.
        -15    1    3    3    0    0  0.35887808171E+02 -0.10876945292E+02 -0.21082330969E+02  0.43056534025E+02  0.17770000000E+01 0. -1.
         15    1    3    3    0    0 -0.31370310727E+02 -0.14613958557E+03 -0.54820905146E+02  0.15921483673E+03  0.17770000000E+01 0.  1.
</event>
<event>
 7    1  0.4954109E-006  0.5120875E+03  0.7546771E-02  0.9373162E-01
        -11   -1    0    0    0    0  0.00000000000E+00  0.00000000000E+00  0.50000000000E+03  0.50000000000E+03  0.00000000000E+00 0.  1.
         11   -1    0    0    0    0 -0.00000000000E+00 -0.00000000000E+00 -0.50000000000E+03  0.50000000000E+03  0.00000000000E+00 0.  1.
         23    2    1    2    0    0 -0.28908341078E+02 -0.10499924993E+03 -0.34334779208E+03  0.37167080507E+03  0.91602108873E+02 0.  0.
        -11    1    1    2    0    0 -0.28469603877E+02  0.14863903412E+03  0.46384753162E+03  0.48791250589E+03  0.00000000000E+00 0.  1.
         11    1    1    2    0    0  0.57377944955E+02 -0.43639784189E+02 -0.12049973955E+03  0.14041668904E+03  0.00000000000E+00 0.  1.
        -15    1    3    3    0    0 -0.51761650980E+02 -0.10693899508E+03 -0.27556338468E+03  0.30008924320E+03  0.17770000000E+01 0.  1.
         15    1    3    3    0    0  0.22853309902E+02  0.19397451489E+01 -0.67784407397E+02  0.71581561871E+02  0.17770000000E+01 0. -1.
</event>
<event>
 7    1  0.5052826E-006  0.5139429E+03  0.7546771E-02  0.9369141E-01
        -11   -1    0    0    0    0  0.00000000000E+00  0.00000000000E+00  0.50000000000E+03  0.50000000000E+03  0.00000000000E+00 0.  1.
         11   -1    0    0    0    0 -0.00000000000E+00 -0.00000000000E+00 -0.50000000000E+03  0.50000000000E+03  0.00000000000E+00 0.  1.
         23    2    1    2    0    0  0.73307193895E+01 -0.75792690955E+02 -0.27827611873E+03  0.30199014836E+03  0.89231048399E+02 0.  0.
        -11    1    1    2    0    0  0.58664420102E+02  0.58477935655E+02  0.47894705798E+03  0.48605706198E+03  0.00000000000E+00 0.  1.
         11    1    1    2    0    0 -0.65995139491E+02  0.17314755300E+02 -0.20067093925E+03  0.21195278967E+03  0.00000000000E+00 0.  1.
        -15    1    3    3    0    0  0.38091468737E+02 -0.60065810682E+02 -0.11610534269E+03  0.13617073817E+03  0.17770000000E+01 0.  1.
         15    1    3    3    0    0 -0.30760749348E+02 -0.15726880273E+02 -0.16217077604E+03  0.16581941019E+03  0.17770000000E+01 0. -1.
</event>
<event>
 7    1  0.4954109E-006  0.3714071E+03  0.7546771E-02  0.9744873E-01
        -11   -1    0    0    0    0  0.00000000000E+00  0.00000000000E+00  0.50000000000E+03  0.50000000000E+03  0.00000000000E+00 0. -1.
         11   -1    0    0    0    0 -0.00000000000E+00 -0.00000000000E+00 -0.50000000000E+03  0.50000000000E+03  0.00000000000E+00 0. -1.
         23    2    1    2    0    0 -0.32894351610E+03 -0.14708684922E+03  0.13344393238E+03  0.39503689860E+03  0.91697819854E+02 0.  0.
        -11    1    1    2    0    0  0.31060967559E+03  0.18166411206E+03  0.95827716288E+02  0.37237504131E+03  0.00000000000E+00 0. -1.
         11    1    1    2    0    0  0.18333840511E+02 -0.34577262841E+02 -0.22927164867E+03  0.23258806009E+03  0.00000000000E+00 0. -1.
        -15    1    3    3    0    0 -0.43049905482E+02  0.82582847199E+01  0.14170359918E+01  0.43893727895E+02  0.17770000000E+01 0.  1.
         15    1    3    3    0    0 -0.28589361062E+03 -0.15534513394E+03  0.13202689639E+03  0.35114317070E+03  0.17770000000E+01 0. -1.
</event>
<event>
 7    1  0.4954109E-006  0.5169194E+03  0.7546771E-02  0.9362727E-01
        -11   -1    0    0    0    0  0.00000000000E+00  0.00000000000E+00  0.50000000000E+03  0.50000000000E+03  0.00000000000E+00 0. -1.
         11   -1    0    0    0    0 -0.00000000000E+00 -0.00000000000E+00 -0.50000000000E+03  0.50000000000E+03  0.00000000000E+00 0.  1.
         23    2    1    2    0    0 -0.24288875840E+02  0.64474670318E+01  0.20867890901E+03  0.22905065472E+03  0.91026348055E+02 0.  0.
        -11    1    1    2    0    0  0.95368379363E+02 -0.48039528354E+02  0.26733024894E+03  0.28786869587E+03  0.00000000000E+00 0. -1.
         11    1    1    2    0    0 -0.71079503523E+02  0.41592061322E+02 -0.47600915795E+03  0.48308064941E+03  0.00000000000E+00 0.  1.
        -15    1    3    3    0    0  0.24492361036E+02  0.26700978458E+02  0.12432100366E+03  0.12950555077E+03  0.17770000000E+01 0. -1.
         15    1    3    3    0    0 -0.48781236877E+02 -0.20253511426E+02  0.84357905350E+02  0.99545103949E+02  0.17770000000E+01 0.  1.
</event>
<event>
 7    1  0.4954109E-006  0.4337181E+03  0.7546771E-02  0.9561707E-01
        -11   -1    0    0    0    0  0.00000000000E+00  0.00000000000E+00  0.50000000000E+03  0.50000000000E+03  0.00000000000E+00 0. -1.
         11   -1    0    0    0    0 -0.00000000000E+00 -0.00000000000E+00 -0.50000000000E+03  0.50000000000E+03  0.00000000000E+00 0. -1.
         23    2    1    2    0    0  0.36342887356E+02 -0.71117467312E+02 -0.44117881797E+02  0.12777836771E+03  0.89456269438E+02 0.  0.
        -11    1    1    2    0    0 -0.26920113284E+02 -0.17247098232E+03  0.40253959835E+03  0.43875854463E+03  0.00000000000E+00 0. -1.
         11    1    1    2    0    0 -0.94227740724E+01  0.24358844963E+03 -0.35842171656E+03  0.43346308766E+03  0.00000000000E+00 0. -1.
        -15    1    3    3    0    0  0.80926687374E+00  0.18353717669E+02  0.57674992398E+01  0.19337415589E+02  0.17770000000E+01 0.  1.
         15    1    3    3    0    0  0.35533620482E+02 -0.89471184981E+02 -0.49885381036E+02  0.10844095212E+03  0.17770000000E+01 0. -1.
</event>
<event>
 7    1  0.4954109E-006  0.5214080E+03  0.7546771E-02  0.9353142E-01
        -11   -1    0    0    0    0  0.00000000000E+00  0.00000000000E+00  0.50000000000E+03  0.50000000000E+03  0.00000000000E+00 0.  1.
         11   -1    0    0    0    0 -0.00000000000E+00 -0.00000000000E+00 -0.50000000000E+03  0.50000000000E+03  0.00000000000E+00 0.  1.
         23    2    1    2    0    0 -0.75333564772E+02 -0.55573129363E+02  0.22515939611E+03  0.26025926926E+03  0.90964910219E+02 0.  0.
        -11    1    1    2    0    0  0.85458411941E+02 -0.72936444843E+02  0.23574521318E+03  0.26114875205E+03  0.00000000000E+00 0.  1.
         11    1    1    2    0    0 -0.10124847170E+02  0.12850957421E+03 -0.46090460930E+03  0.47859197869E+03  0.00000000000E+00 0.  1.
        -15    1    3    3    0    0 -0.15983541933E+02 -0.37310626872E+02  0.18829020174E+02  0.44779975659E+02  0.17770000000E+01 0. -1.
         15    1    3    3    0    0 -0.59350022839E+02 -0.18262502491E+02  0.20633037594E+03  0.21547929360E+03  0.17770000000E+01 0.  1.
</event>
<event>
 7    1  0.4954109E-006  0.3971502E+03  0.7546771E-02  0.9664859E-01
        -11   -1    0    0    0    0  0.00000000000E+00  0.00000000000E+00  0.50000000000E+03  0.50000000000E+03  0.00000000000E+00 0.  1.
         11   -1    0    0    0    0 -0.00000000000E+00 -0.00000000000E+00 -0.50000000000E+03  0.50000000000E+03  0.00000000000E+00 0.  1.
         23    2    1    2    0    0  0.50537592679E+02  0.11555518877E+03  0.42441497769E+03  0.45229884793E+03  0.92407384037E+02 0.  0.
        -11    1    1    2    0    0  0.26568590588E+01 -0.17616019450E+03 -0.79147489512E+02  0.19314191188E+03  0.00000000000E+00 0.  1.
         11    1    1    2    0    0 -0.53194451738E+02  0.60605005728E+02 -0.34526748818E+03  0.35455924019E+03  0.00000000000E+00 0.  1.
        -15    1    3    3    0    0  0.66350835600E+02  0.53428308618E+02  0.30588967897E+03  0.31753530666E+03  0.17770000000E+01 0.  1.
         15    1    3    3    0    0 -0.15813242921E+02  0.62126880157E+02  0.11852529872E+03  0.13476354126E+03  0.17770000000E+01 0. -1.
</event>
<event>
 7    1  0.4954109E-006  0.3362259E+03  0.7546771E-02  0.9866215E-01
        -11   -1    0    0    0    0  0.00000000000E+00  0.00000000000E+00  0.50000000000E+03  0.50000000000E+03  0.00000000000E+00 0.  1.
         11   -1    0    0    0    0 -0.00000000000E+00 -0.00000000000E+00 -0.50000000000E+03  0.50000000000E+03  0.00000000000E+00 0. -1.
         23    2    1    2    0    0  0.15587380939E+03  0.18387125161E+03 -0.11552246130E+03  0.28274976373E+03  0.92177590587E+02 0.  0.
        -11    1    1    2    0    0 -0.39445032993E+02 -0.22574073885E+03  0.36946834930E+03  0.43476620492E+03  0.00000000000E+00 0.  1.
         11    1    1    2    0    0 -0.11642877639E+03  0.41869487243E+02 -0.25394588800E+03  0.28248403135E+03  0.00000000000E+00 0. -1.
        -15    1    3    3    0    0  0.34759552905E+02  0.15590182264E+02 -0.54680419823E+02  0.66666230898E+02  0.17770000000E+01 0.  1.
         15    1    3    3    0    0  0.12111425648E+03  0.16828106935E+03 -0.60842041475E+02  0.21608353284E+03  0.17770000000E+01 0. -1.
</event>
<event>
 7    1  0.4954109E-006  0.3797522E+03  0.7546771E-02  0.9718194E-01
        -11   -1    0    0    0    0  0.00000000000E+00  0.00000000000E+00  0.50000000000E+03  0.50000000000E+03  0.00000000000E+00 0.  1.
         11   -1    0    0    0    0 -0.00000000000E+00 -0.00000000000E+00 -0.50000000000E+03  0.50000000000E+03  0.00000000000E+00 0. -1.
         23    2    1    2    0    0 -0.35409106065E+03  0.22386068914E+03  0.50068984743E+01  0.42845927683E+03  0.89767452323E+02 0.  0.
        -11    1    1    2    0    0  0.34677373523E+03 -0.13519654117E+02  0.57984939997E+02  0.35184806062E+03  0.00000000000E+00 0.  1.
         11    1    1    2    0    0  0.73173254172E+01 -0.21034103502E+03 -0.62991838471E+02  0.21969266255E+03  0.00000000000E+00 0. -1.
        -15    1    3    3    0    0 -0.33714473468E+03  0.22267787407E+03 -0.12175429336E+02  0.40423187224E+03  0.17770000000E+01 0. -1.
         15    1    3    3    0    0 -0.16946325969E+02  0.11828150653E+01  0.17182327810E+02  0.24227404593E+02  0.17770000000E+01 0.  1.
</event>
<event>
 7    1  0.4954109E-006  0.3828527E+03  0.7546771E-02  0.9708468E-01
        -11   -1    0    0    0    0  0.00000000000E+00  0.00000000000E+00  0.50000000000E+03  0.50000000000E+03  0.00000000000E+00 0.  1.
         11   -1    0    0    0    0 -0.00000000000E+00 -0.00000000000E+00 -0.50000000000E+03  0.50000000000E+03  0.00000000000E+00 0. -1.
         23    2    1    2    0    0  0.31495582270E+03  0.14567616321E+03 -0.14212951838E+03  0.38430293685E+03  0.84078727932E+02 0.  0.
        -11    1    1    2    0    0 -0.24716226014E+03 -0.38368357642E+02  0.31437395615E+03  0.40173660278E+03  0.00000000000E+00 0.  1.
         11    1    1    2    0    0 -0.67793562561E+02 -0.10730780557E+03 -0.17224443777E+03  0.21396046037E+03  0.00000000000E+00 0. -1.
        -15    1    3    3    0    0  0.21839530404E+03  0.64225969906E+02 -0.66959345692E+02  0.23729348020E+03  0.17770000000E+01 0. -1.
         15    1    3    3    0    0  0.96560518659E+02  0.81450193309E+02 -0.75170172692E+02  0.14700945665E+03  0.17770000000E+01 0.  1.
</event>
<event>
 7    1  0.4954109E-006  0.3575837E+03  0.7546771E-02  0.9790761E-01
        -11   -1    0    0    0    0  0.00000000000E+00  0.00000000000E+00  0.50000000000E+03  0.50000000000E+03  0.00000000000E+00 0. -1.
         11   -1    0    0    0    0 -0.00000000000E+00 -0.00000000000E+00 -0.50000000000E+03  0.50000000000E+03  0.00000000000E+00 0.  1.
         23    2    1    2    0    0 -0.22034000856E+03  0.13672546339E+03 -0.13706511136E+03  0.30724069792E+03  0.91468191175E+02 0.  0.
        -11    1    1    2    0    0  0.19222230495E+03 -0.93973171274E+02  0.38453526875E+03  0.44005425160E+03  0.00000000000E+00 0. -1.
         11    1    1    2    0    0  0.28117703604E+02 -0.42752292117E+02 -0.24747015739E+03  0.25270505047E+03  0.00000000000E+00 0.  1.
        -15    1    3    3    0    0 -0.81807799522E+02  0.42041492222E+01 -0.55078401707E+02  0.98726789662E+02  0.17770000000E+01 0.  1.
         15    1    3    3    0    0 -0.13853220904E+03  0.13252131417E+03 -0.81986709657E+02  0.20851390826E+03  0.17770000000E+01 0. -1.
</event>
<event>
 7    1  0.4954109E-006  0.4843980E+03  0.7546771E-02  0.9435414E-01
        -11   -1    0    0    0    0  0.00000000000E+00  0.00000000000E+00  0.50000000000E+03  0.50000000000E+03  0.00000000000E+00 0. -1.
         11   -1    0    0    0    0 -0.00000000000E+00 -0.00000000000E+00 -0.50000000000E+03  0.50000000000E+03  0.00000000000E+00 0. -1.
         23    2    1    2    0    0  0.94944069611E+01  0.11132584084E+03  0.46853522747E+03  0.49070540577E+03  0.93717390406E+02 0.  0.
        -11    1    1    2    0    0  0.36255392145E+02 -0.10137545459E+02 -0.12097580751E+02  0.39542063016E+02  0.00000000000E+00 0. -1.
         11    1    1    2    0    0 -0.45749799106E+02 -0.10118829538E+03 -0.45643764672E+03  0.46975253122E+03  0.00000000000E+00 0. -1.
        -15    1    3    3    0    0  0.30164955916E+02  0.93607531749E+02  0.44139454701E+03  0.45222184647E+03  0.17770000000E+01 0. -1.
         15    1    3    3    0    0 -0.20670548955E+02  0.17718309093E+02  0.27140680458E+02  0.38483559294E+02  0.17770000000E+01 0.  1.
</event>
<event>
 7    1  0.4954109E-006  0.4167474E+03  0.7546771E-02  0.9608172E-01
        -11   -1    0    0    0    0  0.00000000000E+00  0.00000000000E+00  0.50000000000E+03  0.50000000000E+03  0.00000000000E+00 0. -1.
         11   -1    0    0    0    0 -0.00000000000E+00 -0.00000000000E+00 -0.50000000000E+03  0.50000000000E+03  0.00000000000E+00 0.  1.
         23    2    1    2    0    0 -0.85653875376E+02 -0.89694949540E+02  0.35431884086E+03  0.38590147414E+03  0.89422236707E+02 0.  0.
        -11    1    1    2    0    0 -0.24893121572E+02  0.13529609012E+03  0.83039308697E+02  0.16068673341E+03  0.00000000000E+00 0. -1.
         11    1    1    2    0    0  0.11054699695E+03 -0.45601140583E+02 -0.43735814955E+03  0.45341179245E+03  0.00000000000E+00 0.  1.
        -15    1    3    3    0    0 -0.46359115263E+02 -0.13091286400E+02  0.22788767148E+03  0.23293024254E+03  0.17770000000E+01 0. -1.
         15    1    3    3    0    0 -0.39294760113E+02 -0.76603663140E+02  0.12643116938E+03  0.15297123160E+03  0.17770000000E+01 0.  1.
</event>
<event>
 7    1  0.4954109E-006  0.5255861E+03  0.7546771E-02  0.9344311E-01
        -11   -1    0    0    0    0  0.00000000000E+00  0.00000000000E+00  0.50000000000E+03  0.50000000000E+03  0.00000000000E+00 0. -1.
         11   -1    0    0    0    0 -0.00000000000E+00 -0.00000000000E+00 -0.50000000000E+03  0.50000000000E+03  0.00000000000E+00 0. -1.
         23    2    1    2    0    0  0.41220500775E+02 -0.74222035324E+02  0.40470781807E+03  0.42372932939E+03  0.92466677086E+02 0.  0.
        -11    1    1    2    0    0 -0.59353966167E+02 -0.67711578196E+02  0.47613518403E+02  0.10185675361E+03  0.00000000000E+00 0. -1.
         11    1    1    2    0    0  0.18133465391E+02  0.14193361352E+03 -0.45232133647E+03  0.47441391700E+03  0.00000000000E+00 0. -1.
        -15    1    3    3    0    0 -0.16671164399E+02 -0.52887747860E+02  0.11717697688E+03  0.12964815169E+03  0.17770000000E+01 0. -1.
         15    1    3    3    0    0  0.57891665175E+02 -0.21334287464E+02  0.28753084118E+03  0.29408117770E+03  0.17770000000E+01 0.  1.
</event>
<event>
 7    1  0.5222923E-006  0.5120076E+03  0.7546771E-02  0.9373335E-01
        -11   -1    0    0    0    0  0.00000000000E+00  0.00000000000E+00  0.50000000000E+03  0.50000000000E+03  0.00000000000E+00 0.  1.
         11   -1    0    0    0    0 -0.00000000000E+00 -0.00000000000E+00 -0.50000000000E+03  0.50000000000E+03  0.00000000000E+00 0. -1.
         23    2    1    2    0    0  0.10157922809E+03  0.16199003440E+02 -0.13527576742E+03  0.19325798994E+03  0.92023747671E+02 0.  0.
        -11    1    1    2    0    0 -0.31871085542E+03 -0.52461729525E+02  0.36579736097E+03  0.48799236851E+03  0.00000000000E+00 0.  1.
         11    1    1    2    0    0  0.21713162733E+03  0.36262726085E+02 -0.23052159355E+03  0.31874964155E+03  0.00000000000E+00 0. -1.
        -15    1    3    3    0    0  0.21934242220E+02  0.42053231774E+02 -0.79631827601E+02  0.92703672961E+02  0.17770000000E+01 0. -1.
         15    1    3    3    0    0  0.79644985867E+02 -0.25854228334E+02 -0.55643939817E+02  0.10055431698E+03  0.17770000000E+01 0.  1.
</event>
<event>
 7    1  0.4954109E-006  0.5171837E+03  0.7546771E-02  0.9362160E-01
        -11   -1    0    0    0    0  0.00000000000E+00  0.00000000000E+00  0.50000000000E+03  0.50000000000E+03  0.00000000000E+00 0.  1.
         11   -1    0    0    0    0 -0.00000000000E+00 -0.00000000000E+00 -0.50000000000E+03  0.50000000000E+03  0.00000000000E+00 0. -1.
         23    2    1    2    0    0 -0.13065406270E+03  0.56221426830E+02 -0.15131097234E+03  0.22928274508E+03  0.97181448363E+02 0.  0.
        -11    1    1    2    0    0  0.22345281483E+03 -0.59605084755E+02  0.42382501938E+03  0.48281629388E+03  0.00000000000E+00 0.  1.
         11    1    1    2    0    0 -0.92798752127E+02  0.33836579257E+01 -0.27251404703E+03  0.28790096104E+03  0.00000000000E+00 0. -1.
        -15    1    3    3    0    0 -0.10010325735E+03  0.75854220117E+02 -0.79114819808E+02  0.14844809627E+03  0.17770000000E+01 0.  1.
         15    1    3    3    0    0 -0.30550805351E+02 -0.19632793287E+02 -0.72196152535E+02  0.80834648819E+02  0.17770000000E+01 0. -1.
</event>
<event>
 7    1  0.4954109E-006  0.3986011E+03  0.7546771E-02  0.9660543E-01
        -11   -1    0    0    0    0  0.00000000000E+00  0.00000000000E+00  0.50000000000E+03  0.50000000000E+03  0.00000000000E+00 0.  1.
         11   -1    0    0    0    0 -0.00000000000E+00 -0.00000000000E+00 -0.50000000000E+03  0.50000000000E+03  0.00000000000E+00 0. -1.
         23    2    1    2    0    0  0.10565958567E+03 -0.84198505867E+02  0.90908794058E+02  0.18633602525E+03  0.90572451846E+02 0.  0.
        -11    1    1    2    0    0 -0.14282920886E+03  0.21872794778E+02  0.34380494747E+03  0.37293490580E+03  0.00000000000E+00 0.  1.
         11    1    1    2    0    0  0.37169623190E+02  0.62325711088E+02 -0.43471374153E+03  0.44072906896E+03  0.00000000000E+00 0. -1.
        -15    1    3    3    0    0  0.48922788708E+02 -0.38540474034E+01  0.70419655170E+02  0.85850908554E+02  0.17770000000E+01 0.  1.
         15    1    3    3    0    0  0.56736796960E+02 -0.80344458463E+02  0.20489138888E+02  0.10048511669E+03  0.17770000000E+01 0. -1.
</event>
<event>
 7    1  0.4954109E-006  0.5289967E+03  0.7546771E-02  0.9337167E-01
        -11   -1    0    0    0    0  0.00000000000E+00  0.00000000000E+00  0.50000000000E+03  0.50000000000E+03  0.00000000000E+00 0.  1.
         11   -1    0    0    0    0 -0.00000000000E+00 -0.00000000000E+00 -0.50000000000E+03  0.50000000000E+03  0.00000000000E+00 0.  1.
         23    2    1    2    0    0  0.10142332929E+03 -0.10797761298E+03  0.36036704916E+03  0.39998882707E+03  0.90447747514E+02 0.  0.
        -11    1    1    2    0    0 -0.79838000856E+02  0.13127311509E+02  0.10048177845E+03  0.12900783111E+03  0.00000000000E+00 0.  1.
         11    1    1    2    0    0 -0.21585328431E+02  0.94850301467E+02 -0.46084882761E+03  0.47100334182E+03  0.00000000000E+00 0.  1.
        -15    1    3    3    0    0 -0.61520397275E+01  0.11158953187E+02  0.22307521802E+02  0.25751758911E+02  0.17770000000E+01 0. -1.
         15    1    3    3    0    0  0.10757536901E+03 -0.11913656616E+03  0.33805952736E+03  0.37423706816E+03  0.17770000000E+01 0.  1.
</event>
<event>
 7    1  0.4954109E-006  0.5233387E+03  0.7546771E-02  0.9349050E-01
        -11   -1    0    0    0    0  0.00000000000E+00  0.00000000000E+00  0.50000000000E+03  0.50000000000E+03  0.00000000000E+00 0.  1.
         11   -1    0    0    0    0 -0.00000000000E+00 -0.00000000000E+00 -0.50000000000E+03  0.50000000000E+03  0.00000000000E+00 0. -1.
         23    2    1    2    0    0 -0.32868402343E+02  0.64264169714E+02  0.35168518977E+03  0.37052008092E+03  0.91610273856E+02 0.  0.
        -11    1    1    2    0    0 -0.53239603654E+02 -0.82982753870E+02  0.11676014980E+03  0.15281860299E+03  0.00000000000E+00 0.  1.
         11    1    1    2    0    0  0.86108005997E+02  0.18718584156E+02 -0.46844533958E+03  0.47666131609E+03  0.00000000000E+00 0. -1.
        -15    1    3    3    0    0  0.22468782846E+02  0.27257985020E+02  0.48028464195E+02  0.59646752232E+02  0.17770000000E+01 0. -1.
         15    1    3    3    0    0 -0.55337185189E+02  0.37006184694E+02  0.30365672558E+03  0.31087332869E+03  0.17770000000E+01 0.  1.
</event>
<event>
 7    1  0.4954109E-006  0.4705119E+03  0.7546771E-02  0.9468322E-01
        -11   -1    0    0    0    0  0.00000000000E+00  0.00000000000E+00  0.50000000000E+03  0.50000000000E+03  0.00000000000E+00 0.  1.
         11   -1    0    0    0    0 -0.00000000000E+00 -0.00000000000E+00 -0.50000000000E+03  0.50000000000E+03  0.00000000000E+00 0. -1.
         23    2    1    2    0    0 -0.15967445124E+03 -0.10118096471E+03 -0.41354513679E+03  0.46443360612E+03  0.94580528302E+02 0.  0.
        -11    1    1    2    0    0  0.10209468413E+03  0.11379003562E+03  0.44374140136E+03  0.46933775473E+03  0.00000000000E+00 0.  1.
         11    1    1    2    0    0  0.57579767112E+02 -0.12609070911E+02 -0.30196264563E+02  0.66228639148E+02  0.00000000000E+00 0. -1.
        -15    1    3    3    0    0 -0.47666871366E+02 -0.85978106192E+02 -0.19138235871E+03  0.21516210244E+03  0.17770000000E+01 0.  1.
         15    1    3    3    0    0 -0.11200757987E+03 -0.15202858516E+02 -0.22216277808E+03  0.24927150369E+03  0.17770000000E+01 0. -1.
</event>
<event>
 7    1  0.4954109E-006  0.3697709E+03  0.7546771E-02  0.9750192E-01
        -11   -1    0    0    0    0  0.00000000000E+00  0.00000000000E+00  0.50000000000E+03  0.50000000000E+03  0.00000000000E+00 0.  1.
         11   -1    0    0    0    0 -0.00000000000E+00 -0.00000000000E+00 -0.50000000000E+03  0.50000000000E+03  0.00000000000E+00 0.  1.
         23    2    1    2    0    0  0.18515630461E+03 -0.11099586730E+03  0.20326281670E+03  0.31017392192E+03  0.91044766437E+02 0.  0.
        -11    1    1    2    0    0 -0.91384539516E+02 -0.58814612313E+02  0.20824111878E+03  0.23489286119E+03  0.00000000000E+00 0.  1.
         11    1    1    2    0    0 -0.93771765091E+02  0.16981047961E+03 -0.41150393548E+03  0.45493321689E+03  0.00000000000E+00 0.  1.
        -15    1    3    3    0    0  0.12397491931E+03 -0.10056387470E+03  0.96137842733E+02  0.18635588546E+03  0.17770000000E+01 0. -1.
         15    1    3    3    0    0  0.61181385297E+02 -0.10431992599E+02  0.10712497397E+03  0.12381803646E+03  0.17770000000E+01 0.  1.
</event>
<event>
 7    1  0.4954109E-006  0.3768178E+03  0.7546771E-02  0.9727491E-01
        -11   -1    0    0    0    0  0.00000000000E+00  0.00000000000E+00  0.50000000000E+03  0.50000000000E+03  0.00000000000E+00 0.  1.
         11   -1    0    0    0    0 -0.00000000000E+00 -0.00000000000E+00 -0.50000000000E+03  0.50000000000E+03  0.00000000000E+00 0. -1.
         23    2    1    2    0    0  0.15720528136E+02  0.49801355358E+02  0.30154000383E+03  0.31881197121E+03  0.89372194066E+02 0.  0.
        -11    1    1    2    0    0  0.96355869005E+01  0.21179758667E+03  0.72475221986E+02  0.22406186658E+03  0.00000000000E+00 0.  1.
         11    1    1    2    0    0 -0.25356115037E+02 -0.26159894202E+03 -0.37401522582E+03  0.45712616222E+03  0.00000000000E+00 0. -1.
        -15    1    3    3    0    0 -0.28522521516E+02 -0.86509189433E+00  0.42840860323E+02  0.51505142072E+02  0.17770000000E+01 0.  1.
         15    1    3    3    0    0  0.44243049653E+02  0.50666447253E+02  0.25869914351E+03  0.26730682914E+03  0.17770000000E+01 0. -1.
</event>
<event>
 7    1  0.4954109E-006  0.3714268E+03  0.7546771E-02  0.9744810E-01
        -11   -1    0    0    0    0  0.00000000000E+00  0.00000000000E+00  0.50000000000E+03  0.50000000000E+03  0.00000000000E+00 0.  1.
         11   -1    0    0    0    0 -0.00000000000E+00 -0.00000000000E+00 -0.50000000000E+03  0.50000000000E+03  0.00000000000E+00 0. -1.
         23    2    1    2    0    0 -0.61319784522E+02 -0.18545560943E+03  0.76252816752E+02  0.22811922071E+03  0.89833110546E+02 0.  0.
        -11    1    1    2    0    0  0.41132852243E+02  0.87908384975E+02  0.33497901497E+03  0.34875598368E+03  0.00000000000E+00 0.  1.
         11    1    1    2    0    0  0.20186932279E+02  0.97547224455E+02 -0.41123183173E+03  0.42312479561E+03  0.00000000000E+00 0. -1.
        -15    1    3    3    0    0 -0.77449410565E+02 -0.18071233512E+03  0.77094479095E+02  0.21119203512E+03  0.17770000000E+01 0.  1.
         15    1    3    3    0    0  0.16129626043E+02 -0.47432743108E+01 -0.84166234369E+00  0.16927185589E+02  0.17770000000E+01 0. -1.
</event>
<event>
 7    1  0.4954109E-006  0.5120178E+03  0.7546771E-02  0.9373313E-01
        -11   -1    0    0    0    0  0.00000000000E+00  0.00000000000E+00  0.50000000000E+03  0.50000000000E+03  0.00000000000E+00 0.  1.
         11   -1    0    0    0    0 -0.00000000000E+00 -0.00000000000E+00 -0.50000000000E+03  0.50000000000E+03  0.00000000000E+00 0. -1.
         23    2    1    2    0    0  0.40613602503E+02  0.45465276193E+02  0.32483078727E+03  0.34266224183E+03  0.90475497093E+02 0.  0.
        -11    1    1    2    0    0 -0.53201605598E+02  0.43265742342E+02  0.15485140796E+03  0.16935552499E+03  0.00000000000E+00 0.  1.
         11    1    1    2    0    0  0.12588003095E+02 -0.88731018535E+02 -0.47968219523E+03  0.48798223317E+03  0.00000000000E+00 0. -1.
        -15    1    3    3    0    0  0.65095090916E+02  0.52247885886E+02  0.24124224069E+03  0.25528060808E+03  0.17770000000E+01 0.  1.
         15    1    3    3    0    0 -0.24481488412E+02 -0.67826096928E+01  0.83588546580E+02  0.87381633754E+02  0.17770000000E+01 0. -1.
</event>
<event>
 7    1  0.4954109E-006  0.5219077E+03  0.7546771E-02  0.9352081E-01
        -11   -1    0    0    0    0  0.00000000000E+00  0.00000000000E+00  0.50000000000E+03  0.50000000000E+03  0.00000000000E+00 0.  1.
         11   -1    0    0    0    0 -0.00000000000E+00 -0.00000000000E+00 -0.50000000000E+03  0.50000000000E+03  0.00000000000E+00 0. -1.
         23    2    1    2    0    0  0.36516968234E+02  0.29360121627E+02 -0.78750731436E+02  0.12979681680E+03  0.91924046034E+02 0.  0.
        -11    1    1    2    0    0 -0.43934433323E+02 -0.15809408534E+03  0.44905263234E+03  0.47809229325E+03  0.00000000000E+00 0.  1.
         11    1    1    2    0    0  0.74174650889E+01  0.12873396371E+03 -0.37030190091E+03  0.39211088995E+03  0.00000000000E+00 0. -1.
        -15    1    3    3    0    0  0.27189311248E+02 -0.11208918991E+02 -0.82847488142E+02  0.87930441438E+02  0.17770000000E+01 0. -1.
         15    1    3    3    0    0  0.93276569862E+01  0.40569040618E+02  0.40967567066E+01  0.41866375363E+02  0.17770000000E+01 0.  1.
</event>
<event>
 7    1  0.4954109E-006  0.5116479E+03  0.7546771E-02  0.9374117E-01
        -11   -1    0    0    0    0  0.00000000000E+00  0.00000000000E+00  0.50000000000E+03  0.50000000000E+03  0.00000000000E+00 0.  1.
         11   -1    0    0    0    0 -0.00000000000E+00 -0.00000000000E+00 -0.50000000000E+03  0.50000000000E+03  0.00000000000E+00 0. -1.
         23    2    1    2    0    0  0.27029175582E+02  0.10208401937E+03  0.16764420867E+03  0.21872564200E+03  0.92653129599E+02 0.  0.
        -11    1    1    2    0    0  0.13982026908E+02  0.10075215320E+03  0.27469428958E+03  0.29292225279E+03  0.00000000000E+00 0.  1.
         11    1    1    2    0    0 -0.41011202491E+02 -0.20283617257E+03 -0.44233849825E+03  0.48835210521E+03  0.00000000000E+00 0. -1.
        -15    1    3    3    0    0  0.60130209636E+02  0.54728800697E+02  0.82783689060E+02  0.11604818241E+03  0.17770000000E+01 0.  1.
         15    1    3    3    0    0 -0.33101034054E+02  0.47355218668E+02  0.84860519610E+02  0.10267745959E+03  0.17770000000E+01 0. -1.
</event>
<event>
 7    1  0.4954109E-006  0.5239260E+03  0.7546771E-02  0.9347809E-01
        -11   -1    0    0    0    0  0.00000000000E+00  0.00000000000E+00  0.50000000000E+03  0.50000000000E+03  0.00000000000E+00 0.  1.
         11   -1    0    0    0    0 -0.00000000000E+00 -0.00000000000E+00 -0.50000000000E+03  0.50000000000E+03  0.00000000000E+00 0. -1.
         23    2    1    2    0    0  0.56999969669E+02  0.47075318398E+02 -0.82266779208E+02  0.14524215181E+03  0.94140201590E+02 0.  0.
        -11    1    1    2    0    0 -0.13003119262E+03 -0.64230270628E+02  0.45344547053E+03  0.47607397898E+03  0.00000000000E+00 0.  1.
         11    1    1    2    0    0  0.73031222946E+02  0.17154952230E+02 -0.37117869132E+03  0.37868386921E+03  0.00000000000E+00 0. -1.
        -15    1    3    3    0    0 -0.20304722811E+01 -0.24864667647E+02 -0.27825367539E+02  0.37413678282E+02  0.17770000000E+01 0. -1.
         15    1    3    3    0    0  0.59030441950E+02  0.71939986046E+02 -0.54441411669E+02  0.10782847352E+03  0.17770000000E+01 0.  1.
</event>
<event>
 7    1  0.4954109E-006  0.5390543E+03  0.7546771E-02  0.9316428E-01
        -11   -1    0    0    0    0  0.00000000000E+00  0.00000000000E+00  0.50000000000E+03  0.50000000000E+03  0.00000000000E+00 0.  1.
         11   -1    0    0    0    0 -0.00000000000E+00 -0.00000000000E+00 -0.50000000000E+03  0.50000000000E+03  0.00000000000E+00 0. -1.
         23    2    1    2    0    0 -0.68003889055E+02  0.18394712593E+01  0.29261699035E+03  0.31344679107E+03  0.89421894460E+02 0.  0.
        -11    1    1    2    0    0  0.15972660113E+03 -0.95281774082E+01  0.15904521954E+03  0.22560752454E+03  0.00000000000E+00 0.  1.
         11    1    1    2    0    0 -0.91722712073E+02  0.76887061489E+01 -0.45166220989E+03  0.46094568439E+03  0.00000000000E+00 0. -1.
        -15    1    3    3    0    0 -0.19405654713E+02  0.27641162122E+02  0.30275648036E+02  0.45391473552E+02  0.17770000000E+01 0.  1.
         15    1    3    3    0    0 -0.48598234342E+02 -0.25801690862E+02  0.26234134232E+03  0.26805531752E+03  0.17770000000E+01 0. -1.
</event>
<event>
 7    1  0.4954109E-006  0.5313680E+03  0.7546771E-02  0.9332233E-01
        -11   -1    0    0    0    0  0.00000000000E+00  0.00000000000E+00  0.50000000000E+03  0.50000000000E+03  0.00000000000E+00 0.  1.
         11   -1    0    0    0    0 -0.00000000000E+00 -0.00000000000E+00 -0.50000000000E+03  0.50000000000E+03  0.00000000000E+00 0. -1.
         23    2    1    2    0    0  0.96778805450E+02 -0.13368794169E+02  0.32263674256E+03  0.34912611070E+03  0.90827923468E+02 0.  0.
        -11    1    1    2    0    0 -0.66655561900E+02  0.10012612142E+03  0.13690836885E+03  0.18224188756E+03  0.00000000000E+00 0.  1.
         11    1    1    2    0    0 -0.30123243550E+02 -0.86757327250E+02 -0.45954511141E+03  0.46863200174E+03  0.00000000000E+00 0. -1.
        -15    1    3    3    0    0  0.11191310515E+03  0.15340986405E+01  0.26483692512E+03  0.28752156649E+03  0.17770000000E+01 0.  1.
         15    1    3    3    0    0 -0.15134299705E+02 -0.14902892810E+02  0.57799817442E+02  0.61604544207E+02  0.17770000000E+01 0. -1.
</event>
<event>
 6    1  0.4954109E-006  0.3911785E+03  0.7546771E-02  0.9682831E-01
        -11   -1    0    0    0    0  0.00000000000E+00  0.00000000000E+00  0.50000000000E+03  0.50000000000E+03  0.00000000000E+00 0.  1.
         11   -1    0    0    0    0 -0.00000000000E+00 -0.00000000000E+00 -0.50000000000E+03  0.50000000000E+03  0.00000000000E+00 0. -1.
        -11    1    1    2    0    0  0.51071085933E+02  0.31491519556E+03  0.31101588701E+03  0.44554541652E+03  0.00000000000E+00 0.  1.
         11    1    1    2    0    0 -0.38354634677E+02 -0.22276880010E+02 -0.20940490257E+03  0.21405081314E+03  0.00000000000E+00 0. -1.
        -15    1    1    2    0    0 -0.36755272412E+02 -0.19615286000E+03 -0.19125067058E+01  0.19958384190E+03  0.17770000000E+01 0.  1.
         15    1    1    2    0    0  0.24038821156E+02 -0.96485455554E+02 -0.99698477727E+02  0.14081992844E+03  0.17770000000E+01 0. -1.
</event>
<event>
 7    1  0.4954109E-006  0.5129241E+03  0.7546771E-02  0.9371346E-01
        -11   -1    0    0    0    0  0.00000000000E+00  0.00000000000E+00  0.50000000000E+03  0.50000000000E+03  0.00000000000E+00 0. -1.
         11   -1    0    0    0    0 -0.00000000000E+00 -0.00000000000E+00 -0.50000000000E+03  0.50000000000E+03  0.00000000000E+00 0. -1.
         23    2    1    2    0    0 -0.65822523629E+02  0.13575090472E+03  0.45413963547E+03  0.48707588123E+03  0.90769999596E+02 0.  0.
        -11    1    1    2    0    0  0.10509647244E+03 -0.55261052544E+02 -0.12749535514E+03  0.17422433249E+03  0.00000000000E+00 0. -1.
         11    1    1    2    0    0 -0.39273948815E+02 -0.80489852177E+02 -0.32664428032E+03  0.33869978628E+03  0.00000000000E+00 0. -1.
        -15    1    3    3    0    0 -0.21825449644E+02 -0.35847601861E+01  0.23506396801E+02  0.32325054947E+02  0.17770000000E+01 0.  1.
         15    1    3    3    0    0 -0.43997073985E+02  0.13933566491E+03  0.43063323866E+03  0.45475082628E+03  0.17770000000E+01 0. -1.
</event>
<event>
 7    1  0.4954109E-006  0.5178987E+03  0.7546771E-02  0.9360627E-01
        -11   -1    0    0    0    0  0.00000000000E+00  0.00000000000E+00  0.50000000000E+03  0.50000000000E+03  0.00000000000E+00 0.  1.
         11   -1    0    0    0    0 -0.00000000000E+00 -0.00000000000E+00 -0.50000000000E+03  0.50000000000E+03  0.00000000000E+00 0.  1.
         23    2    1    2    0    0 -0.31995500273E+01  0.25996139618E+02  0.17604587327E+03  0.20128792726E+03  0.94014061558E+02 0.  0.
        -11    1    1    2    0    0 -0.14833188550E+03  0.39556401502E+02  0.27690308606E+03  0.31661076455E+03  0.00000000000E+00 0.  1.
         11    1    1    2    0    0  0.15153143553E+03 -0.65552541121E+02 -0.45294895933E+03  0.48210130819E+03  0.00000000000E+00 0.  1.
        -15    1    3    3    0    0  0.13884398485E+02 -0.32778925146E+02  0.53348229795E+02  0.64159378163E+02  0.17770000000E+01 0.  1.
         15    1    3    3    0    0 -0.17083948512E+02  0.58775064764E+02  0.12269764348E+03  0.13712854910E+03  0.17770000000E+01 0. -1.
</event>
<event>
 7    1  0.4954109E-006  0.4504109E+03  0.7546771E-02  0.9518163E-01
        -11   -1    0    0    0    0  0.00000000000E+00  0.00000000000E+00  0.50000000000E+03  0.50000000000E+03  0.00000000000E+00 0. -1.
         11   -1    0    0    0    0 -0.00000000000E+00 -0.00000000000E+00 -0.50000000000E+03  0.50000000000E+03  0.00000000000E+00 0.  1.
         23    2    1    2    0    0 -0.70366143593E+02 -0.17171955166E+03  0.43361236784E+03  0.48040512938E+03  0.91271048051E+02 0.  0.
        -11    1    1    2    0    0 -0.11991608759E+02  0.96849877813E+02 -0.31781574825E+02  0.10263413668E+03  0.00000000000E+00 0. -1.
         11    1    1    2    0    0  0.82357752353E+02  0.74869673846E+02 -0.40183079301E+03  0.41696073394E+03  0.00000000000E+00 0.  1.
        -15    1    3    3    0    0 -0.67503436235E+02 -0.10162273012E+03  0.18143593593E+03  0.21864594612E+03  0.17770000000E+01 0.  1.
         15    1    3    3    0    0 -0.28627073584E+01 -0.70096821540E+02  0.25217643191E+03  0.26175918326E+03  0.17770000000E+01 0. -1.
</event>
<event>
 7    1  0.4954109E-006  0.4187879E+03  0.7546771E-02  0.9602461E-01
        -11   -1    0    0    0    0  0.00000000000E+00  0.00000000000E+00  0.50000000000E+03  0.50000000000E+03  0.00000000000E+00 0. -1.
         11   -1    0    0    0    0 -0.00000000000E+00 -0.00000000000E+00 -0.50000000000E+03  0.50000000000E+03  0.00000000000E+00 0.  1.
         23    2    1    2    0    0 -0.97404809095E+02 -0.63754003773E+02 -0.42853669247E+02  0.15328749890E+03  0.90046379824E+02 0.  0.
        -11    1    1    2    0    0  0.43909227977E+02  0.12534091807E+03  0.43052857545E+03  0.45054768929E+03  0.00000000000E+00 0. -1.
         11    1    1    2    0    0  0.53495581118E+02 -0.61586914300E+02 -0.38767490621E+03  0.39616481181E+03  0.00000000000E+00 0.  1.
        -15    1    3    3    0    0 -0.95287723476E+00 -0.28346916997E+02  0.18210391341E+02  0.33752507463E+02  0.17770000000E+01 0. -1.
         15    1    3    3    0    0 -0.96451931860E+02 -0.35407086776E+02 -0.61064060588E+02  0.11953499144E+03  0.17770000000E+01 0.  1.
</event>
<event>
 7    1  0.4954109E-006  0.5373480E+03  0.7546771E-02  0.9319912E-01
        -11   -1    0    0    0    0  0.00000000000E+00  0.00000000000E+00  0.50000000000E+03  0.50000000000E+03  0.00000000000E+00 0. -1.
         11   -1    0    0    0    0 -0.00000000000E+00 -0.00000000000E+00 -0.50000000000E+03  0.50000000000E+03  0.00000000000E+00 0.  1.
         23    2    1    2    0    0 -0.44365946140E+02 -0.36965252174E+02  0.66037533944E+02  0.12648389693E+03  0.91117798740E+02 0.  0.
        -11    1    1    2    0    0  0.12327949091E+03  0.40643604776E+02  0.38981991070E+03  0.41086408734E+03  0.00000000000E+00 0. -1.
         11    1    1    2    0    0 -0.78913544773E+02 -0.36783526026E+01 -0.45585744464E+03  0.46265201573E+03  0.00000000000E+00 0.  1.
        -15    1    3    3    0    0 -0.37691443012E+02  0.25016686689E+02  0.23657883904E+02  0.51081627706E+02  0.17770000000E+01 0. -1.
         15    1    3    3    0    0 -0.66745031275E+01 -0.61981938863E+02  0.42379650040E+02  0.75402269221E+02  0.17770000000E+01 0.  1.
</event>
<event>
 7    1  0.4954109E-006  0.4505462E+03  0.7546771E-02  0.9517818E-01
        -11   -1    0    0    0    0  0.00000000000E+00  0.00000000000E+00  0.50000000000E+03  0.50000000000E+03  0.00000000000E+00 0.  1.
         11   -1    0    0    0    0 -0.00000000000E+00 -0.00000000000E+00 -0.50000000000E+03  0.50000000000E+03  0.00000000000E+00 0. -1.
         23    2    1    2    0    0 -0.32610832427E+02 -0.55182081490E+01  0.80853401903E+01  0.98264629620E+02  0.92177262357E+02 0.  0.
        -11    1    1    2    0    0 -0.13506296352E+01 -0.12283225633E+03  0.42831694866E+03  0.44558388200E+03  0.00000000000E+00 0.  1.
         11    1    1    2    0    0  0.33961462062E+02  0.12835046448E+03 -0.43640228885E+03  0.45615148838E+03  0.00000000000E+00 0. -1.
        -15    1    3    3    0    0  0.95410283477E+01 -0.37424367877E+02 -0.13756815729E+02  0.41036840046E+02  0.17770000000E+01 0.  1.
         15    1    3    3    0    0 -0.42151860775E+02  0.31906159728E+02  0.21842155920E+02  0.57227789574E+02  0.17770000000E+01 0. -1.
</event>
<event>
 7    1  0.4954109E-006  0.5121268E+03  0.7546771E-02  0.9373077E-01
        -11   -1    0    0    0    0  0.00000000000E+00  0.00000000000E+00  0.50000000000E+03  0.50000000000E+03  0.00000000000E+00 0.  1.
         11   -1    0    0    0    0 -0.00000000000E+00 -0.00000000000E+00 -0.50000000000E+03  0.50000000000E+03  0.00000000000E+00 0. -1.
         23    2    1    2    0    0  0.54156186268E+02 -0.44921878090E+02  0.39892116229E+03  0.41440581669E+03  0.87425508539E+02 0.  0.
        -11    1    1    2    0    0 -0.38354291410E+02 -0.37511146108E+02  0.81677767642E+02  0.97721008380E+02  0.00000000000E+00 0.  1.
         11    1    1    2    0    0 -0.15801894858E+02  0.82433024198E+02 -0.48059892993E+03  0.48787317493E+03  0.00000000000E+00 0. -1.
        -15    1    3    3    0    0 -0.61633616757E+01 -0.49171664800E+02  0.22052480024E+03  0.22603138033E+03  0.17770000000E+01 0.  1.
         15    1    3    3    0    0  0.60319547944E+02  0.42497867097E+01  0.17839636205E+03  0.18837443636E+03  0.17770000000E+01 0. -1.
</event>
<event>
 7    1  0.4954109E-006  0.5139682E+03  0.7546771E-02  0.9369086E-01
        -11   -1    0    0    0    0  0.00000000000E+00  0.00000000000E+00  0.50000000000E+03  0.50000000000E+03  0.00000000000E+00 0.  1.
         11   -1    0    0    0    0 -0.00000000000E+00 -0.00000000000E+00 -0.50000000000E+03  0.50000000000E+03  0.00000000000E+00 0.  1.
         23    2    1    2    0    0 -0.13827086650E+02  0.52995036612E+02  0.47404331043E+03  0.48603183665E+03  0.92250874501E+02 0.  0.
        -11    1    1    2    0    0 -0.48214190026E+02 -0.81193712765E+02 -0.11638414232E+03  0.14987426629E+03  0.00000000000E+00 0.  1.
         11    1    1    2    0    0  0.62041276676E+02  0.28198676152E+02 -0.35765916810E+03  0.36409389706E+03  0.00000000000E+00 0.  1.
        -15    1    3    3    0    0  0.22339259273E+02  0.64593400177E+02  0.33350090734E+03  0.34043701734E+03  0.17770000000E+01 0.  1.
         15    1    3    3    0    0 -0.36166345923E+02 -0.11598363565E+02  0.14054240309E+03  0.14559481931E+03  0.17770000000E+01 0. -1.
</event>
<event>
 7    1  0.4954109E-006  0.3659782E+03  0.7546771E-02  0.9762636E-01
        -11   -1    0    0    0    0  0.00000000000E+00  0.00000000000E+00  0.50000000000E+03  0.50000000000E+03  0.00000000000E+00 0. -1.
         11   -1    0    0    0    0 -0.00000000000E+00 -0.00000000000E+00 -0.50000000000E+03  0.50000000000E+03  0.00000000000E+00 0.  1.
         23    2    1    2    0    0 -0.34442846357E+03 -0.10987901054E+03  0.14800461844E+03  0.40146967371E+03  0.92564401118E+02 0.  0.
        -11    1    1    2    0    0  0.34768683282E+03 -0.84165097019E+02 -0.55226441613E+01  0.35777143104E+03  0.00000000000E+00 0. -1.
         11    1    1    2    0    0 -0.32583692490E+01  0.19404410756E+03 -0.14248197427E+03  0.24075889525E+03  0.00000000000E+00 0.  1.
        -15    1    3    3    0    0 -0.23573892178E+03 -0.10020017735E+03  0.64772744551E+02  0.26421881264E+03  0.17770000000E+01 0.  1.
         15    1    3    3    0    0 -0.10868954179E+03 -0.96788331879E+01  0.83231873884E+02  0.13725086107E+03  0.17770000000E+01 0. -1.
</event>
<event>
 7    1  0.4954109E-006  0.4372125E+03  0.7546771E-02  0.9552421E-01
        -11   -1    0    0    0    0  0.00000000000E+00  0.00000000000E+00  0.50000000000E+03  0.50000000000E+03  0.00000000000E+00 0.  1.
         11   -1    0    0    0    0 -0.00000000000E+00 -0.00000000000E+00 -0.50000000000E+03  0.50000000000E+03  0.00000000000E+00 0.  1.
         23    2    1    2    0    0 -0.14083235060E+03  0.11878252122E+02  0.42393945501E+03  0.45620397831E+03  0.91774530591E+02 0.  0.
        -11    1    1    2    0    0  0.99067585223E+02  0.76058722788E+02 -0.17808624849E+02  0.12616046478E+03  0.00000000000E+00 0.  1.
         11    1    1    2    0    0  0.41764765373E+02 -0.87936974911E+02 -0.40613083016E+03  0.41763555691E+03  0.00000000000E+00 0.  1.
        -15    1    3    3    0    0 -0.52602241074E+02  0.47599329187E+02  0.14435300323E+03  0.16085284945E+03  0.17770000000E+01 0.  1.
         15    1    3    3    0    0 -0.88230109523E+02 -0.35721077065E+02  0.27958645178E+03  0.29535112886E+03  0.17770000000E+01 0. -1.
</event>
<event>
 7    1  0.4954109E-006  0.5281417E+03  0.7546771E-02  0.9338953E-01
        -11   -1    0    0    0    0  0.00000000000E+00  0.00000000000E+00  0.50000000000E+03  0.50000000000E+03  0.00000000000E+00 0.  1.
         11   -1    0    0    0    0 -0.00000000000E+00 -0.00000000000E+00 -0.50000000000E+03  0.50000000000E+03  0.00000000000E+00 0. -1.
         23    2    1    2    0    0  0.32090699657E+02 -0.98647963974E+01 -0.33577855779E+02  0.10168273284E+03  0.89915396602E+02 0.  0.
        -11    1    1    2    0    0 -0.24024269885E+03  0.19014602328E+02  0.40567495816E+03  0.47185832739E+03  0.00000000000E+00 0.  1.
         11    1    1    2    0    0  0.20815199919E+03 -0.91498059302E+01 -0.37209710238E+03  0.42645893977E+03  0.00000000000E+00 0. -1.
        -15    1    3    3    0    0  0.23238314229E+02  0.29733273364E+02 -0.45704019455E+02  0.59296727705E+02  0.17770000000E+01 0.  1.
         15    1    3    3    0    0  0.88523854282E+01 -0.39598069762E+02  0.12126163676E+02  0.42386005133E+02  0.17770000000E+01 0. -1.
</event>
<event>
 7    1  0.4954109E-006  0.5161033E+03  0.7546771E-02  0.9364481E-01
        -11   -1    0    0    0    0  0.00000000000E+00  0.00000000000E+00  0.50000000000E+03  0.50000000000E+03  0.00000000000E+00 0. -1.
         11   -1    0    0    0    0 -0.00000000000E+00 -0.00000000000E+00 -0.50000000000E+03  0.50000000000E+03  0.00000000000E+00 0.  1.
         23    2    1    2    0    0 -0.15977169211E+03  0.91755416778E+02  0.43802218098E+03  0.48389672137E+03  0.91359486714E+02 0.  0.
        -11    1    1    2    0    0  0.56058168202E+02 -0.74633088651E+02 -0.35145276516E+02  0.99738691615E+02  0.00000000000E+00 0. -1.
         11    1    1    2    0    0  0.10371352391E+03 -0.17122328127E+02 -0.40287690447E+03  0.41636458701E+03  0.00000000000E+00 0.  1.
        -15    1    3    3    0    0 -0.13376983351E+03  0.10715853254E+03  0.33199804476E+03  0.37363508789E+03  0.17770000000E+01 0. -1.
         15    1    3    3    0    0 -0.26001858604E+02 -0.15403115761E+02  0.10602413623E+03  0.11026163348E+03  0.17770000000E+01 0.  1.
</event>
<event>
 6    1  0.1053810E-005  0.5172982E+03  0.7546771E-02  0.9361914E-01
        -11   -1    0    0    0    0  0.00000000000E+00  0.00000000000E+00  0.50000000000E+03  0.50000000000E+03  0.00000000000E+00 0.  1.
         11   -1    0    0    0    0 -0.00000000000E+00 -0.00000000000E+00 -0.50000000000E+03  0.50000000000E+03  0.00000000000E+00 0. -1.
        -11    1    1    2    0    0 -0.12663943120E+03  0.79319309365E+02  0.45899015963E+03  0.48270183862E+03  0.00000000000E+00 0.  1.
         11    1    1    2    0    0  0.20053815961E+02  0.38828505478E+01 -0.74744251741E+02  0.77485064569E+02  0.00000000000E+00 0. -1.
        -15    1    1    2    0    0  0.58577365501E+02 -0.71867302537E+01 -0.16604224557E+02  0.61333635494E+02  0.17770000000E+01 0.  1.
         15    1    1    2    0    0  0.48008249739E+02 -0.76015429659E+02 -0.36764168333E+03  0.37847946132E+03  0.17770000000E+01 0. -1.
</event>
<event>
 7    1  0.4954109E-006  0.4332463E+03  0.7546771E-02  0.9562968E-01
        -11   -1    0    0    0    0  0.00000000000E+00  0.00000000000E+00  0.50000000000E+03  0.50000000000E+03  0.00000000000E+00 0. -1.
         11   -1    0    0    0    0 -0.00000000000E+00 -0.00000000000E+00 -0.50000000000E+03  0.50000000000E+03  0.00000000000E+00 0.  1.
         23    2    1    2    0    0 -0.44165135752E+02  0.16633196719E+03  0.35403471220E+03  0.40327065783E+03  0.87577185949E+02 0.  0.
        -11    1    1    2    0    0 -0.48808253684E+01 -0.85680699673E+02  0.10069572064E+03  0.13230507514E+03  0.00000000000E+00 0. -1.
         11    1    1    2    0    0  0.49045961121E+02 -0.80651267520E+02 -0.45473043284E+03  0.46442426703E+03  0.00000000000E+00 0.  1.
        -15    1    3    3    0    0  0.22867239586E+02  0.14549862866E+02  0.49350083924E+02  0.56331142967E+02  0.17770000000E+01 0.  1.
         15    1    3    3    0    0 -0.67032375338E+02  0.15178210433E+03  0.30468462828E+03  0.34693951486E+03  0.17770000000E+01 0. -1.
</event>
<event>
 7    1  0.4954109E-006  0.5234186E+03  0.7546771E-02  0.9348881E-01
        -11   -1    0    0    0    0  0.00000000000E+00  0.00000000000E+00  0.50000000000E+03  0.50000000000E+03  0.00000000000E+00 0.  1.
         11   -1    0    0    0    0 -0.00000000000E+00 -0.00000000000E+00 -0.50000000000E+03  0.50000000000E+03  0.00000000000E+00 0.  1.
         23    2    1    2    0    0  0.17578163606E+02 -0.45363718651E+02  0.23886621876E+03  0.25703471675E+03  0.81504087892E+02 0.  0.
        -11    1    1    2    0    0 -0.24753498879E+02  0.13285051799E+03  0.22956132370E+03  0.26638392815E+03  0.00000000000E+00 0.  1.
         11    1    1    2    0    0  0.71753352724E+01 -0.87486799338E+02 -0.46842754246E+03  0.47658135510E+03  0.00000000000E+00 0.  1.
        -15    1    3    3    0    0 -0.15570063808E+02 -0.40391651805E+02  0.54424729043E+02  0.69563792902E+02  0.17770000000E+01 0. -1.
         15    1    3    3    0    0  0.33148227414E+02 -0.49720668466E+01  0.18444148972E+03  0.18747092385E+03  0.17770000000E+01 0.  1.
</event>
<event>
 7    1  0.4954109E-006  0.5296783E+03  0.7546771E-02  0.9335746E-01
        -11   -1    0    0    0    0  0.00000000000E+00  0.00000000000E+00  0.50000000000E+03  0.50000000000E+03  0.00000000000E+00 0.  1.
         11   -1    0    0    0    0 -0.00000000000E+00 -0.00000000000E+00 -0.50000000000E+03  0.50000000000E+03  0.00000000000E+00 0. -1.
         23    2    1    2    0    0  0.74690523100E+02  0.56455571803E+02  0.13411122826E+02  0.13203612197E+03  0.92129112988E+02 0.  0.
        -11    1    1    2    0    0  0.57572698963E+02  0.38846044329E+03  0.62475100307E+02  0.39764213789E+03  0.00000000000E+00 0.  1.
         11    1    1    2    0    0 -0.13226322206E+03 -0.44491601509E+03 -0.75886223133E+02  0.47032174015E+03  0.00000000000E+00 0. -1.
        -15    1    3    3    0    0  0.53438156817E+02  0.28265927211E+02  0.51959735395E+02  0.79734378259E+02  0.17770000000E+01 0.  1.
         15    1    3    3    0    0  0.21252366284E+02  0.28189644592E+02 -0.38548612569E+02  0.52301743708E+02  0.17770000000E+01 0. -1.
</event>
<event>
 7    1  0.4954109E-006  0.5329210E+03  0.7546771E-02  0.9329017E-01
        -11   -1    0    0    0    0  0.00000000000E+00  0.00000000000E+00  0.50000000000E+03  0.50000000000E+03  0.00000000000E+00 0.  1.
         11   -1    0    0    0    0 -0.00000000000E+00 -0.00000000000E+00 -0.50000000000E+03  0.50000000000E+03  0.00000000000E+00 0. -1.
         23    2    1    2    0    0  0.12070703233E+03 -0.12407172118E+03 -0.33083886487E+03  0.39361209461E+03  0.12454776939E+03 0.  0.
        -11    1    1    2    0    0 -0.99901281711E+02  0.59290410665E+02  0.45240153150E+03  0.46707897040E+03  0.00000000000E+00 0.  1.
         11    1    1    2    0    0 -0.20805750621E+02  0.64781310518E+02 -0.12156266663E+03  0.13930893500E+03  0.00000000000E+00 0. -1.
        -15    1    3    3    0    0  0.14022359508E+03 -0.91282747743E+02 -0.22018117044E+03  0.27654674505E+03  0.17770000000E+01 0.  1.
         15    1    3    3    0    0 -0.19516562748E+02 -0.32788973440E+02 -0.11065769443E+03  0.11706534956E+03  0.17770000000E+01 0. -1.
</event>
<event>
 7    1  0.4954109E-006  0.3821553E+03  0.7546771E-02  0.9710647E-01
        -11   -1    0    0    0    0  0.00000000000E+00  0.00000000000E+00  0.50000000000E+03  0.50000000000E+03  0.00000000000E+00 0.  1.
         11   -1    0    0    0    0 -0.00000000000E+00 -0.00000000000E+00 -0.50000000000E+03  0.50000000000E+03  0.00000000000E+00 0. -1.
         23    2    1    2    0    0  0.43646791730E+02  0.27576720333E+02  0.32080889638E+03  0.33295841315E+03  0.72645983768E+02 0.  0.
        -11    1    1    2    0    0 -0.11547106379E+03 -0.13894223733E+03  0.11323750011E+03  0.21321642366E+03  0.00000000000E+00 0.  1.
         11    1    1    2    0    0  0.71824272056E+02  0.11136551700E+03 -0.43404639649E+03  0.45382516319E+03  0.00000000000E+00 0. -1.
        -15    1    3    3    0    0 -0.12737303849E+02 -0.58110782714E+00  0.11415012655E+02  0.17205721100E+02  0.17770000000E+01 0. -1.
         15    1    3    3    0    0  0.56384095579E+02  0.28157828160E+02  0.30939388373E+03  0.31575269205E+03  0.17770000000E+01 0.  1.
</event>
<event>
 6    1  0.4954109E-006  0.4530709E+03  0.7546771E-02  0.9511410E-01
        -11   -1    0    0    0    0  0.00000000000E+00  0.00000000000E+00  0.50000000000E+03  0.50000000000E+03  0.00000000000E+00 0. -1.
         11   -1    0    0    0    0 -0.00000000000E+00 -0.00000000000E+00 -0.50000000000E+03  0.50000000000E+03  0.00000000000E+00 0. -1.
        -11    1    1    2    0    0 -0.21648749229E+03  0.30191050867E+03  0.27445394275E+03  0.46188933334E+03  0.00000000000E+00 0. -1.
         11    1    1    2    0    0 -0.27264367058E+02 -0.33405467275E+02 -0.10229349136E+03  0.11101004157E+03  0.00000000000E+00 0. -1.
        -15    1    1    2    0    0  0.16893225562E+03 -0.21317698239E+03 -0.55062556188E+02  0.27752040579E+03  0.17770000000E+01 0.  1.
         15    1    1    2    0    0  0.74819603727E+02 -0.55328059005E+02 -0.11709789520E+03  0.14958021929E+03  0.17770000000E+01 0. -1.
</event>
<event>
 7    1  0.4954109E-006  0.5140333E+03  0.7546771E-02  0.9368945E-01
        -11   -1    0    0    0    0  0.00000000000E+00  0.00000000000E+00  0.50000000000E+03  0.50000000000E+03  0.00000000000E+00 0. -1.
         11   -1    0    0    0    0 -0.00000000000E+00 -0.00000000000E+00 -0.50000000000E+03  0.50000000000E+03  0.00000000000E+00 0. -1.
         23    2    1    2    0    0  0.31058917870E+02  0.58340674318E+02  0.34219709297E+03  0.36151424393E+03  0.96048984715E+02 0.  0.
        -11    1    1    2    0    0 -0.58839834833E+02  0.54824296972E+02  0.12959259983E+03  0.15251908612E+03  0.00000000000E+00 0. -1.
         11    1    1    2    0    0  0.27780916963E+02 -0.11316497129E+03 -0.47178969280E+03  0.48596666995E+03  0.00000000000E+00 0. -1.
        -15    1    3    3    0    0  0.86884119397E+01  0.79242911679E+02  0.29199066181E+03  0.30268239438E+03  0.17770000000E+01 0. -1.
         15    1    3    3    0    0  0.22370505931E+02 -0.20902237361E+02  0.50206431161E+02  0.58831849548E+02  0.17770000000E+01 0.  1.
</event>
<event>
 7    1  0.4954109E-006  0.5364929E+03  0.7546771E-02  0.9321664E-01
        -11   -1    0    0    0    0  0.00000000000E+00  0.00000000000E+00  0.50000000000E+03  0.50000000000E+03  0.00000000000E+00 0.  1.
         11   -1    0    0    0    0 -0.00000000000E+00 -0.00000000000E+00 -0.50000000000E+03  0.50000000000E+03  0.00000000000E+00 0. -1.
         23    2    1    2    0    0 -0.20757670245E+02 -0.62155229223E+02  0.33306003985E+03  0.35162733745E+03  0.91753152021E+02 0.  0.
        -11    1    1    2    0    0  0.13339880100E+03  0.53076064282E+02  0.11646013485E+03  0.18486555038E+03  0.00000000000E+00 0.  1.
         11    1    1    2    0    0 -0.11264113075E+03  0.90791649408E+01 -0.44952017470E+03  0.46350711217E+03  0.00000000000E+00 0. -1.
        -15    1    3    3    0    0 -0.19520548628E+02  0.25642488091E+01  0.10023503808E+02  0.22164285423E+02  0.17770000000E+01 0. -1.
         15    1    3    3    0    0 -0.12371216171E+01 -0.64719478032E+02  0.32303653604E+03  0.32946305203E+03  0.17770000000E+01 0.  1.
</event>
<event>
 7    1  0.4954109E-006  0.3882882E+03  0.7546771E-02  0.9691653E-01
        -11   -1    0    0    0    0  0.00000000000E+00  0.00000000000E+00  0.50000000000E+03  0.50000000000E+03  0.00000000000E+00 0.  1.
         11   -1    0    0    0    0 -0.00000000000E+00 -0.00000000000E+00 -0.50000000000E+03  0.50000000000E+03  0.00000000000E+00 0. -1.
         23    2    1    2    0    0  0.17639535433E+03  0.28760481705E+02 -0.18250344311E+02  0.20291384894E+03  0.94331695045E+02 0.  0.
        -11    1    1    2    0    0 -0.22268148507E+03 -0.73161477217E+02  0.37084292332E+03  0.43870732763E+03  0.00000000000E+00 0.  1.
         11    1    1    2    0    0  0.46286130741E+02  0.44400995512E+02 -0.35259257901E+03  0.35837882342E+03  0.00000000000E+00 0. -1.
        -15    1    3    3    0    0  0.65582791910E+02  0.50353234321E+02 -0.33001069695E+02  0.89043692260E+02  0.17770000000E+01 0. -1.
         15    1    3    3    0    0  0.11081256242E+03 -0.21592752616E+02  0.14750725385E+02  0.11387015668E+03  0.17770000000E+01 0.  1.
</event>
<event>
 7    1  0.4954109E-006  0.5406564E+03  0.7546771E-02  0.9313168E-01
        -11   -1    0    0    0    0  0.00000000000E+00  0.00000000000E+00  0.50000000000E+03  0.50000000000E+03  0.00000000000E+00 0.  1.
         11   -1    0    0    0    0 -0.00000000000E+00 -0.00000000000E+00 -0.50000000000E+03  0.50000000000E+03  0.00000000000E+00 0. -1.
         23    2    1    2    0    0 -0.98044219605E+02  0.44026797566E+02 -0.26352248669E+03  0.29885580637E+03  0.91212192740E+02 0.  0.
        -11    1    1    2    0    0  0.31500395804E+03 -0.14364762887E+03  0.30188482277E+03  0.45934364160E+03  0.00000000000E+00 0.  1.
         11    1    1    2    0    0 -0.21695973844E+03  0.99620831303E+02 -0.38362336077E+02  0.24180055203E+03  0.00000000000E+00 0. -1.
        -15    1    3    3    0    0 -0.51966052627E+02  0.70718613641E+01 -0.35634443241E+02  0.63430695432E+02  0.17770000000E+01 0.  1.
         15    1    3    3    0    0 -0.46078166977E+02  0.36954936202E+02 -0.22788804345E+03  0.23542511093E+03  0.17770000000E+01 0. -1.
</event>
<event>
 7    1  0.4954109E-006  0.3818231E+03  0.7546771E-02  0.9711687E-01
        -11   -1    0    0    0    0  0.00000000000E+00  0.00000000000E+00  0.50000000000E+03  0.50000000000E+03  0.00000000000E+00 0. -1.
         11   -1    0    0    0    0 -0.00000000000E+00 -0.00000000000E+00 -0.50000000000E+03  0.50000000000E+03  0.00000000000E+00 0.  1.
         23    2    1    2    0    0  0.13169251473E+03 -0.18297873393E+03  0.26384287418E+03  0.35931917215E+03  0.93129317141E+02 0.  0.
        -11    1    1    2    0    0 -0.12647773865E+03  0.93084473343E+02  0.14999305896E+03  0.21716181821E+03  0.00000000000E+00 0. -1.
         11    1    1    2    0    0 -0.52147760804E+01  0.89894260587E+02 -0.41383593313E+03  0.42351900964E+03  0.00000000000E+00 0.  1.
        -15    1    3    3    0    0  0.10355267808E+03 -0.86059648790E+02  0.19562872673E+03  0.23749352989E+03  0.17770000000E+01 0. -1.
         15    1    3    3    0    0  0.28139836655E+02 -0.96919085140E+02  0.68214147448E+02  0.12182564226E+03  0.17770000000E+01 0.  1.
</event>
<event>
 7    1  0.4954109E-006  0.4252124E+03  0.7546771E-02  0.9584706E-01
        -11   -1    0    0    0    0  0.00000000000E+00  0.00000000000E+00  0.50000000000E+03  0.50000000000E+03  0.00000000000E+00 0.  1.
         11   -1    0    0    0    0 -0.00000000000E+00 -0.00000000000E+00 -0.50000000000E+03  0.50000000000E+03  0.00000000000E+00 0. -1.
         23    2    1    2    0    0  0.12974375555E+02  0.50061792101E+01  0.41138169293E+03  0.42144291218E+03  0.90475602781E+02 0.  0.
        -11    1    1    2    0    0  0.12490303926E+03  0.76118278183E+02 -0.10162983961E+02  0.14662212566E+03  0.00000000000E+00 0.  1.
         11    1    1    2    0    0 -0.13787741481E+03 -0.81124457393E+02 -0.40121870897E+03  0.43193496216E+03  0.00000000000E+00 0. -1.
        -15    1    3    3    0    0  0.50805112655E+02 -0.64517131119E+01  0.20544101347E+03  0.21173557051E+03  0.17770000000E+01 0.  1.
         15    1    3    3    0    0 -0.37830737100E+02  0.11457892322E+02  0.20594067947E+03  0.20970734168E+03  0.17770000000E+01 0. -1.
</event>
<event>
 7    1  0.4954109E-006  0.4723870E+03  0.7546771E-02  0.9463808E-01
        -11   -1    0    0    0    0  0.00000000000E+00  0.00000000000E+00  0.50000000000E+03  0.50000000000E+03  0.00000000000E+00 0.  1.
         11   -1    0    0    0    0 -0.00000000000E+00 -0.00000000000E+00 -0.50000000000E+03  0.50000000000E+03  0.00000000000E+00 0.  1.
         23    2    1    2    0    0  0.22101324763E+03  0.91347635876E+02  0.37081735407E+03  0.45129662217E+03  0.94720034280E+02 0.  0.
        -11    1    1    2    0    0  0.60367091696E+02  0.12463316114E+02  0.11582020811E+02  0.62718922300E+02  0.00000000000E+00 0.  1.
         11    1    1    2    0    0 -0.28138033933E+03 -0.10381095199E+03 -0.38239937488E+03  0.48598445553E+03  0.00000000000E+00 0.  1.
        -15    1    3    3    0    0  0.14696998410E+03  0.10178728666E+03  0.29390394567E+03  0.34401092273E+03  0.17770000000E+01 0.  1.
         15    1    3    3    0    0  0.74043263526E+02 -0.10439650783E+02  0.76913408400E+02  0.10728569943E+03  0.17770000000E+01 0. -1.
</event>
<event>
 7    1  0.4954109E-006  0.5340584E+03  0.7546771E-02  0.9326669E-01
        -11   -1    0    0    0    0  0.00000000000E+00  0.00000000000E+00  0.50000000000E+03  0.50000000000E+03  0.00000000000E+00 0.  1.
         11   -1    0    0    0    0 -0.00000000000E+00 -0.00000000000E+00 -0.50000000000E+03  0.50000000000E+03  0.00000000000E+00 0. -1.
         23    2    1    2    0    0  0.25653748719E+02  0.10329407866E+03  0.27667613205E+03  0.30971330879E+03  0.89693199778E+02 0.  0.
        -11    1    1    2    0    0  0.89281196106E+02 -0.10859036774E+03  0.17483628871E+03  0.22434510869E+03  0.00000000000E+00 0.  1.
         11    1    1    2    0    0 -0.11493494482E+03  0.52962890844E+01 -0.45151242076E+03  0.46594158252E+03  0.00000000000E+00 0. -1.
        -15    1    3    3    0    0  0.54531610531E+02  0.83446745047E+02  0.16631779832E+03  0.19391189642E+03  0.17770000000E+01 0.  1.
         15    1    3    3    0    0 -0.28877861813E+02  0.19847333610E+02  0.11035833373E+03  0.11580141237E+03  0.17770000000E+01 0. -1.
</event>
<event>
 7    1  0.4954109E-006  0.5223274E+03  0.7546771E-02  0.9351191E-01
        -11   -1    0    0    0    0  0.00000000000E+00  0.00000000000E+00  0.50000000000E+03  0.50000000000E+03  0.00000000000E+00 0.  1.
         11   -1    0    0    0    0 -0.00000000000E+00 -0.00000000000E+00 -0.50000000000E+03  0.50000000000E+03  0.00000000000E+00 0. -1.
         23    2    1    2    0    0  0.28196094355E+02  0.68991354733E+02  0.38162996150E+03  0.39858380742E+03  0.87594504749E+02 0.  0.
        -11    1    1    2    0    0  0.11614597214E+02  0.10730065812E+03  0.60532176561E+02  0.12374358368E+03  0.00000000000E+00 0.  1.
         11    1    1    2    0    0 -0.39810691569E+02 -0.17629201286E+03 -0.44216213806E+03  0.47767260890E+03  0.00000000000E+00 0. -1.
        -15    1    3    3    0    0 -0.14062549851E+02 -0.55208583469E+01  0.12642533589E+02  0.19779448166E+02  0.17770000000E+01 0. -1.
         15    1    3    3    0    0  0.42258644207E+02  0.74512213080E+02  0.36898742791E+03  0.37880435926E+03  0.17770000000E+01 0.  1.
</event>
<event>
 7    1  0.4954109E-006  0.5142499E+03  0.7546771E-02  0.9368477E-01
        -11   -1    0    0    0    0  0.00000000000E+00  0.00000000000E+00  0.50000000000E+03  0.50000000000E+03  0.00000000000E+00 0.  1.
         11   -1    0    0    0    0 -0.00000000000E+00 -0.00000000000E+00 -0.50000000000E+03  0.50000000000E+03  0.00000000000E+00 0.  1.
         23    2    1    2    0    0 -0.11104397188E+03  0.35391330458E+03  0.29992064843E+03  0.48575008766E+03  0.91735279271E+02 0.  0.
        -11    1    1    2    0    0  0.93977831749E+02 -0.35420184834E+03 -0.20925871574E+03  0.42199525157E+03  0.00000000000E+00 0.  1.
         11    1    1    2    0    0  0.17066140126E+02  0.28854376083E+00 -0.90661932682E+02  0.92254660771E+02  0.00000000000E+00 0.  1.
        -15    1    3    3    0    0  0.10996993554E+02  0.85767555595E+02  0.53798289077E+02  0.10185490217E+03  0.17770000000E+01 0. -1.
         15    1    3    3    0    0 -0.12204096543E+03  0.26814574899E+03  0.24612235935E+03  0.38389518549E+03  0.17770000000E+01 0.  1.
</event>
<event>
 7    1  0.4954109E-006  0.5417059E+03  0.7546771E-02  0.9311040E-01
        -11   -1    0    0    0    0  0.00000000000E+00  0.00000000000E+00  0.50000000000E+03  0.50000000000E+03  0.00000000000E+00 0. -1.
         11   -1    0    0    0    0 -0.00000000000E+00 -0.00000000000E+00 -0.50000000000E+03  0.50000000000E+03  0.00000000000E+00 0.  1.
         23    2    1    2    0    0  0.72647836234E+02 -0.39003711574E+02  0.24846154887E+03  0.27708503767E+03  0.90796361202E+02 0.  0.
        -11    1    1    2    0    0 -0.12372724800E+03  0.12253366997E+03  0.19925171151E+03  0.26462081686E+03  0.00000000000E+00 0. -1.
         11    1    1    2    0    0  0.51079411766E+02 -0.83529958395E+02 -0.44771326038E+03  0.45829414547E+03  0.00000000000E+00 0.  1.
        -15    1    3    3    0    0  0.61400150649E+01 -0.50133472168E+02  0.70303477160E+02  0.86584071552E+02  0.17770000000E+01 0.  1.
         15    1    3    3    0    0  0.66507821169E+02  0.11129760594E+02  0.17815807171E+03  0.19050096612E+03  0.17770000000E+01 0. -1.
</event>
<event>
 7    1  0.4954109E-006  0.4331385E+03  0.7546771E-02  0.9563256E-01
        -11   -1    0    0    0    0  0.00000000000E+00  0.00000000000E+00  0.50000000000E+03  0.50000000000E+03  0.00000000000E+00 0. -1.
         11   -1    0    0    0    0 -0.00000000000E+00 -0.00000000000E+00 -0.50000000000E+03  0.50000000000E+03  0.00000000000E+00 0.  1.
         23    2    1    2    0    0 -0.20719911576E+02  0.28247628657E+02  0.84009957654E+02  0.12895429261E+03  0.91347103604E+02 0.  0.
        -11    1    1    2    0    0  0.51549593200E+02 -0.41616392831E+03  0.11380614784E+03  0.43451307814E+03  0.00000000000E+00 0. -1.
         11    1    1    2    0    0 -0.30829681624E+02  0.38791629965E+03 -0.19781610550E+03  0.43653262925E+03  0.00000000000E+00 0.  1.
        -15    1    3    3    0    0  0.21173965425E+02 -0.20902641725E+02  0.11789164302E+02  0.32053071099E+02  0.17770000000E+01 0.  1.
         15    1    3    3    0    0 -0.41893877001E+02  0.49150270382E+02  0.72220793353E+02  0.96901221511E+02  0.17770000000E+01 0. -1.
</event>
<event>
 7    1  0.4954109E-006  0.4545553E+03  0.7546771E-02  0.9507663E-01
        -11   -1    0    0    0    0  0.00000000000E+00  0.00000000000E+00  0.50000000000E+03  0.50000000000E+03  0.00000000000E+00 0. -1.
         11   -1    0    0    0    0 -0.00000000000E+00 -0.00000000000E+00 -0.50000000000E+03  0.50000000000E+03  0.00000000000E+00 0.  1.
         23    2    1    2    0    0 -0.39203408893E+02  0.52064727934E+02  0.39663352193E+03  0.42053718693E+03  0.12363547915E+03 0.  0.
        -11    1    1    2    0    0  0.36046755416E+02  0.70477727897E+02  0.64626935613E+02  0.10219158239E+03  0.00000000000E+00 0. -1.
         11    1    1    2    0    0  0.31566534774E+01 -0.12254245583E+03 -0.46126045754E+03  0.47727123068E+03  0.00000000000E+00 0.  1.
        -15    1    3    3    0    0 -0.58456299691E+02  0.83292015423E+02  0.26484834205E+03  0.28372962627E+03  0.17770000000E+01 0. -1.
         15    1    3    3    0    0  0.19252890798E+02 -0.31227287489E+02  0.13178517988E+03  0.13680756066E+03  0.17770000000E+01 0.  1.
</event>
<event>
 7    1  0.4954109E-006  0.5231586E+03  0.7546771E-02  0.9349431E-01
        -11   -1    0    0    0    0  0.00000000000E+00  0.00000000000E+00  0.50000000000E+03  0.50000000000E+03  0.00000000000E+00 0.  1.
         11   -1    0    0    0    0 -0.00000000000E+00 -0.00000000000E+00 -0.50000000000E+03  0.50000000000E+03  0.00000000000E+00 0. -1.
         23    2    1    2    0    0  0.49284482444E+02 -0.21890442232E+02  0.39144337859E+03  0.41004025006E+03  0.10953052707E+03 0.  0.
        -11    1    1    2    0    0  0.86189162016E+02 -0.39681877139E+02  0.61583607949E+02  0.11311836186E+03  0.00000000000E+00 0.  1.
         11    1    1    2    0    0 -0.13547364446E+03  0.61572319371E+02 -0.45302698653E+03  0.47684138808E+03  0.00000000000E+00 0. -1.
        -15    1    3    3    0    0  0.37738117973E+02 -0.57164701819E+02  0.33845516109E+03  0.34532162180E+03  0.17770000000E+01 0.  1.
         15    1    3    3    0    0  0.11546364471E+02  0.35274259587E+02  0.52988217493E+02  0.64718628261E+02  0.17770000000E+01 0. -1.
</event>
<event>
 7    1  0.4954109E-006  0.4795882E+03  0.7546771E-02  0.9446678E-01
        -11   -1    0    0    0    0  0.00000000000E+00  0.00000000000E+00  0.50000000000E+03  0.50000000000E+03  0.00000000000E+00 0.  1.
         11   -1    0    0    0    0 -0.00000000000E+00 -0.00000000000E+00 -0.50000000000E+03  0.50000000000E+03  0.00000000000E+00 0. -1.
         23    2    1    2    0    0 -0.10904742833E+03  0.10915338075E+03  0.42669152731E+03  0.46312306216E+03  0.92798216954E+02 0.  0.
        -11    1    1    2    0    0 -0.19627993608E+01 -0.25548919116E+02  0.41346438894E+02  0.48642860304E+02  0.00000000000E+00 0.  1.
         11    1    1    2    0    0  0.11101022769E+03 -0.83604461634E+02 -0.46803796621E+03  0.48823407754E+03  0.00000000000E+00 0. -1.
        -15    1    3    3    0    0 -0.76924765993E+02  0.11488076680E+03  0.27325889290E+03  0.30624922936E+03  0.17770000000E+01 0.  1.
         15    1    3    3    0    0 -0.32122662336E+02 -0.57273860517E+01  0.15343263441E+03  0.15687383280E+03  0.17770000000E+01 0. -1.
</event>
<event>
 7    1  0.4954109E-006  0.5070039E+03  0.7546771E-02  0.9384273E-01
        -11   -1    0    0    0    0  0.00000000000E+00  0.00000000000E+00  0.50000000000E+03  0.50000000000E+03  0.00000000000E+00 0. -1.
         11   -1    0    0    0    0 -0.00000000000E+00 -0.00000000000E+00 -0.50000000000E+03  0.50000000000E+03  0.00000000000E+00 0. -1.
         23    2    1    2    0    0  0.66075573653E+02 -0.65713118385E+02  0.47668330675E+03  0.49299613964E+03  0.84463148211E+02 0.  0.
        -11    1    1    2    0    0  0.41483202611E+02 -0.45054727803E+01 -0.83062210181E+02  0.92954215310E+02  0.00000000000E+00 0. -1.
         11    1    1    2    0    0 -0.10755877626E+03  0.70218591165E+02 -0.39362109657E+03  0.41404964505E+03  0.00000000000E+00 0. -1.
        -15    1    3    3    0    0  0.13563797296E+02  0.49118213090E+01  0.89882629902E+01  0.17089446634E+02  0.17770000000E+01 0.  1.
         15    1    3    3    0    0  0.52511776356E+02 -0.70624939694E+02  0.46769504376E+03  0.47590669301E+03  0.17770000000E+01 0. -1.
</event>
<event>
 7    1  0.4954109E-006  0.5044103E+03  0.7546771E-02  0.9389995E-01
        -11   -1    0    0    0    0  0.00000000000E+00  0.00000000000E+00  0.50000000000E+03  0.50000000000E+03  0.00000000000E+00 0.  1.
         11   -1    0    0    0    0 -0.00000000000E+00 -0.00000000000E+00 -0.50000000000E+03  0.50000000000E+03  0.00000000000E+00 0. -1.
         23    2    1    2    0    0 -0.78927444308E+01  0.20292642732E+03  0.44244486607E+03  0.49558965995E+03  0.92791277705E+02 0.  0.
        -11    1    1    2    0    0  0.33175021357E+02 -0.12198044717E+03 -0.13272802329E+03  0.18329358881E+03  0.00000000000E+00 0.  1.
         11    1    1    2    0    0 -0.25282276926E+02 -0.80945980154E+02 -0.30971684277E+03  0.32111675124E+03  0.00000000000E+00 0. -1.
        -15    1    3    3    0    0  0.79440877871E+01  0.14642394678E+03  0.39076326323E+03  0.41737533030E+03  0.17770000000E+01 0.  1.
         15    1    3    3    0    0 -0.15836832218E+02  0.56502480536E+02  0.51681602832E+02  0.78214329644E+02  0.17770000000E+01 0. -1.
</event>
<event>
 7    1  0.4954109E-006  0.5240709E+03  0.7546771E-02  0.9347504E-01
        -11   -1    0    0    0    0  0.00000000000E+00  0.00000000000E+00  0.50000000000E+03  0.50000000000E+03  0.00000000000E+00 0.  1.
         11   -1    0    0    0    0 -0.00000000000E+00 -0.00000000000E+00 -0.50000000000E+03  0.50000000000E+03  0.00000000000E+00 0. -1.
         23    2    1    2    0    0  0.74424629939E+02 -0.29983752891E+02 -0.25628855975E+03  0.27993918465E+03  0.79019429673E+02 0.  0.
        -11    1    1    2    0    0 -0.95311400001E+02 -0.11440099252E+03  0.45203609366E+03  0.47592907038E+03  0.00000000000E+00 0.  1.
         11    1    1    2    0    0  0.20886770062E+02  0.14438474541E+03 -0.19574753391E+03  0.24413174497E+03  0.00000000000E+00 0. -1.
        -15    1    3    3    0    0  0.20833910905E+02  0.21037319397E+02 -0.13191227792E+03  0.13520587061E+03  0.17770000000E+01 0.  1.
         15    1    3    3    0    0  0.53590719034E+02 -0.51021072288E+02 -0.12437628183E+03  0.14473331404E+03  0.17770000000E+01 0. -1.
</event>
<event>
 7    1  0.4954109E-006  0.5096974E+03  0.7546771E-02  0.9378369E-01
        -11   -1    0    0    0    0  0.00000000000E+00  0.00000000000E+00  0.50000000000E+03  0.50000000000E+03  0.00000000000E+00 0.  1.
         11   -1    0    0    0    0 -0.00000000000E+00 -0.00000000000E+00 -0.50000000000E+03  0.50000000000E+03  0.00000000000E+00 0.  1.
         23    2    1    2    0    0  0.11541505412E+03 -0.20388606285E+03 -0.18932007358E+03  0.31508243177E+03  0.92437477298E+02 0.  0.
        -11    1    1    2    0    0 -0.14495546127E+03  0.36773674134E+03  0.29009355449E+03  0.49030262802E+03  0.00000000000E+00 0.  1.
         11    1    1    2    0    0  0.29540407157E+02 -0.16385067849E+03 -0.10077348091E+03  0.19461494021E+03  0.00000000000E+00 0.  1.
        -15    1    3    3    0    0  0.15779664353E+02 -0.79006732677E+02 -0.11095497000E+03  0.13713214325E+03  0.17770000000E+01 0. -1.
         15    1    3    3    0    0  0.99635389764E+02 -0.12487933017E+03 -0.78365103589E+02  0.17795028853E+03  0.17770000000E+01 0.  1.
</event>
<event>
 7    1  0.4954109E-006  0.3930505E+03  0.7546771E-02  0.9677160E-01
        -11   -1    0    0    0    0  0.00000000000E+00  0.00000000000E+00  0.50000000000E+03  0.50000000000E+03  0.00000000000E+00 0. -1.
         11   -1    0    0    0    0 -0.00000000000E+00 -0.00000000000E+00 -0.50000000000E+03  0.50000000000E+03  0.00000000000E+00 0. -1.
         23    2    1    2    0    0 -0.19684099443E+02  0.13662079447E+03  0.10427079578E+03  0.19509004220E+03  0.90194348277E+02 0.  0.
        -11    1    1    2    0    0 -0.23025499822E+03 -0.48134175333E+02  0.26241097848E+03  0.35241138555E+03  0.00000000000E+00 0. -1.
         11    1    1    2    0    0  0.24993909766E+03 -0.88486619135E+02 -0.36668177427E+03  0.45249857225E+03  0.00000000000E+00 0. -1.
        -15    1    3    3    0    0  0.98030139665E+01  0.20686898562E+02 -0.13973582735E+02  0.26878720177E+02  0.17770000000E+01 0.  1.
         15    1    3    3    0    0 -0.29487113409E+02  0.11593389591E+03  0.11824437852E+03  0.16821132202E+03  0.17770000000E+01 0. -1.
</event>
<event>
 7    1  0.4954109E-006  0.5349295E+03  0.7546771E-02  0.9324875E-01
        -11   -1    0    0    0    0  0.00000000000E+00  0.00000000000E+00  0.50000000000E+03  0.50000000000E+03  0.00000000000E+00 0. -1.
         11   -1    0    0    0    0 -0.00000000000E+00 -0.00000000000E+00 -0.50000000000E+03  0.50000000000E+03  0.00000000000E+00 0.  1.
         23    2    1    2    0    0  0.57276491087E+02 -0.61311172279E+02 -0.32601817947E+02  0.13108991806E+03  0.95299694683E+02 0.  0.
        -11    1    1    2    0    0  0.38812961397E+01  0.32860115726E+03  0.32908481749E+03  0.46507053456E+03  0.00000000000E+00 0. -1.
         11    1    1    2    0    0 -0.61157787227E+02 -0.26728998498E+03 -0.29648299955E+03  0.40383954738E+03  0.00000000000E+00 0.  1.
        -15    1    3    3    0    0  0.14794955358E+02 -0.54560349411E+02  0.22753680451E+02  0.60964006880E+02  0.17770000000E+01 0. -1.
         15    1    3    3    0    0  0.42481535729E+02 -0.67508228686E+01 -0.55355498397E+02  0.70125911182E+02  0.17770000000E+01 0.  1.
</event>
<event>
 7    1  0.4954109E-006  0.3932002E+03  0.7546771E-02  0.9676708E-01
        -11   -1    0    0    0    0  0.00000000000E+00  0.00000000000E+00  0.50000000000E+03  0.50000000000E+03  0.00000000000E+00 0.  1.
         11   -1    0    0    0    0 -0.00000000000E+00 -0.00000000000E+00 -0.50000000000E+03  0.50000000000E+03  0.00000000000E+00 0. -1.
         23    2    1    2    0    0 -0.57197128055E+02 -0.20945385152E+02  0.35339877422E+03  0.36977450515E+03  0.90179101910E+02 0.  0.
        -11    1    1    2    0    0  0.18664620441E+03 -0.44412831412E+02  0.52740039346E+02  0.19897441284E+03  0.00000000000E+00 0.  1.
         11    1    1    2    0    0 -0.12944907636E+03  0.65358216564E+02 -0.40613881357E+03  0.43125108200E+03  0.00000000000E+00 0. -1.
        -15    1    3    3    0    0  0.23312652713E+02  0.12823519171E+01  0.52323523942E+02  0.57323931212E+02  0.17770000000E+01 0.  1.
         15    1    3    3    0    0 -0.80509780768E+02 -0.22227737069E+02  0.30107525028E+03  0.31245057394E+03  0.17770000000E+01 0. -1.
</event>
<event>
 7    1  0.4954109E-006  0.4568107E+03  0.7546771E-02  0.9501999E-01
        -11   -1    0    0    0    0  0.00000000000E+00  0.00000000000E+00  0.50000000000E+03  0.50000000000E+03  0.00000000000E+00 0.  1.
         11   -1    0    0    0    0 -0.00000000000E+00 -0.00000000000E+00 -0.50000000000E+03  0.50000000000E+03  0.00000000000E+00 0. -1.
         23    2    1    2    0    0 -0.80327960834E+02  0.66231832621E+02  0.40056704248E+03  0.42385464871E+03  0.91430688359E+02 0.  0.
        -11    1    1    2    0    0  0.44848191491E+02  0.28884558834E+02  0.73786587348E+02  0.91050197646E+02  0.00000000000E+00 0.  1.
         11    1    1    2    0    0  0.35479769343E+02 -0.95116391455E+02 -0.47435362983E+03  0.48509515364E+03  0.00000000000E+00 0. -1.
        -15    1    3    3    0    0 -0.94756222921E+02  0.72821534533E+02  0.37616599793E+03  0.39469701469E+03  0.17770000000E+01 0.  1.
         15    1    3    3    0    0  0.14428262087E+02 -0.65897019124E+01  0.24401044547E+02  0.29157634028E+02  0.17770000000E+01 0. -1.
</event>
<event>
 7    1  0.4954109E-006  0.3950905E+03  0.7546771E-02  0.9671019E-01
        -11   -1    0    0    0    0  0.00000000000E+00  0.00000000000E+00  0.50000000000E+03  0.50000000000E+03  0.00000000000E+00 0. -1.
         11   -1    0    0    0    0 -0.00000000000E+00 -0.00000000000E+00 -0.50000000000E+03  0.50000000000E+03  0.00000000000E+00 0.  1.
         23    2    1    2    0    0  0.45706875296E+02 -0.73591545567E+02  0.31969864949E+03  0.34789734714E+03  0.10639785541E+03 0.  0.
        -11    1    1    2    0    0  0.15127963121E+02 -0.19456147804E+03  0.40139015929E+02  0.19923394441E+03  0.00000000000E+00 0. -1.
         11    1    1    2    0    0 -0.60834838416E+02  0.26815302361E+03 -0.35983766542E+03  0.45286870845E+03  0.00000000000E+00 0.  1.
        -15    1    3    3    0    0  0.43269155369E+02 -0.86970235454E+02  0.31974812988E+03  0.33418268350E+03  0.17770000000E+01 0. -1.
         15    1    3    3    0    0  0.24377199272E+01  0.13378689888E+02 -0.49480389162E-01  0.13714663644E+02  0.17770000000E+01 0.  1.
</event>
<event>
 7    1  0.4954109E-006  0.4293869E+03  0.7546771E-02  0.9573347E-01
        -11   -1    0    0    0    0  0.00000000000E+00  0.00000000000E+00  0.50000000000E+03  0.50000000000E+03  0.00000000000E+00 0.  1.
         11   -1    0    0    0    0 -0.00000000000E+00 -0.00000000000E+00 -0.50000000000E+03  0.50000000000E+03  0.00000000000E+00 0. -1.
         23    2    1    2    0    0  0.15133121272E+03 -0.49364031264E+02  0.36069889327E+03  0.40462269814E+03  0.90982925410E+02 0.  0.
        -11    1    1    2    0    0 -0.61824859430E+02  0.92645821882E+02  0.84123736077E+02  0.13957924103E+03  0.00000000000E+00 0.  1.
         11    1    1    2    0    0 -0.89506353293E+02 -0.43281790618E+02 -0.44482262935E+03  0.45579806083E+03  0.00000000000E+00 0. -1.
        -15    1    3    3    0    0  0.61440609673E+01  0.13992625040E+02  0.66756951872E+01  0.16770977190E+02  0.17770000000E+01 0. -1.
         15    1    3    3    0    0  0.14518715176E+03 -0.63356656304E+02  0.35402319808E+03  0.38785172095E+03  0.17770000000E+01 0.  1.
</event>
<event>
 7    1  0.4954109E-006  0.4776852E+03  0.7546771E-02  0.9451174E-01
        -11   -1    0    0    0    0  0.00000000000E+00  0.00000000000E+00  0.50000000000E+03  0.50000000000E+03  0.00000000000E+00 0.  1.
         11   -1    0    0    0    0 -0.00000000000E+00 -0.00000000000E+00 -0.50000000000E+03  0.50000000000E+03  0.00000000000E+00 0. -1.
         23    2    1    2    0    0  0.19123865500E+03  0.33165592302E+02 -0.40940793093E+03  0.46124462671E+03  0.86368814277E+02 0.  0.
        -11    1    1    2    0    0 -0.18770275206E+03 -0.70116723581E+02  0.44456198903E+03  0.48763104920E+03  0.00000000000E+00 0.  1.
         11    1    1    2    0    0 -0.35359029439E+01  0.36951131278E+02 -0.35154058096E+02  0.51124324083E+02  0.00000000000E+00 0. -1.
        -15    1    3    3    0    0  0.13830915876E+03  0.14387821043E+02 -0.36177061805E+03  0.38757911528E+03  0.17770000000E+01 0. -1.
         15    1    3    3    0    0  0.52929496247E+02  0.18777771259E+02 -0.47637312885E+02  0.73665511431E+02  0.17770000000E+01 0.  1.
</event>
<event>
 7    1  0.4954109E-006  0.4679364E+03  0.7546771E-02  0.9474558E-01
        -11   -1    0    0    0    0  0.00000000000E+00  0.00000000000E+00  0.50000000000E+03  0.50000000000E+03  0.00000000000E+00 0.  1.
         11   -1    0    0    0    0 -0.00000000000E+00 -0.00000000000E+00 -0.50000000000E+03  0.50000000000E+03  0.00000000000E+00 0. -1.
         23    2    1    2    0    0 -0.11636803823E+03  0.79026331801E+02  0.41254557849E+03  0.44537376401E+03  0.91527339609E+02 0.  0.
        -11    1    1    2    0    0  0.23187380653E+02 -0.29031230855E+02  0.59901934268E+02  0.70489068057E+02  0.00000000000E+00 0.  1.
         11    1    1    2    0    0  0.93180657582E+02 -0.49995100946E+02 -0.47244751276E+03  0.48413716793E+03  0.00000000000E+00 0. -1.
        -15    1    3    3    0    0 -0.90754853071E+02  0.97966217706E+02  0.29983699959E+03  0.32823651110E+03  0.17770000000E+01 0.  1.
         15    1    3    3    0    0 -0.25613185163E+02 -0.18939885905E+02  0.11270857890E+03  0.11713725291E+03  0.17770000000E+01 0. -1.
</event>
<event>
 7    1  0.4954109E-006  0.5172179E+03  0.7546771E-02  0.9362087E-01
        -11   -1    0    0    0    0  0.00000000000E+00  0.00000000000E+00  0.50000000000E+03  0.50000000000E+03  0.00000000000E+00 0.  1.
         11   -1    0    0    0    0 -0.00000000000E+00 -0.00000000000E+00 -0.50000000000E+03  0.50000000000E+03  0.00000000000E+00 0. -1.
         23    2    1    2    0    0 -0.81019028757E+01  0.13826113424E+02  0.11012468728E+03  0.14401808949E+03  0.91416415972E+02 0.  0.
        -11    1    1    2    0    0 -0.10957692403E+02  0.11727608363E+03  0.35412473575E+03  0.37319978468E+03  0.00000000000E+00 0.  1.
         11    1    1    2    0    0  0.19059595279E+02 -0.13110219705E+03 -0.46424942303E+03  0.48278212583E+03  0.00000000000E+00 0. -1.
        -15    1    3    3    0    0 -0.48844574071E+02  0.16828812894E+02  0.56470817425E+02  0.76557901677E+02  0.17770000000E+01 0.  1.
         15    1    3    3    0    0  0.40742671196E+02 -0.30026994693E+01  0.53653869851E+02  0.67460187809E+02  0.17770000000E+01 0. -1.
</event>
<event>
 7    1  0.4954109E-006  0.5095892E+03  0.7546771E-02  0.9378605E-01
        -11   -1    0    0    0    0  0.00000000000E+00  0.00000000000E+00  0.50000000000E+03  0.50000000000E+03  0.00000000000E+00 0. -1.
         11   -1    0    0    0    0 -0.00000000000E+00 -0.00000000000E+00 -0.50000000000E+03  0.50000000000E+03  0.00000000000E+00 0.  1.
         23    2    1    2    0    0 -0.38764435524E+02 -0.11032416205E+03 -0.31996243659E+03  0.35243218923E+03  0.90323778612E+02 0.  0.
        -11    1    1    2    0    0  0.10678522838E+02  0.19260812436E+03  0.45087786919E+03  0.49041082099E+03  0.00000000000E+00 0. -1.
         11    1    1    2    0    0  0.28085912686E+02 -0.82283962311E+02 -0.13091543260E+03  0.15715698978E+03  0.00000000000E+00 0.  1.
        -15    1    3    3    0    0 -0.63357885056E+02 -0.96910484680E+02 -0.28479035526E+03  0.30743221662E+03  0.17770000000E+01 0.  1.
         15    1    3    3    0    0  0.24593449532E+02 -0.13413677371E+02 -0.35172081328E+02  0.44999972605E+02  0.17770000000E+01 0. -1.
</event>
<event>
 7    1  0.4954109E-006  0.5095537E+03  0.7546771E-02  0.9378683E-01
        -11   -1    0    0    0    0  0.00000000000E+00  0.00000000000E+00  0.50000000000E+03  0.50000000000E+03  0.00000000000E+00 0.  1.
         11   -1    0    0    0    0 -0.00000000000E+00 -0.00000000000E+00 -0.50000000000E+03  0.50000000000E+03  0.00000000000E+00 0. -1.
         23    2    1    2    0    0 -0.38430674104E+02 -0.97978426657E+02 -0.27834008764E+03  0.31113363104E+03  0.90852865543E+02 0.  0.
        -11    1    1    2    0    0  0.84540854519E+02  0.10694177335E+03  0.47111982515E+03  0.49044631574E+03  0.00000000000E+00 0.  1.
         11    1    1    2    0    0 -0.46110180414E+02 -0.89633466929E+01 -0.19277973752E+03  0.19842005322E+03  0.00000000000E+00 0. -1.
        -15    1    3    3    0    0 -0.49193135775E+02 -0.13753685983E+02 -0.74887927543E+02  0.90666906345E+02  0.17770000000E+01 0. -1.
         15    1    3    3    0    0  0.10762461671E+02 -0.84224740673E+02 -0.20345216009E+03  0.22046672470E+03  0.17770000000E+01 0.  1.
</event>
<event>
 7    1  0.4954109E-006  0.5196024E+03  0.7546771E-02  0.9356985E-01
        -11   -1    0    0    0    0  0.00000000000E+00  0.00000000000E+00  0.50000000000E+03  0.50000000000E+03  0.00000000000E+00 0. -1.
         11   -1    0    0    0    0 -0.00000000000E+00 -0.00000000000E+00 -0.50000000000E+03  0.50000000000E+03  0.00000000000E+00 0.  1.
         23    2    1    2    0    0 -0.10537333972E+03  0.32903488745E+02  0.24563811836E+03  0.28385002325E+03  0.89702676749E+02 0.  0.
        -11    1    1    2    0    0 -0.65675675401E+02  0.16092825880E+03  0.15927335888E+03  0.23575241604E+03  0.00000000000E+00 0. -1.
         11    1    1    2    0    0  0.17104901512E+03 -0.19383174755E+03 -0.40491147724E+03  0.48039756070E+03  0.00000000000E+00 0.  1.
        -15    1    3    3    0    0 -0.73275243355E+02  0.93069829615E+01  0.63579191692E+02  0.97474881717E+02  0.17770000000E+01 0.  1.
         15    1    3    3    0    0 -0.32098096366E+02  0.23596505784E+02  0.18205892667E+03  0.18637514154E+03  0.17770000000E+01 0. -1.
</event>
<event>
 7    1  0.4954109E-006  0.5346041E+03  0.7546771E-02  0.9325545E-01
        -11   -1    0    0    0    0  0.00000000000E+00  0.00000000000E+00  0.50000000000E+03  0.50000000000E+03  0.00000000000E+00 0. -1.
         11   -1    0    0    0    0 -0.00000000000E+00 -0.00000000000E+00 -0.50000000000E+03  0.50000000000E+03  0.00000000000E+00 0.  1.
         23    2    1    2    0    0 -0.31444844589E+02  0.35699983384E+02  0.25202268758E+03  0.26966303492E+03  0.83303362986E+02 0.  0.
        -11    1    1    2    0    0 -0.26098481207E+02 -0.18930805240E+03  0.18350769452E+03  0.26494101866E+03  0.00000000000E+00 0. -1.
         11    1    1    2    0    0  0.57543325796E+02  0.15360806902E+03 -0.43553038209E+03  0.46539594641E+03  0.00000000000E+00 0.  1.
        -15    1    3    3    0    0 -0.48694187334E+02  0.19273319040E+01  0.19609346782E+03  0.20206594057E+03  0.17770000000E+01 0.  1.
         15    1    3    3    0    0  0.17249342744E+02  0.33772651480E+02  0.55929219763E+02  0.67597094356E+02  0.17770000000E+01 0. -1.
</event>
<event>
 7    1  0.4954109E-006  0.4889355E+03  0.7546771E-02  0.9424913E-01
        -11   -1    0    0    0    0  0.00000000000E+00  0.00000000000E+00  0.50000000000E+03  0.50000000000E+03  0.00000000000E+00 0.  1.
         11   -1    0    0    0    0 -0.00000000000E+00 -0.00000000000E+00 -0.50000000000E+03  0.50000000000E+03  0.00000000000E+00 0.  1.
         23    2    1    2    0    0  0.87479834981E+02 -0.53822578469E+02  0.46318438500E+03  0.48287398483E+03  0.89877245382E+02 0.  0.
        -11    1    1    2    0    0 -0.21881510866E+02 -0.14345593776E+02  0.14670042091E+02  0.29996778385E+02  0.00000000000E+00 0.  1.
         11    1    1    2    0    0 -0.65598324116E+02  0.68168172244E+02 -0.47785442709E+03  0.48712923678E+03  0.00000000000E+00 0.  1.
        -15    1    3    3    0    0  0.41570529656E+02 -0.54320089450E+02  0.39350489556E+03  0.39940961633E+03  0.17770000000E+01 0.  1.
         15    1    3    3    0    0  0.45909305325E+02  0.49751098101E+00  0.69679489440E+02  0.83464368507E+02  0.17770000000E+01 0. -1.
</event>
<event>
 7    1  0.4954109E-006  0.4312325E+03  0.7546771E-02  0.9568369E-01
        -11   -1    0    0    0    0  0.00000000000E+00  0.00000000000E+00  0.50000000000E+03  0.50000000000E+03  0.00000000000E+00 0. -1.
         11   -1    0    0    0    0 -0.00000000000E+00 -0.00000000000E+00 -0.50000000000E+03  0.50000000000E+03  0.00000000000E+00 0.  1.
         23    2    1    2    0    0  0.70129622855E+01 -0.22999977429E+02  0.40758185627E+03  0.41805966278E+03  0.89848380551E+02 0.  0.
        -11    1    1    2    0    0 -0.10360500462E+03  0.85334934543E+02  0.23084668231E+02  0.13619452978E+03  0.00000000000E+00 0. -1.
         11    1    1    2    0    0  0.96592042335E+02 -0.62334957114E+02 -0.43066652450E+03  0.44574580743E+03  0.00000000000E+00 0.  1.
        -15    1    3    3    0    0  0.17845121160E+02 -0.55695047680E+02  0.25336323927E+03  0.26003168158E+03  0.17770000000E+01 0.  1.
         15    1    3    3    0    0 -0.10832158875E+02  0.32695070251E+02  0.15421861700E+03  0.15802798120E+03  0.17770000000E+01 0. -1.
</event>
<event>
 7    1  0.4954109E-006  0.3579326E+03  0.7546771E-02  0.9789576E-01
        -11   -1    0    0    0    0  0.00000000000E+00  0.00000000000E+00  0.50000000000E+03  0.50000000000E+03  0.00000000000E+00 0. -1.
         11   -1    0    0    0    0 -0.00000000000E+00 -0.00000000000E+00 -0.50000000000E+03  0.50000000000E+03  0.00000000000E+00 0.  1.
         23    2    1    2    0    0 -0.28594490272E+02 -0.83710651856E+02  0.21207985311E+03  0.24815827570E+03  0.93699240081E+02 0.  0.
        -11    1    1    2    0    0  0.15295318478E+03  0.16176721010E+03  0.20933044663E+03  0.30558557375E+03  0.00000000000E+00 0. -1.
         11    1    1    2    0    0 -0.12435869451E+03 -0.78056558241E+02 -0.42141029974E+03  0.44625615056E+03  0.00000000000E+00 0.  1.
        -15    1    3    3    0    0 -0.12116217750E+02  0.12153812428E+02  0.29453916007E+01  0.17502884042E+02  0.17770000000E+01 0.  1.
         15    1    3    3    0    0 -0.16478272522E+02 -0.95864464284E+02  0.20913446151E+03  0.23065539165E+03  0.17770000000E+01 0. -1.
</event>
<event>
 7    1  0.4954109E-006  0.3910503E+03  0.7546771E-02  0.9683220E-01
        -11   -1    0    0    0    0  0.00000000000E+00  0.00000000000E+00  0.50000000000E+03  0.50000000000E+03  0.00000000000E+00 0. -1.
         11   -1    0    0    0    0 -0.00000000000E+00 -0.00000000000E+00 -0.50000000000E+03  0.50000000000E+03  0.00000000000E+00 0. -1.
         23    2    1    2    0    0 -0.19421054233E+02 -0.19183527052E+03  0.40374035908E+03  0.45504859781E+03  0.82975902881E+02 0.  0.
        -11    1    1    2    0    0  0.81845219634E+02  0.17132563802E+03 -0.66208999249E+02  0.20108392726E+03  0.00000000000E+00 0. -1.
         11    1    1    2    0    0 -0.62424165401E+02  0.20509632494E+02 -0.33753135983E+03  0.34386747493E+03  0.00000000000E+00 0. -1.
        -15    1    3    3    0    0 -0.28323322111E+02 -0.18690177969E+02  0.43011271456E+02  0.54814783856E+02  0.17770000000E+01 0.  1.
         15    1    3    3    0    0  0.89022678782E+01 -0.17314509255E+03  0.36072908762E+03  0.40023381395E+03  0.17770000000E+01 0. -1.
</event>
<event>
 7    1  0.4954109E-006  0.3389795E+03  0.7546771E-02  0.9856153E-01
        -11   -1    0    0    0    0  0.00000000000E+00  0.00000000000E+00  0.50000000000E+03  0.50000000000E+03  0.00000000000E+00 0.  1.
         11   -1    0    0    0    0 -0.00000000000E+00 -0.00000000000E+00 -0.50000000000E+03  0.50000000000E+03  0.00000000000E+00 0.  1.
         23    2    1    2    0    0 -0.79919082285E+01 -0.12103756523E+03  0.22909241806E+03  0.27417239661E+03  0.89292800684E+02 0.  0.
        -11    1    1    2    0    0  0.12473454355E+03  0.13624235362E+03  0.20506379401E+03  0.27599247252E+03  0.00000000000E+00 0.  1.
         11    1    1    2    0    0 -0.11674263532E+03 -0.15204788389E+02 -0.43415621207E+03  0.44983513087E+03  0.00000000000E+00 0.  1.
        -15    1    3    3    0    0  0.31733674975E+02 -0.49009116177E+02  0.49254883701E+02  0.76407597091E+02  0.17770000000E+01 0. -1.
         15    1    3    3    0    0 -0.39725583203E+02 -0.72028449057E+02  0.17983753436E+03  0.19776479952E+03  0.17770000000E+01 0.  1.
</event>
<event>
 7    1  0.4954109E-006  0.4978072E+03  0.7546771E-02  0.9404730E-01
        -11   -1    0    0    0    0  0.00000000000E+00  0.00000000000E+00  0.50000000000E+03  0.50000000000E+03  0.00000000000E+00 0.  1.
         11   -1    0    0    0    0 -0.00000000000E+00 -0.00000000000E+00 -0.50000000000E+03  0.50000000000E+03  0.00000000000E+00 0. -1.
         23    2    1    2    0    0 -0.27363857731E+02 -0.11627955155E+03  0.47490393435E+03  0.49902921571E+03  0.96055694530E+02 0.  0.
        -11    1    1    2    0    0 -0.12990318367E+02  0.32894127261E+01 -0.25801342648E+01  0.13646453759E+02  0.00000000000E+00 0.  1.
         11    1    1    2    0    0  0.40354176098E+02  0.11299013882E+03 -0.47232380009E+03  0.48732433053E+03  0.00000000000E+00 0. -1.
        -15    1    3    3    0    0 -0.51011817921E+02 -0.92925516023E+02  0.43149293789E+03  0.44432721081E+03  0.17770000000E+01 0.  1.
         15    1    3    3    0    0  0.23647960190E+02 -0.23354035525E+02  0.43410996466E+02  0.54702004896E+02  0.17770000000E+01 0. -1.
</event>
<event>
 7    1  0.4954109E-006  0.3912369E+03  0.7546771E-02  0.9682653E-01
        -11   -1    0    0    0    0  0.00000000000E+00  0.00000000000E+00  0.50000000000E+03  0.50000000000E+03  0.00000000000E+00 0. -1.
         11   -1    0    0    0    0 -0.00000000000E+00 -0.00000000000E+00 -0.50000000000E+03  0.50000000000E+03  0.00000000000E+00 0. -1.
         23    2    1    2    0    0  0.68219091312E+02  0.93862840832E+02  0.12872640594E+03  0.19856396355E+03  0.96917917469E+02 0.  0.
        -11    1    1    2    0    0 -0.21440216974E+00 -0.12702308873E+03  0.32108938171E+03  0.34530175512E+03  0.00000000000E+00 0. -1.
         11    1    1    2    0    0 -0.68004689142E+02  0.33160247897E+02 -0.44981578765E+03  0.45613428133E+03  0.00000000000E+00 0. -1.
        -15    1    3    3    0    0  0.34394799274E+02  0.10515551919E+03  0.11687150000E+03  0.16094343937E+03  0.17770000000E+01 0. -1.
         15    1    3    3    0    0  0.33824292039E+02 -0.11292678354E+02  0.11854905936E+02  0.37620524187E+02  0.17770000000E+01 0.  1.
</event>
<event>
 7    1  0.4954109E-006  0.3470643E+03  0.7546771E-02  0.9827196E-01
        -11   -1    0    0    0    0  0.00000000000E+00  0.00000000000E+00  0.50000000000E+03  0.50000000000E+03  0.00000000000E+00 0. -1.
         11   -1    0    0    0    0 -0.00000000000E+00 -0.00000000000E+00 -0.50000000000E+03  0.50000000000E+03  0.00000000000E+00 0. -1.
         23    2    1    2    0    0  0.11480919715E+03 -0.21017205206E+02 -0.23646943501E+03  0.27960638785E+03  0.92946564034E+02 0.  0.
        -11    1    1    2    0    0  0.18410502693E+02  0.15913976781E+03  0.42327954092E+03  0.45258146457E+03  0.00000000000E+00 0. -1.
         11    1    1    2    0    0 -0.13321969984E+03 -0.13812256260E+03 -0.18681010591E+03  0.26781214758E+03  0.00000000000E+00 0. -1.
        -15    1    3    3    0    0  0.82573607890E+02 -0.33013256053E+02 -0.80781486954E+02  0.12015440965E+03  0.17770000000E+01 0.  1.
         15    1    3    3    0    0  0.32235589256E+02  0.11996050847E+02 -0.15568794806E+03  0.15945197820E+03  0.17770000000E+01 0. -1.
</event>
<event>
 7    1  0.4954109E-006  0.5310872E+03  0.7546771E-02  0.9332816E-01
        -11   -1    0    0    0    0  0.00000000000E+00  0.00000000000E+00  0.50000000000E+03  0.50000000000E+03  0.00000000000E+00 0.  1.
         11   -1    0    0    0    0 -0.00000000000E+00 -0.00000000000E+00 -0.50000000000E+03  0.50000000000E+03  0.00000000000E+00 0. -1.
         23    2    1    2    0    0  0.31127751155E+02  0.54830067908E+02 -0.21203033515E+02  0.11315679140E+03  0.91540251101E+02 0.  0.
        -11    1    1    2    0    0  0.25242997260E+02 -0.34425318382E+03  0.31738270480E+03  0.46891283283E+03  0.00000000000E+00 0.  1.
         11    1    1    2    0    0 -0.56370748415E+02  0.28942311592E+03 -0.29617967129E+03  0.41793037577E+03  0.00000000000E+00 0. -1.
        -15    1    3    3    0    0  0.11657687304E+01  0.20502921811E+02  0.35100001109E+02  0.40704995104E+02  0.17770000000E+01 0.  1.
         15    1    3    3    0    0  0.29961982425E+02  0.34327146097E+02 -0.56303034625E+02  0.72451796299E+02  0.17770000000E+01 0. -1.
</event>
<event>
 7    1  0.4954109E-006  0.3721294E+03  0.7546771E-02  0.9742535E-01
        -11   -1    0    0    0    0  0.00000000000E+00  0.00000000000E+00  0.50000000000E+03  0.50000000000E+03  0.00000000000E+00 0.  1.
         11   -1    0    0    0    0 -0.00000000000E+00 -0.00000000000E+00 -0.50000000000E+03  0.50000000000E+03  0.00000000000E+00 0. -1.
         23    2    1    2    0    0  0.11912144425E+03 -0.12909799842E+03  0.25719895396E+03  0.32456012417E+03  0.91278478349E+02 0.  0.
        -11    1    1    2    0    0 -0.13500953953E+03  0.53857682498E+02  0.18009516753E+03  0.23143572563E+03  0.00000000000E+00 0.  1.
         11    1    1    2    0    0  0.15888095283E+02  0.75240315920E+02 -0.43729412149E+03  0.44400415020E+03  0.00000000000E+00 0. -1.
        -15    1    3    3    0    0  0.16622452486E+02  0.13664542131E+02  0.20762425987E+02  0.29954326902E+02  0.17770000000E+01 0. -1.
         15    1    3    3    0    0  0.10249899176E+03 -0.14276254055E+03  0.23643652797E+03  0.29460579727E+03  0.17770000000E+01 0.  1.
</event>
<event>
 7    1  0.7016724E-006  0.3663242E+03  0.7546771E-02  0.9761494E-01
        -11   -1    0    0    0    0  0.00000000000E+00  0.00000000000E+00  0.50000000000E+03  0.50000000000E+03  0.00000000000E+00 0. -1.
         11   -1    0    0    0    0 -0.00000000000E+00 -0.00000000000E+00 -0.50000000000E+03  0.50000000000E+03  0.00000000000E+00 0. -1.
         23    2    1    2    0    0  0.21141315595E+02  0.14820858979E+03  0.13693803600E+03  0.23977732880E+03  0.12778262945E+03 0.  0.
        -11    1    1    2    0    0 -0.34223108816E+02 -0.69186181166E+02  0.30319224993E+03  0.31286337156E+03  0.00000000000E+00 0. -1.
         11    1    1    2    0    0  0.13081793221E+02 -0.79022408619E+02 -0.44013028594E+03  0.44735929964E+03  0.00000000000E+00 0. -1.
        -15    1    3    3    0    0 -0.27608356347E+01  0.49320637124E+02 -0.19518680164E+02  0.53143993678E+02  0.17770000000E+01 0.  1.
         15    1    3    3    0    0  0.23902151230E+02  0.98887952661E+02  0.15645671617E+03  0.18663333512E+03  0.17770000000E+01 0. -1.
</event>
<event>
 7    1  0.4954109E-006  0.4269292E+03  0.7546771E-02  0.9580018E-01
        -11   -1    0    0    0    0  0.00000000000E+00  0.00000000000E+00  0.50000000000E+03  0.50000000000E+03  0.00000000000E+00 0.  1.
         11   -1    0    0    0    0 -0.00000000000E+00 -0.00000000000E+00 -0.50000000000E+03  0.50000000000E+03  0.00000000000E+00 0. -1.
         23    2    1    2    0    0 -0.15522396799E+03 -0.72102886004E+02  0.35656352034E+03  0.40605859577E+03  0.91938744576E+02 0.  0.
        -11    1    1    2    0    0 -0.13194406763E+03 -0.48109334627E+02 -0.31661223053E+02  0.14396589216E+03  0.00000000000E+00 0.  1.
         11    1    1    2    0    0  0.28716803562E+03  0.12021222063E+03 -0.32490229729E+03  0.44997551206E+03  0.00000000000E+00 0. -1.
        -15    1    3    3    0    0 -0.69798808479E+02 -0.82553529595E+02  0.20436480373E+03  0.23120356755E+03  0.17770000000E+01 0.  1.
         15    1    3    3    0    0 -0.85425159510E+02  0.10450643591E+02  0.15219871661E+03  0.17485502822E+03  0.17770000000E+01 0. -1.
</event>
<event>
 7    1  0.4954109E-006  0.4932466E+03  0.7546771E-02  0.9415049E-01
        -11   -1    0    0    0    0  0.00000000000E+00  0.00000000000E+00  0.50000000000E+03  0.50000000000E+03  0.00000000000E+00 0.  1.
         11   -1    0    0    0    0 -0.00000000000E+00 -0.00000000000E+00 -0.50000000000E+03  0.50000000000E+03  0.00000000000E+00 0. -1.
         23    2    1    2    0    0  0.49737619129E+02 -0.87219512377E+02  0.47035896828E+03  0.48958474436E+03  0.91512779259E+02 0.  0.
        -11    1    1    2    0    0 -0.18904063107E+02  0.40868592485E+01  0.10116675651E+02  0.21826890449E+02  0.00000000000E+00 0.  1.
         11    1    1    2    0    0 -0.30833556022E+02  0.83132653129E+02 -0.48047564393E+03  0.48858836520E+03  0.00000000000E+00 0. -1.
        -15    1    3    3    0    0  0.32865684855E+02 -0.10573391071E+03  0.38251256003E+03  0.39821957439E+03  0.17770000000E+01 0.  1.
         15    1    3    3    0    0  0.16871934274E+02  0.18514398334E+02  0.87846408251E+02  0.91365169969E+02  0.17770000000E+01 0. -1.
</event>
<event>
 7    1  0.4954109E-006  0.4459342E+03  0.7546771E-02  0.9529641E-01
        -11   -1    0    0    0    0  0.00000000000E+00  0.00000000000E+00  0.50000000000E+03  0.50000000000E+03  0.00000000000E+00 0. -1.
         11   -1    0    0    0    0 -0.00000000000E+00 -0.00000000000E+00 -0.50000000000E+03  0.50000000000E+03  0.00000000000E+00 0. -1.
         23    2    1    2    0    0  0.54965952502E+02  0.24580897120E+01 -0.11000256241E+01  0.10643545465E+03  0.91104323778E+02 0.  0.
        -11    1    1    2    0    0  0.15603624226E+03 -0.14822548493E+03  0.37959954334E+03  0.43636443094E+03  0.00000000000E+00 0. -1.
         11    1    1    2    0    0 -0.21100219476E+03  0.14576739522E+03 -0.37849951772E+03  0.45720011441E+03  0.00000000000E+00 0. -1.
        -15    1    3    3    0    0 -0.21356861298E+02 -0.12370275967E+02 -0.12685814906E+02  0.27806957418E+02  0.17770000000E+01 0.  1.
         15    1    3    3    0    0  0.76322813800E+02  0.14828365679E+02  0.11585789282E+02  0.78628497234E+02  0.17770000000E+01 0. -1.
</event>
<event>
 7    1  0.4954109E-006  0.5157248E+03  0.7546771E-02  0.9365296E-01
        -11   -1    0    0    0    0  0.00000000000E+00  0.00000000000E+00  0.50000000000E+03  0.50000000000E+03  0.00000000000E+00 0.  1.
         11   -1    0    0    0    0 -0.00000000000E+00 -0.00000000000E+00 -0.50000000000E+03  0.50000000000E+03  0.00000000000E+00 0. -1.
         23    2    1    2    0    0  0.23509946358E+02  0.38927116610E+02  0.13302445335E+03  0.17045322804E+03  0.96388587380E+02 0.  0.
        -11    1    1    2    0    0  0.91838443992E+02  0.14014998309E+03  0.30188768235E+03  0.34527161817E+03  0.00000000000E+00 0.  1.
         11    1    1    2    0    0 -0.11534839035E+03 -0.17907709970E+03 -0.43491213570E+03  0.48427515379E+03  0.00000000000E+00 0. -1.
        -15    1    3    3    0    0 -0.13327348179E+02  0.21222971409E+02  0.12656806960E+03  0.12903746237E+03  0.17770000000E+01 0.  1.
         15    1    3    3    0    0  0.36837294537E+02  0.17704145201E+02  0.64563837504E+01  0.41415765673E+02  0.17770000000E+01 0. -1.
</event>
<event>
 7    1  0.4954109E-006  0.5355878E+03  0.7546771E-02  0.9323521E-01
        -11   -1    0    0    0    0  0.00000000000E+00  0.00000000000E+00  0.50000000000E+03  0.50000000000E+03  0.00000000000E+00 0. -1.
         11   -1    0    0    0    0 -0.00000000000E+00 -0.00000000000E+00 -0.50000000000E+03  0.50000000000E+03  0.00000000000E+00 0. -1.
         23    2    1    2    0    0 -0.41123499027E+02  0.44121908139E+02 -0.33341467787E+02  0.11390738806E+03  0.90693740853E+02 0.  0.
        -11    1    1    2    0    0  0.18424656424E+03  0.10852036556E+02  0.42616207941E+03  0.46441218875E+03  0.00000000000E+00 0. -1.
         11    1    1    2    0    0 -0.14312306521E+03 -0.54973944696E+02 -0.39282061162E+03  0.42168042319E+03  0.00000000000E+00 0. -1.
        -15    1    3    3    0    0 -0.29947458820E+02 -0.17173578377E+02  0.12258220047E+02  0.36677019669E+02  0.17770000000E+01 0. -1.
         15    1    3    3    0    0 -0.11176040207E+02  0.61295486516E+02 -0.45599687834E+02  0.77230368389E+02  0.17770000000E+01 0.  1.
</event>
<event>
 7    1  0.8167188E-006  0.5200685E+03  0.7546771E-02  0.9355992E-01
        -11   -1    0    0    0    0  0.00000000000E+00  0.00000000000E+00  0.50000000000E+03  0.50000000000E+03  0.00000000000E+00 0. -1.
         11   -1    0    0    0    0 -0.00000000000E+00 -0.00000000000E+00 -0.50000000000E+03  0.50000000000E+03  0.00000000000E+00 0.  1.
         23    2    1    2    0    0 -0.71944694164E+01  0.48411863049E+02 -0.31361536523E+03  0.33044052039E+03  0.91874214723E+02 0.  0.
        -11    1    1    2    0    0 -0.10106044518E+03 -0.29982053712E+02  0.46821158895E+03  0.47993148381E+03  0.00000000000E+00 0. -1.
         11    1    1    2    0    0  0.10825491460E+03 -0.18429809337E+02 -0.15459622371E+03  0.18962799580E+03  0.00000000000E+00 0.  1.
        -15    1    3    3    0    0  0.24049201812E+02 -0.15739594433E+02 -0.13608583198E+03  0.13909928230E+03  0.17770000000E+01 0. -1.
         15    1    3    3    0    0 -0.31243671229E+02  0.64151457482E+02 -0.17752953325E+03  0.19134123809E+03  0.17770000000E+01 0.  1.
</event>
<event>
 6    1  0.4954109E-006  0.3697413E+03  0.7546771E-02  0.9750289E-01
        -11   -1    0    0    0    0  0.00000000000E+00  0.00000000000E+00  0.50000000000E+03  0.50000000000E+03  0.00000000000E+00 0. -1.
         11   -1    0    0    0    0 -0.00000000000E+00 -0.00000000000E+00 -0.50000000000E+03  0.50000000000E+03  0.00000000000E+00 0. -1.
        -11    1    1    2    0    0  0.25110055211E+03 -0.14927504210E+03  0.15198854674E+03  0.32929476735E+03  0.00000000000E+00 0. -1.
         11    1    1    2    0    0 -0.21624278333E+03  0.15814531211E+03 -0.34315152782E+03  0.43534337267E+03  0.00000000000E+00 0. -1.
        -15    1    1    2    0    0 -0.46279845349E+02 -0.47602152029E+02  0.37078903524E+02  0.76064392319E+02  0.17770000000E+01 0. -1.
         15    1    1    2    0    0  0.11422076574E+02  0.38731882026E+02  0.15408407756E+03  0.15929746766E+03  0.17770000000E+01 0.  1.
</event>
<event>
 7    1  0.4954109E-006  0.4066819E+03  0.7546771E-02  0.9636861E-01
        -11   -1    0    0    0    0  0.00000000000E+00  0.00000000000E+00  0.50000000000E+03  0.50000000000E+03  0.00000000000E+00 0. -1.
         11   -1    0    0    0    0 -0.00000000000E+00 -0.00000000000E+00 -0.50000000000E+03  0.50000000000E+03  0.00000000000E+00 0.  1.
         23    2    1    2    0    0  0.43300555996E+02 -0.11041139103E+03 -0.65054358974E+02  0.17546479471E+03  0.11175961321E+03 0.  0.
        -11    1    1    2    0    0 -0.17547360258E+03  0.55500064905E+02  0.41090561325E+03  0.45023845394E+03  0.00000000000E+00 0. -1.
         11    1    1    2    0    0  0.13217304658E+03  0.54911326122E+02 -0.34585125428E+03  0.37429675134E+03  0.00000000000E+00 0.  1.
        -15    1    3    3    0    0  0.59824136633E+02 -0.50071087848E+02  0.89481311177E+01  0.78544687546E+02  0.17770000000E+01 0. -1.
         15    1    3    3    0    0 -0.16523580636E+02 -0.60340303179E+02 -0.74002490092E+02  0.96920107169E+02  0.17770000000E+01 0.  1.
</event>
<event>
 7    1  0.4954109E-006  0.5215132E+03  0.7546771E-02  0.9352919E-01
        -11   -1    0    0    0    0  0.00000000000E+00  0.00000000000E+00  0.50000000000E+03  0.50000000000E+03  0.00000000000E+00 0.  1.
         11   -1    0    0    0    0 -0.00000000000E+00 -0.00000000000E+00 -0.50000000000E+03  0.50000000000E+03  0.00000000000E+00 0. -1.
         23    2    1    2    0    0  0.36775202712E+02  0.16144760664E+03 -0.26548605740E+03  0.32630707079E+03  0.92605143231E+02 0.  0.
        -11    1    1    2    0    0 -0.14237216412E+03 -0.15544196542E+03  0.42955509199E+03  0.47848679688E+03  0.00000000000E+00 0.  1.
         11    1    1    2    0    0  0.10559696141E+03 -0.60056412174E+01 -0.16406903460E+03  0.19520613233E+03  0.00000000000E+00 0. -1.
        -15    1    3    3    0    0  0.11754386888E+02 -0.59850765012E+01 -0.52869666483E+02  0.54519227020E+02  0.17770000000E+01 0.  1.
         15    1    3    3    0    0  0.25020815824E+02  0.16743268314E+03 -0.21261639091E+03  0.27178784377E+03  0.17770000000E+01 0. -1.
</event>
<event>
 7    1  0.4954109E-006  0.4705570E+03  0.7546771E-02  0.9468213E-01
        -11   -1    0    0    0    0  0.00000000000E+00  0.00000000000E+00  0.50000000000E+03  0.50000000000E+03  0.00000000000E+00 0. -1.
         11   -1    0    0    0    0 -0.00000000000E+00 -0.00000000000E+00 -0.50000000000E+03  0.50000000000E+03  0.00000000000E+00 0.  1.
         23    2    1    2    0    0 -0.15643823756E+02 -0.13827185408E+03 -0.41400602801E+03  0.44653826024E+03  0.92906360257E+02 0.  0.
        -11    1    1    2    0    0 -0.84775224323E+01  0.12017415000E+03  0.47251910064E+03  0.48763510455E+03  0.00000000000E+00 0. -1.
         11    1    1    2    0    0  0.24121346189E+02  0.18097704081E+02 -0.58513072629E+02  0.65826635213E+02  0.00000000000E+00 0.  1.
        -15    1    3    3    0    0  0.20806183451E+02 -0.69375005223E+02 -0.10312900463E+03  0.12603387618E+03  0.17770000000E+01 0.  1.
         15    1    3    3    0    0 -0.36450007208E+02 -0.68896848860E+02 -0.31087702338E+03  0.32050438406E+03  0.17770000000E+01 0. -1.
</event>
<event>
 7    1  0.4954109E-006  0.3412614E+03  0.7546771E-02  0.9847893E-01
        -11   -1    0    0    0    0  0.00000000000E+00  0.00000000000E+00  0.50000000000E+03  0.50000000000E+03  0.00000000000E+00 0. -1.
         11   -1    0    0    0    0 -0.00000000000E+00 -0.00000000000E+00 -0.50000000000E+03  0.50000000000E+03  0.00000000000E+00 0.  1.
         23    2    1    2    0    0  0.29302128147E+03  0.17549911187E+03  0.14742962215E+03  0.38542345710E+03  0.10076873590E+03 0.  0.
        -11    1    1    2    0    0 -0.18697771879E+03 -0.11796266665E+03  0.16747526591E+03  0.27735144265E+03  0.00000000000E+00 0. -1.
         11    1    1    2    0    0 -0.10604356268E+03 -0.57536445222E+02 -0.31490488806E+03  0.33722510025E+03  0.00000000000E+00 0.  1.
        -15    1    3    3    0    0  0.19335719165E+03  0.14698711936E+03  0.14255098555E+03  0.28163124477E+03  0.17770000000E+01 0. -1.
         15    1    3    3    0    0  0.99664089819E+02  0.28511992508E+02  0.48786365982E+01  0.10379221233E+03  0.17770000000E+01 0.  1.
</event>
<event>
 7    1  0.4954109E-006  0.3159685E+03  0.7546771E-02  0.9943558E-01
        -11   -1    0    0    0    0  0.00000000000E+00  0.00000000000E+00  0.50000000000E+03  0.50000000000E+03  0.00000000000E+00 0. -1.
         11   -1    0    0    0    0 -0.00000000000E+00 -0.00000000000E+00 -0.50000000000E+03  0.50000000000E+03  0.00000000000E+00 0.  1.
         23    2    1    2    0    0 -0.10905789833E+03 -0.23412707772E+03  0.17714756026E+03  0.32624858650E+03  0.91366122683E+02 0.  0.
        -11    1    1    2    0    0  0.20470999024E+03  0.15968733919E+03  0.16712454753E+03  0.30876664456E+03  0.00000000000E+00 0. -1.
         11    1    1    2    0    0 -0.95652091917E+02  0.74439738529E+02 -0.34427210779E+03  0.36498476895E+03  0.00000000000E+00 0.  1.
        -15    1    3    3    0    0 -0.88885339229E+02 -0.21744276120E+03  0.18482831168E+03  0.29890905048E+03  0.17770000000E+01 0. -1.
         15    1    3    3    0    0 -0.20172559099E+02 -0.16684316520E+02 -0.76807514211E+01  0.27339536019E+02  0.17770000000E+01 0.  1.
</event>
<event>
 7    1  0.4954109E-006  0.3937306E+03  0.7546771E-02  0.9675109E-01
        -11   -1    0    0    0    0  0.00000000000E+00  0.00000000000E+00  0.50000000000E+03  0.50000000000E+03  0.00000000000E+00 0.  1.
         11   -1    0    0    0    0 -0.00000000000E+00 -0.00000000000E+00 -0.50000000000E+03  0.50000000000E+03  0.00000000000E+00 0. -1.
         23    2    1    2    0    0  0.10959222078E+03 -0.28130997109E+03  0.20417156101E+03  0.37655848215E+03  0.94681093465E+02 0.  0.
        -11    1    1    2    0    0  0.32174208702E+02  0.11454216686E+03  0.15949748142E+03  0.19898375379E+03  0.00000000000E+00 0.  1.
         11    1    1    2    0    0 -0.14176642948E+03  0.16676780424E+03 -0.36366904242E+03  0.42445776407E+03  0.00000000000E+00 0. -1.
        -15    1    3    3    0    0  0.12367927166E+03 -0.22686524781E+03  0.15176290535E+03  0.29966571387E+03  0.17770000000E+01 0.  1.
         15    1    3    3    0    0 -0.14087050877E+02 -0.54444723284E+02  0.52408655659E+02  0.76892768274E+02  0.17770000000E+01 0. -1.
</event>
<event>
 7    1  0.4954109E-006  0.5274742E+03  0.7546771E-02  0.9340349E-01
        -11   -1    0    0    0    0  0.00000000000E+00  0.00000000000E+00  0.50000000000E+03  0.50000000000E+03  0.00000000000E+00 0. -1.
         11   -1    0    0    0    0 -0.00000000000E+00 -0.00000000000E+00 -0.50000000000E+03  0.50000000000E+03  0.00000000000E+00 0.  1.
         23    2    1    2    0    0 -0.31148640965E+02  0.92607779092E+02  0.20846389360E+03  0.25008595870E+03  0.97669612592E+02 0.  0.
        -11    1    1    2    0    0  0.10751688838E+03 -0.31216395083E+02  0.25379103803E+03  0.27738823983E+03  0.00000000000E+00 0. -1.
         11    1    1    2    0    0 -0.76368247410E+02 -0.61391384008E+02 -0.46225493163E+03  0.47252580147E+03  0.00000000000E+00 0.  1.
        -15    1    3    3    0    0 -0.42171385416E+02  0.44901908029E+02  0.37271374847E+02  0.72020276343E+02  0.17770000000E+01 0.  1.
         15    1    3    3    0    0  0.11022744450E+02  0.47705871063E+02  0.17119251875E+03  0.17806568236E+03  0.17770000000E+01 0. -1.
</event>
<event>
 7    1  0.4954109E-006  0.5178196E+03  0.7546771E-02  0.9360797E-01
        -11   -1    0    0    0    0  0.00000000000E+00  0.00000000000E+00  0.50000000000E+03  0.50000000000E+03  0.00000000000E+00 0.  1.
         11   -1    0    0    0    0 -0.00000000000E+00 -0.00000000000E+00 -0.50000000000E+03  0.50000000000E+03  0.00000000000E+00 0. -1.
         23    2    1    2    0    0  0.46857344299E+01  0.14323078922E+02  0.15921187047E+03  0.18599838161E+03  0.94973004391E+02 0.  0.
        -11    1    1    2    0    0  0.11200970197E+03 -0.61303663119E+02  0.30626951893E+03  0.33182123301E+03  0.00000000000E+00 0.  1.
         11    1    1    2    0    0 -0.11669543640E+03  0.46980584197E+02 -0.46548138941E+03  0.48218038539E+03  0.00000000000E+00 0. -1.
        -15    1    3    3    0    0  0.38479136579E+02  0.36704804014E+02  0.11019801424E+03  0.12237093880E+03  0.17770000000E+01 0.  1.
         15    1    3    3    0    0 -0.33793402149E+02 -0.22381725092E+02  0.49013856230E+02  0.63627442809E+02  0.17770000000E+01 0. -1.
</event>
<event>
 7    1  0.4954109E-006  0.4717415E+03  0.7546771E-02  0.9465360E-01
        -11   -1    0    0    0    0  0.00000000000E+00  0.00000000000E+00  0.50000000000E+03  0.50000000000E+03  0.00000000000E+00 0.  1.
         11   -1    0    0    0    0 -0.00000000000E+00 -0.00000000000E+00 -0.50000000000E+03  0.50000000000E+03  0.00000000000E+00 0.  1.
         23    2    1    2    0    0 -0.10179079090E+03  0.27082740069E+02  0.44464002874E+03  0.46583977874E+03  0.90593070269E+02 0.  0.
        -11    1    1    2    0    0  0.50612258428E+02  0.32191780433E+02  0.19798567551E+02  0.63165613333E+02  0.00000000000E+00 0.  1.
         11    1    1    2    0    0  0.51178532472E+02 -0.59274520502E+02 -0.46443859629E+03  0.47099460792E+03  0.00000000000E+00 0.  1.
        -15    1    3    3    0    0 -0.11177178029E+03  0.25988143963E+01  0.37552424620E+03  0.39181794486E+03  0.17770000000E+01 0.  1.
         15    1    3    3    0    0  0.99809893918E+01  0.24483925673E+02  0.69115782545E+02  0.74021833883E+02  0.17770000000E+01 0. -1.
</event>
<event>
 7    1  0.4954109E-006  0.5118972E+03  0.7546771E-02  0.9373575E-01
        -11   -1    0    0    0    0  0.00000000000E+00  0.00000000000E+00  0.50000000000E+03  0.50000000000E+03  0.00000000000E+00 0.  1.
         11   -1    0    0    0    0 -0.00000000000E+00 -0.00000000000E+00 -0.50000000000E+03  0.50000000000E+03  0.00000000000E+00 0.  1.
         23    2    1    2    0    0 -0.14234101551E+02 -0.12949583597E+03  0.46145754579E+03  0.48810279244E+03  0.91266030036E+02 0.  0.
        -11    1    1    2    0    0  0.63912636408E+02  0.85348929084E+02 -0.10625378908E+03  0.15052950702E+03  0.00000000000E+00 0.  1.
         11    1    1    2    0    0 -0.49678534857E+02  0.44146906888E+02 -0.35520375671E+03  0.36136770054E+03  0.00000000000E+00 0.  1.
        -15    1    3    3    0    0 -0.12299403481E+02 -0.15790905467E+02  0.98220485633E+01  0.22366456770E+02  0.17770000000E+01 0. -1.
         15    1    3    3    0    0 -0.19346980698E+01 -0.11370493051E+03  0.45163549723E+03  0.46573633567E+03  0.17770000000E+01 0.  1.
</event>
<event>
 7    1  0.4954109E-006  0.4826203E+03  0.7546771E-02  0.9439560E-01
        -11   -1    0    0    0    0  0.00000000000E+00  0.00000000000E+00  0.50000000000E+03  0.50000000000E+03  0.00000000000E+00 0.  1.
         11   -1    0    0    0    0 -0.00000000000E+00 -0.00000000000E+00 -0.50000000000E+03  0.50000000000E+03  0.00000000000E+00 0. -1.
         23    2    1    2    0    0  0.15845458468E+03  0.59976163773E+02  0.44478635927E+03  0.48423934839E+03  0.89150689930E+02 0.  0.
        -11    1    1    2    0    0 -0.39428781389E+02 -0.10090804542E+02  0.10914333320E+02  0.42137581919E+02  0.00000000000E+00 0.  1.
         11    1    1    2    0    0 -0.11902580329E+03 -0.49885359231E+02 -0.45570069259E+03  0.47362306969E+03  0.00000000000E+00 0. -1.
        -15    1    3    3    0    0  0.16671171461E+03  0.46559450833E+02  0.42489965230E+03  0.45880655020E+03  0.17770000000E+01 0.  1.
         15    1    3    3    0    0 -0.82571299377E+01  0.13416712940E+02  0.19886706966E+02  0.25432798192E+02  0.17770000000E+01 0. -1.
</event>
<event>
 7    1  0.4954109E-006  0.4215539E+03  0.7546771E-02  0.9594776E-01
        -11   -1    0    0    0    0  0.00000000000E+00  0.00000000000E+00  0.50000000000E+03  0.50000000000E+03  0.00000000000E+00 0.  1.
         11   -1    0    0    0    0 -0.00000000000E+00 -0.00000000000E+00 -0.50000000000E+03  0.50000000000E+03  0.00000000000E+00 0. -1.
         23    2    1    2    0    0  0.11502237695E+03 -0.10213816973E+02  0.30436941069E+02  0.14847695811E+03  0.88229986123E+02 0.  0.
        -11    1    1    2    0    0 -0.62996369519E+02 -0.69922844546E+02  0.39983929629E+03  0.41076661210E+03  0.00000000000E+00 0.  1.
         11    1    1    2    0    0 -0.52026007431E+02  0.80136661519E+02 -0.43027623736E+03  0.44075642979E+03  0.00000000000E+00 0. -1.
        -15    1    3    3    0    0  0.26500191969E+02 -0.17474723400E+02 -0.27816334171E+02  0.42243725073E+02  0.17770000000E+01 0.  1.
         15    1    3    3    0    0  0.88522184980E+02  0.72609064275E+01  0.58253275241E+02  0.10623323303E+03  0.17770000000E+01 0. -1.
</event>
<event>
 7    1  0.4954109E-006  0.5316782E+03  0.7546771E-02  0.9331590E-01
        -11   -1    0    0    0    0  0.00000000000E+00  0.00000000000E+00  0.50000000000E+03  0.50000000000E+03  0.00000000000E+00 0.  1.
         11   -1    0    0    0    0 -0.00000000000E+00 -0.00000000000E+00 -0.50000000000E+03  0.50000000000E+03  0.00000000000E+00 0. -1.
         23    2    1    2    0    0 -0.23438954155E+03 -0.20882749225E+02 -0.21512948484E+03  0.33222388143E+03  0.93367369798E+02 0.  0.
        -11    1    1    2    0    0  0.21932492190E+03  0.70330881395E+02  0.40776891521E+03  0.46832183641E+03  0.00000000000E+00 0.  1.
         11    1    1    2    0    0  0.15064619643E+02 -0.49448132171E+02 -0.19263943037E+03  0.19945428217E+03  0.00000000000E+00 0. -1.
        -15    1    3    3    0    0 -0.21727754410E+03  0.98587918440E+01 -0.19157802061E+03  0.28984827524E+03  0.17770000000E+01 0.  1.
         15    1    3    3    0    0 -0.17111997444E+02 -0.30741541069E+02 -0.23551464226E+02  0.42375606190E+02  0.17770000000E+01 0. -1.
</event>
<event>
 7    1  0.4954109E-006  0.4631757E+03  0.7546771E-02  0.9486200E-01
        -11   -1    0    0    0    0  0.00000000000E+00  0.00000000000E+00  0.50000000000E+03  0.50000000000E+03  0.00000000000E+00 0. -1.
         11   -1    0    0    0    0 -0.00000000000E+00 -0.00000000000E+00 -0.50000000000E+03  0.50000000000E+03  0.00000000000E+00 0. -1.
         23    2    1    2    0    0 -0.50187361054E+02  0.72049636406E+02  0.42781675515E+03  0.44631608552E+03  0.91983427254E+02 0.  0.
        -11    1    1    2    0    0  0.60779519430E+02  0.38977817526E+02  0.33125656603E+02  0.79440099236E+02  0.00000000000E+00 0. -1.
         11    1    1    2    0    0 -0.10592158377E+02 -0.11102745393E+03 -0.46094241175E+03  0.47424381525E+03  0.00000000000E+00 0. -1.
        -15    1    3    3    0    0 -0.54544930132E+01  0.19116741284E+02  0.91639623328E+01  0.21962177168E+02  0.17770000000E+01 0.  1.
         15    1    3    3    0    0 -0.44732868041E+02  0.52932895122E+02  0.41865279282E+03  0.42435390835E+03  0.17770000000E+01 0. -1.
</event>
<event>
 7    1  0.4954109E-006  0.4694614E+03  0.7546771E-02  0.9470861E-01
        -11   -1    0    0    0    0  0.00000000000E+00  0.00000000000E+00  0.50000000000E+03  0.50000000000E+03  0.00000000000E+00 0.  1.
         11   -1    0    0    0    0 -0.00000000000E+00 -0.00000000000E+00 -0.50000000000E+03  0.50000000000E+03  0.00000000000E+00 0. -1.
         23    2    1    2    0    0 -0.27600784634E+02 -0.50401011560E+02  0.43019169877E+03  0.44308670090E+03  0.89212451770E+02 0.  0.
        -11    1    1    2    0    0 -0.39668779306E+02 -0.22510522160E+02  0.49360834663E+02  0.67207348245E+02  0.00000000000E+00 0.  1.
         11    1    1    2    0    0  0.67269563939E+02  0.72911533719E+02 -0.47955253343E+03  0.48970595085E+03  0.00000000000E+00 0. -1.
        -15    1    3    3    0    0 -0.13954939462E+02  0.18583779352E+02  0.37566001225E+02  0.44209267890E+02  0.17770000000E+01 0. -1.
         15    1    3    3    0    0 -0.13645845172E+02 -0.68984790911E+02  0.39262569754E+03  0.39887743301E+03  0.17770000000E+01 0.  1.
</event>
<event>
 7    1  0.4954109E-006  0.5021277E+03  0.7546771E-02  0.9395061E-01
        -11   -1    0    0    0    0  0.00000000000E+00  0.00000000000E+00  0.50000000000E+03  0.50000000000E+03  0.00000000000E+00 0.  1.
         11   -1    0    0    0    0 -0.00000000000E+00 -0.00000000000E+00 -0.50000000000E+03  0.50000000000E+03  0.00000000000E+00 0. -1.
         23    2    1    2    0    0  0.75470350124E+01 -0.97542097160E+02  0.47958592287E+03  0.49787225853E+03  0.91119207281E+02 0.  0.
        -11    1    1    2    0    0 -0.14716832584E+02  0.19911422426E+02 -0.10987359012E+02  0.27088225531E+02  0.00000000000E+00 0.  1.
         11    1    1    2    0    0  0.71697975712E+01  0.77630674734E+02 -0.46859856386E+03  0.47503951594E+03  0.00000000000E+00 0. -1.
        -15    1    3    3    0    0 -0.21837764012E+02 -0.32401519420E+02  0.56063115237E+02  0.68359176537E+02  0.17770000000E+01 0. -1.
         15    1    3    3    0    0  0.29384799025E+02 -0.65140577740E+02  0.42352280764E+03  0.42951308199E+03  0.17770000000E+01 0.  1.
</event>
<event>
 7    1  0.4954109E-006  0.4747283E+03  0.7546771E-02  0.9458203E-01
        -11   -1    0    0    0    0  0.00000000000E+00  0.00000000000E+00  0.50000000000E+03  0.50000000000E+03  0.00000000000E+00 0. -1.
         11   -1    0    0    0    0 -0.00000000000E+00 -0.00000000000E+00 -0.50000000000E+03  0.50000000000E+03  0.00000000000E+00 0.  1.
         23    2    1    2    0    0 -0.10949459196E+02  0.97749935804E+02  0.45511138638E+03  0.47536058758E+03  0.95741180294E+02 0.  0.
        -11    1    1    2    0    0 -0.58048571019E+02 -0.63032089404E+01 -0.32470647091E+01  0.58480000594E+02  0.00000000000E+00 0. -1.
         11    1    1    2    0    0  0.68998030215E+02 -0.91446726864E+02 -0.45186432168E+03  0.46615941182E+03  0.00000000000E+00 0.  1.
        -15    1    3    3    0    0 -0.44695133401E+02  0.29430628087E+02  0.26844203605E+03  0.27372997875E+03  0.17770000000E+01 0. -1.
         15    1    3    3    0    0  0.33745674206E+02  0.68319307718E+02  0.18666935033E+03  0.20163060883E+03  0.17770000000E+01 0.  1.
</event>
<event>
 7    1  0.4954109E-006  0.5219628E+03  0.7546771E-02  0.9351964E-01
        -11   -1    0    0    0    0  0.00000000000E+00  0.00000000000E+00  0.50000000000E+03  0.50000000000E+03  0.00000000000E+00 0.  1.
         11   -1    0    0    0    0 -0.00000000000E+00 -0.00000000000E+00 -0.50000000000E+03  0.50000000000E+03  0.00000000000E+00 0.  1.
         23    2    1    2    0    0 -0.53263399515E+02 -0.35580206638E+02  0.94704046730E+02  0.14429689122E+03  0.88032922905E+02 0.  0.
        -11    1    1    2    0    0 -0.49798778539E+02  0.41573525350E+02  0.37205271907E+03  0.37766586041E+03  0.00000000000E+00 0.  1.
         11    1    1    2    0    0  0.10306217805E+03 -0.59933187121E+01 -0.46675676580E+03  0.47803724837E+03  0.00000000000E+00 0.  1.
        -15    1    3    3    0    0 -0.15866805864E+02 -0.59955548597E+02  0.68844899656E+02  0.92677943835E+02  0.17770000000E+01 0.  1.
         15    1    3    3    0    0 -0.37396593650E+02  0.24375341959E+02  0.25859147074E+02  0.51618947380E+02  0.17770000000E+01 0. -1.
</event>
<event>
 7    1  0.4954109E-006  0.5284784E+03  0.7546771E-02  0.9338249E-01
        -11   -1    0    0    0    0  0.00000000000E+00  0.00000000000E+00  0.50000000000E+03  0.50000000000E+03  0.00000000000E+00 0. -1.
         11   -1    0    0    0    0 -0.00000000000E+00 -0.00000000000E+00 -0.50000000000E+03  0.50000000000E+03  0.00000000000E+00 0.  1.
         23    2    1    2    0    0 -0.21206326129E+03  0.17985560553E+03 -0.80449379360E+02  0.29712104557E+03  0.67007070146E+02 0.  0.
        -11    1    1    2    0    0  0.34341425319E+03 -0.17615188307E+03  0.27086850437E+03  0.47152156034E+03  0.00000000000E+00 0. -1.
         11    1    1    2    0    0 -0.13135099190E+03 -0.37037224594E+01 -0.19041912501E+03  0.23135739410E+03  0.00000000000E+00 0.  1.
        -15    1    3    3    0    0 -0.60734010015E+02  0.19207237653E+02 -0.31353563669E+02  0.71019304661E+02  0.17770000000E+01 0. -1.
         15    1    3    3    0    0 -0.15132925127E+03  0.16064836788E+03 -0.49095815691E+02  0.22610174091E+03  0.17770000000E+01 0.  1.
</event>
<event>
 7    1  0.4954109E-006  0.5248681E+03  0.7546771E-02  0.9345823E-01
        -11   -1    0    0    0    0  0.00000000000E+00  0.00000000000E+00  0.50000000000E+03  0.50000000000E+03  0.00000000000E+00 0.  1.
         11   -1    0    0    0    0 -0.00000000000E+00 -0.00000000000E+00 -0.50000000000E+03  0.50000000000E+03  0.00000000000E+00 0. -1.
         23    2    1    2    0    0  0.11580999652E+03 -0.22759386277E+00  0.25909130856E+03  0.30021045818E+03  0.97908150515E+02 0.  0.
        -11    1    1    2    0    0 -0.47752600363E+02 -0.80825161275E+02  0.20410300270E+03  0.22465763563E+03  0.00000000000E+00 0.  1.
         11    1    1    2    0    0 -0.68057396159E+02  0.81052755137E+02 -0.46319431126E+03  0.47513190618E+03  0.00000000000E+00 0. -1.
        -15    1    3    3    0    0  0.88943733877E+02  0.25820399102E+02  0.24182596601E+03  0.25896068499E+03  0.17770000000E+01 0.  1.
         15    1    3    3    0    0  0.26866262645E+02 -0.26047992965E+02  0.17265342553E+02  0.41249773193E+02  0.17770000000E+01 0. -1.
</event>
<event>
 7    1  0.4954109E-006  0.5351774E+03  0.7546771E-02  0.9324365E-01
        -11   -1    0    0    0    0  0.00000000000E+00  0.00000000000E+00  0.50000000000E+03  0.50000000000E+03  0.00000000000E+00 0.  1.
         11   -1    0    0    0    0 -0.00000000000E+00 -0.00000000000E+00 -0.50000000000E+03  0.50000000000E+03  0.00000000000E+00 0. -1.
         23    2    1    2    0    0 -0.14705414365E+03  0.54571875644E+02 -0.19110408506E+03  0.26388333150E+03  0.92253078757E+02 0.  0.
        -11    1    1    2    0    0  0.86369420527E+02 -0.38963209518E+02  0.45506285126E+03  0.46482255442E+03  0.00000000000E+00 0.  1.
         11    1    1    2    0    0  0.60684723125E+02 -0.15608666126E+02 -0.26395876620E+03  0.27129411408E+03  0.00000000000E+00 0. -1.
        -15    1    3    3    0    0 -0.82066382901E+01 -0.10177734126E+02 -0.62417992986E+02  0.63797325660E+02  0.17770000000E+01 0. -1.
         15    1    3    3    0    0 -0.13884750536E+03  0.64749609770E+02 -0.12868609207E+03  0.20008600584E+03  0.17770000000E+01 0.  1.
</event>
<event>
 7    1  0.4954109E-006  0.4075452E+03  0.7546771E-02  0.9634366E-01
        -11   -1    0    0    0    0  0.00000000000E+00  0.00000000000E+00  0.50000000000E+03  0.50000000000E+03  0.00000000000E+00 0. -1.
         11   -1    0    0    0    0 -0.00000000000E+00 -0.00000000000E+00 -0.50000000000E+03  0.50000000000E+03  0.00000000000E+00 0.  1.
         23    2    1    2    0    0  0.10935364245E+03 -0.10852531497E+02  0.96208856757E+02  0.17192727855E+03  0.90701975910E+02 0.  0.
        -11    1    1    2    0    0 -0.11537460711E+03 -0.17617034867E+03  0.31349586613E+03  0.37765983345E+03  0.00000000000E+00 0. -1.
         11    1    1    2    0    0  0.60209646596E+01  0.18702288017E+03 -0.40970472289E+03  0.45041288800E+03  0.00000000000E+00 0.  1.
        -15    1    3    3    0    0  0.10323261554E+03  0.16181889537E+02  0.99072207786E+02  0.14400446710E+03  0.17770000000E+01 0. -1.
         15    1    3    3    0    0  0.61210269087E+01 -0.27034421034E+02 -0.28633510289E+01  0.27922811449E+02  0.17770000000E+01 0.  1.
</event>
<event>
 7    1  0.4954109E-006  0.5174920E+03  0.7546771E-02  0.9361499E-01
        -11   -1    0    0    0    0  0.00000000000E+00  0.00000000000E+00  0.50000000000E+03  0.50000000000E+03  0.00000000000E+00 0.  1.
         11   -1    0    0    0    0 -0.00000000000E+00 -0.00000000000E+00 -0.50000000000E+03  0.50000000000E+03  0.00000000000E+00 0. -1.
         23    2    1    2    0    0  0.32505399571E+02 -0.38782937676E+01  0.14530819105E+03  0.17525037707E+03  0.92339493789E+02 0.  0.
        -11    1    1    2    0    0  0.47754577563E+02  0.12645456693E+03  0.31441707878E+03  0.34224166404E+03  0.00000000000E+00 0.  1.
         11    1    1    2    0    0 -0.80259977134E+02 -0.12257627316E+03 -0.45972526983E+03  0.48250795889E+03  0.00000000000E+00 0. -1.
        -15    1    3    3    0    0 -0.16715905386E+02 -0.12284017181E+01 -0.45708280111E+01  0.17463695524E+02  0.17770000000E+01 0. -1.
         15    1    3    3    0    0  0.49221304957E+02 -0.26498920495E+01  0.14987901906E+03  0.15778668154E+03  0.17770000000E+01 0.  1.
</event>
<event>
 7    1  0.4954109E-006  0.5104562E+03  0.7546771E-02  0.9376712E-01
        -11   -1    0    0    0    0  0.00000000000E+00  0.00000000000E+00  0.50000000000E+03  0.50000000000E+03  0.00000000000E+00 0.  1.
         11   -1    0    0    0    0 -0.00000000000E+00 -0.00000000000E+00 -0.50000000000E+03  0.50000000000E+03  0.00000000000E+00 0. -1.
         23    2    1    2    0    0 -0.36210038174E+02  0.77426187276E+02  0.39283404337E+03  0.41197018540E+03  0.89971477083E+02 0.  0.
        -11    1    1    2    0    0 -0.12103530643E+01  0.64902136318E+02  0.74065818824E+02  0.98486028305E+02  0.00000000000E+00 0.  1.
         11    1    1    2    0    0  0.37420391238E+02 -0.14232832359E+03 -0.46689986220E+03  0.48954378629E+03  0.00000000000E+00 0. -1.
        -15    1    3    3    0    0  0.12839577345E+02  0.66726466744E+02  0.16108913782E+03  0.17484319879E+03  0.17770000000E+01 0. -1.
         15    1    3    3    0    0 -0.49049615518E+02  0.10699720532E+02  0.23174490555E+03  0.23712698661E+03  0.17770000000E+01 0.  1.
</event>
<event>
 7    1  0.4954109E-006  0.4979703E+03  0.7546771E-02  0.9404363E-01
        -11   -1    0    0    0    0  0.00000000000E+00  0.00000000000E+00  0.50000000000E+03  0.50000000000E+03  0.00000000000E+00 0.  1.
         11   -1    0    0    0    0 -0.00000000000E+00 -0.00000000000E+00 -0.50000000000E+03  0.50000000000E+03  0.00000000000E+00 0. -1.
         23    2    1    2    0    0 -0.27360646632E+02  0.11504625784E+03  0.47373682745E+03  0.49576818630E+03  0.85879371446E+02 0.  0.
        -11    1    1    2    0    0  0.99733569198E+01 -0.14297475731E+01  0.54486342512E+01  0.11454241205E+02  0.00000000000E+00 0.  1.
         11    1    1    2    0    0  0.17387289713E+02 -0.11361651027E+03 -0.47918546170E+03  0.49277757249E+03  0.00000000000E+00 0. -1.
        -15    1    3    3    0    0 -0.23962040226E+02 -0.59190244485E+01  0.94608328746E+02  0.97791143869E+02  0.17770000000E+01 0. -1.
         15    1    3    3    0    0 -0.33986064063E+01  0.12096528229E+03  0.37912849870E+03  0.39797704243E+03  0.17770000000E+01 0.  1.
</event>
<event>
 7    1  0.4954109E-006  0.5073752E+03  0.7546771E-02  0.9383457E-01
        -11   -1    0    0    0    0  0.00000000000E+00  0.00000000000E+00  0.50000000000E+03  0.50000000000E+03  0.00000000000E+00 0.  1.
         11   -1    0    0    0    0 -0.00000000000E+00 -0.00000000000E+00 -0.50000000000E+03  0.50000000000E+03  0.00000000000E+00 0. -1.
         23    2    1    2    0    0  0.17732055294E+03  0.53746616254E+02  0.44741712064E+03  0.49262480232E+03  0.90365030665E+02 0.  0.
        -11    1    1    2    0    0 -0.70900586135E+02 -0.83159428684E+02 -0.12224668238E+03  0.16397144583E+03  0.00000000000E+00 0.  1.
         11    1    1    2    0    0 -0.10641996680E+03  0.29412812430E+02 -0.32517043826E+03  0.34340375185E+03  0.00000000000E+00 0. -1.
        -15    1    3    3    0    0  0.17028873474E+03  0.67752624678E+02  0.43657108808E+03  0.47348299231E+03  0.17770000000E+01 0.  1.
         15    1    3    3    0    0  0.70318182032E+01 -0.14006008424E+02  0.10846032555E+02  0.19141810008E+02  0.17770000000E+01 0. -1.
</event>
<event>
 7    1  0.4954109E-006  0.3895468E+03  0.7546771E-02  0.9687801E-01
        -11   -1    0    0    0    0  0.00000000000E+00  0.00000000000E+00  0.50000000000E+03  0.50000000000E+03  0.00000000000E+00 0.  1.
         11   -1    0    0    0    0 -0.00000000000E+00 -0.00000000000E+00 -0.50000000000E+03  0.50000000000E+03  0.00000000000E+00 0.  1.
         23    2    1    2    0    0  0.15061922589E+03  0.10471566060E+03  0.27909973493E+03  0.34619066424E+03  0.91103200775E+02 0.  0.
        -11    1    1    2    0    0 -0.13622593951E+03  0.83425099312E+02  0.12826643950E+03  0.20486467068E+03  0.00000000000E+00 0.  1.
         11    1    1    2    0    0 -0.14393286376E+02 -0.18814075991E+03 -0.40736617443E+03  0.44894466508E+03  0.00000000000E+00 0.  1.
        -15    1    3    3    0    0  0.89023886997E+02  0.76782559601E+02  0.98665124473E+02  0.15348869154E+03  0.17770000000E+01 0. -1.
         15    1    3    3    0    0  0.61595338892E+02  0.27933100995E+02  0.18043461045E+03  0.19270197270E+03  0.17770000000E+01 0.  1.
</event>
<event>
 7    1  0.4954109E-006  0.3289252E+03  0.7546771E-02  0.9893398E-01
        -11   -1    0    0    0    0  0.00000000000E+00  0.00000000000E+00  0.50000000000E+03  0.50000000000E+03  0.00000000000E+00 0.  1.
         11   -1    0    0    0    0 -0.00000000000E+00 -0.00000000000E+00 -0.50000000000E+03  0.50000000000E+03  0.00000000000E+00 0. -1.
         23    2    1    2    0    0 -0.89883707037E+02 -0.27723943423E+03 -0.32818552504E+02  0.30766111118E+03  0.92938244341E+02 0.  0.
        -11    1    1    2    0    0  0.36972814005E+02  0.23993036487E+03  0.31790334878E+03  0.39999513513E+03  0.00000000000E+00 0.  1.
         11    1    1    2    0    0  0.52910893032E+02  0.37309069359E+02 -0.28508479627E+03  0.29234375369E+03  0.00000000000E+00 0. -1.
        -15    1    3    3    0    0 -0.81887493361E+01 -0.16459865560E+03 -0.56205118380E+00  0.16481276246E+03  0.17770000000E+01 0.  1.
         15    1    3    3    0    0 -0.81694957701E+02 -0.11264077863E+03 -0.32256501320E+02  0.14284834872E+03  0.17770000000E+01 0. -1.
</event>
<event>
 7    1  0.4954109E-006  0.3675478E+03  0.7546771E-02  0.9757467E-01
        -11   -1    0    0    0    0  0.00000000000E+00  0.00000000000E+00  0.50000000000E+03  0.50000000000E+03  0.00000000000E+00 0.  1.
         11   -1    0    0    0    0 -0.00000000000E+00 -0.00000000000E+00 -0.50000000000E+03  0.50000000000E+03  0.00000000000E+00 0. -1.
         23    2    1    2    0    0 -0.15810629230E+03 -0.10365086632E+03  0.23535876301E+03  0.31596471399E+03  0.93267633232E+02 0.  0.
        -11    1    1    2    0    0  0.13353499857E+03  0.22888649545E+01  0.19770581302E+03  0.23858839714E+03  0.00000000000E+00 0.  1.
         11    1    1    2    0    0  0.24571293736E+02  0.10136200137E+03 -0.43306457603E+03  0.44544688887E+03  0.00000000000E+00 0. -1.
        -15    1    3    3    0    0 -0.12342460281E+03 -0.10466090899E+03  0.13831318828E+03  0.21288784426E+03  0.17770000000E+01 0. -1.
         15    1    3    3    0    0 -0.34681689492E+02  0.10100426682E+01  0.97045574723E+02  0.10307686974E+03  0.17770000000E+01 0.  1.
</event>
<event>
 7    1  0.4954109E-006  0.5226492E+03  0.7546771E-02  0.9350509E-01
        -11   -1    0    0    0    0  0.00000000000E+00  0.00000000000E+00  0.50000000000E+03  0.50000000000E+03  0.00000000000E+00 0.  1.
         11   -1    0    0    0    0 -0.00000000000E+00 -0.00000000000E+00 -0.50000000000E+03  0.50000000000E+03  0.00000000000E+00 0. -1.
         23    2    1    2    0    0  0.35079555599E+00 -0.87791527716E+02  0.29723195142E+03  0.33443111002E+03  0.12565770573E+03 0.  0.
        -11    1    1    2    0    0  0.72949009432E+02  0.29964620419E+02  0.17089941764E+03  0.18821808469E+03  0.00000000000E+00 0.  1.
         11    1    1    2    0    0 -0.73299804988E+02  0.57826907297E+02 -0.46813136906E+03  0.47735080529E+03  0.00000000000E+00 0. -1.
        -15    1    3    3    0    0 -0.31550530428E+02 -0.24850543447E+02  0.14051927808E+02  0.42586381438E+02  0.17770000000E+01 0.  1.
         15    1    3    3    0    0  0.31901325984E+02 -0.62940984269E+02  0.28318002361E+03  0.29184472858E+03  0.17770000000E+01 0. -1.
</event>
<event>
 7    1  0.4954109E-006  0.5087803E+03  0.7546771E-02  0.9380375E-01
        -11   -1    0    0    0    0  0.00000000000E+00  0.00000000000E+00  0.50000000000E+03  0.50000000000E+03  0.00000000000E+00 0.  1.
         11   -1    0    0    0    0 -0.00000000000E+00 -0.00000000000E+00 -0.50000000000E+03  0.50000000000E+03  0.00000000000E+00 0. -1.
         23    2    1    2    0    0  0.10248446686E+03 -0.22072043672E+03 -0.25213697564E+03  0.36183225931E+03  0.90160702415E+02 0.  0.
        -11    1    1    2    0    0 -0.18370355082E+03  0.28034658787E+03  0.35910385312E+03  0.49121968735E+03  0.00000000000E+00 0.  1.
         11    1    1    2    0    0  0.81219083959E+02 -0.59626151150E+02 -0.10696687749E+03  0.14694805334E+03  0.00000000000E+00 0. -1.
        -15    1    3    3    0    0  0.69326604409E+02 -0.19056489358E+03 -0.24220363569E+03  0.31589067035E+03  0.17770000000E+01 0.  1.
         15    1    3    3    0    0  0.33157862455E+02 -0.30155543138E+02 -0.99333399467E+01  0.45941588959E+02  0.17770000000E+01 0. -1.
</event>
<event>
 7    1  0.4954109E-006  0.4670776E+03  0.7546771E-02  0.9476648E-01
        -11   -1    0    0    0    0  0.00000000000E+00  0.00000000000E+00  0.50000000000E+03  0.50000000000E+03  0.00000000000E+00 0.  1.
         11   -1    0    0    0    0 -0.00000000000E+00 -0.00000000000E+00 -0.50000000000E+03  0.50000000000E+03  0.00000000000E+00 0. -1.
         23    2    1    2    0    0 -0.19598158732E+02 -0.89957535859E+02  0.41729809912E+03  0.44338037264E+03  0.11820323696E+03 0.  0.
        -11    1    1    2    0    0  0.57785021095E+02 -0.23804747337E+02  0.46277104574E+02  0.77764677498E+02  0.00000000000E+00 0.  1.
         11    1    1    2    0    0 -0.38186862362E+02  0.11376228320E+03 -0.46357520369E+03  0.47885494987E+03  0.00000000000E+00 0. -1.
        -15    1    3    3    0    0 -0.37178538712E+02 -0.84415100346E+02  0.41451029067E+03  0.42465290733E+03  0.17770000000E+01 0.  1.
         15    1    3    3    0    0  0.17580379980E+02 -0.55424355128E+01  0.27878084469E+01  0.18727465301E+02  0.17770000000E+01 0. -1.
</event>
<event>
 7    1  0.4954109E-006  0.4742521E+03  0.7546771E-02  0.9459340E-01
        -11   -1    0    0    0    0  0.00000000000E+00  0.00000000000E+00  0.50000000000E+03  0.50000000000E+03  0.00000000000E+00 0. -1.
         11   -1    0    0    0    0 -0.00000000000E+00 -0.00000000000E+00 -0.50000000000E+03  0.50000000000E+03  0.00000000000E+00 0.  1.
         23    2    1    2    0    0 -0.11517972633E+03  0.12237223743E+02  0.42348083630E+03  0.44874063671E+03  0.92822525908E+02 0.  0.
        -11    1    1    2    0    0  0.24658953256E+01 -0.18350210567E+02  0.55838350257E+02  0.58827988466E+02  0.00000000000E+00 0. -1.
         11    1    1    2    0    0  0.11271383100E+03  0.61129868245E+01 -0.47931918656E+03  0.49243137482E+03  0.00000000000E+00 0.  1.
        -15    1    3    3    0    0 -0.14205198539E+02 -0.10122246201E+02  0.58375546615E+01  0.18479239896E+02  0.17770000000E+01 0.  1.
         15    1    3    3    0    0 -0.10097452779E+03  0.22359469944E+02  0.41764328164E+03  0.43026139681E+03  0.17770000000E+01 0. -1.
</event>
<event>
 7    1  0.4954109E-006  0.5136703E+03  0.7546771E-02  0.9369730E-01
        -11   -1    0    0    0    0  0.00000000000E+00  0.00000000000E+00  0.50000000000E+03  0.50000000000E+03  0.00000000000E+00 0.  1.
         11   -1    0    0    0    0 -0.00000000000E+00 -0.00000000000E+00 -0.50000000000E+03  0.50000000000E+03  0.00000000000E+00 0. -1.
         23    2    1    2    0    0  0.26217756834E+02  0.52695045167E+02  0.34764399707E+03  0.36381412468E+03  0.89667329961E+02 0.  0.
        -11    1    1    2    0    0 -0.63067223349E+02  0.50666535552E+02  0.12614399185E+03  0.14985619496E+03  0.00000000000E+00 0.  1.
         11    1    1    2    0    0  0.36849466515E+02 -0.10336158072E+03 -0.47378798892E+03  0.48632968036E+03  0.00000000000E+00 0. -1.
        -15    1    3    3    0    0  0.38536366716E+02  0.45101563195E+02  0.34359442676E+03  0.34868250657E+03  0.17770000000E+01 0. -1.
         15    1    3    3    0    0 -0.12318609883E+02  0.75934819726E+01  0.40495703113E+01  0.15131618110E+02  0.17770000000E+01 0.  1.
</event>
<event>
 7    1  0.4954109E-006  0.5241851E+03  0.7546771E-02  0.9347263E-01
        -11   -1    0    0    0    0  0.00000000000E+00  0.00000000000E+00  0.50000000000E+03  0.50000000000E+03  0.00000000000E+00 0.  1.
         11   -1    0    0    0    0 -0.00000000000E+00 -0.00000000000E+00 -0.50000000000E+03  0.50000000000E+03  0.00000000000E+00 0.  1.
         23    2    1    2    0    0  0.44505383355E+02 -0.63730676073E+02  0.30746919040E+03  0.33019091887E+03  0.91904361362E+02 0.  0.
        -11    1    1    2    0    0 -0.11050388763E+03  0.20486683037E+00  0.15944461551E+03  0.19399416632E+03  0.00000000000E+00 0.  1.
         11    1    1    2    0    0  0.65998504279E+02  0.63525809243E+02 -0.46691380591E+03  0.47581491481E+03  0.00000000000E+00 0.  1.
        -15    1    3    3    0    0  0.56358060535E+02 -0.57827248148E+02  0.30631129838E+03  0.31678066680E+03  0.17770000000E+01 0.  1.
         15    1    3    3    0    0 -0.11852677180E+02 -0.59034279256E+01  0.11578920228E+01  0.13410252068E+02  0.17770000000E+01 0. -1.
</event>
<event>
 7    1  0.4954109E-006  0.3703983E+03  0.7546771E-02  0.9748150E-01
        -11   -1    0    0    0    0  0.00000000000E+00  0.00000000000E+00  0.50000000000E+03  0.50000000000E+03  0.00000000000E+00 0.  1.
         11   -1    0    0    0    0 -0.00000000000E+00 -0.00000000000E+00 -0.50000000000E+03  0.50000000000E+03  0.00000000000E+00 0.  1.
         23    2    1    2    0    0  0.13841872463E+02  0.93492929125E+02  0.28639663478E+03  0.31535522591E+03  0.92159431779E+02 0.  0.
        -11    1    1    2    0    0  0.15489197569E+03 -0.11742941514E+03  0.13059512590E+03  0.23417147261E+03  0.00000000000E+00 0.  1.
         11    1    1    2    0    0 -0.16873384815E+03  0.23936486018E+02 -0.41699176068E+03  0.45047330148E+03  0.00000000000E+00 0.  1.
        -15    1    3    3    0    0  0.44667908516E+02  0.29518011634E+02  0.17690973486E+03  0.18484249263E+03  0.17770000000E+01 0.  1.
         15    1    3    3    0    0 -0.30826036053E+02  0.63974917491E+02  0.10948689992E+03  0.13051273328E+03  0.17770000000E+01 0. -1.
</event>
<event>
 7    1  0.4954109E-006  0.5248575E+03  0.7546771E-02  0.9345845E-01
        -11   -1    0    0    0    0  0.00000000000E+00  0.00000000000E+00  0.50000000000E+03  0.50000000000E+03  0.00000000000E+00 0.  1.
         11   -1    0    0    0    0 -0.00000000000E+00 -0.00000000000E+00 -0.50000000000E+03  0.50000000000E+03  0.00000000000E+00 0. -1.
         23    2    1    2    0    0  0.73318335324E+02  0.20884224832E+02  0.21330182771E+03  0.24430163238E+03  0.91508954421E+02 0.  0.
        -11    1    1    2    0    0 -0.42128752505E+02 -0.11899396129E+03  0.25055381721E+03  0.28055589448E+03  0.00000000000E+00 0.  1.
         11    1    1    2    0    0 -0.31189582819E+02  0.98109736457E+02 -0.46385564491E+03  0.47514247314E+03  0.00000000000E+00 0. -1.
        -15    1    3    3    0    0 -0.20073500056E+02  0.15681645700E+02  0.44146573835E+02  0.50999383592E+02  0.17770000000E+01 0.  1.
         15    1    3    3    0    0  0.93391835380E+02  0.52025791318E+01  0.16915525387E+03  0.19330224879E+03  0.17770000000E+01 0. -1.
</event>
<event>
 7    1  0.4954109E-006  0.5175637E+03  0.7546771E-02  0.9361345E-01
        -11   -1    0    0    0    0  0.00000000000E+00  0.00000000000E+00  0.50000000000E+03  0.50000000000E+03  0.00000000000E+00 0.  1.
         11   -1    0    0    0    0 -0.00000000000E+00 -0.00000000000E+00 -0.50000000000E+03  0.50000000000E+03  0.00000000000E+00 0. -1.
         23    2    1    2    0    0 -0.95320367959E+02  0.27111016231E+03 -0.26664561655E+03  0.40273002286E+03  0.92221981299E+02 0.  0.
        -11    1    1    2    0    0  0.14911405084E+03 -0.27393611929E+03  0.36806078831E+03  0.48243625642E+03  0.00000000000E+00 0.  1.
         11    1    1    2    0    0 -0.53793682881E+02  0.28259569810E+01 -0.10141517177E+03  0.11483372072E+03  0.00000000000E+00 0. -1.
        -15    1    3    3    0    0 -0.47611419110E+02  0.22781842948E+03 -0.23566146979E+03  0.33122133101E+03  0.17770000000E+01 0.  1.
         15    1    3    3    0    0 -0.47708948849E+02  0.43291732826E+02 -0.30984146757E+02  0.71508691854E+02  0.17770000000E+01 0. -1.
</event>
<event>
 7    1  0.4954109E-006  0.5373409E+03  0.7546771E-02  0.9319927E-01
        -11   -1    0    0    0    0  0.00000000000E+00  0.00000000000E+00  0.50000000000E+03  0.50000000000E+03  0.00000000000E+00 0.  1.
         11   -1    0    0    0    0 -0.00000000000E+00 -0.00000000000E+00 -0.50000000000E+03  0.50000000000E+03  0.00000000000E+00 0.  1.
         23    2    1    2    0    0 -0.22370446547E+02 -0.63606995866E+02 -0.25143991505E+03  0.27575847397E+03  0.90963829531E+02 0.  0.
        -11    1    1    2    0    0  0.22980343739E+03  0.97643831533E+01  0.40143297654E+03  0.46265905122E+03  0.00000000000E+00 0.  1.
         11    1    1    2    0    0 -0.20743299084E+03  0.53842612713E+02 -0.14999306150E+03  0.26158247482E+03  0.00000000000E+00 0.  1.
        -15    1    3    3    0    0 -0.53631821496E+02 -0.15577144178E+02 -0.12649968638E+03  0.13829080983E+03  0.17770000000E+01 0.  1.
         15    1    3    3    0    0  0.31261374949E+02 -0.48029851688E+02 -0.12494022866E+03  0.13746766414E+03  0.17770000000E+01 0. -1.
</event>
<event>
 7    1  0.4954109E-006  0.5405445E+03  0.7546771E-02  0.9313396E-01
        -11   -1    0    0    0    0  0.00000000000E+00  0.00000000000E+00  0.50000000000E+03  0.50000000000E+03  0.00000000000E+00 0.  1.
         11   -1    0    0    0    0 -0.00000000000E+00 -0.00000000000E+00 -0.50000000000E+03  0.50000000000E+03  0.00000000000E+00 0.  1.
         23    2    1    2    0    0  0.11623119891E+03 -0.67382334972E+02  0.13194397802E+03  0.21123006586E+03  0.95701915962E+02 0.  0.
        -11    1    1    2    0    0 -0.72074763884E+02  0.61798755352E+01  0.32127098812E+03  0.32931445498E+03  0.00000000000E+00 0.  1.
         11    1    1    2    0    0 -0.44156435030E+02  0.61202459437E+02 -0.45321496614E+03  0.45945547916E+03  0.00000000000E+00 0.  1.
        -15    1    3    3    0    0 -0.35517790921E+01 -0.38761585961E+02  0.16151965098E+02  0.42179608657E+02  0.17770000000E+01 0. -1.
         15    1    3    3    0    0  0.11978297801E+03 -0.28620749011E+02  0.11579201292E+03  0.16905045720E+03  0.17770000000E+01 0.  1.
</event>
<event>
 7    1  0.4954109E-006  0.4846709E+03  0.7546771E-02  0.9434778E-01
        -11   -1    0    0    0    0  0.00000000000E+00  0.00000000000E+00  0.50000000000E+03  0.50000000000E+03  0.00000000000E+00 0. -1.
         11   -1    0    0    0    0 -0.00000000000E+00 -0.00000000000E+00 -0.50000000000E+03  0.50000000000E+03  0.00000000000E+00 0. -1.
         23    2    1    2    0    0 -0.19754895352E+03 -0.19428213129E+03 -0.36878683092E+03  0.47001051926E+03  0.90194378838E+02 0.  0.
        -11    1    1    2    0    0  0.22650900694E+03  0.21760483737E+03  0.37820931655E+03  0.49163043294E+03  0.00000000000E+00 0. -1.
         11    1    1    2    0    0 -0.28960053417E+02 -0.23322706084E+02 -0.94224856234E+01  0.38359047803E+02  0.00000000000E+00 0. -1.
        -15    1    3    3    0    0 -0.98286503360E+02 -0.46973464285E+02 -0.18291171911E+03  0.21290044107E+03  0.17770000000E+01 0.  1.
         15    1    3    3    0    0 -0.99262450161E+02 -0.14730866700E+03 -0.18587511181E+03  0.25711007819E+03  0.17770000000E+01 0. -1.
</event>
<event>
 7    1  0.4954109E-006  0.5322719E+03  0.7546771E-02  0.9330360E-01
        -11   -1    0    0    0    0  0.00000000000E+00  0.00000000000E+00  0.50000000000E+03  0.50000000000E+03  0.00000000000E+00 0.  1.
         11   -1    0    0    0    0 -0.00000000000E+00 -0.00000000000E+00 -0.50000000000E+03  0.50000000000E+03  0.00000000000E+00 0. -1.
         23    2    1    2    0    0 -0.11727512835E+02  0.10344505204E+03 -0.64694177625E+02  0.15243660651E+03  0.90626536041E+02 0.  0.
        -11    1    1    2    0    0  0.92785120602E+02 -0.15159398319E+03  0.43264278664E+03  0.46772812100E+03  0.00000000000E+00 0.  1.
         11    1    1    2    0    0 -0.81057607767E+02  0.48148931141E+02 -0.36794860902E+03  0.37983527249E+03  0.00000000000E+00 0. -1.
        -15    1    3    3    0    0 -0.10785783097E+02  0.25811836707E+02  0.22301934772E+02  0.35820637275E+02  0.17770000000E+01 0.  1.
         15    1    3    3    0    0 -0.94172973829E+00  0.77633215338E+02 -0.86996112397E+02  0.11661596923E+03  0.17770000000E+01 0. -1.
</event>
<event>
 7    1  0.4954109E-006  0.5151137E+03  0.7546771E-02  0.9366613E-01
        -11   -1    0    0    0    0  0.00000000000E+00  0.00000000000E+00  0.50000000000E+03  0.50000000000E+03  0.00000000000E+00 0. -1.
         11   -1    0    0    0    0 -0.00000000000E+00 -0.00000000000E+00 -0.50000000000E+03  0.50000000000E+03  0.00000000000E+00 0.  1.
         23    2    1    2    0    0 -0.29462626332E+02  0.10242444490E+03  0.46398846932E+03  0.48488634654E+03  0.92036167551E+02 0.  0.
        -11    1    1    2    0    0  0.85969979024E+02 -0.11691223778E+02 -0.85459331723E+02  0.12178185163E+03  0.00000000000E+00 0. -1.
         11    1    1    2    0    0 -0.56507352692E+02 -0.90733221122E+02 -0.37852913760E+03  0.39333180183E+03  0.00000000000E+00 0.  1.
        -15    1    3    3    0    0 -0.44117552721E+02  0.11217608144E+03  0.36685868733E+03  0.38615836894E+03  0.17770000000E+01 0. -1.
         15    1    3    3    0    0  0.14654926389E+02 -0.97516365386E+01  0.97129781992E+02  0.98727977602E+02  0.17770000000E+01 0.  1.
</event>
<event>
 7    1  0.4954109E-006  0.4407606E+03  0.7546771E-02  0.9543086E-01
        -11   -1    0    0    0    0  0.00000000000E+00  0.00000000000E+00  0.50000000000E+03  0.50000000000E+03  0.00000000000E+00 0. -1.
         11   -1    0    0    0    0 -0.00000000000E+00 -0.00000000000E+00 -0.50000000000E+03  0.50000000000E+03  0.00000000000E+00 0. -1.
         23    2    1    2    0    0 -0.15215120519E+01  0.30551344821E+02  0.62849612932E+02  0.11571191340E+03  0.92214279741E+02 0.  0.
        -11    1    1    2    0    0 -0.10805496692E+03 -0.44122612974E+03 -0.67298734094E+02  0.45922270529E+03  0.00000000000E+00 0. -1.
         11    1    1    2    0    0  0.10957647897E+03  0.41067478492E+03  0.44491211623E+01  0.42506538131E+03  0.00000000000E+00 0. -1.
        -15    1    3    3    0    0  0.18925340749E+02 -0.18826969717E+01 -0.17979705067E+02  0.26232434002E+02  0.17770000000E+01 0. -1.
         15    1    3    3    0    0 -0.20446852801E+02  0.32434041793E+02  0.80829317999E+02  0.89479479400E+02  0.17770000000E+01 0.  1.
</event>
<event>
 6    1  0.4954109E-006  0.4735773E+03  0.7546771E-02  0.9460954E-01
        -11   -1    0    0    0    0  0.00000000000E+00  0.00000000000E+00  0.50000000000E+03  0.50000000000E+03  0.00000000000E+00 0.  1.
         11   -1    0    0    0    0 -0.00000000000E+00 -0.00000000000E+00 -0.50000000000E+03  0.50000000000E+03  0.00000000000E+00 0.  1.
        -11    1    1    2    0    0  0.13767497556E+03 -0.99872626311E+02  0.45484699965E+03  0.48560759206E+03  0.00000000000E+00 0.  1.
         11    1    1    2    0    0 -0.69227630670E+01 -0.93797105939E+01 -0.70178845525E+02  0.71140522760E+02  0.00000000000E+00 0.  1.
        -15    1    1    2    0    0 -0.68263989897E+02 -0.22944162545E+02 -0.10032250859E+03  0.12350777454E+03  0.17770000000E+01 0. -1.
         15    1    1    2    0    0 -0.62488222592E+02  0.13219649945E+03 -0.28434564553E+03  0.31974411064E+03  0.17770000000E+01 0.  1.
</event>
<event>
 7    1  0.4954109E-006  0.5082482E+03  0.7546771E-02  0.9381541E-01
        -11   -1    0    0    0    0  0.00000000000E+00  0.00000000000E+00  0.50000000000E+03  0.50000000000E+03  0.00000000000E+00 0. -1.
         11   -1    0    0    0    0 -0.00000000000E+00 -0.00000000000E+00 -0.50000000000E+03  0.50000000000E+03  0.00000000000E+00 0. -1.
         23    2    1    2    0    0  0.41249738628E+02  0.50911871970E+01  0.48153572555E+03  0.49175179072E+03  0.90640540422E+02 0.  0.
        -11    1    1    2    0    0  0.59026309982E+02  0.42831943208E+01 -0.13564371984E+03  0.14799212734E+03  0.00000000000E+00 0. -1.
         11    1    1    2    0    0 -0.10027604861E+03 -0.93743815178E+01 -0.34589200572E+03  0.36025608194E+03  0.00000000000E+00 0. -1.
        -15    1    3    3    0    0  0.62618536339E+02  0.23547633509E+02  0.39716499309E+03  0.40276390305E+03  0.17770000000E+01 0. -1.
         15    1    3    3    0    0 -0.21368797711E+02 -0.18456446312E+02  0.84370732468E+02  0.88987887672E+02  0.17770000000E+01 0.  1.
</event>
<event>
 6    1  0.4954109E-006  0.4697743E+03  0.7546771E-02  0.9470104E-01
        -11   -1    0    0    0    0  0.00000000000E+00  0.00000000000E+00  0.50000000000E+03  0.50000000000E+03  0.00000000000E+00 0.  1.
         11   -1    0    0    0    0 -0.00000000000E+00 -0.00000000000E+00 -0.50000000000E+03  0.50000000000E+03  0.00000000000E+00 0.  1.
        -11    1    1    2    0    0 -0.29291486948E+03  0.12664938112E+02 -0.45019658929E+02  0.29662483225E+03  0.00000000000E+00 0.  1.
         11    1    1    2    0    0 -0.29962106450E+02 -0.16974472794E+02 -0.18056633919E+03  0.18382073713E+03  0.00000000000E+00 0.  1.
        -15    1    1    2    0    0  0.30749586629E+03  0.78959357999E+02  0.28206152390E+03  0.42467652278E+03  0.17770000000E+01 0.  1.
         15    1    1    2    0    0  0.15381109635E+02 -0.74649823316E+02 -0.56475525784E+02  0.94877907841E+02  0.17770000000E+01 0. -1.
</event>
<event>
 7    1  0.4954109E-006  0.4659898E+03  0.7546771E-02  0.9479301E-01
        -11   -1    0    0    0    0  0.00000000000E+00  0.00000000000E+00  0.50000000000E+03  0.50000000000E+03  0.00000000000E+00 0. -1.
         11   -1    0    0    0    0 -0.00000000000E+00 -0.00000000000E+00 -0.50000000000E+03  0.50000000000E+03  0.00000000000E+00 0.  1.
         23    2    1    2    0    0  0.19203575481E+03 -0.72248558849E+02  0.41426650039E+03  0.47091495904E+03  0.89702730853E+02 0.  0.
        -11    1    1    2    0    0 -0.70655947021E+02  0.78201642545E+01  0.19793460678E+02  0.73791591012E+02  0.00000000000E+00 0. -1.
         11    1    1    2    0    0 -0.12137980779E+03  0.64428394594E+02 -0.43405996106E+03  0.45529344995E+03  0.00000000000E+00 0.  1.
        -15    1    3    3    0    0  0.55010364092E+01 -0.30213951008E+02  0.81607681836E+02  0.87213047767E+02  0.17770000000E+01 0.  1.
         15    1    3    3    0    0  0.18653471840E+03 -0.42034607841E+02  0.33265881855E+03  0.38370191127E+03  0.17770000000E+01 0. -1.
</event>
<event>
 7    1  0.4954109E-006  0.5148232E+03  0.7546771E-02  0.9367239E-01
        -11   -1    0    0    0    0  0.00000000000E+00  0.00000000000E+00  0.50000000000E+03  0.50000000000E+03  0.00000000000E+00 0.  1.
         11   -1    0    0    0    0 -0.00000000000E+00 -0.00000000000E+00 -0.50000000000E+03  0.50000000000E+03  0.00000000000E+00 0. -1.
         23    2    1    2    0    0  0.28941851761E+02  0.37405859584E+02  0.26816967458E+03  0.28717286308E+03  0.91194571164E+02 0.  0.
        -11    1    1    2    0    0 -0.63251828409E+02  0.93180034513E+02  0.19784177271E+03  0.22765034518E+03  0.00000000000E+00 0.  1.
         11    1    1    2    0    0  0.34309976648E+02 -0.13058589410E+03 -0.46601144730E+03  0.48517679174E+03  0.00000000000E+00 0. -1.
        -15    1    3    3    0    0 -0.31641231987E+02  0.28384241740E+01  0.10489278005E+03  0.10961239551E+03  0.17770000000E+01 0.  1.
         15    1    3    3    0    0  0.60583083749E+02  0.34567435410E+02  0.16327689453E+03  0.17756046757E+03  0.17770000000E+01 0. -1.
</event>
<event>
 7    1  0.4954109E-006  0.5133025E+03  0.7546771E-02  0.9370527E-01
        -11   -1    0    0    0    0  0.00000000000E+00  0.00000000000E+00  0.50000000000E+03  0.50000000000E+03  0.00000000000E+00 0. -1.
         11   -1    0    0    0    0 -0.00000000000E+00 -0.00000000000E+00 -0.50000000000E+03  0.50000000000E+03  0.00000000000E+00 0.  1.
         23    2    1    2    0    0 -0.20069987421E+02 -0.19182590096E+02  0.15136893959E+03  0.17800739746E+03  0.89461173251E+02 0.  0.
        -11    1    1    2    0    0  0.21991029253E+02 -0.72906630916E+02  0.32653305869E+03  0.33529512465E+03  0.00000000000E+00 0. -1.
         11    1    1    2    0    0 -0.19210418314E+01  0.92089221012E+02 -0.47790199828E+03  0.48669747789E+03  0.00000000000E+00 0.  1.
        -15    1    3    3    0    0 -0.44269425426E+02 -0.33222713639E+02  0.13409272113E+03  0.14507772509E+03  0.17770000000E+01 0. -1.
         15    1    3    3    0    0  0.24199438004E+02  0.14040123543E+02  0.17276218460E+02  0.32929672366E+02  0.17770000000E+01 0.  1.
</event>
<event>
 7    1  0.4954109E-006  0.5202519E+03  0.7546771E-02  0.9355601E-01
        -11   -1    0    0    0    0  0.00000000000E+00  0.00000000000E+00  0.50000000000E+03  0.50000000000E+03  0.00000000000E+00 0. -1.
         11   -1    0    0    0    0 -0.00000000000E+00 -0.00000000000E+00 -0.50000000000E+03  0.50000000000E+03  0.00000000000E+00 0. -1.
         23    2    1    2    0    0 -0.14173441224E+03 -0.14025361533E+03 -0.20541386227E+03  0.30028177356E+03  0.90634256720E+02 0.  0.
        -11    1    1    2    0    0  0.11156318649E+03  0.25946399726E+03  0.38780196835E+03  0.47974813925E+03  0.00000000000E+00 0. -1.
         11    1    1    2    0    0  0.30171225749E+02 -0.11921038192E+03 -0.18238810608E+03  0.21997008720E+03  0.00000000000E+00 0. -1.
        -15    1    3    3    0    0 -0.21498630325E+02 -0.27320845428E+02 -0.96548716253E+02  0.10263250966E+03  0.17770000000E+01 0.  1.
         15    1    3    3    0    0 -0.12023578192E+03 -0.11293276991E+03 -0.10886514602E+03  0.19764926389E+03  0.17770000000E+01 0. -1.
</event>
<event>
 7    1  0.4954109E-006  0.3500141E+03  0.7546771E-02  0.9816841E-01
        -11   -1    0    0    0    0  0.00000000000E+00  0.00000000000E+00  0.50000000000E+03  0.50000000000E+03  0.00000000000E+00 0.  1.
         11   -1    0    0    0    0 -0.00000000000E+00 -0.00000000000E+00 -0.50000000000E+03  0.50000000000E+03  0.00000000000E+00 0. -1.
         23    2    1    2    0    0 -0.76865345810E+02 -0.12051050404E+03  0.19654885716E+03  0.25898582870E+03  0.89504990077E+02 0.  0.
        -11    1    1    2    0    0  0.15260809842E+03  0.21078053070E+03  0.19944099369E+03  0.32786334621E+03  0.00000000000E+00 0.  1.
         11    1    1    2    0    0 -0.75742752615E+02 -0.90270026664E+02 -0.39598985085E+03  0.41315082508E+03  0.00000000000E+00 0. -1.
        -15    1    3    3    0    0 -0.64163188707E+01 -0.58090171955E+02  0.25599389753E+02  0.63828862674E+02  0.17770000000E+01 0.  1.
         15    1    3    3    0    0 -0.70449026939E+02 -0.62420332081E+02  0.17094946741E+03  0.19515696603E+03  0.17770000000E+01 0. -1.
</event>
<event>
 7    1  0.4954109E-006  0.5367478E+03  0.7546771E-02  0.9321141E-01
        -11   -1    0    0    0    0  0.00000000000E+00  0.00000000000E+00  0.50000000000E+03  0.50000000000E+03  0.00000000000E+00 0.  1.
         11   -1    0    0    0    0 -0.00000000000E+00 -0.00000000000E+00 -0.50000000000E+03  0.50000000000E+03  0.00000000000E+00 0. -1.
         23    2    1    2    0    0  0.21847091609E+02  0.59538888090E+02  0.24147990555E+03  0.26570983783E+03  0.90923036302E+02 0.  0.
        -11    1    1    2    0    0 -0.16397780521E+03 -0.84102208148E+02  0.19874519723E+03  0.27103792251E+03  0.00000000000E+00 0.  1.
         11    1    1    2    0    0  0.14213071360E+03  0.24563320058E+02 -0.44022510277E+03  0.46325223966E+03  0.00000000000E+00 0. -1.
        -15    1    3    3    0    0  0.19328841925E+02 -0.14476716789E+02  0.12744802337E+03  0.12972793010E+03  0.17770000000E+01 0.  1.
         15    1    3    3    0    0  0.25182496835E+01  0.74015604880E+02  0.11403188218E+03  0.13598190773E+03  0.17770000000E+01 0. -1.
</event>
<event>
 7    1  0.4954109E-006  0.5086920E+03  0.7546771E-02  0.9380568E-01
        -11   -1    0    0    0    0  0.00000000000E+00  0.00000000000E+00  0.50000000000E+03  0.50000000000E+03  0.00000000000E+00 0. -1.
         11   -1    0    0    0    0 -0.00000000000E+00 -0.00000000000E+00 -0.50000000000E+03  0.50000000000E+03  0.00000000000E+00 0.  1.
         23    2    1    2    0    0  0.47506926205E+01  0.62133605115E+02  0.39416069700E+03  0.40793243875E+03  0.84634895639E+02 0.  0.
        -11    1    1    2    0    0 -0.23762386330E+02  0.51056853061E+02  0.83552615466E+02  0.10075957920E+03  0.00000000000E+00 0. -1.
         11    1    1    2    0    0  0.19011693709E+02 -0.11319045818E+03 -0.47771331247E+03  0.49130798205E+03  0.00000000000E+00 0.  1.
        -15    1    3    3    0    0  0.81203156169E+01 -0.20619838825E+02  0.79639535749E+02  0.82684524926E+02  0.17770000000E+01 0.  1.
         15    1    3    3    0    0 -0.33696229964E+01  0.82753443940E+02  0.31452116125E+03  0.32524791383E+03  0.17770000000E+01 0. -1.
</event>
<event>
 7    1  0.4954109E-006  0.5093688E+03  0.7546771E-02  0.9379087E-01
        -11   -1    0    0    0    0  0.00000000000E+00  0.00000000000E+00  0.50000000000E+03  0.50000000000E+03  0.00000000000E+00 0.  1.
         11   -1    0    0    0    0 -0.00000000000E+00 -0.00000000000E+00 -0.50000000000E+03  0.50000000000E+03  0.00000000000E+00 0. -1.
         23    2    1    2    0    0  0.11143252428E+03  0.56312899922E+02  0.46571481495E+03  0.49063122427E+03  0.90776424210E+02 0.  0.
        -11    1    1    2    0    0 -0.89720932437E+00 -0.67530234572E+02 -0.65737093187E+02  0.94247031712E+02  0.00000000000E+00 0.  1.
         11    1    1    2    0    0 -0.11053531495E+03  0.11217334649E+02 -0.39997772177E+03  0.41512174402E+03  0.00000000000E+00 0. -1.
        -15    1    3    3    0    0  0.12348826815E+03  0.34169728064E+02  0.36681492063E+03  0.38855278459E+03  0.17770000000E+01 0.  1.
         15    1    3    3    0    0 -0.12055743874E+02  0.22143171858E+02  0.98899894328E+02  0.10207843968E+03  0.17770000000E+01 0. -1.
</event>
<event>
 7    1  0.4954109E-006  0.3130160E+03  0.7546771E-02  0.9955351E-01
        -11   -1    0    0    0    0  0.00000000000E+00  0.00000000000E+00  0.50000000000E+03  0.50000000000E+03  0.00000000000E+00 0.  1.
         11   -1    0    0    0    0 -0.00000000000E+00 -0.00000000000E+00 -0.50000000000E+03  0.50000000000E+03  0.00000000000E+00 0. -1.
         23    2    1    2    0    0 -0.23505715180E+03  0.16040095829E+03  0.62967366247E+02  0.30944861531E+03  0.10398665429E+03 0.  0.
        -11    1    1    2    0    0  0.82427463447E+02 -0.14013186009E+03  0.27483147466E+03  0.31931734122E+03  0.00000000000E+00 0.  1.
         11    1    1    2    0    0  0.15262968836E+03 -0.20269098207E+02 -0.33779884091E+03  0.37123404347E+03  0.00000000000E+00 0. -1.
        -15    1    3    3    0    0 -0.73043818799E+02  0.10457363531E+03  0.51888799909E+02  0.13771946105E+03  0.17770000000E+01 0.  1.
         15    1    3    3    0    0 -0.16201333301E+03  0.55827322983E+02  0.11078566338E+02  0.17172915426E+03  0.17770000000E+01 0. -1.
</event>
<event>
 7    1  0.4954109E-006  0.3853416E+03  0.7546771E-02  0.9700732E-01
        -11   -1    0    0    0    0  0.00000000000E+00  0.00000000000E+00  0.50000000000E+03  0.50000000000E+03  0.00000000000E+00 0. -1.
         11   -1    0    0    0    0 -0.00000000000E+00 -0.00000000000E+00 -0.50000000000E+03  0.50000000000E+03  0.00000000000E+00 0. -1.
         23    2    1    2    0    0  0.27130739149E+03  0.18488799505E+02 -0.20089259896E+03  0.34910233245E+03  0.86977386803E+02 0.  0.
        -11    1    1    2    0    0 -0.20482041694E+03  0.58655278937E+02  0.38527462684E+03  0.44025944968E+03  0.00000000000E+00 0. -1.
         11    1    1    2    0    0 -0.66486974555E+02 -0.77144078442E+02 -0.18438202788E+03  0.21063821788E+03  0.00000000000E+00 0. -1.
        -15    1    3    3    0    0  0.86315563606E+02  0.36094323087E+02 -0.34727530737E+02  0.99811501340E+02  0.17770000000E+01 0.  1.
         15    1    3    3    0    0  0.18499182789E+03 -0.17605523582E+02 -0.16616506823E+03  0.24929083110E+03  0.17770000000E+01 0. -1.
</event>
<event>
 7    1  0.4954109E-006  0.4617983E+03  0.7546771E-02  0.9489596E-01
        -11   -1    0    0    0    0  0.00000000000E+00  0.00000000000E+00  0.50000000000E+03  0.50000000000E+03  0.00000000000E+00 0.  1.
         11   -1    0    0    0    0 -0.00000000000E+00 -0.00000000000E+00 -0.50000000000E+03  0.50000000000E+03  0.00000000000E+00 0.  1.
         23    2    1    2    0    0  0.67948788327E+02  0.76933855425E+02  0.42195287682E+03  0.44401056353E+03  0.92548875310E+02 0.  0.
        -11    1    1    2    0    0 -0.57936452043E+02  0.45981994323E+02  0.35615065744E+02  0.82093904677E+02  0.00000000000E+00 0.  1.
         11    1    1    2    0    0 -0.10012336285E+02 -0.12291584975E+03 -0.45756794256E+03  0.47389553180E+03  0.00000000000E+00 0.  1.
        -15    1    3    3    0    0 -0.12740749539E+02  0.48583651968E+02  0.19792277402E+03  0.20420401598E+03  0.17770000000E+01 0. -1.
         15    1    3    3    0    0  0.80689537866E+02  0.28350203457E+02  0.22403010280E+03  0.23980654754E+03  0.17770000000E+01 0.  1.
</event>
<event>
 6    1  0.4954109E-006  0.4000356E+03  0.7546771E-02  0.9656296E-01
        -11   -1    0    0    0    0  0.00000000000E+00  0.00000000000E+00  0.50000000000E+03  0.50000000000E+03  0.00000000000E+00 0. -1.
         11   -1    0    0    0    0 -0.00000000000E+00 -0.00000000000E+00 -0.50000000000E+03  0.50000000000E+03  0.00000000000E+00 0. -1.
        -11    1    1    2    0    0  0.24689489453E+03 -0.27882772395E+00  0.55050588144E+02  0.25295796873E+03  0.00000000000E+00 0. -1.
         11    1    1    2    0    0 -0.18545112179E+03  0.14032822047E+02 -0.31967198915E+03  0.36983674684E+03  0.00000000000E+00 0. -1.
        -15    1    1    2    0    0 -0.12260499265E+03  0.43354433463E+02  0.26310486339E+03  0.29349432362E+03  0.17770000000E+01 0. -1.
         15    1    1    2    0    0  0.61161219910E+02 -0.57108427786E+02  0.15165376133E+01  0.83710960814E+02  0.17770000000E+01 0.  1.
</event>
<event>
 7    1  0.4954109E-006  0.5100375E+03  0.7546771E-02  0.9377626E-01
        -11   -1    0    0    0    0  0.00000000000E+00  0.00000000000E+00  0.50000000000E+03  0.50000000000E+03  0.00000000000E+00 0. -1.
         11   -1    0    0    0    0 -0.00000000000E+00 -0.00000000000E+00 -0.50000000000E+03  0.50000000000E+03  0.00000000000E+00 0.  1.
         23    2    1    2    0    0 -0.71517289544E+01  0.11278316653E+03 -0.17021501887E+03  0.22397636291E+03  0.91766380633E+02 0.  0.
        -11    1    1    2    0    0  0.37329437126E+02 -0.25929383572E+03  0.41404882839E+03  0.48996246020E+03  0.00000000000E+00 0. -1.
         11    1    1    2    0    0 -0.30177708171E+02  0.14651066919E+03 -0.24383380951E+03  0.28606117688E+03  0.00000000000E+00 0.  1.
        -15    1    3    3    0    0 -0.30742880191E+02  0.86260773329E+02 -0.63375897870E+02  0.11138091334E+03  0.17770000000E+01 0. -1.
         15    1    3    3    0    0  0.23591151237E+02  0.26522393202E+02 -0.10683912100E+03  0.11259544957E+03  0.17770000000E+01 0.  1.
</event>
<event>
 7    1  0.4954109E-006  0.4077333E+03  0.7546771E-02  0.9633823E-01
        -11   -1    0    0    0    0  0.00000000000E+00  0.00000000000E+00  0.50000000000E+03  0.50000000000E+03  0.00000000000E+00 0. -1.
         11   -1    0    0    0    0 -0.00000000000E+00 -0.00000000000E+00 -0.50000000000E+03  0.50000000000E+03  0.00000000000E+00 0. -1.
         23    2    1    2    0    0  0.13676363371E+03 -0.44879812961E+02  0.33445324329E+00  0.17192736150E+03  0.94023489922E+02 0.  0.
        -11    1    1    2    0    0 -0.18135767844E+03 -0.30749215283E+02  0.38828838132E+03  0.42965566310E+03  0.00000000000E+00 0. -1.
         11    1    1    2    0    0  0.44594044726E+02  0.75629028244E+02 -0.38862283456E+03  0.39841697539E+03  0.00000000000E+00 0. -1.
        -15    1    3    3    0    0  0.13761442904E+03 -0.11418882134E+02  0.43600117237E+01  0.13816761336E+03  0.17770000000E+01 0.  1.
         15    1    3    3    0    0 -0.85079533427E+00 -0.33460930827E+02 -0.40255584804E+01  0.33759748142E+02  0.17770000000E+01 0. -1.
</event>
<event>
 7    1  0.4954109E-006  0.4753164E+03  0.7546771E-02  0.9456801E-01
        -11   -1    0    0    0    0  0.00000000000E+00  0.00000000000E+00  0.50000000000E+03  0.50000000000E+03  0.00000000000E+00 0.  1.
         11   -1    0    0    0    0 -0.00000000000E+00 -0.00000000000E+00 -0.50000000000E+03  0.50000000000E+03  0.00000000000E+00 0. -1.
         23    2    1    2    0    0  0.13905620955E+03 -0.61675480111E+02  0.41998623044E+03  0.45563146947E+03  0.89839345239E+02 0.  0.
        -11    1    1    2    0    0 -0.24930409660E+02 -0.11673072205E+01  0.50417285519E+02  0.56256471726E+02  0.00000000000E+00 0.  1.
         11    1    1    2    0    0 -0.11412579989E+03  0.62842787332E+02 -0.47040351596E+03  0.48811205880E+03  0.00000000000E+00 0. -1.
        -15    1    3    3    0    0  0.13451958934E+00 -0.27482322654E+02  0.32649954728E+02  0.42713855208E+02  0.17770000000E+01 0. -1.
         15    1    3    3    0    0  0.13892168996E+03 -0.34193157458E+02  0.38733627571E+03  0.41291761427E+03  0.17770000000E+01 0.  1.
</event>
<event>
 6    1  0.4954109E-006  0.4826683E+03  0.7546771E-02  0.9439448E-01
        -11   -1    0    0    0    0  0.00000000000E+00  0.00000000000E+00  0.50000000000E+03  0.50000000000E+03  0.00000000000E+00 0.  1.
         11   -1    0    0    0    0 -0.00000000000E+00 -0.00000000000E+00 -0.50000000000E+03  0.50000000000E+03  0.00000000000E+00 0. -1.
        -11    1    1    2    0    0 -0.21458773248E+02  0.24182909105E+02  0.52147130808E+02  0.61356460895E+02  0.00000000000E+00 0.  1.
         11    1    1    2    0    0 -0.96426634422E+02  0.16458033458E+02 -0.46610932338E+03  0.47626343974E+03  0.00000000000E+00 0. -1.
        -15    1    1    2    0    0  0.85722621882E+02 -0.87309820036E+02  0.37263180709E+03  0.39221039502E+03  0.17770000000E+01 0.  1.
         15    1    1    2    0    0  0.32162785788E+02  0.46668877473E+02  0.41330385481E+02  0.70169704341E+02  0.17770000000E+01 0. -1.
</event>
<event>
 7    1  0.4954109E-006  0.4451348E+03  0.7546771E-02  0.9531706E-01
        -11   -1    0    0    0    0  0.00000000000E+00  0.00000000000E+00  0.50000000000E+03  0.50000000000E+03  0.00000000000E+00 0.  1.
         11   -1    0    0    0    0 -0.00000000000E+00 -0.00000000000E+00 -0.50000000000E+03  0.50000000000E+03  0.00000000000E+00 0. -1.
         23    2    1    2    0    0 -0.56167842708E+02 -0.62546174056E+01  0.11728065157E+02  0.10786138627E+03  0.91118518111E+02 0.  0.
        -11    1    1    2    0    0  0.21865071560E+03  0.11148957100E+03  0.38162222694E+03  0.45373294345E+03  0.00000000000E+00 0.  1.
         11    1    1    2    0    0 -0.16248287289E+03 -0.10523495360E+03 -0.39335029210E+03  0.43840567028E+03  0.00000000000E+00 0. -1.
        -15    1    3    3    0    0 -0.32841169187E+02  0.41980418688E+02  0.19308013957E+01  0.53364629389E+02  0.17770000000E+01 0.  1.
         15    1    3    3    0    0 -0.23326673521E+02 -0.48235036094E+02  0.97972637617E+01  0.54496756883E+02  0.17770000000E+01 0. -1.
</event>
<event>
 7    1  0.4954109E-006  0.5252718E+03  0.7546771E-02  0.9344972E-01
        -11   -1    0    0    0    0  0.00000000000E+00  0.00000000000E+00  0.50000000000E+03  0.50000000000E+03  0.00000000000E+00 0. -1.
         11   -1    0    0    0    0 -0.00000000000E+00 -0.00000000000E+00 -0.50000000000E+03  0.50000000000E+03  0.00000000000E+00 0. -1.
         23    2    1    2    0    0  0.54283196422E+01 -0.30980191191E+02  0.71428263095E+02  0.12419822071E+03  0.96612433770E+02 0.  0.
        -11    1    1    2    0    0  0.72146104951E+02 -0.21916698333E+02  0.39392211229E+03  0.40107360007E+03  0.00000000000E+00 0. -1.
         11    1    1    2    0    0 -0.77574424593E+02  0.52896889525E+02 -0.46535037538E+03  0.47472817922E+03  0.00000000000E+00 0. -1.
        -15    1    3    3    0    0  0.20708852723E+02 -0.52924798156E+02  0.78076145377E+02  0.96586401977E+02  0.17770000000E+01 0. -1.
         15    1    3    3    0    0 -0.15280533080E+02  0.21944606965E+02 -0.66478822816E+01  0.27611818735E+02  0.17770000000E+01 0.  1.
</event>
<event>
 7    1  0.4954109E-006  0.4144248E+03  0.7546771E-02  0.9614715E-01
        -11   -1    0    0    0    0  0.00000000000E+00  0.00000000000E+00  0.50000000000E+03  0.50000000000E+03  0.00000000000E+00 0.  1.
         11   -1    0    0    0    0 -0.00000000000E+00 -0.00000000000E+00 -0.50000000000E+03  0.50000000000E+03  0.00000000000E+00 0. -1.
         23    2    1    2    0    0  0.93327206775E+02 -0.14373161685E+03  0.31290759456E+03  0.37149969863E+03  0.10359593688E+03 0.  0.
        -11    1    1    2    0    0 -0.75955346350E+02  0.53734083093E+02  0.13906957856E+03  0.16732278388E+03  0.00000000000E+00 0.  1.
         11    1    1    2    0    0 -0.17371860425E+02  0.89997533758E+02 -0.45197717312E+03  0.46117751749E+03  0.00000000000E+00 0. -1.
        -15    1    3    3    0    0  0.68452448008E+02 -0.20239449406E+02  0.14453242840E+03  0.16120841646E+03  0.17770000000E+01 0.  1.
         15    1    3    3    0    0  0.24874758767E+02 -0.12349216745E+03  0.16837516616E+03  0.21029128216E+03  0.17770000000E+01 0. -1.
</event>
<event>
 7    1  0.4954109E-006  0.5271583E+03  0.7546771E-02  0.9341011E-01
        -11   -1    0    0    0    0  0.00000000000E+00  0.00000000000E+00  0.50000000000E+03  0.50000000000E+03  0.00000000000E+00 0.  1.
         11   -1    0    0    0    0 -0.00000000000E+00 -0.00000000000E+00 -0.50000000000E+03  0.50000000000E+03  0.00000000000E+00 0. -1.
         23    2    1    2    0    0 -0.53655612893E+02 -0.26961686675E+02  0.15246012826E+03  0.18549520956E+03  0.86939776377E+02 0.  0.
        -11    1    1    2    0    0  0.13900017738E+03 -0.11132426528E+03  0.29158106770E+03  0.34166308023E+03  0.00000000000E+00 0.  1.
         11    1    1    2    0    0 -0.85344564492E+02  0.13828595195E+03 -0.44404119596E+03  0.47284171021E+03  0.00000000000E+00 0. -1.
        -15    1    3    3    0    0  0.18237820541E+02  0.10240044559E+02  0.54512291176E+02  0.58414246798E+02  0.17770000000E+01 0.  1.
         15    1    3    3    0    0 -0.71893433434E+02 -0.37201731234E+02  0.97947837088E+02  0.12708096276E+03  0.17770000000E+01 0. -1.
</event>
<event>
 7    1  0.4954109E-006  0.4636960E+03  0.7546771E-02  0.9484920E-01
        -11   -1    0    0    0    0  0.00000000000E+00  0.00000000000E+00  0.50000000000E+03  0.50000000000E+03  0.00000000000E+00 0. -1.
         11   -1    0    0    0    0 -0.00000000000E+00 -0.00000000000E+00 -0.50000000000E+03  0.50000000000E+03  0.00000000000E+00 0.  1.
         23    2    1    2    0    0 -0.47784595547E+02  0.62400858996E+02  0.41168659017E+03  0.42905042864E+03  0.91767025756E+02 0.  0.
        -11    1    1    2    0    0  0.13709852873E+02  0.31181158747E+02  0.70653163628E+02  0.78435287067E+02  0.00000000000E+00 0. -1.
         11    1    1    2    0    0  0.34074742674E+02 -0.93582017743E+02 -0.48233975380E+03  0.49251428429E+03  0.00000000000E+00 0.  1.
        -15    1    3    3    0    0 -0.26186406513E+02 -0.19170996125E+02  0.71347607592E+02  0.78402128903E+02  0.17770000000E+01 0.  1.
         15    1    3    3    0    0 -0.21598189035E+02  0.81571855121E+02  0.34033898258E+03  0.35064829974E+03  0.17770000000E+01 0. -1.
</event>
<event>
 7    1  0.4954109E-006  0.4195136E+03  0.7546771E-02  0.9600439E-01
        -11   -1    0    0    0    0  0.00000000000E+00  0.00000000000E+00  0.50000000000E+03  0.50000000000E+03  0.00000000000E+00 0. -1.
         11   -1    0    0    0    0 -0.00000000000E+00 -0.00000000000E+00 -0.50000000000E+03  0.50000000000E+03  0.00000000000E+00 0.  1.
         23    2    1    2    0    0  0.41616113145E+02  0.44058033860E+03  0.31989930772E+02  0.45501141382E+03  0.10084193275E+03 0.  0.
        -11    1    1    2    0    0 -0.14955997003E+02 -0.37112772832E+03  0.10769624751E+03  0.38672723502E+03  0.00000000000E+00 0. -1.
         11    1    1    2    0    0 -0.26660116142E+02 -0.69452610278E+02 -0.13968617828E+03  0.15826135116E+03  0.00000000000E+00 0.  1.
        -15    1    3    3    0    0  0.56296243040E+02  0.40552301477E+03  0.69726404929E+01  0.40947522261E+03  0.17770000000E+01 0.  1.
         15    1    3    3    0    0 -0.14680129895E+02  0.35057323833E+02  0.25017290279E+02  0.45536191211E+02  0.17770000000E+01 0. -1.
</event>
<event>
 7    1  0.4954109E-006  0.4885412E+03  0.7546771E-02  0.9425821E-01
        -11   -1    0    0    0    0  0.00000000000E+00  0.00000000000E+00  0.50000000000E+03  0.50000000000E+03  0.00000000000E+00 0.  1.
         11   -1    0    0    0    0 -0.00000000000E+00 -0.00000000000E+00 -0.50000000000E+03  0.50000000000E+03  0.00000000000E+00 0.  1.
         23    2    1    2    0    0  0.82948657604E+02  0.61403235816E+02  0.46998809747E+03  0.49008535360E+03  0.92973140658E+02 0.  0.
        -11    1    1    2    0    0  0.24508748882E+02  0.16649213068E+02 -0.10210524153E+02  0.31338951339E+02  0.00000000000E+00 0.  1.
         11    1    1    2    0    0 -0.10745740649E+03 -0.78052448883E+02 -0.45977757331E+03  0.47857569506E+03  0.00000000000E+00 0.  1.
        -15    1    3    3    0    0  0.76653995343E+02  0.78095201500E+02  0.45050850453E+03  0.46361165417E+03  0.17770000000E+01 0.  1.
         15    1    3    3    0    0  0.62946622604E+01 -0.16691965684E+02  0.19479592934E+02  0.26473699426E+02  0.17770000000E+01 0. -1.
</event>
<event>
 7    1  0.4954109E-006  0.5152797E+03  0.7546771E-02  0.9366255E-01
        -11   -1    0    0    0    0  0.00000000000E+00  0.00000000000E+00  0.50000000000E+03  0.50000000000E+03  0.00000000000E+00 0.  1.
         11   -1    0    0    0    0 -0.00000000000E+00 -0.00000000000E+00 -0.50000000000E+03  0.50000000000E+03  0.00000000000E+00 0. -1.
         23    2    1    2    0    0 -0.19487369790E+02 -0.85391219027E+01  0.37874253125E+03  0.38968481347E+03  0.89194588901E+02 0.  0.
        -11    1    1    2    0    0 -0.64517565044E+02 -0.51020338798E+02  0.94913044458E+02  0.12559489312E+03  0.00000000000E+00 0.  1.
         11    1    1    2    0    0  0.84004934833E+02  0.59559460701E+02 -0.47365557571E+03  0.48472029340E+03  0.00000000000E+00 0. -1.
        -15    1    3    3    0    0  0.33323141873E+01 -0.46877487424E+02  0.19797988900E+03  0.20348905946E+03  0.17770000000E+01 0.  1.
         15    1    3    3    0    0 -0.22819683977E+02  0.38338365522E+02  0.18076264225E+03  0.18619575401E+03  0.17770000000E+01 0. -1.
</event>
<event>
 7    1  0.4954109E-006  0.4852982E+03  0.7546771E-02  0.9433321E-01
        -11   -1    0    0    0    0  0.00000000000E+00  0.00000000000E+00  0.50000000000E+03  0.50000000000E+03  0.00000000000E+00 0.  1.
         11   -1    0    0    0    0 -0.00000000000E+00 -0.00000000000E+00 -0.50000000000E+03  0.50000000000E+03  0.00000000000E+00 0. -1.
         23    2    1    2    0    0  0.13866607951E+03  0.46472725944E+02  0.44873208341E+03  0.48096710543E+03  0.92633028468E+02 0.  0.
        -11    1    1    2    0    0  0.16555937328E+02 -0.33057477798E+02  0.68021207080E+01  0.37592083546E+02  0.00000000000E+00 0.  1.
         11    1    1    2    0    0 -0.15522201684E+03 -0.13415248146E+02 -0.45553420412E+03  0.48144081102E+03  0.00000000000E+00 0. -1.
        -15    1    3    3    0    0  0.14444105116E+03  0.34623174374E+02  0.44151688136E+03  0.46583505205E+03  0.17770000000E+01 0.  1.
         15    1    3    3    0    0 -0.57749716480E+01  0.11849551570E+02  0.72152020496E+01  0.15132053382E+02  0.17770000000E+01 0. -1.
</event>
<event>
 7    1  0.4954109E-006  0.4565093E+03  0.7546771E-02  0.9502754E-01
        -11   -1    0    0    0    0  0.00000000000E+00  0.00000000000E+00  0.50000000000E+03  0.50000000000E+03  0.00000000000E+00 0.  1.
         11   -1    0    0    0    0 -0.00000000000E+00 -0.00000000000E+00 -0.50000000000E+03  0.50000000000E+03  0.00000000000E+00 0. -1.
         23    2    1    2    0    0 -0.99641986379E+00  0.78777444851E+02  0.41183431356E+03  0.42992445985E+03  0.94977158751E+02 0.  0.
        -11    1    1    2    0    0  0.70360420295E+02 -0.17831019621E+02  0.56965380925E+02  0.92269109830E+02  0.00000000000E+00 0.  1.
         11    1    1    2    0    0 -0.69364000431E+02 -0.60946425230E+02 -0.46879969449E+03  0.47780643032E+03  0.00000000000E+00 0. -1.
        -15    1    3    3    0    0  0.32004423196E+02  0.68797582053E+02  0.35810792895E+03  0.36606261337E+03  0.17770000000E+01 0.  1.
         15    1    3    3    0    0 -0.33000843060E+02  0.99798627984E+01  0.53726384612E+02  0.63861846486E+02  0.17770000000E+01 0. -1.
</event>
<event>
 7    1  0.4954109E-006  0.5180003E+03  0.7546771E-02  0.9360410E-01
        -11   -1    0    0    0    0  0.00000000000E+00  0.00000000000E+00  0.50000000000E+03  0.50000000000E+03  0.00000000000E+00 0. -1.
         11   -1    0    0    0    0 -0.00000000000E+00 -0.00000000000E+00 -0.50000000000E+03  0.50000000000E+03  0.00000000000E+00 0.  1.
         23    2    1    2    0    0 -0.29813575627E+02 -0.44614382875E+02  0.29527852799E+03  0.31374037131E+03  0.91456651171E+02 0.  0.
        -11    1    1    2    0    0 -0.12348331421E+03 -0.69038879992E+02  0.14733501468E+03  0.20425988933E+03  0.00000000000E+00 0. -1.
         11    1    1    2    0    0  0.15329688983E+03  0.11365326287E+03 -0.44261354267E+03  0.48199973937E+03  0.00000000000E+00 0.  1.
        -15    1    3    3    0    0  0.16603369585E+01 -0.61042527227E+02  0.11739058204E+03  0.13233538200E+03  0.17770000000E+01 0.  1.
         15    1    3    3    0    0 -0.31473912586E+02  0.16428144352E+02  0.17788794596E+03  0.18140498931E+03  0.17770000000E+01 0. -1.
</event>
<event>
 7    1  0.4954109E-006  0.4615011E+03  0.7546771E-02  0.9490330E-01
        -11   -1    0    0    0    0  0.00000000000E+00  0.00000000000E+00  0.50000000000E+03  0.50000000000E+03  0.00000000000E+00 0. -1.
         11   -1    0    0    0    0 -0.00000000000E+00 -0.00000000000E+00 -0.50000000000E+03  0.50000000000E+03  0.00000000000E+00 0. -1.
         23    2    1    2    0    0  0.15318674316E+03  0.56549711067E+02  0.43473664850E+03  0.47257701036E+03  0.87572992835E+02 0.  0.
        -11    1    1    2    0    0 -0.81365626577E+02  0.77799817707E+01  0.39414940239E+00  0.81737681998E+02  0.00000000000E+00 0. -1.
         11    1    1    2    0    0 -0.71821116580E+02 -0.64329692838E+02 -0.43513079790E+03  0.44568530764E+03  0.00000000000E+00 0. -1.
        -15    1    3    3    0    0  0.95847296369E+02  0.77321591636E+02  0.31426915314E+03  0.33754050290E+03  0.17770000000E+01 0. -1.
         15    1    3    3    0    0  0.57339446788E+02 -0.20771880569E+02  0.12046749536E+03  0.13503650746E+03  0.17770000000E+01 0.  1.
</event>
<event>
 7    1  0.4954109E-006  0.4871294E+03  0.7546771E-02  0.9429078E-01
        -11   -1    0    0    0    0  0.00000000000E+00  0.00000000000E+00  0.50000000000E+03  0.50000000000E+03  0.00000000000E+00 0.  1.
         11   -1    0    0    0    0 -0.00000000000E+00 -0.00000000000E+00 -0.50000000000E+03  0.50000000000E+03  0.00000000000E+00 0.  1.
         23    2    1    2    0    0 -0.33469274157E+02  0.12374377075E+03  0.44976103714E+03  0.47676981039E+03  0.92691684970E+02 0.  0.
        -11    1    1    2    0    0  0.16783031133E+02 -0.13241324820E+02  0.26491605147E+02  0.34041268488E+02  0.00000000000E+00 0.  1.
         11    1    1    2    0    0  0.16686243024E+02 -0.11050244593E+03 -0.47625264229E+03  0.48918892112E+03  0.00000000000E+00 0.  1.
        -15    1    3    3    0    0  0.14084615699E+02  0.18703477433E+02  0.17213976934E+02  0.29114862156E+02  0.17770000000E+01 0. -1.
         15    1    3    3    0    0 -0.47553889857E+02  0.10504029331E+03  0.43254706021E+03  0.44765494824E+03  0.17770000000E+01 0.  1.
</event>
<event>
 7    1  0.4954109E-006  0.3587654E+03  0.7546771E-02  0.9786752E-01
        -11   -1    0    0    0    0  0.00000000000E+00  0.00000000000E+00  0.50000000000E+03  0.50000000000E+03  0.00000000000E+00 0. -1.
         11   -1    0    0    0    0 -0.00000000000E+00 -0.00000000000E+00 -0.50000000000E+03  0.50000000000E+03  0.00000000000E+00 0. -1.
         23    2    1    2    0    0  0.81502362207E+02  0.12020706394E+02  0.20976688321E+03  0.24790976739E+03  0.10329557129E+03 0.  0.
        -11    1    1    2    0    0 -0.21151266842E+03  0.66100732868E+01  0.21847606373E+03  0.30415964952E+03  0.00000000000E+00 0. -1.
         11    1    1    2    0    0  0.13001030622E+03 -0.18630779681E+02 -0.42824294693E+03  0.44793058310E+03  0.00000000000E+00 0. -1.
        -15    1    3    3    0    0  0.81126117943E+02  0.32551824047E+02  0.86705882457E+02  0.12313462569E+03  0.17770000000E+01 0. -1.
         15    1    3    3    0    0  0.37624426350E+00 -0.20531117653E+02  0.12306100075E+03  0.12477514170E+03  0.17770000000E+01 0.  1.
</event>
<event>
 7    1  0.4954109E-006  0.5064729E+03  0.7546771E-02  0.9385442E-01
        -11   -1    0    0    0    0  0.00000000000E+00  0.00000000000E+00  0.50000000000E+03  0.50000000000E+03  0.00000000000E+00 0. -1.
         11   -1    0    0    0    0 -0.00000000000E+00 -0.00000000000E+00 -0.50000000000E+03  0.50000000000E+03  0.00000000000E+00 0.  1.
         23    2    1    2    0    0  0.16992619386E+03 -0.13431262121E+02 -0.34637769731E+03  0.39624419303E+03  0.89312043726E+02 0.  0.
        -11    1    1    2    0    0 -0.23500911180E+03 -0.20952241647E+01  0.43397622313E+03  0.49352713688E+03  0.00000000000E+00 0. -1.
         11    1    1    2    0    0  0.65082917934E+02  0.15526486285E+02 -0.87598525828E+02  0.11022867009E+03  0.00000000000E+00 0.  1.
        -15    1    3    3    0    0  0.18502571353E+02  0.77111065013E+01 -0.29794242845E+01  0.20343082564E+02  0.17770000000E+01 0. -1.
         15    1    3    3    0    0  0.15142362251E+03 -0.21142368622E+02 -0.34339827302E+03  0.37590111046E+03  0.17770000000E+01 0.  1.
</event>
<event>
 7    1  0.4954109E-006  0.5283109E+03  0.7546771E-02  0.9338599E-01
        -11   -1    0    0    0    0  0.00000000000E+00  0.00000000000E+00  0.50000000000E+03  0.50000000000E+03  0.00000000000E+00 0. -1.
         11   -1    0    0    0    0 -0.00000000000E+00 -0.00000000000E+00 -0.50000000000E+03  0.50000000000E+03  0.00000000000E+00 0. -1.
         23    2    1    2    0    0  0.80479731707E+02 -0.32107334720E+02  0.18248621456E+03  0.22210973302E+03  0.92323598494E+02 0.  0.
        -11    1    1    2    0    0  0.10090817090E+02  0.15520578308E+03  0.26375845917E+03  0.30620121566E+03  0.00000000000E+00 0. -1.
         11    1    1    2    0    0 -0.90570548797E+02 -0.12309844836E+03 -0.44624467373E+03  0.47168905132E+03  0.00000000000E+00 0. -1.
        -15    1    3    3    0    0  0.70934799039E+02 -0.55187376973E+02  0.93644432243E+02  0.12980689393E+03  0.17770000000E+01 0. -1.
         15    1    3    3    0    0  0.95449326678E+01  0.23080042253E+02  0.88841782322E+02  0.92302839096E+02  0.17770000000E+01 0.  1.
</event>
<event>
 7    1  0.4954109E-006  0.3475954E+03  0.7546771E-02  0.9825324E-01
        -11   -1    0    0    0    0  0.00000000000E+00  0.00000000000E+00  0.50000000000E+03  0.50000000000E+03  0.00000000000E+00 0. -1.
         11   -1    0    0    0    0 -0.00000000000E+00 -0.00000000000E+00 -0.50000000000E+03  0.50000000000E+03  0.00000000000E+00 0.  1.
         23    2    1    2    0    0  0.13934387856E+02 -0.47167592851E+02  0.33929433277E+03  0.35513298730E+03  0.92627455072E+02 0.  0.
        -11    1    1    2    0    0  0.34367063219E+02  0.26275800231E+03 -0.32764021807E+02  0.26701375234E+03  0.00000000000E+00 0. -1.
         11    1    1    2    0    0 -0.48301451074E+02 -0.21559040946E+03 -0.30653031097E+03  0.37785326037E+03  0.00000000000E+00 0.  1.
        -15    1    3    3    0    0  0.81648439612E+01 -0.73673693305E+02  0.28397138125E+03  0.29349170492E+03  0.17770000000E+01 0. -1.
         15    1    3    3    0    0  0.57695438946E+01  0.26506100454E+02  0.55322951528E+02  0.61641282374E+02  0.17770000000E+01 0.  1.
</event>
<event>
 7    1  0.4954109E-006  0.4164316E+03  0.7546771E-02  0.9609059E-01
        -11   -1    0    0    0    0  0.00000000000E+00  0.00000000000E+00  0.50000000000E+03  0.50000000000E+03  0.00000000000E+00 0.  1.
         11   -1    0    0    0    0 -0.00000000000E+00 -0.00000000000E+00 -0.50000000000E+03  0.50000000000E+03  0.00000000000E+00 0.  1.
         23    2    1    2    0    0 -0.14327098263E+03 -0.71726313919E+01  0.37859285453E+03  0.41545406866E+03  0.93228281985E+02 0.  0.
        -11    1    1    2    0    0 -0.70901948417E+02 -0.13854758606E+03 -0.44660360359E+02  0.16191685422E+03  0.00000000000E+00 0.  1.
         11    1    1    2    0    0  0.21417293104E+03  0.14572021745E+03 -0.33393249417E+03  0.42262907712E+03  0.00000000000E+00 0.  1.
        -15    1    3    3    0    0 -0.77980463101E+02 -0.29105163500E+02  0.29806638225E+03  0.30947502181E+03  0.17770000000E+01 0. -1.
         15    1    3    3    0    0 -0.65290519525E+02  0.21932532109E+02  0.80526472281E+02  0.10597904685E+03  0.17770000000E+01 0.  1.
</event>
<event>
 7    1  0.4954109E-006  0.5126008E+03  0.7546771E-02  0.9372048E-01
        -11   -1    0    0    0    0  0.00000000000E+00  0.00000000000E+00  0.50000000000E+03  0.50000000000E+03  0.00000000000E+00 0.  1.
         11   -1    0    0    0    0 -0.00000000000E+00 -0.00000000000E+00 -0.50000000000E+03  0.50000000000E+03  0.00000000000E+00 0. -1.
         23    2    1    2    0    0 -0.54803119520E+00  0.81119427242E+02 -0.12609923131E+03  0.17400161001E+03  0.88288630840E+02 0.  0.
        -11    1    1    2    0    0  0.39862267813E+02 -0.28941739190E+03  0.39013661742E+03  0.48739922793E+03  0.00000000000E+00 0.  1.
         11    1    1    2    0    0 -0.39314236617E+02  0.20829796466E+03 -0.26403738611E+03  0.33859916206E+03  0.00000000000E+00 0. -1.
        -15    1    3    3    0    0  0.21569991368E+02  0.59205999927E+02 -0.12808040381E+03  0.14275280216E+03  0.17770000000E+01 0.  1.
         15    1    3    3    0    0 -0.22118022564E+02  0.21913427315E+02  0.19811724993E+01  0.31248807854E+02  0.17770000000E+01 0. -1.
</event>
<event>
 7    1  0.4954109E-006  0.5244954E+03  0.7546771E-02  0.9346608E-01
        -11   -1    0    0    0    0  0.00000000000E+00  0.00000000000E+00  0.50000000000E+03  0.50000000000E+03  0.00000000000E+00 0.  1.
         11   -1    0    0    0    0 -0.00000000000E+00 -0.00000000000E+00 -0.50000000000E+03  0.50000000000E+03  0.00000000000E+00 0. -1.
         23    2    1    2    0    0 -0.53311388049E+01  0.14908780512E+03 -0.27463894249E+03  0.32636552436E+03  0.93980381353E+02 0.  0.
        -11    1    1    2    0    0 -0.10915055270E+02 -0.97561396652E+02  0.46526040834E+03  0.47550458685E+03  0.00000000000E+00 0.  1.
         11    1    1    2    0    0  0.16246194075E+02 -0.51526408469E+02 -0.19062146584E+03  0.19812988879E+03  0.00000000000E+00 0. -1.
        -15    1    3    3    0    0 -0.39243064069E+02  0.27082074181E+02 -0.54832794811E+02  0.72685967939E+02  0.17770000000E+01 0.  1.
         15    1    3    3    0    0  0.33911925264E+02  0.12200573094E+03 -0.21980614768E+03  0.25367955642E+03  0.17770000000E+01 0. -1.
</event>
<event>
 7    1  0.4954109E-006  0.5147836E+03  0.7546771E-02  0.9367325E-01
        -11   -1    0    0    0    0  0.00000000000E+00  0.00000000000E+00  0.50000000000E+03  0.50000000000E+03  0.00000000000E+00 0.  1.
         11   -1    0    0    0    0 -0.00000000000E+00 -0.00000000000E+00 -0.50000000000E+03  0.50000000000E+03  0.00000000000E+00 0. -1.
         23    2    1    2    0    0  0.88782756014E+02 -0.98545520763E+01  0.27196916588E+03  0.30039247428E+03  0.91043514068E+02 0.  0.
        -11    1    1    2    0    0 -0.10423686346E+02  0.66664506936E+02  0.20349631761E+03  0.21439114022E+03  0.00000000000E+00 0.  1.
         11    1    1    2    0    0 -0.78359069668E+02 -0.56809954860E+02 -0.47546548349E+03  0.48521638550E+03  0.00000000000E+00 0. -1.
        -15    1    3    3    0    0  0.25675504074E+02 -0.33954261706E+02  0.18718549153E+03  0.19197314752E+03  0.17770000000E+01 0.  1.
         15    1    3    3    0    0  0.63107251940E+02  0.24099709630E+02  0.84783674344E+02  0.10841932676E+03  0.17770000000E+01 0. -1.
</event>
<event>
 7    1  0.4954109E-006  0.5226995E+03  0.7546771E-02  0.9350403E-01
        -11   -1    0    0    0    0  0.00000000000E+00  0.00000000000E+00  0.50000000000E+03  0.50000000000E+03  0.00000000000E+00 0.  1.
         11   -1    0    0    0    0 -0.00000000000E+00 -0.00000000000E+00 -0.50000000000E+03  0.50000000000E+03  0.00000000000E+00 0. -1.
         23    2    1    2    0    0  0.18919230484E+02  0.15489441045E+02  0.36725155389E+03  0.37937584945E+03  0.91948198706E+02 0.  0.
        -11    1    1    2    0    0  0.26299034214E+02 -0.98676059902E+02  0.10056368380E+03  0.14332361459E+03  0.00000000000E+00 0.  1.
         11    1    1    2    0    0 -0.45218264699E+02  0.83186618857E+02 -0.46781523769E+03  0.47730053597E+03  0.00000000000E+00 0. -1.
        -15    1    3    3    0    0 -0.29161631472E+02 -0.15913141649E+02  0.19438588540E+03  0.19721221818E+03  0.17770000000E+01 0.  1.
         15    1    3    3    0    0  0.48080861957E+02  0.31402582694E+02  0.17286566848E+03  0.18216363126E+03  0.17770000000E+01 0. -1.
</event>
<event>
 7    1  0.4954109E-006  0.3609293E+03  0.7546771E-02  0.9779453E-01
        -11   -1    0    0    0    0  0.00000000000E+00  0.00000000000E+00  0.50000000000E+03  0.50000000000E+03  0.00000000000E+00 0.  1.
         11   -1    0    0    0    0 -0.00000000000E+00 -0.00000000000E+00 -0.50000000000E+03  0.50000000000E+03  0.00000000000E+00 0. -1.
         23    2    1    2    0    0  0.96391332497E+02  0.13511462894E+03  0.15400720743E+03  0.24346484631E+03  0.89496701122E+02 0.  0.
        -11    1    1    2    0    0  0.55883091983E+02 -0.16940741825E+03  0.25930051678E+03  0.31473568487E+03  0.00000000000E+00 0.  1.
         11    1    1    2    0    0 -0.15227442448E+03  0.34292789311E+02 -0.41330772422E+03  0.44179946882E+03  0.00000000000E+00 0. -1.
        -15    1    3    3    0    0  0.91972215679E+02  0.11806422405E+03  0.16488699179E+03  0.22268571406E+03  0.17770000000E+01 0.  1.
         15    1    3    3    0    0  0.44191168182E+01  0.17050404889E+02 -0.10879784353E+02  0.20779132246E+02  0.17770000000E+01 0. -1.
</event>
<event>
 7    1  0.4954109E-006  0.3437038E+03  0.7546771E-02  0.9839129E-01
        -11   -1    0    0    0    0  0.00000000000E+00  0.00000000000E+00  0.50000000000E+03  0.50000000000E+03  0.00000000000E+00 0. -1.
         11   -1    0    0    0    0 -0.00000000000E+00 -0.00000000000E+00 -0.50000000000E+03  0.50000000000E+03  0.00000000000E+00 0.  1.
         23    2    1    2    0    0  0.26036058575E+02 -0.75701196034E+02  0.25476530602E+03  0.28227554751E+03  0.91463523575E+02 0.  0.
        -11    1    1    2    0    0 -0.13049632613E+03  0.16976046502E+03  0.16802630098E+03  0.27217778094E+03  0.00000000000E+00 0. -1.
         11    1    1    2    0    0  0.10446026756E+03 -0.94059268985E+02 -0.42279160700E+03  0.44554667155E+03  0.00000000000E+00 0.  1.
        -15    1    3    3    0    0 -0.30366966555E+02 -0.18575685367E+02  0.12215725201E+03  0.12725077875E+03  0.17770000000E+01 0.  1.
         15    1    3    3    0    0  0.56403025130E+02 -0.57125510667E+02  0.13260805401E+03  0.15502476876E+03  0.17770000000E+01 0. -1.
</event>
<event>
 7    1  0.4954109E-006  0.3968533E+03  0.7546771E-02  0.9665744E-01
        -11   -1    0    0    0    0  0.00000000000E+00  0.00000000000E+00  0.50000000000E+03  0.50000000000E+03  0.00000000000E+00 0.  1.
         11   -1    0    0    0    0 -0.00000000000E+00 -0.00000000000E+00 -0.50000000000E+03  0.50000000000E+03  0.00000000000E+00 0. -1.
         23    2    1    2    0    0  0.12686951971E+03  0.13765121357E+03  0.27783232679E+03  0.34716165454E+03  0.91031208620E+02 0.  0.
        -11    1    1    2    0    0  0.68716297366E+01 -0.10730295374E+03  0.16070479855E+03  0.19335763614E+03  0.00000000000E+00 0.  1.
         11    1    1    2    0    0 -0.13374114945E+03 -0.30348259835E+02 -0.43853712534E+03  0.45948070932E+03  0.00000000000E+00 0. -1.
        -15    1    3    3    0    0  0.22916185608E+02  0.58563255385E+02  0.15731876289E+03  0.16943186634E+03  0.17770000000E+01 0.  1.
         15    1    3    3    0    0  0.10395333410E+03  0.79087958190E+02  0.12051356390E+03  0.17772978820E+03  0.17770000000E+01 0. -1.
</event>
<event>
 7    1  0.4954109E-006  0.3928168E+03  0.7546771E-02  0.9677866E-01
        -11   -1    0    0    0    0  0.00000000000E+00  0.00000000000E+00  0.50000000000E+03  0.50000000000E+03  0.00000000000E+00 0.  1.
         11   -1    0    0    0    0 -0.00000000000E+00 -0.00000000000E+00 -0.50000000000E+03  0.50000000000E+03  0.00000000000E+00 0. -1.
         23    2    1    2    0    0 -0.79911381703E+02  0.78709204077E+02  0.12505811869E+03  0.19660674895E+03  0.10214554788E+03 0.  0.
        -11    1    1    2    0    0  0.12770369213E+03 -0.17029639475E+03  0.29894636536E+03  0.36698504658E+03  0.00000000000E+00 0.  1.
         11    1    1    2    0    0 -0.47792310432E+02  0.91587190674E+02 -0.42400448405E+03  0.43640820447E+03  0.00000000000E+00 0. -1.
        -15    1    3    3    0    0  0.16299439385E+02  0.10662366923E+02  0.57556677224E+02  0.60788869168E+02  0.17770000000E+01 0. -1.
         15    1    3    3    0    0 -0.96210821087E+02  0.68046837154E+02  0.67501441464E+02  0.13581787979E+03  0.17770000000E+01 0.  1.
</event>
<event>
 7    1  0.4954109E-006  0.5107977E+03  0.7546771E-02  0.9375968E-01
        -11   -1    0    0    0    0  0.00000000000E+00  0.00000000000E+00  0.50000000000E+03  0.50000000000E+03  0.00000000000E+00 0.  1.
         11   -1    0    0    0    0 -0.00000000000E+00 -0.00000000000E+00 -0.50000000000E+03  0.50000000000E+03  0.00000000000E+00 0. -1.
         23    2    1    2    0    0 -0.52146611118E+02  0.74028138030E+02  0.47216905710E+03  0.48920232539E+03  0.90420475648E+02 0.  0.
        -11    1    1    2    0    0 -0.55247153283E+01  0.46822225660E+02 -0.53867852957E+02  0.71586233854E+02  0.00000000000E+00 0.  1.
         11    1    1    2    0    0  0.57671326447E+02 -0.12085036369E+03 -0.41830120414E+03  0.43921144075E+03  0.00000000000E+00 0. -1.
        -15    1    3    3    0    0  0.17029936572E+02  0.52913948237E+02  0.20650074118E+03  0.21385887518E+03  0.17770000000E+01 0. -1.
         15    1    3    3    0    0 -0.69176547691E+02  0.21114189793E+02  0.26566831592E+03  0.27534345021E+03  0.17770000000E+01 0.  1.
</event>
<event>
 7    1  0.4954109E-006  0.5267535E+03  0.7546771E-02  0.9341859E-01
        -11   -1    0    0    0    0  0.00000000000E+00  0.00000000000E+00  0.50000000000E+03  0.50000000000E+03  0.00000000000E+00 0. -1.
         11   -1    0    0    0    0 -0.00000000000E+00 -0.00000000000E+00 -0.50000000000E+03  0.50000000000E+03  0.00000000000E+00 0. -1.
         23    2    1    2    0    0  0.12118548156E+03  0.54663119275E+02  0.25631540123E+03  0.30619419931E+03  0.10189860271E+03 0.  0.
        -11    1    1    2    0    0 -0.27561024959E+02 -0.70027944747E+02  0.20732310200E+03  0.22055927041E+03  0.00000000000E+00 0. -1.
         11    1    1    2    0    0 -0.93624456597E+02  0.15364825472E+02 -0.46363850323E+03  0.47324653027E+03  0.00000000000E+00 0. -1.
        -15    1    3    3    0    0  0.11835786957E+03  0.20678181279E+02  0.23988467266E+03  0.26829831602E+03  0.17770000000E+01 0. -1.
         15    1    3    3    0    0  0.28276119831E+01  0.33984937996E+02  0.16430728571E+02  0.37895883292E+02  0.17770000000E+01 0.  1.
</event>
<event>
 7    1  0.5248363E-006  0.5158905E+03  0.7546771E-02  0.9364939E-01
        -11   -1    0    0    0    0  0.00000000000E+00  0.00000000000E+00  0.50000000000E+03  0.50000000000E+03  0.00000000000E+00 0.  1.
         11   -1    0    0    0    0 -0.00000000000E+00 -0.00000000000E+00 -0.50000000000E+03  0.50000000000E+03  0.00000000000E+00 0. -1.
         23    2    1    2    0    0  0.20005073496E+02 -0.90441048001E+02 -0.32365039082E+03  0.34944707125E+03  0.93722430609E+02 0.  0.
        -11    1    1    2    0    0  0.52948257346E+02  0.87295777205E+02  0.47322084885E+03  0.48410953560E+03  0.00000000000E+00 0.  1.
         11    1    1    2    0    0 -0.72953330842E+02  0.31452707957E+01 -0.14957045802E+03  0.16644339315E+03  0.00000000000E+00 0. -1.
        -15    1    3    3    0    0 -0.31673936444E+02 -0.77525784318E+01 -0.10666456193E+03  0.11155190372E+03  0.17770000000E+01 0.  1.
         15    1    3    3    0    0  0.51679009940E+02 -0.82688469569E+02 -0.21698582889E+03  0.23789516753E+03  0.17770000000E+01 0. -1.
</event>
<event>
 7    1  0.4954109E-006  0.5102011E+03  0.7546771E-02  0.9377269E-01
        -11   -1    0    0    0    0  0.00000000000E+00  0.00000000000E+00  0.50000000000E+03  0.50000000000E+03  0.00000000000E+00 0.  1.
         11   -1    0    0    0    0 -0.00000000000E+00 -0.00000000000E+00 -0.50000000000E+03  0.50000000000E+03  0.00000000000E+00 0. -1.
         23    2    1    2    0    0 -0.11905628927E+02  0.44175790956E+02  0.39814780002E+03  0.41115292694E+03  0.91824910383E+02 0.  0.
        -11    1    1    2    0    0 -0.20357798462E+02  0.53728180016E+02  0.80680787170E+02  0.99048203943E+02  0.00000000000E+00 0.  1.
         11    1    1    2    0    0  0.32263427389E+02 -0.97903970972E+02 -0.47882858719E+03  0.48979886912E+03  0.00000000000E+00 0. -1.
        -15    1    3    3    0    0 -0.25405513463E+02  0.57897499892E+02  0.37790815954E+03  0.38316484101E+03  0.17770000000E+01 0.  1.
         15    1    3    3    0    0  0.13499884536E+02 -0.13721708936E+02  0.20239640477E+02  0.27988085933E+02  0.17770000000E+01 0. -1.
</event>
<event>
 7    1  0.4954109E-006  0.5137595E+03  0.7546771E-02  0.9369537E-01
        -11   -1    0    0    0    0  0.00000000000E+00  0.00000000000E+00  0.50000000000E+03  0.50000000000E+03  0.00000000000E+00 0.  1.
         11   -1    0    0    0    0 -0.00000000000E+00 -0.00000000000E+00 -0.50000000000E+03  0.50000000000E+03  0.00000000000E+00 0. -1.
         23    2    1    2    0    0 -0.97298345525E+02 -0.41888961129E+02 -0.18378019489E+03  0.23264584336E+03  0.95536774571E+02 0.  0.
        -11    1    1    2    0    0  0.13629915700E+03  0.11732503460E+03  0.45176010079E+03  0.48624048845E+03  0.00000000000E+00 0.  1.
         11    1    1    2    0    0 -0.39000811473E+02 -0.75436073468E+02 -0.26797990590E+03  0.28111366819E+03  0.00000000000E+00 0. -1.
        -15    1    3    3    0    0 -0.84872083041E+02 -0.54835801344E+02 -0.84476730661E+02  0.13171830298E+03  0.17770000000E+01 0.  1.
         15    1    3    3    0    0 -0.12426262484E+02  0.12946840214E+02 -0.99303464227E+02  0.10092754038E+03  0.17770000000E+01 0. -1.
</event>
<event>
 6    1  0.4954109E-006  0.4501933E+03  0.7546771E-02  0.9518718E-01
        -11   -1    0    0    0    0  0.00000000000E+00  0.00000000000E+00  0.50000000000E+03  0.50000000000E+03  0.00000000000E+00 0.  1.
         11   -1    0    0    0    0 -0.00000000000E+00 -0.00000000000E+00 -0.50000000000E+03  0.50000000000E+03  0.00000000000E+00 0. -1.
        -11    1    1    2    0    0  0.24893265962E+03 -0.23634250734E+02  0.38313615882E+03  0.45751433096E+03  0.00000000000E+00 0.  1.
         11    1    1    2    0    0 -0.24249120723E+03 -0.57329439841E+02 -0.37064228996E+03  0.44661432731E+03  0.00000000000E+00 0. -1.
        -15    1    1    2    0    0  0.16648806320E+02  0.15596128776E+02  0.68322946846E+01  0.23880116506E+02  0.17770000000E+01 0. -1.
         15    1    1    2    0    0 -0.23090258719E+02  0.65367561799E+02 -0.19326163549E+02  0.71991225228E+02  0.17770000000E+01 0.  1.
</event>
<event>
 7    1  0.4954109E-006  0.3656911E+03  0.7546771E-02  0.9763584E-01
        -11   -1    0    0    0    0  0.00000000000E+00  0.00000000000E+00  0.50000000000E+03  0.50000000000E+03  0.00000000000E+00 0.  1.
         11   -1    0    0    0    0 -0.00000000000E+00 -0.00000000000E+00 -0.50000000000E+03  0.50000000000E+03  0.00000000000E+00 0.  1.
         23    2    1    2    0    0  0.85172308646E+02 -0.14471295030E+03  0.12779305876E+03  0.23878574174E+03  0.11176495178E+03 0.  0.
        -11    1    1    2    0    0 -0.13741071007E+03  0.37689524407E+03  0.11892641337E+03  0.41841990875E+03  0.00000000000E+00 0.  1.
         11    1    1    2    0    0  0.52238401425E+02 -0.23218229377E+03 -0.24671947213E+03  0.34279434951E+03  0.00000000000E+00 0.  1.
        -15    1    3    3    0    0 -0.15572419664E+02 -0.10215796153E+02  0.50413268998E+02  0.53772838546E+02  0.17770000000E+01 0.  1.
         15    1    3    3    0    0  0.10074472831E+03 -0.13449715414E+03  0.77379789766E+02  0.18501290319E+03  0.17770000000E+01 0. -1.
</event>
<event>
 7    1  0.4954109E-006  0.5164346E+03  0.7546771E-02  0.9363769E-01
        -11   -1    0    0    0    0  0.00000000000E+00  0.00000000000E+00  0.50000000000E+03  0.50000000000E+03  0.00000000000E+00 0. -1.
         11   -1    0    0    0    0 -0.00000000000E+00 -0.00000000000E+00 -0.50000000000E+03  0.50000000000E+03  0.00000000000E+00 0.  1.
         23    2    1    2    0    0 -0.95882774144E+01 -0.41431305473E+01 -0.14199190565E+03  0.16830101086E+03  0.89746467302E+02 0.  0.
        -11    1    1    2    0    0 -0.84766197762E+02  0.62887131462E+02  0.47190611247E+03  0.48356538190E+03  0.00000000000E+00 0. -1.
         11    1    1    2    0    0  0.94354475176E+02 -0.58744000915E+02 -0.32991420682E+03  0.34813360724E+03  0.00000000000E+00 0.  1.
        -15    1    3    3    0    0  0.37237426790E+00 -0.37239982172E+02 -0.12361576406E+03  0.12911610971E+03  0.17770000000E+01 0.  1.
         15    1    3    3    0    0 -0.99606516823E+01  0.33096851624E+02 -0.18376141590E+02  0.39184901150E+02  0.17770000000E+01 0. -1.
</event>
<event>
 7    1  0.4954109E-006  0.4650553E+03  0.7546771E-02  0.9481586E-01
        -11   -1    0    0    0    0  0.00000000000E+00  0.00000000000E+00  0.50000000000E+03  0.50000000000E+03  0.00000000000E+00 0.  1.
         11   -1    0    0    0    0 -0.00000000000E+00 -0.00000000000E+00 -0.50000000000E+03  0.50000000000E+03  0.00000000000E+00 0.  1.
         23    2    1    2    0    0 -0.12204730959E+03 -0.44424198959E+02  0.43683003079E+03  0.46488934419E+03  0.91829033035E+02 0.  0.
        -11    1    1    2    0    0  0.35726948510E+02  0.65579152687E+02  0.13676250088E+02  0.75921538008E+02  0.00000000000E+00 0.  1.
         11    1    1    2    0    0  0.86320361084E+02 -0.21154953728E+02 -0.45050628087E+03  0.45918911781E+03  0.00000000000E+00 0.  1.
        -15    1    3    3    0    0 -0.65998274637E+02 -0.34862770792E+02  0.36845940467E+03  0.37594770336E+03  0.17770000000E+01 0.  1.
         15    1    3    3    0    0 -0.56049034958E+02 -0.95614281670E+01  0.68370626115E+02  0.88941640825E+02  0.17770000000E+01 0. -1.
</event>
<event>
 7    1  0.4954109E-006  0.3410667E+03  0.7546771E-02  0.9848595E-01
        -11   -1    0    0    0    0  0.00000000000E+00  0.00000000000E+00  0.50000000000E+03  0.50000000000E+03  0.00000000000E+00 0. -1.
         11   -1    0    0    0    0 -0.00000000000E+00 -0.00000000000E+00 -0.50000000000E+03  0.50000000000E+03  0.00000000000E+00 0.  1.
         23    2    1    2    0    0  0.12872813054E+03 -0.59456897859E+02  0.21726919635E+03  0.27019316406E+03  0.75447915308E+02 0.  0.
        -11    1    1    2    0    0 -0.16738905911E+03  0.12531098803E+03  0.20965708822E+03  0.29610477110E+03  0.00000000000E+00 0. -1.
         11    1    1    2    0    0  0.38660928569E+02 -0.65854090168E+02 -0.42692628457E+03  0.43370206484E+03  0.00000000000E+00 0.  1.
        -15    1    3    3    0    0  0.85306591745E+02 -0.15624953510E+02  0.17519379250E+03  0.19549265057E+03  0.17770000000E+01 0. -1.
         15    1    3    3    0    0  0.43421538795E+02 -0.43831944349E+02  0.42075403849E+02  0.74700513484E+02  0.17770000000E+01 0.  1.
</event>
<event>
 7    1  0.4954109E-006  0.3390076E+03  0.7546771E-02  0.9856051E-01
        -11   -1    0    0    0    0  0.00000000000E+00  0.00000000000E+00  0.50000000000E+03  0.50000000000E+03  0.00000000000E+00 0.  1.
         11   -1    0    0    0    0 -0.00000000000E+00 -0.00000000000E+00 -0.50000000000E+03  0.50000000000E+03  0.00000000000E+00 0. -1.
         23    2    1    2    0    0 -0.11253331474E+03 -0.21606875759E+02  0.23191025266E+03  0.27431573605E+03  0.91302539658E+02 0.  0.
        -11    1    1    2    0    0  0.21051305567E+03  0.80207113779E+02  0.18620090775E+03  0.29226649783E+03  0.00000000000E+00 0.  1.
         11    1    1    2    0    0 -0.97979740928E+02 -0.58600238020E+02 -0.41811116041E+03  0.43341776612E+03  0.00000000000E+00 0. -1.
        -15    1    3    3    0    0 -0.81111473547E+02  0.22181286421E+02  0.18346381287E+03  0.20182469861E+03  0.17770000000E+01 0. -1.
         15    1    3    3    0    0 -0.31421841198E+02 -0.43788162180E+02  0.48446439791E+02  0.72491037438E+02  0.17770000000E+01 0.  1.
</event>
<event>
 7    1  0.4954109E-006  0.5102307E+03  0.7546771E-02  0.9377204E-01
        -11   -1    0    0    0    0  0.00000000000E+00  0.00000000000E+00  0.50000000000E+03  0.50000000000E+03  0.00000000000E+00 0.  1.
         11   -1    0    0    0    0 -0.00000000000E+00 -0.00000000000E+00 -0.50000000000E+03  0.50000000000E+03  0.00000000000E+00 0.  1.
         23    2    1    2    0    0  0.79554375415E+01  0.11836425578E+03 -0.38845549915E+03  0.41617131283E+03  0.90705571894E+02 0.  0.
        -11    1    1    2    0    0 -0.37449700100E+02 -0.10540067455E+03  0.47682514925E+03  0.48976933877E+03  0.00000000000E+00 0.  1.
         11    1    1    2    0    0  0.29494262558E+02 -0.12963581227E+02 -0.88369650107E+02  0.94059348404E+02  0.00000000000E+00 0.  1.
        -15    1    3    3    0    0 -0.14800098246E+02  0.75269881628E+02 -0.33558262744E+03  0.34424330866E+03  0.17770000000E+01 0.  1.
         15    1    3    3    0    0  0.22755535788E+02  0.43094374149E+02 -0.52872871706E+02  0.71928004169E+02  0.17770000000E+01 0. -1.
</event>
<event>
 7    1  0.4954109E-006  0.5224681E+03  0.7546771E-02  0.9350893E-01
        -11   -1    0    0    0    0  0.00000000000E+00  0.00000000000E+00  0.50000000000E+03  0.50000000000E+03  0.00000000000E+00 0.  1.
         11   -1    0    0    0    0 -0.00000000000E+00 -0.00000000000E+00 -0.50000000000E+03  0.50000000000E+03  0.00000000000E+00 0. -1.
         23    2    1    2    0    0  0.30366417356E+02  0.26892570163E+02  0.27530910158E+03  0.29273168815E+03  0.90837273192E+02 0.  0.
        -11    1    1    2    0    0  0.11975134547E+03  0.12334836907E+03  0.15239294592E+03  0.22973640299E+03  0.00000000000E+00 0.  1.
         11    1    1    2    0    0 -0.15011776283E+03 -0.15024093923E+03 -0.42770204750E+03  0.47753190886E+03  0.00000000000E+00 0. -1.
        -15    1    3    3    0    0  0.32606457977E+02  0.56809318334E+02  0.22274178481E+03  0.23217997369E+03  0.17770000000E+01 0.  1.
         15    1    3    3    0    0 -0.22400406208E+01 -0.29916748171E+02  0.52567316772E+02  0.60551714466E+02  0.17770000000E+01 0. -1.
</event>
<event>
 7    1  0.4954109E-006  0.5194414E+03  0.7546771E-02  0.9357329E-01
        -11   -1    0    0    0    0  0.00000000000E+00  0.00000000000E+00  0.50000000000E+03  0.50000000000E+03  0.00000000000E+00 0. -1.
         11   -1    0    0    0    0 -0.00000000000E+00 -0.00000000000E+00 -0.50000000000E+03  0.50000000000E+03  0.00000000000E+00 0.  1.
         23    2    1    2    0    0 -0.49832467257E+02 -0.34104421864E+02  0.13008216902E+03  0.17072818475E+03  0.92630210987E+02 0.  0.
        -11    1    1    2    0    0 -0.27430947288E+02  0.50534099769E+02  0.34394001275E+03  0.34871318369E+03  0.00000000000E+00 0. -1.
         11    1    1    2    0    0  0.77263414546E+02 -0.16429677904E+02 -0.47402218178E+03  0.48055863155E+03  0.00000000000E+00 0.  1.
        -15    1    3    3    0    0 -0.60949752683E+02 -0.52327497471E+02  0.12518832240E+03  0.14875588438E+03  0.17770000000E+01 0. -1.
         15    1    3    3    0    0  0.11117285425E+02  0.18223075606E+02  0.48938466204E+01  0.21972300369E+02  0.17770000000E+01 0.  1.
</event>
<event>
 7    1  0.4954109E-006  0.3455001E+03  0.7546771E-02  0.9832733E-01
        -11   -1    0    0    0    0  0.00000000000E+00  0.00000000000E+00  0.50000000000E+03  0.50000000000E+03  0.00000000000E+00 0. -1.
         11   -1    0    0    0    0 -0.00000000000E+00 -0.00000000000E+00 -0.50000000000E+03  0.50000000000E+03  0.00000000000E+00 0.  1.
         23    2    1    2    0    0 -0.10566607752E+03 -0.22054363121E+03 -0.13687046708E+03  0.29487914641E+03  0.91735342269E+02 0.  0.
        -11    1    1    2    0    0  0.57718692355E+02  0.16865043694E+03  0.39720509772E+03  0.43536916173E+03  0.00000000000E+00 0. -1.
         11    1    1    2    0    0  0.47947385164E+02  0.51893194273E+02 -0.26033463064E+03  0.26975169187E+03  0.00000000000E+00 0.  1.
        -15    1    3    3    0    0 -0.16342731948E+02 -0.67791630111E+00 -0.30822481391E+02  0.34938911633E+02  0.17770000000E+01 0. -1.
         15    1    3    3    0    0 -0.89323345571E+02 -0.21986571491E+03 -0.10604798569E+03  0.25994023477E+03  0.17770000000E+01 0.  1.
</event>
<event>
 7    1  0.4954109E-006  0.5289435E+03  0.7546771E-02  0.9337278E-01
        -11   -1    0    0    0    0  0.00000000000E+00  0.00000000000E+00  0.50000000000E+03  0.50000000000E+03  0.00000000000E+00 0. -1.
         11   -1    0    0    0    0 -0.00000000000E+00 -0.00000000000E+00 -0.50000000000E+03  0.50000000000E+03  0.00000000000E+00 0.  1.
         23    2    1    2    0    0 -0.33179000867E+02  0.17201121651E+02  0.32973690538E+03  0.34367402128E+03  0.89379424092E+02 0.  0.
        -11    1    1    2    0    0  0.84638735260E+02 -0.99792038758E+02  0.13115877885E+03  0.18526951119E+03  0.00000000000E+00 0. -1.
         11    1    1    2    0    0 -0.51459734393E+02  0.82590917106E+02 -0.46089568423E+03  0.47105646753E+03  0.00000000000E+00 0.  1.
        -15    1    3    3    0    0  0.17857662853E+02  0.30289755403E+02  0.66860286428E+02  0.75563357755E+02  0.17770000000E+01 0.  1.
         15    1    3    3    0    0 -0.51036663720E+02 -0.13088633752E+02  0.26287661895E+03  0.26811066353E+03  0.17770000000E+01 0. -1.
</event>
<event>
 7    1  0.4954109E-006  0.4572800E+03  0.7546771E-02  0.9500824E-01
        -11   -1    0    0    0    0  0.00000000000E+00  0.00000000000E+00  0.50000000000E+03  0.50000000000E+03  0.00000000000E+00 0.  1.
         11   -1    0    0    0    0 -0.00000000000E+00 -0.00000000000E+00 -0.50000000000E+03  0.50000000000E+03  0.00000000000E+00 0. -1.
         23    2    1    2    0    0 -0.26088689899E+02 -0.41746826058E+02  0.42849807110E+03  0.44115711537E+03  0.92658438802E+02 0.  0.
        -11    1    1    2    0    0 -0.81625544355E+02  0.27847752154E+02  0.27159647592E+02  0.90420535547E+02  0.00000000000E+00 0.  1.
         11    1    1    2    0    0  0.10771423425E+03  0.13899073904E+02 -0.45565771869E+03  0.46842234908E+03  0.00000000000E+00 0. -1.
        -15    1    3    3    0    0  0.51205246313E+01  0.19925163039E+02  0.28313463827E+02  0.35043428164E+02  0.17770000000E+01 0. -1.
         15    1    3    3    0    0 -0.31209214530E+02 -0.61671989097E+02  0.40018460727E+03  0.40611368721E+03  0.17770000000E+01 0.  1.
</event>
<event>
 7    1  0.4954109E-006  0.3885097E+03  0.7546771E-02  0.9690974E-01
        -11   -1    0    0    0    0  0.00000000000E+00  0.00000000000E+00  0.50000000000E+03  0.50000000000E+03  0.00000000000E+00 0.  1.
         11   -1    0    0    0    0 -0.00000000000E+00 -0.00000000000E+00 -0.50000000000E+03  0.50000000000E+03  0.00000000000E+00 0. -1.
         23    2    1    2    0    0 -0.58472167945E+02  0.13357733779E+03  0.10373809494E+03  0.20264020858E+03  0.95076612246E+02 0.  0.
        -11    1    1    2    0    0 -0.27304867250E+02 -0.17283530900E+03  0.31920809407E+03  0.36402116303E+03  0.00000000000E+00 0.  1.
         11    1    1    2    0    0  0.85777035195E+02  0.39257971211E+02 -0.42294618900E+03  0.43333862840E+03  0.00000000000E+00 0. -1.
        -15    1    3    3    0    0 -0.67586889691E+02  0.52672005647E+02  0.81387471922E+02  0.11819224235E+03  0.17770000000E+01 0.  1.
         15    1    3    3    0    0  0.91147217465E+01  0.80905332143E+02  0.22350623013E+02  0.84447966226E+02  0.17770000000E+01 0. -1.
</event>
<event>
 7    1  0.4954109E-006  0.3842301E+03  0.7546771E-02  0.9704179E-01
        -11   -1    0    0    0    0  0.00000000000E+00  0.00000000000E+00  0.50000000000E+03  0.50000000000E+03  0.00000000000E+00 0. -1.
         11   -1    0    0    0    0 -0.00000000000E+00 -0.00000000000E+00 -0.50000000000E+03  0.50000000000E+03  0.00000000000E+00 0. -1.
         23    2    1    2    0    0  0.17448284635E+03  0.77520834836E+01  0.71026250118E+02  0.20874769573E+03  0.89590813122E+02 0.  0.
        -11    1    1    2    0    0 -0.35294398545E+03  0.14435155160E+03  0.20186291834E+03  0.43145737346E+03  0.00000000000E+00 0. -1.
         11    1    1    2    0    0  0.17846113910E+03 -0.15210363508E+03 -0.27288916846E+03  0.35979493081E+03  0.00000000000E+00 0. -1.
        -15    1    3    3    0    0  0.12578869389E+02  0.21864250641E+02  0.33450679877E+02  0.41933031425E+02  0.17770000000E+01 0.  1.
         15    1    3    3    0    0  0.16190397696E+03 -0.14112167157E+02  0.37575570241E+02  0.16681466430E+03  0.17770000000E+01 0. -1.
</event>
<event>
 7    1  0.4954109E-006  0.4078990E+03  0.7546771E-02  0.9633345E-01
        -11   -1    0    0    0    0  0.00000000000E+00  0.00000000000E+00  0.50000000000E+03  0.50000000000E+03  0.00000000000E+00 0. -1.
         11   -1    0    0    0    0 -0.00000000000E+00 -0.00000000000E+00 -0.50000000000E+03  0.50000000000E+03  0.00000000000E+00 0.  1.
         23    2    1    2    0    0 -0.81605669465E+02  0.30391245979E+02  0.35400881562E+03  0.37571960029E+03  0.90883790555E+02 0.  0.
        -11    1    1    2    0    0  0.97576628784E+02 -0.11805535352E+03  0.85786144613E+02  0.17554921700E+03  0.00000000000E+00 0. -1.
         11    1    1    2    0    0 -0.15970959319E+02  0.87664107544E+02 -0.43979496023E+03  0.44873118271E+03  0.00000000000E+00 0.  1.
        -15    1    3    3    0    0  0.19558300577E+02  0.11994335812E+02  0.62275396685E+02  0.66391068483E+02  0.17770000000E+01 0.  1.
         15    1    3    3    0    0 -0.10116397004E+03  0.18396910166E+02  0.29173341893E+03  0.30932853181E+03  0.17770000000E+01 0. -1.
</event>
<event>
 7    1  0.4954109E-006  0.5395348E+03  0.7546771E-02  0.9315449E-01
        -11   -1    0    0    0    0  0.00000000000E+00  0.00000000000E+00  0.50000000000E+03  0.50000000000E+03  0.00000000000E+00 0. -1.
         11   -1    0    0    0    0 -0.00000000000E+00 -0.00000000000E+00 -0.50000000000E+03  0.50000000000E+03  0.00000000000E+00 0. -1.
         23    2    1    2    0    0 -0.17887205205E+02 -0.85045991505E+02  0.26607004902E+03  0.29443817705E+03  0.91366275727E+02 0.  0.
        -11    1    1    2    0    0 -0.41363663831E+02 -0.23380095097E+03  0.60815483403E+02  0.24509663478E+03  0.00000000000E+00 0. -1.
         11    1    1    2    0    0  0.59250869036E+02  0.31884694247E+03 -0.32688553242E+03  0.46046518817E+03  0.00000000000E+00 0. -1.
        -15    1    3    3    0    0  0.94050930445E+01 -0.93572257688E+02  0.22917379148E+03  0.24772567007E+03  0.17770000000E+01 0. -1.
         15    1    3    3    0    0 -0.27292298250E+02  0.85262661830E+01  0.36896257540E+02  0.46712506979E+02  0.17770000000E+01 0.  1.
</event>
<event>
 7    1  0.4954109E-006  0.5310434E+03  0.7546771E-02  0.9332907E-01
        -11   -1    0    0    0    0  0.00000000000E+00  0.00000000000E+00  0.50000000000E+03  0.50000000000E+03  0.00000000000E+00 0.  1.
         11   -1    0    0    0    0 -0.00000000000E+00 -0.00000000000E+00 -0.50000000000E+03  0.50000000000E+03  0.00000000000E+00 0. -1.
         23    2    1    2    0    0 -0.13531347372E+03  0.29178791061E+02  0.35856123276E+03  0.39482740636E+03  0.90340384954E+02 0.  0.
        -11    1    1    2    0    0  0.52240473858E+02 -0.75464474569E+02  0.10065204529E+03  0.13621596181E+03  0.00000000000E+00 0.  1.
         11    1    1    2    0    0  0.83072999859E+02  0.46285683508E+02 -0.45921327805E+03  0.46895663183E+03  0.00000000000E+00 0. -1.
        -15    1    3    3    0    0  0.97268413311E+01 -0.37386302453E+01  0.59535382251E+01  0.12132235770E+02  0.17770000000E+01 0. -1.
         15    1    3    3    0    0 -0.14504031505E+03  0.32917421307E+02  0.35260769454E+03  0.38269517059E+03  0.17770000000E+01 0.  1.
</event>
<event>
 7    1  0.4954109E-006  0.4418369E+03  0.7546771E-02  0.9540272E-01
        -11   -1    0    0    0    0  0.00000000000E+00  0.00000000000E+00  0.50000000000E+03  0.50000000000E+03  0.00000000000E+00 0.  1.
         11   -1    0    0    0    0 -0.00000000000E+00 -0.00000000000E+00 -0.50000000000E+03  0.50000000000E+03  0.00000000000E+00 0.  1.
         23    2    1    2    0    0  0.50846709108E+02  0.38956854785E+02 -0.22750524860E+02  0.11371553043E+03  0.91162553260E+02 0.  0.
        -11    1    1    2    0    0 -0.11253387802E+03  0.16033174463E+03  0.40552238342E+03  0.45035380035E+03  0.00000000000E+00 0.  1.
         11    1    1    2    0    0  0.61687168910E+02 -0.19928859942E+03 -0.38277185856E+03  0.43593066922E+03  0.00000000000E+00 0.  1.
        -15    1    3    3    0    0  0.34813436305E+02 -0.11155594217E+02  0.23620437090E+02  0.43560365093E+02  0.17770000000E+01 0. -1.
         15    1    3    3    0    0  0.16033272803E+02  0.50112449002E+02 -0.46370961950E+02  0.70155165333E+02  0.17770000000E+01 0.  1.
</event>
<event>
 7    1  0.4954109E-006  0.5274986E+03  0.7546771E-02  0.9340298E-01
        -11   -1    0    0    0    0  0.00000000000E+00  0.00000000000E+00  0.50000000000E+03  0.50000000000E+03  0.00000000000E+00 0. -1.
         11   -1    0    0    0    0 -0.00000000000E+00 -0.00000000000E+00 -0.50000000000E+03  0.50000000000E+03  0.00000000000E+00 0.  1.
         23    2    1    2    0    0  0.77211656921E+02 -0.29644884979E+02 -0.37238181327E+03  0.39211660315E+03  0.90811653676E+02 0.  0.
        -11    1    1    2    0    0 -0.26552159337E+02  0.12403969770E+03  0.45515570658E+03  0.47250140847E+03  0.00000000000E+00 0. -1.
         11    1    1    2    0    0 -0.50659497584E+02 -0.94394812723E+02 -0.82773893311E+02  0.13538198838E+03  0.00000000000E+00 0.  1.
        -15    1    3    3    0    0  0.91292489110E+02 -0.44776381779E+02 -0.29682495497E+03  0.31376337350E+03  0.17770000000E+01 0.  1.
         15    1    3    3    0    0 -0.14080832189E+02  0.15131496799E+02 -0.75556858302E+02  0.78353229646E+02  0.17770000000E+01 0. -1.
</event>
<event>
 7    1  0.4954109E-006  0.5106360E+03  0.7546771E-02  0.9376320E-01
        -11   -1    0    0    0    0  0.00000000000E+00  0.00000000000E+00  0.50000000000E+03  0.50000000000E+03  0.00000000000E+00 0. -1.
         11   -1    0    0    0    0 -0.00000000000E+00 -0.00000000000E+00 -0.50000000000E+03  0.50000000000E+03  0.00000000000E+00 0.  1.
         23    2    1    2    0    0 -0.93585177262E+02  0.77195847193E+02  0.36576736393E+03  0.39601228672E+03  0.91228189124E+02 0.  0.
        -11    1    1    2    0    0  0.27810436353E+02  0.28192730736E+02  0.10756554904E+03  0.11462372258E+03  0.00000000000E+00 0. -1.
         11    1    1    2    0    0  0.65774740908E+02 -0.10538857793E+03 -0.47333291297E+03  0.48936399071E+03  0.00000000000E+00 0.  1.
        -15    1    3    3    0    0 -0.10403488515E+03  0.86325485098E+02  0.34839252499E+03  0.37370557382E+03  0.17770000000E+01 0. -1.
         15    1    3    3    0    0  0.10449707890E+02 -0.91296379050E+01  0.17374838938E+02  0.22306712900E+02  0.17770000000E+01 0.  1.
</event>
<event>
 7    1  0.4954109E-006  0.5189415E+03  0.7546771E-02  0.9358396E-01
        -11   -1    0    0    0    0  0.00000000000E+00  0.00000000000E+00  0.50000000000E+03  0.50000000000E+03  0.00000000000E+00 0.  1.
         11   -1    0    0    0    0 -0.00000000000E+00 -0.00000000000E+00 -0.50000000000E+03  0.50000000000E+03  0.00000000000E+00 0. -1.
         23    2    1    2    0    0  0.24853540051E+02  0.35261433468E+02  0.31818739454E+03  0.32811467290E+03  0.67490394742E+02 0.  0.
        -11    1    1    2    0    0  0.47955991772E+02  0.13536701750E+03  0.12566169143E+03  0.19082679914E+03  0.00000000000E+00 0.  1.
         11    1    1    2    0    0 -0.72809531823E+02 -0.17062845097E+03 -0.44384908598E+03  0.48105852796E+03  0.00000000000E+00 0. -1.
        -15    1    3    3    0    0  0.44984002328E+02  0.20497687786E+02  0.26166120565E+03  0.26629581285E+03  0.17770000000E+01 0. -1.
         15    1    3    3    0    0 -0.20130462277E+02  0.14763745682E+02  0.56526188890E+02  0.61818860047E+02  0.17770000000E+01 0.  1.
</event>
<event>
 7    1  0.4954109E-006  0.5376950E+03  0.7546771E-02  0.9319202E-01
        -11   -1    0    0    0    0  0.00000000000E+00  0.00000000000E+00  0.50000000000E+03  0.50000000000E+03  0.00000000000E+00 0. -1.
         11   -1    0    0    0    0 -0.00000000000E+00 -0.00000000000E+00 -0.50000000000E+03  0.50000000000E+03  0.00000000000E+00 0.  1.
         23    2    1    2    0    0 -0.11423493267E+03  0.81456942701E+02  0.20048449923E+03  0.26227485275E+03  0.94388614783E+02 0.  0.
        -11    1    1    2    0    0  0.11696504792E+03  0.35188712741E+02  0.24685458503E+03  0.27542014104E+03  0.00000000000E+00 0. -1.
         11    1    1    2    0    0 -0.27301152553E+01 -0.11664565544E+03 -0.44733908426E+03  0.46230500621E+03  0.00000000000E+00 0.  1.
        -15    1    3    3    0    0 -0.39225935393E+02  0.15641379868E+01  0.12007196207E+03  0.12633904519E+03  0.17770000000E+01 0. -1.
         15    1    3    3    0    0 -0.75008997273E+02  0.79892804714E+02  0.80412537160E+02  0.13593580757E+03  0.17770000000E+01 0.  1.
</event>
<event>
 7    1  0.4954109E-006  0.4156843E+03  0.7546771E-02  0.9611161E-01
        -11   -1    0    0    0    0  0.00000000000E+00  0.00000000000E+00  0.50000000000E+03  0.50000000000E+03  0.00000000000E+00 0. -1.
         11   -1    0    0    0    0 -0.00000000000E+00 -0.00000000000E+00 -0.50000000000E+03  0.50000000000E+03  0.00000000000E+00 0. -1.
         23    2    1    2    0    0 -0.78326277437E+01 -0.12464360411E+02  0.40371870823E+03  0.41377203244E+03  0.89452720016E+02 0.  0.
        -11    1    1    2    0    0  0.61288403592E+02  0.15031431704E+03 -0.65824189062E+01  0.16246227427E+03  0.00000000000E+00 0. -1.
         11    1    1    2    0    0 -0.53455775848E+02 -0.13784995663E+03 -0.39713628932E+03  0.42376569329E+03  0.00000000000E+00 0. -1.
        -15    1    3    3    0    0  0.38385652740E+02  0.84001559413E+01  0.15342301841E+03  0.15838497803E+03  0.17770000000E+01 0.  1.
         15    1    3    3    0    0 -0.46218280484E+02 -0.20864516352E+02  0.25029568981E+03  0.25538705441E+03  0.17770000000E+01 0. -1.
</event>
<event>
 7    1  0.4954109E-006  0.5202079E+03  0.7546771E-02  0.9355695E-01
        -11   -1    0    0    0    0  0.00000000000E+00  0.00000000000E+00  0.50000000000E+03  0.50000000000E+03  0.00000000000E+00 0.  1.
         11   -1    0    0    0    0 -0.00000000000E+00 -0.00000000000E+00 -0.50000000000E+03  0.50000000000E+03  0.00000000000E+00 0. -1.
         23    2    1    2    0    0  0.42991887093E+02 -0.21797377581E+02  0.25168547784E+03  0.27158613437E+03  0.89944541808E+02 0.  0.
        -11    1    1    2    0    0 -0.94581130364E+02 -0.87467017734E+02  0.21264227065E+03  0.24862181055E+03  0.00000000000E+00 0.  1.
         11    1    1    2    0    0  0.51589243272E+02  0.10926439532E+03 -0.46432774849E+03  0.47979205508E+03  0.00000000000E+00 0. -1.
        -15    1    3    3    0    0  0.47915746292E+02 -0.47901892716E+02  0.21998105721E+03  0.23018543249E+03  0.17770000000E+01 0. -1.
         15    1    3    3    0    0 -0.49238591997E+01  0.26104515136E+02  0.31704420625E+02  0.41400701879E+02  0.17770000000E+01 0.  1.
</event>
<event>
 7    1  0.4954109E-006  0.3383392E+03  0.7546771E-02  0.9858484E-01
        -11   -1    0    0    0    0  0.00000000000E+00  0.00000000000E+00  0.50000000000E+03  0.50000000000E+03  0.00000000000E+00 0.  1.
         11   -1    0    0    0    0 -0.00000000000E+00 -0.00000000000E+00 -0.50000000000E+03  0.50000000000E+03  0.00000000000E+00 0. -1.
         23    2    1    2    0    0 -0.18108465336E+03  0.27500272047E+03  0.16321137471E+03  0.37863261579E+03  0.91140314638E+02 0.  0.
        -11    1    1    2    0    0  0.20294516568E+03 -0.12690194885E+03  0.14420370903E+03  0.27943792619E+03  0.00000000000E+00 0.  1.
         11    1    1    2    0    0 -0.21860512322E+02 -0.14810077162E+03 -0.30741508374E+03  0.34192945802E+03  0.00000000000E+00 0. -1.
        -15    1    3    3    0    0 -0.17024276717E+03  0.26314496432E+03  0.17468290858E+03  0.35881074162E+03  0.17770000000E+01 0.  1.
         15    1    3    3    0    0 -0.10841886198E+02  0.11857756153E+02 -0.11471533872E+02  0.19821874172E+02  0.17770000000E+01 0. -1.
</event>
<event>
 7    1  0.4954109E-006  0.5203255E+03  0.7546771E-02  0.9355444E-01
        -11   -1    0    0    0    0  0.00000000000E+00  0.00000000000E+00  0.50000000000E+03  0.50000000000E+03  0.00000000000E+00 0. -1.
         11   -1    0    0    0    0 -0.00000000000E+00 -0.00000000000E+00 -0.50000000000E+03  0.50000000000E+03  0.00000000000E+00 0. -1.
         23    2    1    2    0    0 -0.10843752495E+03  0.80936976205E+02  0.38582782467E+03  0.41897972596E+03  0.91495407232E+02 0.  0.
        -11    1    1    2    0    0  0.32789954614E+01 -0.59872751710E+02  0.81703556166E+02  0.10134579073E+03  0.00000000000E+00 0. -1.
         11    1    1    2    0    0  0.10515852949E+03 -0.21064224495E+02 -0.46753138083E+03  0.47967448331E+03  0.00000000000E+00 0. -1.
        -15    1    3    3    0    0  0.53552521322E+01 -0.14025618774E+02  0.35032661081E+02  0.38155494739E+02  0.17770000000E+01 0.  1.
         15    1    3    3    0    0 -0.11379277708E+03  0.94962594979E+02  0.35079516358E+03  0.38082423122E+03  0.17770000000E+01 0. -1.
</event>
<event>
 7    1  0.4954109E-006  0.4262955E+03  0.7546771E-02  0.9581746E-01
        -11   -1    0    0    0    0  0.00000000000E+00  0.00000000000E+00  0.50000000000E+03  0.50000000000E+03  0.00000000000E+00 0. -1.
         11   -1    0    0    0    0 -0.00000000000E+00 -0.00000000000E+00 -0.50000000000E+03  0.50000000000E+03  0.00000000000E+00 0. -1.
         23    2    1    2    0    0 -0.11228826972E+03  0.46983583040E+02  0.43657302779E+03  0.46265741877E+03  0.92950341342E+02 0.  0.
        -11    1    1    2    0    0 -0.91994723729E+02 -0.47432798773E+02 -0.10188610996E+03  0.14523663104E+03  0.00000000000E+00 0. -1.
         11    1    1    2    0    0  0.20428299345E+03  0.44921573312E+00 -0.33468691783E+03  0.39210595019E+03  0.00000000000E+00 0. -1.
        -15    1    3    3    0    0 -0.82211666187E+02  0.67790514496E+02  0.38452705213E+03  0.39902195862E+03  0.17770000000E+01 0. -1.
         15    1    3    3    0    0 -0.30076603536E+02 -0.20806931456E+02  0.52045975660E+02  0.63635460148E+02  0.17770000000E+01 0.  1.
</event>
<event>
 7    1  0.4954109E-006  0.5201580E+03  0.7546771E-02  0.9355801E-01
        -11   -1    0    0    0    0  0.00000000000E+00  0.00000000000E+00  0.50000000000E+03  0.50000000000E+03  0.00000000000E+00 0.  1.
         11   -1    0    0    0    0 -0.00000000000E+00 -0.00000000000E+00 -0.50000000000E+03  0.50000000000E+03  0.00000000000E+00 0. -1.
         23    2    1    2    0    0 -0.66343383885E+02  0.12078236971E+03  0.34954011274E+03  0.38663531306E+03  0.91207178825E+02 0.  0.
        -11    1    1    2    0    0 -0.54162824852E+01 -0.57040013214E+02  0.12060434417E+03  0.13352268368E+03  0.00000000000E+00 0.  1.
         11    1    1    2    0    0  0.71759666370E+02 -0.63742356491E+02 -0.47014445692E+03  0.47984200326E+03  0.00000000000E+00 0. -1.
        -15    1    3    3    0    0 -0.82096639778E+02  0.12253391212E+03  0.32960241262E+03  0.36110292995E+03  0.17770000000E+01 0.  1.
         15    1    3    3    0    0  0.15753255893E+02 -0.17515424150E+01  0.19937700123E+02  0.25532383110E+02  0.17770000000E+01 0. -1.
</event>
<event>
 7    1  0.4954109E-006  0.4229900E+03  0.7546771E-02  0.9590810E-01
        -11   -1    0    0    0    0  0.00000000000E+00  0.00000000000E+00  0.50000000000E+03  0.50000000000E+03  0.00000000000E+00 0.  1.
         11   -1    0    0    0    0 -0.00000000000E+00 -0.00000000000E+00 -0.50000000000E+03  0.50000000000E+03  0.00000000000E+00 0. -1.
         23    2    1    2    0    0 -0.67010446734E+02  0.34188198171E+02  0.85591120499E+02  0.14638000327E+03  0.91880534308E+02 0.  0.
        -11    1    1    2    0    0  0.12797510878E+03 -0.82631307466E+02  0.36543862033E+03  0.39591785344E+03  0.00000000000E+00 0.  1.
         11    1    1    2    0    0 -0.60964662047E+02  0.48443109295E+02 -0.45102974083E+03  0.45770214329E+03  0.00000000000E+00 0. -1.
        -15    1    3    3    0    0  0.22466429981E+02  0.15224567077E+02  0.21753908247E+02  0.34826974772E+02  0.17770000000E+01 0. -1.
         15    1    3    3    0    0 -0.89476876715E+02  0.18963631094E+02  0.63837212252E+02  0.11155302850E+03  0.17770000000E+01 0.  1.
</event>
<event>
 7    1  0.4954109E-006  0.5248097E+03  0.7546771E-02  0.9345946E-01
        -11   -1    0    0    0    0  0.00000000000E+00  0.00000000000E+00  0.50000000000E+03  0.50000000000E+03  0.00000000000E+00 0.  1.
         11   -1    0    0    0    0 -0.00000000000E+00 -0.00000000000E+00 -0.50000000000E+03  0.50000000000E+03  0.00000000000E+00 0.  1.
         23    2    1    2    0    0 -0.21688793523E+03 -0.38223249249E+02  0.23650191627E+03  0.33543562751E+03  0.89902784021E+02 0.  0.
        -11    1    1    2    0    0 -0.49290998541E+01 -0.10138713837E+03  0.15987154142E+03  0.18937412075E+03  0.00000000000E+00 0.  1.
         11    1    1    2    0    0  0.22181703509E+03  0.13961038762E+03 -0.39637345769E+03  0.47519025174E+03  0.00000000000E+00 0.  1.
        -15    1    3    3    0    0 -0.15149939455E+02  0.11116342882E+02  0.59926049892E+02  0.62828201703E+02  0.17770000000E+01 0. -1.
         15    1    3    3    0    0 -0.20173799578E+03 -0.49339592131E+02  0.17657586637E+03  0.27260742581E+03  0.17770000000E+01 0.  1.
</event>
<event>
 7    1  0.4954109E-006  0.3450277E+03  0.7546771E-02  0.9834411E-01
        -11   -1    0    0    0    0  0.00000000000E+00  0.00000000000E+00  0.50000000000E+03  0.50000000000E+03  0.00000000000E+00 0.  1.
         11   -1    0    0    0    0 -0.00000000000E+00 -0.00000000000E+00 -0.50000000000E+03  0.50000000000E+03  0.00000000000E+00 0. -1.
         23    2    1    2    0    0 -0.59839171351E+01  0.24922064915E+03  0.24632939251E+02  0.26588158979E+03  0.89103865600E+02 0.  0.
        -11    1    1    2    0    0 -0.65751443647E+02 -0.13462047933E+03  0.32575241318E+03  0.35855342767E+03  0.00000000000E+00 0.  1.
         11    1    1    2    0    0  0.71735360783E+02 -0.11460016983E+03 -0.35038535244E+03  0.37556498254E+03  0.00000000000E+00 0. -1.
        -15    1    3    3    0    0 -0.30124657657E+02  0.23433026979E+03  0.23637627977E+02  0.23744486839E+03  0.17770000000E+01 0. -1.
         15    1    3    3    0    0  0.24140740522E+02  0.14890379361E+02  0.99531127484E+00  0.28436721400E+02  0.17770000000E+01 0.  1.
</event>
<event>
 7    1  0.4954109E-006  0.4965812E+03  0.7546771E-02  0.9407492E-01
        -11   -1    0    0    0    0  0.00000000000E+00  0.00000000000E+00  0.50000000000E+03  0.50000000000E+03  0.00000000000E+00 0.  1.
         11   -1    0    0    0    0 -0.00000000000E+00 -0.00000000000E+00 -0.50000000000E+03  0.50000000000E+03  0.00000000000E+00 0. -1.
         23    2    1    2    0    0 -0.16553446539E+03  0.50882027929E+02  0.45912091705E+03  0.49918384721E+03  0.91661643268E+02 0.  0.
        -11    1    1    2    0    0  0.15058303038E+02 -0.24257401996E+01 -0.11960074404E-01  0.15252437476E+02  0.00000000000E+00 0.  1.
         11    1    1    2    0    0  0.15047616235E+03 -0.48456287729E+02 -0.45910895697E+03  0.48556371531E+03  0.00000000000E+00 0. -1.
        -15    1    3    3    0    0  0.11758652828E+02  0.31712330477E+01  0.27028268151E+02  0.29698613496E+02  0.17770000000E+01 0. -1.
         15    1    3    3    0    0 -0.17729311822E+03  0.47710794881E+02  0.43209264890E+03  0.46948523371E+03  0.17770000000E+01 0.  1.
</event>
<event>
 7    1  0.4954109E-006  0.5199780E+03  0.7546771E-02  0.9356184E-01
        -11   -1    0    0    0    0  0.00000000000E+00  0.00000000000E+00  0.50000000000E+03  0.50000000000E+03  0.00000000000E+00 0.  1.
         11   -1    0    0    0    0 -0.00000000000E+00 -0.00000000000E+00 -0.50000000000E+03  0.50000000000E+03  0.00000000000E+00 0. -1.
         23    2    1    2    0    0  0.78109460228E+02 -0.69316318108E+02  0.16856155374E+03  0.21352577221E+03  0.79211225621E+02 0.  0.
        -11    1    1    2    0    0  0.14784299787E+03  0.84842810254E+02  0.25467064719E+03  0.30645226873E+03  0.00000000000E+00 0.  1.
         11    1    1    2    0    0 -0.22595245810E+03 -0.15526492146E+02 -0.42323220093E+03  0.48002195906E+03  0.00000000000E+00 0. -1.
        -15    1    3    3    0    0 -0.61337859028E+01 -0.85493568319E+01 -0.45766109269E+01  0.11611112277E+02  0.17770000000E+01 0. -1.
         15    1    3    3    0    0  0.84243246131E+02 -0.60766961276E+02  0.17313816467E+03  0.20191465993E+03  0.17770000000E+01 0.  1.
</event>
<event>
 7    1  0.4954109E-006  0.5159035E+03  0.7546771E-02  0.9364911E-01
        -11   -1    0    0    0    0  0.00000000000E+00  0.00000000000E+00  0.50000000000E+03  0.50000000000E+03  0.00000000000E+00 0.  1.
         11   -1    0    0    0    0 -0.00000000000E+00 -0.00000000000E+00 -0.50000000000E+03  0.50000000000E+03  0.00000000000E+00 0. -1.
         23    2    1    2    0    0 -0.70643175219E+02  0.67954697634E+02 -0.18554248389E+03  0.22918973555E+03  0.92160850784E+02 0.  0.
        -11    1    1    2    0    0  0.15968350611E+03 -0.32900191292E+02  0.45581598251E+03  0.48409653440E+03  0.00000000000E+00 0.  1.
         11    1    1    2    0    0 -0.89040330887E+02 -0.35054506342E+02 -0.27027349862E+03  0.28671373005E+03  0.00000000000E+00 0. -1.
        -15    1    3    3    0    0 -0.32601322230E+02 -0.20283051296E+02 -0.52612800761E+02  0.65157600585E+02  0.17770000000E+01 0.  1.
         15    1    3    3    0    0 -0.38041852989E+02  0.88237748931E+02 -0.13292968313E+03  0.16403213496E+03  0.17770000000E+01 0. -1.
</event>
<event>
 7    1  0.4954109E-006  0.3702232E+03  0.7546771E-02  0.9748719E-01
        -11   -1    0    0    0    0  0.00000000000E+00  0.00000000000E+00  0.50000000000E+03  0.50000000000E+03  0.00000000000E+00 0. -1.
         11   -1    0    0    0    0 -0.00000000000E+00 -0.00000000000E+00 -0.50000000000E+03  0.50000000000E+03  0.00000000000E+00 0.  1.
         23    2    1    2    0    0 -0.63212152493E+01  0.61767915902E+02 -0.20225898039E+03  0.22991898932E+03  0.89993407006E+02 0.  0.
        -11    1    1    2    0    0  0.12081056617E+02  0.22593229133E+03  0.37243122661E+03  0.43577100724E+03  0.00000000000E+00 0. -1.
         11    1    1    2    0    0 -0.57598413682E+01 -0.28770020724E+03 -0.17017224622E+03  0.33431000344E+03  0.00000000000E+00 0.  1.
        -15    1    3    3    0    0  0.20371166960E+02 -0.15374319389E+02 -0.69528435726E+02  0.74085863992E+02  0.17770000000E+01 0.  1.
         15    1    3    3    0    0 -0.26692382209E+02  0.77142235291E+02 -0.13273054466E+03  0.15583312533E+03  0.17770000000E+01 0. -1.
</event>
<event>
 7    1  0.4954109E-006  0.4578281E+03  0.7546771E-02  0.9499455E-01
        -11   -1    0    0    0    0  0.00000000000E+00  0.00000000000E+00  0.50000000000E+03  0.50000000000E+03  0.00000000000E+00 0.  1.
         11   -1    0    0    0    0 -0.00000000000E+00 -0.00000000000E+00 -0.50000000000E+03  0.50000000000E+03  0.00000000000E+00 0.  1.
         23    2    1    2    0    0 -0.16981196753E+03  0.29543652589E+02  0.39385739109E+03  0.43915553230E+03  0.89582393956E+02 0.  0.
        -11    1    1    2    0    0  0.37590380925E+01 -0.76231174521E+02  0.45488194982E+02  0.88850988846E+02  0.00000000000E+00 0.  1.
         11    1    1    2    0    0  0.16605292944E+03  0.46687521933E+02 -0.43934558607E+03  0.47199347885E+03  0.00000000000E+00 0.  1.
        -15    1    3    3    0    0 -0.68402198260E+02  0.39600286717E+02  0.25454662450E+03  0.26654115106E+03  0.17770000000E+01 0.  1.
         15    1    3    3    0    0 -0.10140976927E+03 -0.10056634128E+02  0.13931076659E+03  0.17261438124E+03  0.17770000000E+01 0. -1.
</event>
<event>
 7    1  0.4954109E-006  0.4762193E+03  0.7546771E-02  0.9454652E-01
        -11   -1    0    0    0    0  0.00000000000E+00  0.00000000000E+00  0.50000000000E+03  0.50000000000E+03  0.00000000000E+00 0. -1.
         11   -1    0    0    0    0 -0.00000000000E+00 -0.00000000000E+00 -0.50000000000E+03  0.50000000000E+03  0.00000000000E+00 0. -1.
         23    2    1    2    0    0 -0.11305046991E+03 -0.48718215178E+01 -0.43412909753E+03  0.45758505737E+03  0.90065909271E+02 0.  0.
        -11    1    1    2    0    0  0.91922444742E+02 -0.18411017746E+02  0.47874310973E+03  0.48783569625E+03  0.00000000000E+00 0. -1.
         11    1    1    2    0    0  0.21128025170E+02  0.23282839264E+02 -0.44614012195E+02  0.54579246385E+02  0.00000000000E+00 0. -1.
        -15    1    3    3    0    0 -0.88170016344E+02 -0.33399033423E+02 -0.37989200006E+03  0.39142117553E+03  0.17770000000E+01 0. -1.
         15    1    3    3    0    0 -0.24880453568E+02  0.28527211905E+02 -0.54237097470E+02  0.66163881837E+02  0.17770000000E+01 0.  1.
</event>
<event>
 7    1  0.4954109E-006  0.5254601E+03  0.7546771E-02  0.9344576E-01
        -11   -1    0    0    0    0  0.00000000000E+00  0.00000000000E+00  0.50000000000E+03  0.50000000000E+03  0.00000000000E+00 0.  1.
         11   -1    0    0    0    0 -0.00000000000E+00 -0.00000000000E+00 -0.50000000000E+03  0.50000000000E+03  0.00000000000E+00 0. -1.
         23    2    1    2    0    0  0.30254611904E+02  0.13455690571E+02  0.23781313836E+03  0.25652455872E+03  0.90295976094E+02 0.  0.
        -11    1    1    2    0    0 -0.75676988615E+02 -0.13866143560E+03  0.21765190080E+03  0.26893558755E+03  0.00000000000E+00 0.  1.
         11    1    1    2    0    0  0.45422376710E+02  0.12520574503E+03 -0.45546503915E+03  0.47453985374E+03  0.00000000000E+00 0. -1.
        -15    1    3    3    0    0  0.25197765964E+02 -0.33389349818E+02  0.16134057785E+03  0.16668448002E+03  0.17770000000E+01 0. -1.
         15    1    3    3    0    0  0.50568459408E+01  0.46845040389E+02  0.76472560513E+02  0.89840078697E+02  0.17770000000E+01 0.  1.
</event>
<event>
 7    1  0.4954109E-006  0.5214171E+03  0.7546771E-02  0.9353123E-01
        -11   -1    0    0    0    0  0.00000000000E+00  0.00000000000E+00  0.50000000000E+03  0.50000000000E+03  0.00000000000E+00 0.  1.
         11   -1    0    0    0    0 -0.00000000000E+00 -0.00000000000E+00 -0.50000000000E+03  0.50000000000E+03  0.00000000000E+00 0. -1.
         23    2    1    2    0    0 -0.97813749488E+02 -0.49558656219E+01  0.34862711716E+03  0.37343911271E+03  0.91234937865E+02 0.  0.
        -11    1    1    2    0    0 -0.17412903666E+02 -0.10516853747E+03  0.10263451496E+03  0.14797795156E+03  0.00000000000E+00 0.  1.
         11    1    1    2    0    0  0.11522665315E+03  0.11012440309E+03 -0.45126163212E+03  0.47858293573E+03  0.00000000000E+00 0. -1.
        -15    1    3    3    0    0 -0.84538605190E+01  0.28877525975E+02  0.38348839510E+02  0.48776741228E+02  0.17770000000E+01 0. -1.
         15    1    3    3    0    0 -0.89359888969E+02 -0.33833391597E+02  0.31027827765E+03  0.32466237148E+03  0.17770000000E+01 0.  1.
</event>
<event>
 7    1  0.4954109E-006  0.5389096E+03  0.7546771E-02  0.9316723E-01
        -11   -1    0    0    0    0  0.00000000000E+00  0.00000000000E+00  0.50000000000E+03  0.50000000000E+03  0.00000000000E+00 0.  1.
         11   -1    0    0    0    0 -0.00000000000E+00 -0.00000000000E+00 -0.50000000000E+03  0.50000000000E+03  0.00000000000E+00 0. -1.
         23    2    1    2    0    0  0.12769412420E+03 -0.29041673622E+02  0.12707374354E+03  0.20702316404E+03  0.97783669329E+02 0.  0.
        -11    1    1    2    0    0 -0.55568692191E+02 -0.33998930368E+01  0.32718369474E+03  0.33188643981E+03  0.00000000000E+00 0.  1.
         11    1    1    2    0    0 -0.72125432010E+02  0.32441566659E+02 -0.45425743828E+03  0.46109039615E+03  0.00000000000E+00 0. -1.
        -15    1    3    3    0    0  0.30640855049E+02  0.18902320771E+02 -0.48409832510E+01  0.36369665609E+02  0.17770000000E+01 0.  1.
         15    1    3    3    0    0  0.97053269153E+02 -0.47943994393E+02  0.13191472679E+03  0.17065349843E+03  0.17770000000E+01 0. -1.
</event>
<event>
 7    1  0.4954109E-006  0.3406781E+03  0.7546771E-02  0.9849998E-01
        -11   -1    0    0    0    0  0.00000000000E+00  0.00000000000E+00  0.50000000000E+03  0.50000000000E+03  0.00000000000E+00 0.  1.
         11   -1    0    0    0    0 -0.00000000000E+00 -0.00000000000E+00 -0.50000000000E+03  0.50000000000E+03  0.00000000000E+00 0.  1.
         23    2    1    2    0    0 -0.16885581149E+03 -0.51622265716E+02  0.18952641200E+03  0.27106667470E+03  0.79873261438E+02 0.  0.
        -11    1    1    2    0    0  0.22198179387E+03  0.17553309310E+03  0.18012805242E+03  0.33546072624E+03  0.00000000000E+00 0.  1.
         11    1    1    2    0    0 -0.53125982376E+02 -0.12391082738E+03 -0.36965446442E+03  0.39347259906E+03  0.00000000000E+00 0.  1.
        -15    1    3    3    0    0 -0.68119859537E+02  0.81351905083E+01  0.10940167666E+03  0.12914480699E+03  0.17770000000E+01 0. -1.
         15    1    3    3    0    0 -0.10073595195E+03 -0.59757456224E+02  0.80124735347E+02  0.14192186771E+03  0.17770000000E+01 0.  1.
</event>
<event>
 7    1  0.4954109E-006  0.4782833E+03  0.7546771E-02  0.9449758E-01
        -11   -1    0    0    0    0  0.00000000000E+00  0.00000000000E+00  0.50000000000E+03  0.50000000000E+03  0.00000000000E+00 0.  1.
         11   -1    0    0    0    0 -0.00000000000E+00 -0.00000000000E+00 -0.50000000000E+03  0.50000000000E+03  0.00000000000E+00 0. -1.
         23    2    1    2    0    0  0.11356444086E+03  0.43264398261E+02  0.44136211230E+03  0.46697908800E+03  0.92196876663E+02 0.  0.
        -11    1    1    2    0    0  0.20745556208E+02 -0.41353236314E+02  0.21532846103E+02  0.51030693874E+02  0.00000000000E+00 0.  1.
         11    1    1    2    0    0 -0.13430999707E+03 -0.19111619467E+01 -0.46289495841E+03  0.48199021813E+03  0.00000000000E+00 0. -1.
        -15    1    3    3    0    0  0.92843591952E+02 -0.27327949798E+01  0.35491651299E+03  0.36687366989E+03  0.17770000000E+01 0.  1.
         15    1    3    3    0    0  0.20720848907E+02  0.45997193240E+02  0.86445599312E+02  0.10010541811E+03  0.17770000000E+01 0. -1.
</event>
<event>
 7    1  0.4954109E-006  0.5155937E+03  0.7546771E-02  0.9365578E-01
        -11   -1    0    0    0    0  0.00000000000E+00  0.00000000000E+00  0.50000000000E+03  0.50000000000E+03  0.00000000000E+00 0. -1.
         11   -1    0    0    0    0 -0.00000000000E+00 -0.00000000000E+00 -0.50000000000E+03  0.50000000000E+03  0.00000000000E+00 0.  1.
         23    2    1    2    0    0 -0.70009735438E+02 -0.44361522464E+01  0.39136893303E+03  0.40750878060E+03  0.89290100397E+02 0.  0.
        -11    1    1    2    0    0  0.16031414273E+02  0.62843580920E+02  0.86464049301E+02  0.10808493756E+03  0.00000000000E+00 0. -1.
         11    1    1    2    0    0  0.53978321165E+02 -0.58407428674E+02 -0.47783298233E+03  0.48440628183E+03  0.00000000000E+00 0.  1.
        -15    1    3    3    0    0  0.19923350302E+02  0.38465884220E+01  0.11387769961E+03  0.11568502205E+03  0.17770000000E+01 0.  1.
         15    1    3    3    0    0 -0.89933085740E+02 -0.82827406684E+01  0.27749123341E+03  0.29182375855E+03  0.17770000000E+01 0. -1.
</event>
<event>
 7    1  0.4954109E-006  0.4906841E+03  0.7546771E-02  0.9420899E-01
        -11   -1    0    0    0    0  0.00000000000E+00  0.00000000000E+00  0.50000000000E+03  0.50000000000E+03  0.00000000000E+00 0. -1.
         11   -1    0    0    0    0 -0.00000000000E+00 -0.00000000000E+00 -0.50000000000E+03  0.50000000000E+03  0.00000000000E+00 0.  1.
         23    2    1    2    0    0 -0.32671040498E+00 -0.83852865481E+02  0.47013523538E+03  0.48677910970E+03  0.94315175353E+02 0.  0.
        -11    1    1    2    0    0 -0.26334402068E+02 -0.91119113054E+00  0.74950319518E+01  0.27395373798E+02  0.00000000000E+00 0. -1.
         11    1    1    2    0    0  0.26661112473E+02  0.84764056611E+02 -0.47763026733E+03  0.48582551650E+03  0.00000000000E+00 0.  1.
        -15    1    3    3    0    0 -0.98024904319E+01 -0.90072780749E+02  0.46576919150E+03  0.47450320561E+03  0.17770000000E+01 0. -1.
         15    1    3    3    0    0  0.94757800269E+01  0.62199152688E+01  0.43660438797E+01  0.12275904090E+02  0.17770000000E+01 0.  1.
</event>
<event>
 7    1  0.4954109E-006  0.5181696E+03  0.7546771E-02  0.9360047E-01
        -11   -1    0    0    0    0  0.00000000000E+00  0.00000000000E+00  0.50000000000E+03  0.50000000000E+03  0.00000000000E+00 0. -1.
         11   -1    0    0    0    0 -0.00000000000E+00 -0.00000000000E+00 -0.50000000000E+03  0.50000000000E+03  0.00000000000E+00 0.  1.
         23    2    1    2    0    0 -0.63751480740E+02 -0.77030255692E+02 -0.20252017296E+03  0.23975271531E+03  0.80430295628E+02 0.  0.
        -11    1    1    2    0    0  0.85770677032E+02  0.18306322692E+02  0.47378136023E+03  0.48183037243E+03  0.00000000000E+00 0. -1.
         11    1    1    2    0    0 -0.22019196293E+02  0.58723933000E+02 -0.27126118727E+03  0.27841691226E+03  0.00000000000E+00 0.  1.
        -15    1    3    3    0    0 -0.40904598964E+02 -0.28199361442E+01 -0.30887876272E+02  0.51364938293E+02  0.17770000000E+01 0. -1.
         15    1    3    3    0    0 -0.22846881776E+02 -0.74210319548E+02 -0.17163229669E+03  0.18838777702E+03  0.17770000000E+01 0.  1.
</event>
<event>
 7    1  0.4954109E-006  0.5005240E+03  0.7546771E-02  0.9398638E-01
        -11   -1    0    0    0    0  0.00000000000E+00  0.00000000000E+00  0.50000000000E+03  0.50000000000E+03  0.00000000000E+00 0.  1.
         11   -1    0    0    0    0 -0.00000000000E+00 -0.00000000000E+00 -0.50000000000E+03  0.50000000000E+03  0.00000000000E+00 0. -1.
         23    2    1    2    0    0 -0.12694870635E+03 -0.21937719414E+03  0.42112255190E+03  0.49947601455E+03  0.88824309972E+02 0.  0.
        -11    1    1    2    0    0  0.35900318009E+02  0.18161124979E+02 -0.26112149794E+02  0.47963565970E+02  0.00000000000E+00 0.  1.
         11    1    1    2    0    0  0.91048388337E+02  0.20121606916E+03 -0.39501040211E+03  0.45256041948E+03  0.00000000000E+00 0. -1.
        -15    1    3    3    0    0 -0.13703278073E+03 -0.18597548524E+03  0.33899182791E+03  0.41022369657E+03  0.17770000000E+01 0.  1.
         15    1    3    3    0    0  0.10084074387E+02 -0.33401708896E+02  0.82130723986E+02  0.89252317980E+02  0.17770000000E+01 0. -1.
</event>
<event>
 7    1  0.4954109E-006  0.4150851E+03  0.7546771E-02  0.9612850E-01
        -11   -1    0    0    0    0  0.00000000000E+00  0.00000000000E+00  0.50000000000E+03  0.50000000000E+03  0.00000000000E+00 0. -1.
         11   -1    0    0    0    0 -0.00000000000E+00 -0.00000000000E+00 -0.50000000000E+03  0.50000000000E+03  0.00000000000E+00 0.  1.
         23    2    1    2    0    0 -0.21932044257E+02 -0.16592822548E+02 -0.36495491206E+03  0.37727626003E+03  0.91591223486E+02 0.  0.
        -11    1    1    2    0    0  0.75007738390E+02 -0.12107474284E+03  0.43621086735E+03  0.45887381159E+03  0.00000000000E+00 0. -1.
         11    1    1    2    0    0 -0.53075694132E+02  0.13766756538E+03 -0.71255955282E+02  0.16384992838E+03  0.00000000000E+00 0.  1.
        -15    1    3    3    0    0 -0.46395066246E+02 -0.38965739431E+02 -0.19871345061E+03  0.20775231455E+03  0.17770000000E+01 0.  1.
         15    1    3    3    0    0  0.24463021988E+02  0.22372916882E+02 -0.16624146146E+03  0.16952394548E+03  0.17770000000E+01 0. -1.
</event>
<event>
 7    1  0.4954109E-006  0.5221217E+03  0.7546771E-02  0.9351627E-01
        -11   -1    0    0    0    0  0.00000000000E+00  0.00000000000E+00  0.50000000000E+03  0.50000000000E+03  0.00000000000E+00 0. -1.
         11   -1    0    0    0    0 -0.00000000000E+00 -0.00000000000E+00 -0.50000000000E+03  0.50000000000E+03  0.00000000000E+00 0.  1.
         23    2    1    2    0    0 -0.12218851723E+03 -0.13372788929E+02  0.29965665578E+03  0.33674196202E+03  0.92152983716E+02 0.  0.
        -11    1    1    2    0    0  0.39291806802E+02 -0.83106907704E+02  0.16098147823E+03  0.18537971982E+03  0.00000000000E+00 0. -1.
         11    1    1    2    0    0  0.82896710429E+02  0.96479696633E+02 -0.46063813400E+03  0.47787831815E+03  0.00000000000E+00 0.  1.
        -15    1    3    3    0    0 -0.87477409614E+02  0.79595931594E+01  0.27588928029E+03  0.28954050670E+03  0.17770000000E+01 0. -1.
         15    1    3    3    0    0 -0.34711107617E+02 -0.21332382088E+02  0.23767375494E+02  0.47201455321E+02  0.17770000000E+01 0.  1.
</event>
<event>
 7    1  0.4954109E-006  0.4799403E+03  0.7546771E-02  0.9445848E-01
        -11   -1    0    0    0    0  0.00000000000E+00  0.00000000000E+00  0.50000000000E+03  0.50000000000E+03  0.00000000000E+00 0.  1.
         11   -1    0    0    0    0 -0.00000000000E+00 -0.00000000000E+00 -0.50000000000E+03  0.50000000000E+03  0.00000000000E+00 0. -1.
         23    2    1    2    0    0 -0.11402523229E+03 -0.10127288905E+03  0.45017292479E+03  0.48308210550E+03  0.86340643909E+02 0.  0.
        -11    1    1    2    0    0 -0.27897800906E+02  0.36987595454E+02 -0.66235086074E+01  0.46800004050E+02  0.00000000000E+00 0.  1.
         11    1    1    2    0    0  0.14192303320E+03  0.64285293596E+02 -0.44354941618E+03  0.47011789045E+03  0.00000000000E+00 0. -1.
        -15    1    3    3    0    0 -0.26083277633E+02  0.13711746882E+02  0.58865980236E+02  0.65853707054E+02  0.17770000000E+01 0. -1.
         15    1    3    3    0    0 -0.87941954661E+02 -0.11498463593E+03  0.39130694455E+03  0.41722839845E+03  0.17770000000E+01 0.  1.
</event>
<event>
 6    1  0.4954109E-006  0.3732029E+03  0.7546771E-02  0.9739069E-01
        -11   -1    0    0    0    0  0.00000000000E+00  0.00000000000E+00  0.50000000000E+03  0.50000000000E+03  0.00000000000E+00 0.  1.
         11   -1    0    0    0    0 -0.00000000000E+00 -0.00000000000E+00 -0.50000000000E+03  0.50000000000E+03  0.00000000000E+00 0.  1.
        -11    1    1    2    0    0  0.12990087331E+03 -0.20113432323E+03 -0.24223479065E+01  0.23944753212E+03  0.00000000000E+00 0.  1.
         11    1    1    2    0    0 -0.10703338185E+03  0.17393447444E+03 -0.33710991658E+03  0.39414774144E+03  0.00000000000E+00 0.  1.
        -15    1    1    2    0    0  0.34261188905E+02 -0.28148888881E+02  0.20799522539E+03  0.21267665722E+03  0.17770000000E+01 0.  1.
         15    1    1    2    0    0 -0.57128680367E+02  0.55348737675E+02  0.13153703909E+03  0.15372806922E+03  0.17770000000E+01 0. -1.
</event>
<event>
 7    1  0.4954109E-006  0.5266162E+03  0.7546771E-02  0.9342147E-01
        -11   -1    0    0    0    0  0.00000000000E+00  0.00000000000E+00  0.50000000000E+03  0.50000000000E+03  0.00000000000E+00 0.  1.
         11   -1    0    0    0    0 -0.00000000000E+00 -0.00000000000E+00 -0.50000000000E+03  0.50000000000E+03  0.00000000000E+00 0. -1.
         23    2    1    2    0    0  0.29818971043E+02 -0.39023025743E+02  0.15763985759E+03  0.18856937541E+03  0.91083022941E+02 0.  0.
        -11    1    1    2    0    0 -0.14854391567E+03  0.43036419100E+02  0.30059644486E+03  0.33804681764E+03  0.00000000000E+00 0.  1.
         11    1    1    2    0    0  0.11872494463E+03 -0.40133933575E+01 -0.45823630245E+03  0.47338380696E+03  0.00000000000E+00 0. -1.
        -15    1    3    3    0    0  0.56559345540E+02 -0.97063598199E+00  0.78829667083E+02  0.97042134372E+02  0.17770000000E+01 0.  1.
         15    1    3    3    0    0 -0.26740374496E+02 -0.38052389761E+02  0.78810190506E+02  0.91527241034E+02  0.17770000000E+01 0. -1.
</event>
<event>
 7    1  0.4954109E-006  0.4447426E+03  0.7546771E-02  0.9532720E-01
        -11   -1    0    0    0    0  0.00000000000E+00  0.00000000000E+00  0.50000000000E+03  0.50000000000E+03  0.00000000000E+00 0.  1.
         11   -1    0    0    0    0 -0.00000000000E+00 -0.00000000000E+00 -0.50000000000E+03  0.50000000000E+03  0.00000000000E+00 0.  1.
         23    2    1    2    0    0  0.45171480236E+02 -0.11525530141E+03  0.39278015773E+03  0.42246340598E+03  0.94206315946E+02 0.  0.
        -11    1    1    2    0    0  0.38727839300E+02 -0.10631864547E+03  0.64066944624E+01  0.11333377981E+03  0.00000000000E+00 0.  1.
         11    1    1    2    0    0 -0.83899319536E+02  0.22157394688E+03 -0.39918685219E+03  0.46420281420E+03  0.00000000000E+00 0.  1.
        -15    1    3    3    0    0 -0.85068022577E+01 -0.98862218703E+02  0.26002929350E+03  0.27832444230E+03  0.17770000000E+01 0.  1.
         15    1    3    3    0    0  0.53678282494E+02 -0.16393082705E+02  0.13275086422E+03  0.14413896369E+03  0.17770000000E+01 0. -1.
</event>
<event>
 7    1  0.4954109E-006  0.5357106E+03  0.7546771E-02  0.9323269E-01
        -11   -1    0    0    0    0  0.00000000000E+00  0.00000000000E+00  0.50000000000E+03  0.50000000000E+03  0.00000000000E+00 0.  1.
         11   -1    0    0    0    0 -0.00000000000E+00 -0.00000000000E+00 -0.50000000000E+03  0.50000000000E+03  0.00000000000E+00 0. -1.
         23    2    1    2    0    0 -0.38974901501E+02 -0.37552448410E+02  0.19283184733E+03  0.22005688061E+03  0.91168415753E+02 0.  0.
        -11    1    1    2    0    0  0.15035257199E+03  0.11988725334E+03  0.25031667750E+03  0.31565374772E+03  0.00000000000E+00 0.  1.
         11    1    1    2    0    0 -0.11137767049E+03 -0.82334804927E+02 -0.44314852483E+03  0.46428937167E+03  0.00000000000E+00 0. -1.
        -15    1    3    3    0    0 -0.38300128280E+02 -0.64444057380E+02  0.11147214113E+03  0.13434705927E+03  0.17770000000E+01 0.  1.
         15    1    3    3    0    0 -0.67477322114E+00  0.26891608970E+02  0.81359706207E+02  0.85709821345E+02  0.17770000000E+01 0. -1.
</event>
<event>
 7    1  0.4954109E-006  0.4257049E+03  0.7546771E-02  0.9583359E-01
        -11   -1    0    0    0    0  0.00000000000E+00  0.00000000000E+00  0.50000000000E+03  0.50000000000E+03  0.00000000000E+00 0.  1.
         11   -1    0    0    0    0 -0.00000000000E+00 -0.00000000000E+00 -0.50000000000E+03  0.50000000000E+03  0.00000000000E+00 0. -1.
         23    2    1    2    0    0 -0.60611710315E+02  0.41770293864E+02 -0.79403175896E+02  0.14173304939E+03  0.91459587095E+02 0.  0.
        -11    1    1    2    0    0 -0.15105161582E+03 -0.97702425221E+02  0.41799456043E+03  0.45506242108E+03  0.00000000000E+00 0.  1.
         11    1    1    2    0    0  0.21166332613E+03  0.55932131357E+02 -0.33859138453E+03  0.40320452952E+03  0.00000000000E+00 0. -1.
        -15    1    3    3    0    0  0.16377315683E+02  0.90370796974E+01 -0.49377415470E+02  0.52831545178E+02  0.17770000000E+01 0.  1.
         15    1    3    3    0    0 -0.76989025998E+02  0.32733214167E+02 -0.30025760426E+02  0.88901504216E+02  0.17770000000E+01 0. -1.
</event>
<event>
 7    1  0.4954109E-006  0.4775190E+03  0.7546771E-02  0.9451567E-01
        -11   -1    0    0    0    0  0.00000000000E+00  0.00000000000E+00  0.50000000000E+03  0.50000000000E+03  0.00000000000E+00 0.  1.
         11   -1    0    0    0    0 -0.00000000000E+00 -0.00000000000E+00 -0.50000000000E+03  0.50000000000E+03  0.00000000000E+00 0. -1.
         23    2    1    2    0    0  0.98550615683E+02  0.54211521512E+02  0.44736898394E+03  0.47018319300E+03  0.91006122159E+02 0.  0.
        -11    1    1    2    0    0  0.40035410577E+02 -0.32352007375E+02  0.91016519102E+01  0.52271661048E+02  0.00000000000E+00 0.  1.
         11    1    1    2    0    0 -0.13858602626E+03 -0.21859514137E+02 -0.45647063585E+03  0.47754514595E+03  0.00000000000E+00 0. -1.
        -15    1    3    3    0    0 -0.61017285959E+01 -0.16214421679E+02  0.76059663072E+02  0.78027999064E+02  0.17770000000E+01 0. -1.
         15    1    3    3    0    0  0.10465234428E+03  0.70425943191E+02  0.37130932087E+03  0.39215519393E+03  0.17770000000E+01 0.  1.
</event>
<event>
 7    1  0.4954109E-006  0.4468564E+03  0.7546771E-02  0.9527265E-01
        -11   -1    0    0    0    0  0.00000000000E+00  0.00000000000E+00  0.50000000000E+03  0.50000000000E+03  0.00000000000E+00 0.  1.
         11   -1    0    0    0    0 -0.00000000000E+00 -0.00000000000E+00 -0.50000000000E+03  0.50000000000E+03  0.00000000000E+00 0. -1.
         23    2    1    2    0    0  0.34428962541E+02 -0.43501941651E+02  0.46535974385E+03  0.47699775103E+03  0.88822243263E+02 0.  0.
        -11    1    1    2    0    0  0.36985822965E+02  0.83249165350E+02 -0.59064257541E+02  0.10856777216E+03  0.00000000000E+00 0.  1.
         11    1    1    2    0    0 -0.71414785506E+02 -0.39747223699E+02 -0.40629548631E+03  0.41443447682E+03  0.00000000000E+00 0. -1.
        -15    1    3    3    0    0 -0.27346668983E+02 -0.18350572904E+02  0.92237562242E+02  0.97956671277E+02  0.17770000000E+01 0. -1.
         15    1    3    3    0    0  0.61775631523E+02 -0.25151368747E+02  0.37312218161E+03  0.37904107975E+03  0.17770000000E+01 0.  1.
</event>
<event>
 7    1  0.4954109E-006  0.5161032E+03  0.7546771E-02  0.9364481E-01
        -11   -1    0    0    0    0  0.00000000000E+00  0.00000000000E+00  0.50000000000E+03  0.50000000000E+03  0.00000000000E+00 0.  1.
         11   -1    0    0    0    0 -0.00000000000E+00 -0.00000000000E+00 -0.50000000000E+03  0.50000000000E+03  0.00000000000E+00 0. -1.
         23    2    1    2    0    0  0.48896490712E+02  0.86054917696E+01  0.14150594383E+03  0.17746525363E+03  0.94895009420E+02 0.  0.
        -11    1    1    2    0    0  0.10634160922E+03  0.11883442823E+03  0.29873982429E+03  0.33863792139E+03  0.00000000000E+00 0.  1.
         11    1    1    2    0    0 -0.15523809993E+03 -0.12743992000E+03 -0.44024576812E+03  0.48389682499E+03  0.00000000000E+00 0. -1.
        -15    1    3    3    0    0  0.58816230522E+02  0.23114165222E+02  0.40846707507E+02  0.75267687953E+02  0.17770000000E+01 0.  1.
         15    1    3    3    0    0 -0.99197398093E+01 -0.14508673452E+02  0.10065923633E+03  0.10219756568E+03  0.17770000000E+01 0. -1.
</event>
<event>
 7    1  0.5027240E-006  0.5152743E+03  0.7546771E-02  0.9366266E-01
        -11   -1    0    0    0    0  0.00000000000E+00  0.00000000000E+00  0.50000000000E+03  0.50000000000E+03  0.00000000000E+00 0.  1.
         11   -1    0    0    0    0 -0.00000000000E+00 -0.00000000000E+00 -0.50000000000E+03  0.50000000000E+03  0.00000000000E+00 0. -1.
         23    2    1    2    0    0  0.16966150363E+02  0.73982620019E+02 -0.22883385032E+03  0.25773515002E+03  0.91110911440E+02 0.  0.
        -11    1    1    2    0    0 -0.12278175611E+03 -0.70397460492E+02  0.46360312240E+03  0.48472571334E+03  0.00000000000E+00 0.  1.
         11    1    1    2    0    0  0.10581560575E+03 -0.35851595270E+01 -0.23476927208E+03  0.25753913664E+03  0.00000000000E+00 0. -1.
        -15    1    3    3    0    0 -0.91766120786E+01  0.82716539915E+02 -0.12419121705E+03  0.14950870311E+03  0.17770000000E+01 0.  1.
         15    1    3    3    0    0  0.26142762442E+02 -0.87339198965E+01 -0.10464263327E+03  0.10822644691E+03  0.17770000000E+01 0. -1.
</event>
<event>
 7    1  0.4954109E-006  0.5123219E+03  0.7546771E-02  0.9372653E-01
        -11   -1    0    0    0    0  0.00000000000E+00  0.00000000000E+00  0.50000000000E+03  0.50000000000E+03  0.00000000000E+00 0.  1.
         11   -1    0    0    0    0 -0.00000000000E+00 -0.00000000000E+00 -0.50000000000E+03  0.50000000000E+03  0.00000000000E+00 0. -1.
         23    2    1    2    0    0 -0.13663065827E+02 -0.79984278393E+02  0.39008933077E+03  0.40876998451E+03  0.91318399545E+02 0.  0.
        -11    1    1    2    0    0 -0.53626698405E+02 -0.44463911070E+02  0.76616840219E+02  0.10355193081E+03  0.00000000000E+00 0.  1.
         11    1    1    2    0    0  0.67289764232E+02  0.12444818946E+03 -0.46670617099E+03  0.48767808468E+03  0.00000000000E+00 0. -1.
        -15    1    3    3    0    0  0.33915028655E+02 -0.83208421808E+01  0.88782814096E+02  0.95420183353E+02  0.17770000000E+01 0. -1.
         15    1    3    3    0    0 -0.47578094482E+02 -0.71663436212E+02  0.30130651668E+03  0.31334980116E+03  0.17770000000E+01 0.  1.
</event>
<event>
 7    1  0.4954109E-006  0.4310767E+03  0.7546771E-02  0.9568788E-01
        -11   -1    0    0    0    0  0.00000000000E+00  0.00000000000E+00  0.50000000000E+03  0.50000000000E+03  0.00000000000E+00 0. -1.
         11   -1    0    0    0    0 -0.00000000000E+00 -0.00000000000E+00 -0.50000000000E+03  0.50000000000E+03  0.00000000000E+00 0. -1.
         23    2    1    2    0    0 -0.31730998964E+00 -0.96770329650E+02 -0.18552730048E+02  0.13223427617E+03  0.88187882470E+02 0.  0.
        -11    1    1    2    0    0  0.10330482685E+03  0.19412454726E+03  0.40241488650E+03  0.45857820268E+03  0.00000000000E+00 0. -1.
         11    1    1    2    0    0 -0.10298751686E+03 -0.97354217608E+02 -0.38386215645E+03  0.40918752115E+03  0.00000000000E+00 0. -1.
        -15    1    3    3    0    0 -0.30895436118E+02 -0.93543933239E+02 -0.52055294760E+01  0.98667373963E+02  0.17770000000E+01 0. -1.
         15    1    3    3    0    0  0.30578126129E+02 -0.32263964116E+01 -0.13347200572E+02  0.33566902202E+02  0.17770000000E+01 0.  1.
</event>
<event>
 7    1  0.4954109E-006  0.4668070E+03  0.7546771E-02  0.9477307E-01
        -11   -1    0    0    0    0  0.00000000000E+00  0.00000000000E+00  0.50000000000E+03  0.50000000000E+03  0.00000000000E+00 0. -1.
         11   -1    0    0    0    0 -0.00000000000E+00 -0.00000000000E+00 -0.50000000000E+03  0.50000000000E+03  0.00000000000E+00 0. -1.
         23    2    1    2    0    0 -0.26888301089E+02  0.35867951281E+02  0.42823975725E+03  0.43951345068E+03  0.88166280247E+02 0.  0.
        -11    1    1    2    0    0  0.19454314735E+02  0.43894323293E+02  0.53642580626E+02  0.71991030243E+02  0.00000000000E+00 0. -1.
         11    1    1    2    0    0  0.74339863540E+01 -0.79762274574E+02 -0.48188233788E+03  0.48849551908E+03  0.00000000000E+00 0. -1.
        -15    1    3    3    0    0 -0.46725402228E+01 -0.25702374725E+02  0.59523084924E+02  0.65027686922E+02  0.17770000000E+01 0.  1.
         15    1    3    3    0    0 -0.22215760867E+02  0.61570326005E+02  0.36871667233E+03  0.37448576376E+03  0.17770000000E+01 0. -1.
</event>
<event>
 7    1  0.4954109E-006  0.4973194E+03  0.7546771E-02  0.9405828E-01
        -11   -1    0    0    0    0  0.00000000000E+00  0.00000000000E+00  0.50000000000E+03  0.50000000000E+03  0.00000000000E+00 0.  1.
         11   -1    0    0    0    0 -0.00000000000E+00 -0.00000000000E+00 -0.50000000000E+03  0.50000000000E+03  0.00000000000E+00 0. -1.
         23    2    1    2    0    0 -0.82688066135E+02 -0.11865905023E+03  0.46617970435E+03  0.49855812143E+03  0.10158443391E+03 0.  0.
        -11    1    1    2    0    0 -0.14610070684E+02  0.38250473926E+01 -0.43672494077E+01  0.15721260138E+02  0.00000000000E+00 0.  1.
         11    1    1    2    0    0  0.97298136819E+02  0.11483400284E+03 -0.46181245494E+03  0.48572061844E+03  0.00000000000E+00 0. -1.
        -15    1    3    3    0    0  0.44736273687E+01 -0.52598819203E+02  0.70826069639E+02  0.88352357031E+02  0.17770000000E+01 0. -1.
         15    1    3    3    0    0 -0.87161693504E+02 -0.66060231032E+02  0.39535363471E+03  0.41020576440E+03  0.17770000000E+01 0.  1.
</event>
<event>
 7    1  0.4954109E-006  0.5117743E+03  0.7546771E-02  0.9373842E-01
        -11   -1    0    0    0    0  0.00000000000E+00  0.00000000000E+00  0.50000000000E+03  0.50000000000E+03  0.00000000000E+00 0.  1.
         11   -1    0    0    0    0 -0.00000000000E+00 -0.00000000000E+00 -0.50000000000E+03  0.50000000000E+03  0.00000000000E+00 0.  1.
         23    2    1    2    0    0  0.11628796009E+03 -0.57612268233E+02 -0.22546423211E+03  0.27596864378E+03  0.92100538957E+02 0.  0.
        -11    1    1    2    0    0 -0.15735846208E+03  0.16222563646E+03  0.43276491618E+03  0.48822568080E+03  0.00000000000E+00 0.  1.
         11    1    1    2    0    0  0.41070501994E+02 -0.10461336822E+03 -0.20730068407E+03  0.23580567542E+03  0.00000000000E+00 0.  1.
        -15    1    3    3    0    0  0.12014979714E+03 -0.74300307980E+02 -0.19253562328E+03  0.23880878016E+03  0.17770000000E+01 0.  1.
         15    1    3    3    0    0 -0.38618370528E+01  0.16688039746E+02 -0.32928608835E+02  0.37159863628E+02  0.17770000000E+01 0. -1.
</event>
<event>
 7    1  0.4954109E-006  0.5110014E+03  0.7546771E-02  0.9375524E-01
        -11   -1    0    0    0    0  0.00000000000E+00  0.00000000000E+00  0.50000000000E+03  0.50000000000E+03  0.00000000000E+00 0. -1.
         11   -1    0    0    0    0 -0.00000000000E+00 -0.00000000000E+00 -0.50000000000E+03  0.50000000000E+03  0.00000000000E+00 0. -1.
         23    2    1    2    0    0 -0.83154678911E+00  0.60895121881E+02  0.38112067995E+03  0.39704091248E+03  0.93164403929E+02 0.  0.
        -11    1    1    2    0    0  0.54486074501E+02  0.15970389660E+02  0.98808982776E+02  0.11396052272E+03  0.00000000000E+00 0. -1.
         11    1    1    2    0    0 -0.53654527712E+02 -0.76865511541E+02 -0.47992966273E+03  0.48899856480E+03  0.00000000000E+00 0. -1.
        -15    1    3    3    0    0 -0.33412041101E+02  0.66910808159E+02  0.21511789627E+03  0.22775488527E+03  0.17770000000E+01 0.  1.
         15    1    3    3    0    0  0.32580494312E+02 -0.60156862776E+01  0.16600278368E+03  0.16928602721E+03  0.17770000000E+01 0. -1.
</event>
