<event>
 6    1  0.4028964E-003  0.5036882E+03  0.7546771E-02  0.9391595E-01
        -11   -1    0    0    0    0  0.00000000000E+00  0.00000000000E+00  0.50000000000E+03  0.50000000000E+03  0.00000000000E+00 0.  1.
         11   -1    0    0    0    0 -0.00000000000E+00 -0.00000000000E+00 -0.50000000000E+03  0.50000000000E+03  0.00000000000E+00 0. -1.
        -11    1    1    2    0    0  0.21113511984E+01 -0.49470801189E+01  0.36815998798E+03  0.36819927778E+03  0.00000000000E+00 0.  1.
         11    1    1    2    0    0 -0.28923080757E+02  0.10920004439E+02 -0.49534796539E+03  0.49631179506E+03  0.00000000000E+00 0. -1.
        -15    1    1    2    0    0  0.21929253583E+02 -0.10993667930E+02  0.12573642444E+03  0.12811931571E+03  0.17770000000E+01 0.  1.
         15    1    1    2    0    0  0.48824759752E+01  0.50207436100E+01  0.14515529699E+01  0.73696114599E+01  0.17770000000E+01 0. -1.
</event>
<event>
 6    1  0.4028964E-003  0.5038141E+03  0.7546771E-02  0.9391316E-01
        -11   -1    0    0    0    0  0.00000000000E+00  0.00000000000E+00  0.50000000000E+03  0.50000000000E+03  0.00000000000E+00 0. -1.
         11   -1    0    0    0    0 -0.00000000000E+00 -0.00000000000E+00 -0.50000000000E+03  0.50000000000E+03  0.00000000000E+00 0. -1.
        -11    1    1    2    0    0  0.37902113098E+02  0.17929730837E+02  0.49441113673E+03  0.49618586996E+03  0.00000000000E+00 0. -1.
         11    1    1    2    0    0  0.83018157101E+01 -0.52756264344E+01 -0.27376162471E+03  0.27393827689E+03  0.00000000000E+00 0. -1.
        -15    1    1    2    0    0  0.37368021034E+01  0.71659439531E+01 -0.13245038518E+02  0.15617401098E+02  0.17770000000E+01 0. -1.
         15    1    1    2    0    0 -0.49940730912E+02 -0.19820048356E+02 -0.20740447350E+03  0.21425845206E+03  0.17770000000E+01 0.  1.
</event>
<event>
 6    1  0.4028964E-003  0.5117895E+03  0.7546771E-02  0.9373809E-01
        -11   -1    0    0    0    0  0.00000000000E+00  0.00000000000E+00  0.50000000000E+03  0.50000000000E+03  0.00000000000E+00 0. -1.
         11   -1    0    0    0    0 -0.00000000000E+00 -0.00000000000E+00 -0.50000000000E+03  0.50000000000E+03  0.00000000000E+00 0. -1.
        -11    1    1    2    0    0  0.18418800634E+02 -0.11013375524E+02  0.37057516826E+03  0.37119604253E+03  0.00000000000E+00 0. -1.
         11    1    1    2    0    0  0.44058563854E+01  0.97322079626E+01 -0.48809359685E+03  0.48821049428E+03  0.00000000000E+00 0. -1.
        -15    1    1    2    0    0 -0.26299368818E+02  0.20298568651E+01  0.36876327125E+01  0.26693322820E+02  0.17770000000E+01 0. -1.
         15    1    1    2    0    0  0.34747117985E+01 -0.74868930325E+00  0.11383079587E+03  0.11390014037E+03  0.17770000000E+01 0.  1.
</event>
<event>
 6    1  0.4028964E-003  0.5280056E+03  0.7546771E-02  0.9339237E-01
        -11   -1    0    0    0    0  0.00000000000E+00  0.00000000000E+00  0.50000000000E+03  0.50000000000E+03  0.00000000000E+00 0.  1.
         11   -1    0    0    0    0 -0.00000000000E+00 -0.00000000000E+00 -0.50000000000E+03  0.50000000000E+03  0.00000000000E+00 0. -1.
        -11    1    1    2    0    0 -0.10853419077E+02  0.71224644339E+01  0.28149403494E+03  0.28179321836E+03  0.00000000000E+00 0.  1.
         11    1    1    2    0    0 -0.44603008590E+01  0.26574456287E+02 -0.47122455200E+03  0.47199435846E+03  0.00000000000E+00 0. -1.
        -15    1    1    2    0    0 -0.53990480359E+02 -0.56238568436E+02  0.13161930239E+03  0.15298544715E+03  0.17770000000E+01 0.  1.
         15    1    1    2    0    0  0.69304200295E+02  0.22541647715E+02  0.58111214666E+02  0.93226976027E+02  0.17770000000E+01 0. -1.
</event>
<event>
 6    1  0.4028964E-003  0.5298751E+03  0.7546771E-02  0.9335336E-01
        -11   -1    0    0    0    0  0.00000000000E+00  0.00000000000E+00  0.50000000000E+03  0.50000000000E+03  0.00000000000E+00 0. -1.
         11   -1    0    0    0    0 -0.00000000000E+00 -0.00000000000E+00 -0.50000000000E+03  0.50000000000E+03  0.00000000000E+00 0. -1.
        -11    1    1    2    0    0 -0.37239799526E+02  0.17939152324E+02  0.24959263866E+03  0.25299229460E+03  0.00000000000E+00 0. -1.
         11    1    1    2    0    0 -0.60836040537E+02  0.88341512178E+01 -0.46608831230E+03  0.47012485674E+03  0.00000000000E+00 0. -1.
        -15    1    1    2    0    0  0.79978208342E+02  0.14461253421E+02  0.21709052582E+03  0.23181263078E+03  0.17770000000E+01 0. -1.
         15    1    1    2    0    0  0.18097631720E+02 -0.41234556963E+02 -0.59485217557E+00  0.45070217882E+02  0.17770000000E+01 0.  1.
</event>
<event>
 6    1  0.4028964E-003  0.5008686E+03  0.7546771E-02  0.9397868E-01
        -11   -1    0    0    0    0  0.00000000000E+00  0.00000000000E+00  0.50000000000E+03  0.50000000000E+03  0.00000000000E+00 0. -1.
         11   -1    0    0    0    0 -0.00000000000E+00 -0.00000000000E+00 -0.50000000000E+03  0.50000000000E+03  0.00000000000E+00 0. -1.
        -11    1    1    2    0    0  0.11680365726E+02 -0.20892586710E+01  0.18670244319E+03  0.18707912293E+03  0.00000000000E+00 0. -1.
         11    1    1    2    0    0  0.66883837840E+01 -0.65584561061E+01 -0.49904353036E+03  0.49913143862E+03  0.00000000000E+00 0. -1.
        -15    1    1    2    0    0 -0.33259901682E+01  0.11694007914E+01  0.74566011958E+01  0.84373182471E+01  0.17770000000E+01 0. -1.
         15    1    1    2    0    0 -0.15042759341E+02  0.74783139858E+01  0.30488448598E+03  0.30535212020E+03  0.17770000000E+01 0.  1.
</event>
<event>
 6    1  0.4028964E-003  0.5007473E+03  0.7546771E-02  0.9398139E-01
        -11   -1    0    0    0    0  0.00000000000E+00  0.00000000000E+00  0.50000000000E+03  0.50000000000E+03  0.00000000000E+00 0. -1.
         11   -1    0    0    0    0 -0.00000000000E+00 -0.00000000000E+00 -0.50000000000E+03  0.50000000000E+03  0.00000000000E+00 0. -1.
        -11    1    1    2    0    0  0.49575758449E+00  0.70139607684E+01  0.49920317871E+03  0.49925269660E+03  0.00000000000E+00 0. -1.
         11    1    1    2    0    0  0.11726138272E+02  0.88766904863E+00 -0.37046802430E+03  0.37065461997E+03  0.00000000000E+00 0. -1.
        -15    1    1    2    0    0 -0.10868981259E+02 -0.66658668668E+01 -0.12438167182E+03  0.12504609769E+03  0.17770000000E+01 0. -1.
         15    1    1    2    0    0 -0.13529145982E+01 -0.12357629502E+01 -0.43534825914E+01  0.50465857422E+01  0.17770000000E+01 0.  1.
</event>
<event>
 6    1  0.4028964E-003  0.5014590E+03  0.7546771E-02  0.9396551E-01
        -11   -1    0    0    0    0  0.00000000000E+00  0.00000000000E+00  0.50000000000E+03  0.50000000000E+03  0.00000000000E+00 0. -1.
         11   -1    0    0    0    0 -0.00000000000E+00 -0.00000000000E+00 -0.50000000000E+03  0.50000000000E+03  0.00000000000E+00 0.  1.
        -11    1    1    2    0    0  0.16450743955E+02  0.11537333731E+02  0.49813592839E+03  0.49854101155E+03  0.00000000000E+00 0. -1.
         11    1    1    2    0    0  0.24765942019E+01  0.22652043450E+01 -0.19007490229E+03  0.19010453216E+03  0.00000000000E+00 0.  1.
        -15    1    1    2    0    0 -0.49637091268E+01  0.68377858039E+00 -0.24664195052E+03  0.24669924087E+03  0.17770000000E+01 0.  1.
         15    1    1    2    0    0 -0.13963629030E+02 -0.14486316656E+02 -0.61419075579E+02  0.64655215412E+02  0.17770000000E+01 0. -1.
</event>
<event>
 6    1  0.4028964E-003  0.5607280E+03  0.7546771E-02  0.9273322E-01
        -11   -1    0    0    0    0  0.00000000000E+00  0.00000000000E+00  0.50000000000E+03  0.50000000000E+03  0.00000000000E+00 0.  1.
         11   -1    0    0    0    0 -0.00000000000E+00 -0.00000000000E+00 -0.50000000000E+03  0.50000000000E+03  0.00000000000E+00 0. -1.
        -11    1    1    2    0    0  0.61221966813E+01 -0.40159152775E+01  0.29614547067E+03  0.29623596788E+03  0.00000000000E+00 0.  1.
         11    1    1    2    0    0  0.29237437525E+01  0.10624124062E+02 -0.43913375990E+03  0.43927198793E+03  0.00000000000E+00 0. -1.
        -15    1    1    2    0    0 -0.23393555813E+01  0.66567681475E+01  0.20275173993E+03  0.20288225876E+03  0.17770000000E+01 0.  1.
         15    1    1    2    0    0 -0.67065848525E+01 -0.13264976932E+02 -0.59763450695E+02  0.61609785435E+02  0.17770000000E+01 0. -1.
</event>
<event>
 6    1  0.4028964E-003  0.5004862E+03  0.7546771E-02  0.9398722E-01
        -11   -1    0    0    0    0  0.00000000000E+00  0.00000000000E+00  0.50000000000E+03  0.50000000000E+03  0.00000000000E+00 0. -1.
         11   -1    0    0    0    0 -0.00000000000E+00 -0.00000000000E+00 -0.50000000000E+03  0.50000000000E+03  0.00000000000E+00 0. -1.
        -11    1    1    2    0    0  0.98353579859E+01  0.12666107561E+02  0.49925629003E+03  0.49951377126E+03  0.00000000000E+00 0. -1.
         11    1    1    2    0    0  0.50570642796E+01  0.99529356314E+00 -0.30264111810E+03  0.30268500272E+03  0.00000000000E+00 0. -1.
        -15    1    1    2    0    0 -0.90994217799E+01 -0.98842873496E+01 -0.15368096972E+03  0.15427733727E+03  0.17770000000E+01 0.  1.
         15    1    1    2    0    0 -0.57930004856E+01 -0.37771137743E+01 -0.42934202212E+02  0.43523888747E+02  0.17770000000E+01 0. -1.
</event>
<event>
 6    1  0.4028964E-003  0.5081217E+03  0.7546771E-02  0.9381818E-01
        -11   -1    0    0    0    0  0.00000000000E+00  0.00000000000E+00  0.50000000000E+03  0.50000000000E+03  0.00000000000E+00 0.  1.
         11   -1    0    0    0    0 -0.00000000000E+00 -0.00000000000E+00 -0.50000000000E+03  0.50000000000E+03  0.00000000000E+00 0.  1.
        -11    1    1    2    0    0 -0.31520356139E+01 -0.98926208564E+01  0.45484405160E+03  0.45496253753E+03  0.00000000000E+00 0.  1.
         11    1    1    2    0    0 -0.22725848312E+01 -0.75157368001E+01 -0.49181567686E+03  0.49187834974E+03  0.00000000000E+00 0.  1.
        -15    1    1    2    0    0  0.36208337961E+01  0.20452897869E+02  0.41922324569E+02  0.46819552485E+02  0.17770000000E+01 0. -1.
         15    1    1    2    0    0  0.18037866490E+01 -0.30445402121E+01 -0.49506993177E+01  0.63395602460E+01  0.17770000000E+01 0.  1.
</event>
<event>
 6    1  0.4028964E-003  0.5219515E+03  0.7546771E-02  0.9351988E-01
        -11   -1    0    0    0    0  0.00000000000E+00  0.00000000000E+00  0.50000000000E+03  0.50000000000E+03  0.00000000000E+00 0.  1.
         11   -1    0    0    0    0 -0.00000000000E+00 -0.00000000000E+00 -0.50000000000E+03  0.50000000000E+03  0.00000000000E+00 0.  1.
        -11    1    1    2    0    0  0.25407948334E+02  0.10789070250E+02  0.14954472151E+03  0.15207100844E+03  0.00000000000E+00 0.  1.
         11    1    1    2    0    0  0.46951289691E+02  0.60351075271E+01 -0.47569895640E+03  0.47804847374E+03  0.00000000000E+00 0.  1.
        -15    1    1    2    0    0 -0.60132065674E+02  0.29876631165E+02  0.31256109915E+03  0.31969685147E+03  0.17770000000E+01 0.  1.
         15    1    1    2    0    0 -0.12227172351E+02 -0.46700808942E+02  0.13593135742E+02  0.50183666345E+02  0.17770000000E+01 0. -1.
</event>
<event>
 6    1  0.4028964E-003  0.5009221E+03  0.7546771E-02  0.9397749E-01
        -11   -1    0    0    0    0  0.00000000000E+00  0.00000000000E+00  0.50000000000E+03  0.50000000000E+03  0.00000000000E+00 0.  1.
         11   -1    0    0    0    0 -0.00000000000E+00 -0.00000000000E+00 -0.50000000000E+03  0.50000000000E+03  0.00000000000E+00 0. -1.
        -11    1    1    2    0    0 -0.71448495033E+01  0.65265009281E+00  0.49902637077E+03  0.49907794337E+03  0.00000000000E+00 0.  1.
         11    1    1    2    0    0  0.39912616909E+01  0.49325757228E+01 -0.37339591082E+03  0.37344981817E+03  0.00000000000E+00 0. -1.
        -15    1    1    2    0    0  0.82851224558E+01 -0.12301602272E+01 -0.21988766714E+02  0.23597036655E+02  0.17770000000E+01 0.  1.
         15    1    1    2    0    0 -0.51315346433E+01 -0.43550655885E+01 -0.10364169324E+03  0.10387520181E+03  0.17770000000E+01 0.  1.
</event>
<event>
 6    1  0.4028964E-003  0.5145402E+03  0.7546771E-02  0.9367850E-01
        -11   -1    0    0    0    0  0.00000000000E+00  0.00000000000E+00  0.50000000000E+03  0.50000000000E+03  0.00000000000E+00 0. -1.
         11   -1    0    0    0    0 -0.00000000000E+00 -0.00000000000E+00 -0.50000000000E+03  0.50000000000E+03  0.00000000000E+00 0.  1.
        -11    1    1    2    0    0  0.10072358593E+02  0.78571916259E+01  0.46396517182E+03  0.46414100070E+03  0.00000000000E+00 0. -1.
         11    1    1    2    0    0  0.78469677427E+01  0.21707540934E+01 -0.48539149205E+03  0.48545976932E+03  0.00000000000E+00 0.  1.
        -15    1    1    2    0    0 -0.15778398633E+02 -0.65888277346E+01  0.33438340056E+02  0.37598548231E+02  0.17770000000E+01 0. -1.
         15    1    1    2    0    0 -0.21409277020E+01 -0.34391179847E+01 -0.12012019828E+02  0.12800681751E+02  0.17770000000E+01 0.  1.
</event>
<event>
 6    1  0.4028964E-003  0.5023012E+03  0.7546771E-02  0.9394675E-01
        -11   -1    0    0    0    0  0.00000000000E+00  0.00000000000E+00  0.50000000000E+03  0.50000000000E+03  0.00000000000E+00 0.  1.
         11   -1    0    0    0    0 -0.00000000000E+00 -0.00000000000E+00 -0.50000000000E+03  0.50000000000E+03  0.00000000000E+00 0. -1.
        -11    1    1    2    0    0 -0.13959845096E+01  0.94974978187E+01  0.36513168729E+03  0.36525785454E+03  0.00000000000E+00 0.  1.
         11    1    1    2    0    0 -0.84430736305E+01  0.19341192022E+02 -0.49725115515E+03  0.49769878290E+03  0.00000000000E+00 0. -1.
        -15    1    1    2    0    0 -0.24336495936E+01  0.14865021759E+01  0.18142242751E+02  0.18450773428E+02  0.17770000000E+01 0. -1.
         15    1    1    2    0    0  0.12272707734E+02 -0.30325192016E+02  0.11397722511E+03  0.11859258914E+03  0.17770000000E+01 0. -1.
</event>
<event>
 6    1  0.4028964E-003  0.5022763E+03  0.7546771E-02  0.9394731E-01
        -11   -1    0    0    0    0  0.00000000000E+00  0.00000000000E+00  0.50000000000E+03  0.50000000000E+03  0.00000000000E+00 0. -1.
         11   -1    0    0    0    0 -0.00000000000E+00 -0.00000000000E+00 -0.50000000000E+03  0.50000000000E+03  0.00000000000E+00 0.  1.
        -11    1    1    2    0    0 -0.68588540564E+01  0.47306762745E+01  0.49765395318E+03  0.49772369875E+03  0.00000000000E+00 0. -1.
         11    1    1    2    0    0 -0.77931220096E+01  0.34208139980E+01 -0.42612992745E+03  0.42621491033E+03  0.00000000000E+00 0.  1.
        -15    1    1    2    0    0  0.86710240633E+00  0.52629283652E+00 -0.43868652081E+02  0.43916343372E+02  0.17770000000E+01 0.  1.
         15    1    1    2    0    0  0.13784873660E+02 -0.86777831090E+01 -0.27655373651E+02  0.32145047554E+02  0.17770000000E+01 0. -1.
</event>
<event>
 6    1  0.4028964E-003  0.5022719E+03  0.7546771E-02  0.9394740E-01
        -11   -1    0    0    0    0  0.00000000000E+00  0.00000000000E+00  0.50000000000E+03  0.50000000000E+03  0.00000000000E+00 0. -1.
         11   -1    0    0    0    0 -0.00000000000E+00 -0.00000000000E+00 -0.50000000000E+03  0.50000000000E+03  0.00000000000E+00 0. -1.
        -11    1    1    2    0    0 -0.13247396951E+01  0.13601150782E+02  0.49754045625E+03  0.49772809027E+03  0.00000000000E+00 0. -1.
         11    1    1    2    0    0 -0.43300160742E+01 -0.54362571271E+01 -0.47372955490E+03  0.47378053265E+03  0.00000000000E+00 0. -1.
        -15    1    1    2    0    0  0.53562834681E+00 -0.92160398944E+01 -0.10569061924E+02  0.14145143620E+02  0.17770000000E+01 0.  1.
         15    1    1    2    0    0  0.51191274225E+01  0.10511462397E+01 -0.13241839428E+02  0.14346233458E+02  0.17770000000E+01 0. -1.
</event>
<event>
 6    1  0.4028964E-003  0.5080127E+03  0.7546771E-02  0.9382057E-01
        -11   -1    0    0    0    0  0.00000000000E+00  0.00000000000E+00  0.50000000000E+03  0.50000000000E+03  0.00000000000E+00 0. -1.
         11   -1    0    0    0    0 -0.00000000000E+00 -0.00000000000E+00 -0.50000000000E+03  0.50000000000E+03  0.00000000000E+00 0.  1.
        -11    1    1    2    0    0  0.97512085896E+01 -0.21848754731E+01  0.43246629978E+03  0.43258173816E+03  0.00000000000E+00 0. -1.
         11    1    1    2    0    0 -0.69760730912E+01  0.24758074151E+02 -0.49131447511E+03  0.49198733854E+03  0.00000000000E+00 0.  1.
        -15    1    1    2    0    0 -0.32472001596E+00 -0.71905608163E+01  0.59285421933E+02  0.59747205715E+02  0.17770000000E+01 0.  1.
         15    1    1    2    0    0 -0.24504154825E+01 -0.15382637861E+02 -0.43724660049E+00  0.15683717582E+02  0.17770000000E+01 0. -1.
</event>
<event>
 6    1  0.4028964E-003  0.4678854E+03  0.7546771E-02  0.9474683E-01
        -11   -1    0    0    0    0  0.00000000000E+00  0.00000000000E+00  0.50000000000E+03  0.50000000000E+03  0.00000000000E+00 0. -1.
         11   -1    0    0    0    0 -0.00000000000E+00 -0.00000000000E+00 -0.50000000000E+03  0.50000000000E+03  0.00000000000E+00 0.  1.
        -11    1    1    2    0    0  0.24695138709E+02 -0.63650552946E+01  0.46384234129E+03  0.46454287356E+03  0.00000000000E+00 0. -1.
         11    1    1    2    0    0  0.19357150259E+02  0.17506628391E+02 -0.47164129299E+03  0.47236288016E+03  0.00000000000E+00 0.  1.
        -15    1    1    2    0    0 -0.28697977523E+02 -0.24301454256E+02  0.16378675413E+02  0.41055490865E+02  0.17770000000E+01 0. -1.
         15    1    1    2    0    0 -0.15354311445E+02  0.13159881160E+02 -0.85797237128E+01  0.22038755411E+02  0.17770000000E+01 0.  1.
</event>
<event>
 6    1  0.4028964E-003  0.5019671E+03  0.7546771E-02  0.9395419E-01
        -11   -1    0    0    0    0  0.00000000000E+00  0.00000000000E+00  0.50000000000E+03  0.50000000000E+03  0.00000000000E+00 0.  1.
         11   -1    0    0    0    0 -0.00000000000E+00 -0.00000000000E+00 -0.50000000000E+03  0.50000000000E+03  0.00000000000E+00 0. -1.
        -11    1    1    2    0    0 -0.14967745288E+01 -0.92020075474E+01  0.49794562283E+03  0.49803289106E+03  0.00000000000E+00 0.  1.
         11    1    1    2    0    0 -0.57088580576E+01 -0.57904223001E+01 -0.42793772421E+03  0.42801497152E+03  0.00000000000E+00 0. -1.
        -15    1    1    2    0    0 -0.92794931394E+00  0.58268305727E+01 -0.54778774910E+01  0.82448720584E+01  0.17770000000E+01 0. -1.
         15    1    1    2    0    0  0.81335819003E+01  0.91655992749E+01 -0.64530021135E+02  0.65707265361E+02  0.17770000000E+01 0.  1.
</event>
<event>
 6    1  0.4028964E-003  0.5002696E+03  0.7546771E-02  0.9399207E-01
        -11   -1    0    0    0    0  0.00000000000E+00  0.00000000000E+00  0.50000000000E+03  0.50000000000E+03  0.00000000000E+00 0. -1.
         11   -1    0    0    0    0 -0.00000000000E+00 -0.00000000000E+00 -0.50000000000E+03  0.50000000000E+03  0.00000000000E+00 0.  1.
        -11    1    1    2    0    0 -0.53466109765E+01 -0.17135997461E+01  0.11858239133E+03  0.11871523157E+03  0.00000000000E+00 0. -1.
         11    1    1    2    0    0  0.86292215888E+01  0.93859428893E+00 -0.49965505368E+03  0.49973044443E+03  0.00000000000E+00 0.  1.
        -15    1    1    2    0    0 -0.31008839593E+01 -0.65085263919E+01  0.30965201906E+03  0.30974103221E+03  0.17770000000E+01 0. -1.
         15    1    1    2    0    0 -0.18172665303E+00  0.72835318491E+01  0.71420643281E+02  0.71813291781E+02  0.17770000000E+01 0. -1.
</event>
<event>
 6    1  0.4028964E-003  0.5103978E+03  0.7546771E-02  0.9376840E-01
        -11   -1    0    0    0    0  0.00000000000E+00  0.00000000000E+00  0.50000000000E+03  0.50000000000E+03  0.00000000000E+00 0.  1.
         11   -1    0    0    0    0 -0.00000000000E+00 -0.00000000000E+00 -0.50000000000E+03  0.50000000000E+03  0.00000000000E+00 0. -1.
        -11    1    1    2    0    0 -0.16192273636E+02  0.27006201652E+01  0.41885101192E+03  0.41917258172E+03  0.00000000000E+00 0.  1.
         11    1    1    2    0    0  0.19666646673E+02  0.21354717069E+02 -0.48874078417E+03  0.48960224166E+03  0.00000000000E+00 0. -1.
        -15    1    1    2    0    0 -0.21840374391E+02 -0.62152732286E+01  0.78595927494E+01  0.24094864640E+02  0.17770000000E+01 0.  1.
         15    1    1    2    0    0  0.18366001354E+02 -0.17840064005E+02  0.62030179495E+02  0.67130311980E+02  0.17770000000E+01 0. -1.
</event>
<event>
 6    1  0.4028964E-003  0.5023417E+03  0.7546771E-02  0.9394585E-01
        -11   -1    0    0    0    0  0.00000000000E+00  0.00000000000E+00  0.50000000000E+03  0.50000000000E+03  0.00000000000E+00 0.  1.
         11   -1    0    0    0    0 -0.00000000000E+00 -0.00000000000E+00 -0.50000000000E+03  0.50000000000E+03  0.00000000000E+00 0. -1.
        -11    1    1    2    0    0 -0.70487669943E+01 -0.50162170809E+01  0.49758305386E+03  0.49765825929E+03  0.00000000000E+00 0.  1.
         11    1    1    2    0    0  0.13358875052E+02  0.50867533876E+01 -0.37497130978E+03  0.37524367784E+03  0.00000000000E+00 0. -1.
        -15    1    1    2    0    0 -0.15061958513E+01  0.58190786023E+01 -0.25243026135E+01  0.67572283080E+01  0.17770000000E+01 0.  1.
         15    1    1    2    0    0 -0.48039122063E+01 -0.58896149090E+01 -0.12008744146E+03  0.12034083456E+03  0.17770000000E+01 0. -1.
</event>
<event>
 6    1  0.4028964E-003  0.5820568E+03  0.7546771E-02  0.9232872E-01
        -11   -1    0    0    0    0  0.00000000000E+00  0.00000000000E+00  0.50000000000E+03  0.50000000000E+03  0.00000000000E+00 0.  1.
         11   -1    0    0    0    0 -0.00000000000E+00 -0.00000000000E+00 -0.50000000000E+03  0.50000000000E+03  0.00000000000E+00 0. -1.
        -11    1    1    2    0    0  0.45991952396E+01  0.78381646645E+01  0.41784434336E+03  0.41794315965E+03  0.00000000000E+00 0.  1.
         11    1    1    2    0    0 -0.82547805344E+01 -0.25440129072E+02 -0.37864286010E+03  0.37958629726E+03  0.00000000000E+00 0. -1.
        -15    1    1    2    0    0  0.16253980365E+02  0.23751079218E+02 -0.11848207490E+03  0.12194041760E+03  0.17770000000E+01 0. -1.
         15    1    1    2    0    0 -0.12598395070E+02 -0.61491148101E+01  0.79280591636E+02  0.80530125484E+02  0.17770000000E+01 0.  1.
</event>
<event>
 6    1  0.4028964E-003  0.5011909E+03  0.7546771E-02  0.9397149E-01
        -11   -1    0    0    0    0  0.00000000000E+00  0.00000000000E+00  0.50000000000E+03  0.50000000000E+03  0.00000000000E+00 0. -1.
         11   -1    0    0    0    0 -0.00000000000E+00 -0.00000000000E+00 -0.50000000000E+03  0.50000000000E+03  0.00000000000E+00 0. -1.
        -11    1    1    2    0    0 -0.12289210180E+02 -0.88645117798E+01  0.49857893067E+03  0.49880913620E+03  0.00000000000E+00 0. -1.
         11    1    1    2    0    0  0.39347907239E+01 -0.55832768592E+01 -0.42408494154E+03  0.42413994530E+03  0.00000000000E+00 0. -1.
        -15    1    1    2    0    0 -0.64313539778E+00  0.56162489064E+01 -0.36562512565E+02  0.37039585972E+02  0.17770000000E+01 0.  1.
         15    1    1    2    0    0  0.89975548540E+01  0.88315397325E+01 -0.37931476564E+02  0.40011332529E+02  0.17770000000E+01 0. -1.
</event>
<event>
 6    1  0.4028964E-003  0.5079334E+03  0.7546771E-02  0.9382231E-01
        -11   -1    0    0    0    0  0.00000000000E+00  0.00000000000E+00  0.50000000000E+03  0.50000000000E+03  0.00000000000E+00 0. -1.
         11   -1    0    0    0    0 -0.00000000000E+00 -0.00000000000E+00 -0.50000000000E+03  0.50000000000E+03  0.00000000000E+00 0.  1.
        -11    1    1    2    0    0 -0.58120818684E+01 -0.66049731990E+01  0.49198797462E+03  0.49206663485E+03  0.00000000000E+00 0. -1.
         11    1    1    2    0    0  0.69681941965E+01  0.59012232233E+00 -0.47385530890E+03  0.47390690831E+03  0.00000000000E+00 0.  1.
        -15    1    1    2    0    0 -0.24367599962E+01 -0.37631459673E+01 -0.22561404575E+02  0.23071059193E+02  0.17770000000E+01 0. -1.
         15    1    1    2    0    0  0.12806476681E+01  0.97779968440E+01  0.44287388555E+01  0.10955397646E+02  0.17770000000E+01 0.  1.
</event>
<event>
 6    1  0.4028964E-003  0.5063263E+03  0.7546771E-02  0.9385764E-01
        -11   -1    0    0    0    0  0.00000000000E+00  0.00000000000E+00  0.50000000000E+03  0.50000000000E+03  0.00000000000E+00 0.  1.
         11   -1    0    0    0    0 -0.00000000000E+00 -0.00000000000E+00 -0.50000000000E+03  0.50000000000E+03  0.00000000000E+00 0. -1.
        -11    1    1    2    0    0 -0.45315320451E+01 -0.12073635152E+02  0.49350523720E+03  0.49367370457E+03  0.00000000000E+00 0.  1.
         11    1    1    2    0    0 -0.73943734475E+01  0.13125073438E+01 -0.48137389107E+03  0.48143246924E+03  0.00000000000E+00 0. -1.
        -15    1    1    2    0    0  0.38669033136E+01 -0.32711667772E+01 -0.40180972209E+01  0.67049465022E+01  0.17770000000E+01 0.  1.
         15    1    1    2    0    0  0.80590021790E+01  0.14032294585E+02 -0.81132489059E+01  0.18188879686E+02  0.17770000000E+01 0. -1.
</event>
<event>
 6    1  0.4028964E-003  0.5218762E+03  0.7546771E-02  0.9352148E-01
        -11   -1    0    0    0    0  0.00000000000E+00  0.00000000000E+00  0.50000000000E+03  0.50000000000E+03  0.00000000000E+00 0. -1.
         11   -1    0    0    0    0 -0.00000000000E+00 -0.00000000000E+00 -0.50000000000E+03  0.50000000000E+03  0.00000000000E+00 0.  1.
        -11    1    1    2    0    0 -0.22363357980E+02 -0.26334288303E+02  0.47687388961E+03  0.47812375084E+03  0.00000000000E+00 0. -1.
         11    1    1    2    0    0 -0.19930034302E+01 -0.38552001715E+01 -0.20451047113E+03  0.20455651403E+03  0.00000000000E+00 0.  1.
        -15    1    1    2    0    0  0.34643457381E+02  0.24910640764E+02  0.19554958695E+01  0.42751501210E+02  0.17770000000E+01 0. -1.
         15    1    1    2    0    0 -0.10287095971E+02  0.52788477104E+01 -0.27431891436E+03  0.27456823392E+03  0.17770000000E+01 0.  1.
</event>
<event>
 6    1  0.4028964E-003  0.5011540E+03  0.7546771E-02  0.9397231E-01
        -11   -1    0    0    0    0  0.00000000000E+00  0.00000000000E+00  0.50000000000E+03  0.50000000000E+03  0.00000000000E+00 0.  1.
         11   -1    0    0    0    0 -0.00000000000E+00 -0.00000000000E+00 -0.50000000000E+03  0.50000000000E+03  0.00000000000E+00 0. -1.
        -11    1    1    2    0    0 -0.66667878524E+01  0.16965429499E+01  0.49879854648E+03  0.49884598253E+03  0.00000000000E+00 0.  1.
         11    1    1    2    0    0  0.39036704595E+01  0.72249558591E+01 -0.24843221212E+03  0.24856790350E+03  0.00000000000E+00 0. -1.
        -15    1    1    2    0    0  0.91407676756E+01 -0.18713937527E+02 -0.13393457203E+03  0.13555586452E+03  0.17770000000E+01 0.  1.
         15    1    1    2    0    0 -0.63776502826E+01  0.97924387178E+01 -0.11643176233E+03  0.11703024945E+03  0.17770000000E+01 0. -1.
</event>
<event>
 6    1  0.4028964E-003  0.5016392E+03  0.7546771E-02  0.9396149E-01
        -11   -1    0    0    0    0  0.00000000000E+00  0.00000000000E+00  0.50000000000E+03  0.50000000000E+03  0.00000000000E+00 0.  1.
         11   -1    0    0    0    0 -0.00000000000E+00 -0.00000000000E+00 -0.50000000000E+03  0.50000000000E+03  0.00000000000E+00 0.  1.
        -11    1    1    2    0    0  0.39189127132E+01  0.16137367929E+02  0.49808404249E+03  0.49836079892E+03  0.00000000000E+00 0.  1.
         11    1    1    2    0    0 -0.14521881143E+02 -0.66110144836E+01 -0.38515354216E+03  0.38548390573E+03  0.00000000000E+00 0.  1.
        -15    1    1    2    0    0  0.10612478622E+02 -0.11489971637E+02 -0.37393172003E+02  0.40571556442E+02  0.17770000000E+01 0. -1.
         15    1    1    2    0    0 -0.95101919974E-02  0.19636181906E+01 -0.75537328327E+02  0.75583738904E+02  0.17770000000E+01 0.  1.
</event>
<event>
 6    1  0.4028964E-003  0.5001796E+03  0.7546771E-02  0.9399408E-01
        -11   -1    0    0    0    0  0.00000000000E+00  0.00000000000E+00  0.50000000000E+03  0.50000000000E+03  0.00000000000E+00 0.  1.
         11   -1    0    0    0    0 -0.00000000000E+00 -0.00000000000E+00 -0.50000000000E+03  0.50000000000E+03  0.00000000000E+00 0.  1.
        -11    1    1    2    0    0 -0.27141483443E+00 -0.11386243951E+01  0.15139977976E+02  0.15185159355E+02  0.00000000000E+00 0.  1.
         11    1    1    2    0    0  0.10556513292E+02 -0.99625096631E+01 -0.49960954416E+03  0.49982035592E+03  0.00000000000E+00 0.  1.
        -15    1    1    2    0    0 -0.70299091852E+01 -0.17508745905E+00  0.74299377738E+02  0.74652565529E+02  0.17770000000E+01 0. -1.
         15    1    1    2    0    0 -0.32551892728E+01  0.11276221517E+02  0.41017018845E+03  0.41034191920E+03  0.17770000000E+01 0.  1.
</event>
<event>
 6    1  0.4028964E-003  0.5508013E+03  0.7546771E-02  0.9292804E-01
        -11   -1    0    0    0    0  0.00000000000E+00  0.00000000000E+00  0.50000000000E+03  0.50000000000E+03  0.00000000000E+00 0.  1.
         11   -1    0    0    0    0 -0.00000000000E+00 -0.00000000000E+00 -0.50000000000E+03  0.50000000000E+03  0.00000000000E+00 0.  1.
        -11    1    1    2    0    0  0.27643868720E+01  0.67698076913E+01  0.38896053885E+03  0.38902926999E+03  0.00000000000E+00 0.  1.
         11    1    1    2    0    0 -0.81026112222E+01  0.36743013607E+01 -0.44911058999E+03  0.44919870307E+03  0.00000000000E+00 0.  1.
        -15    1    1    2    0    0  0.27690262423E+01  0.47616415057E+01  0.10969733026E+03  0.10984991002E+03  0.17770000000E+01 0.  1.
         15    1    1    2    0    0  0.25691981079E+01 -0.15205750558E+02 -0.49547279116E+02  0.51922116923E+02  0.17770000000E+01 0.  1.
</event>
<event>
 6    1  0.4028964E-003  0.5002620E+03  0.7546771E-02  0.9399224E-01
        -11   -1    0    0    0    0  0.00000000000E+00  0.00000000000E+00  0.50000000000E+03  0.50000000000E+03  0.00000000000E+00 0.  1.
         11   -1    0    0    0    0 -0.00000000000E+00 -0.00000000000E+00 -0.50000000000E+03  0.50000000000E+03  0.00000000000E+00 0. -1.
        -11    1    1    2    0    0 -0.39232328312E+01 -0.61245763476E+01  0.49968504303E+03  0.49973797577E+03  0.00000000000E+00 0.  1.
         11    1    1    2    0    0  0.59830781329E+01  0.53751429225E+01 -0.40258737536E+03  0.40266770939E+03  0.00000000000E+00 0. -1.
        -15    1    1    2    0    0  0.18484133541E+01  0.37806396698E+01 -0.43002183729E+02  0.43244137206E+02  0.17770000000E+01 0. -1.
         15    1    1    2    0    0 -0.39082586558E+01 -0.30312062447E+01 -0.54095483947E+02  0.54350177639E+02  0.17770000000E+01 0.  1.
</event>
<event>
 6    1  0.4028964E-003  0.5121092E+03  0.7546771E-02  0.9373115E-01
        -11   -1    0    0    0    0  0.00000000000E+00  0.00000000000E+00  0.50000000000E+03  0.50000000000E+03  0.00000000000E+00 0. -1.
         11   -1    0    0    0    0 -0.00000000000E+00 -0.00000000000E+00 -0.50000000000E+03  0.50000000000E+03  0.00000000000E+00 0.  1.
        -11    1    1    2    0    0 -0.88045496312E+01  0.73351459269E+01  0.40629691548E+03  0.40645849479E+03  0.00000000000E+00 0. -1.
         11    1    1    2    0    0  0.55304675840E+01 -0.35876562626E+01 -0.48784623748E+03  0.48789077545E+03  0.00000000000E+00 0.  1.
        -15    1    1    2    0    0 -0.29336264539E+02 -0.51012190202E+01  0.19857732382E+02  0.35834705482E+02  0.17770000000E+01 0.  1.
         15    1    1    2    0    0  0.32610346586E+02  0.13537293559E+01  0.61691589617E+02  0.69816024279E+02  0.17770000000E+01 0. -1.
</event>
<event>
 6    1  0.4028964E-003  0.5114205E+03  0.7546771E-02  0.9374612E-01
        -11   -1    0    0    0    0  0.00000000000E+00  0.00000000000E+00  0.50000000000E+03  0.50000000000E+03  0.00000000000E+00 0. -1.
         11   -1    0    0    0    0 -0.00000000000E+00 -0.00000000000E+00 -0.50000000000E+03  0.50000000000E+03  0.00000000000E+00 0.  1.
        -11    1    1    2    0    0 -0.37623008079E+01  0.68047481110E+01  0.48851757918E+03  0.48857945584E+03  0.00000000000E+00 0. -1.
         11    1    1    2    0    0 -0.43253867370E+01  0.12291475594E+02 -0.47121181120E+03  0.47139193922E+03  0.00000000000E+00 0.  1.
        -15    1    1    2    0    0  0.12544889654E+02 -0.14541143348E+02 -0.23883897834E+02  0.30698817747E+02  0.17770000000E+01 0.  1.
         15    1    1    2    0    0 -0.44572021094E+01 -0.45550803568E+01  0.65781298542E+01  0.93297871937E+01  0.17770000000E+01 0. -1.
</event>
<event>
 6    1  0.4028964E-003  0.5015140E+03  0.7546771E-02  0.9396428E-01
        -11   -1    0    0    0    0  0.00000000000E+00  0.00000000000E+00  0.50000000000E+03  0.50000000000E+03  0.00000000000E+00 0. -1.
         11   -1    0    0    0    0 -0.00000000000E+00 -0.00000000000E+00 -0.50000000000E+03  0.50000000000E+03  0.00000000000E+00 0. -1.
        -11    1    1    2    0    0  0.51078052113E+01 -0.28792665734E+02  0.49762759535E+03  0.49848603885E+03  0.00000000000E+00 0. -1.
         11    1    1    2    0    0 -0.46674831518E+01 -0.18083466749E+01 -0.32605743754E+03  0.32609585721E+03  0.00000000000E+00 0. -1.
        -15    1    1    2    0    0  0.16028155579E+01 -0.23125586945E+01 -0.21596663475E+02  0.21851557100E+02  0.17770000000E+01 0. -1.
         15    1    1    2    0    0 -0.20431376174E+01  0.32913571104E+02 -0.14997349434E+03  0.15356654684E+03  0.17770000000E+01 0. -1.
</event>
<event>
 6    1  0.4028964E-003  0.5138248E+03  0.7546771E-02  0.9369396E-01
        -11   -1    0    0    0    0  0.00000000000E+00  0.00000000000E+00  0.50000000000E+03  0.50000000000E+03  0.00000000000E+00 0. -1.
         11   -1    0    0    0    0 -0.00000000000E+00 -0.00000000000E+00 -0.50000000000E+03  0.50000000000E+03  0.00000000000E+00 0.  1.
        -11    1    1    2    0    0  0.96713281355E+01  0.14996549316E+01  0.48607672018E+03  0.48617523740E+03  0.00000000000E+00 0. -1.
         11    1    1    2    0    0 -0.22159357923E+02  0.14177817399E+02 -0.37288153573E+03  0.37380835643E+03  0.00000000000E+00 0.  1.
        -15    1    1    2    0    0 -0.12305258172E+02 -0.50264921301E+01 -0.11215477250E+03  0.11295368841E+03  0.17770000000E+01 0.  1.
         15    1    1    2    0    0  0.24793287959E+02 -0.10650980200E+02 -0.10404119597E+01  0.27062717770E+02  0.17770000000E+01 0. -1.
</event>
<event>
 6    1  0.4028964E-003  0.5140507E+03  0.7546771E-02  0.9368908E-01
        -11   -1    0    0    0    0  0.00000000000E+00  0.00000000000E+00  0.50000000000E+03  0.50000000000E+03  0.00000000000E+00 0.  1.
         11   -1    0    0    0    0 -0.00000000000E+00 -0.00000000000E+00 -0.50000000000E+03  0.50000000000E+03  0.00000000000E+00 0.  1.
        -11    1    1    2    0    0 -0.67633839658E+01  0.11962835213E+01  0.48590080352E+03  0.48594934440E+03  0.00000000000E+00 0.  1.
         11    1    1    2    0    0 -0.88675283172E+01  0.42533445935E+01 -0.45797119173E+03  0.45807678009E+03  0.00000000000E+00 0.  1.
        -15    1    1    2    0    0  0.81229554261E+01 -0.44628116149E+01 -0.40284131776E+02  0.41374727725E+02  0.17770000000E+01 0. -1.
         15    1    1    2    0    0  0.75079568568E+01 -0.98681649990E+00  0.12354519987E+02  0.14599147786E+02  0.17770000000E+01 0. -1.
</event>
<event>
 6    1  0.4028964E-003  0.5036982E+03  0.7546771E-02  0.9391573E-01
        -11   -1    0    0    0    0  0.00000000000E+00  0.00000000000E+00  0.50000000000E+03  0.50000000000E+03  0.00000000000E+00 0. -1.
         11   -1    0    0    0    0 -0.00000000000E+00 -0.00000000000E+00 -0.50000000000E+03  0.50000000000E+03  0.00000000000E+00 0. -1.
        -11    1    1    2    0    0  0.13772421887E+01 -0.66070755583E+01  0.45774142172E+03  0.45779117444E+03  0.00000000000E+00 0. -1.
         11    1    1    2    0    0 -0.63801004193E+01 -0.23008228019E+01 -0.49625548484E+03  0.49630182923E+03  0.00000000000E+00 0. -1.
        -15    1    1    2    0    0 -0.59423053061E+01 -0.28855269379E+00  0.17952330909E+01  0.64633463360E+01  0.17770000000E+01 0. -1.
         15    1    1    2    0    0  0.10945163537E+02  0.91964510540E+01  0.36718830028E+02  0.39443649989E+02  0.17770000000E+01 0.  1.
</event>
<event>
 6    1  0.4028964E-003  0.5003144E+03  0.7546771E-02  0.9399107E-01
        -11   -1    0    0    0    0  0.00000000000E+00  0.00000000000E+00  0.50000000000E+03  0.50000000000E+03  0.00000000000E+00 0.  1.
         11   -1    0    0    0    0 -0.00000000000E+00 -0.00000000000E+00 -0.50000000000E+03  0.50000000000E+03  0.00000000000E+00 0.  1.
        -11    1    1    2    0    0  0.47443694665E+01  0.14399830204E+01  0.30246424846E+03  0.30250488292E+03  0.00000000000E+00 0.  1.
         11    1    1    2    0    0  0.72405721326E+01 -0.84765131755E+01 -0.49956124618E+03  0.49968561701E+03  0.00000000000E+00 0.  1.
        -15    1    1    2    0    0 -0.20122739319E+00  0.27836926407E+01  0.71560845598E+02  0.71637293283E+02  0.17770000000E+01 0. -1.
         15    1    1    2    0    0 -0.11783714206E+02  0.42528375144E+01  0.12553615212E+03  0.12617220679E+03  0.17770000000E+01 0.  1.
</event>
<event>
 6    1  0.4028964E-003  0.5012276E+03  0.7546771E-02  0.9397067E-01
        -11   -1    0    0    0    0  0.00000000000E+00  0.00000000000E+00  0.50000000000E+03  0.50000000000E+03  0.00000000000E+00 0.  1.
         11   -1    0    0    0    0 -0.00000000000E+00 -0.00000000000E+00 -0.50000000000E+03  0.50000000000E+03  0.00000000000E+00 0.  1.
        -11    1    1    2    0    0  0.47257492974E+01 -0.11124639430E+02  0.49862592582E+03  0.49877239720E+03  0.00000000000E+00 0.  1.
         11    1    1    2    0    0 -0.12612812638E+01  0.20772970014E+01 -0.11446303915E+03  0.11448883494E+03  0.00000000000E+00 0.  1.
        -15    1    1    2    0    0  0.14308189375E+02 -0.35611502429E+01 -0.27540293386E+03  0.27580308153E+03  0.17770000000E+01 0.  1.
         15    1    1    2    0    0 -0.17772657409E+02  0.12608492672E+02 -0.10875995280E+03  0.11093568633E+03  0.17770000000E+01 0. -1.
</event>
<event>
 6    1  0.4028964E-003  0.5001699E+03  0.7546771E-02  0.9399430E-01
        -11   -1    0    0    0    0  0.00000000000E+00  0.00000000000E+00  0.50000000000E+03  0.50000000000E+03  0.00000000000E+00 0.  1.
         11   -1    0    0    0    0 -0.00000000000E+00 -0.00000000000E+00 -0.50000000000E+03  0.50000000000E+03  0.00000000000E+00 0. -1.
        -11    1    1    2    0    0  0.65029539991E-03  0.82552045275E+00  0.23468049294E+02  0.23482564215E+02  0.00000000000E+00 0.  1.
         11    1    1    2    0    0 -0.67061505283E+01  0.98833396956E+01 -0.49968741680E+03  0.49983013852E+03  0.00000000000E+00 0. -1.
        -15    1    1    2    0    0 -0.35429281122E+01 -0.95353607646E+01  0.19504730905E+03  0.19532046985E+03  0.17770000000E+01 0.  1.
         15    1    1    2    0    0  0.10248428345E+02 -0.11734993838E+01  0.28117205846E+03  0.28136682742E+03  0.17770000000E+01 0. -1.
</event>
<event>
 6    1  0.4028964E-003  0.5042186E+03  0.7546771E-02  0.9390419E-01
        -11   -1    0    0    0    0  0.00000000000E+00  0.00000000000E+00  0.50000000000E+03  0.50000000000E+03  0.00000000000E+00 0. -1.
         11   -1    0    0    0    0 -0.00000000000E+00 -0.00000000000E+00 -0.50000000000E+03  0.50000000000E+03  0.00000000000E+00 0. -1.
        -11    1    1    2    0    0  0.60763048161E+01  0.62123775934E+01  0.49570519010E+03  0.49578135363E+03  0.00000000000E+00 0. -1.
         11    1    1    2    0    0  0.53852424903E+01 -0.61483486113E+01 -0.46251699171E+03  0.46258920291E+03  0.00000000000E+00 0. -1.
        -15    1    1    2    0    0  0.10784228936E+01  0.92037261326E+01 -0.12259815498E+02  0.15470370897E+02  0.17770000000E+01 0. -1.
         15    1    1    2    0    0 -0.12539970200E+02 -0.92677551147E+01 -0.20928382895E+02  0.26159072558E+02  0.17770000000E+01 0.  1.
</event>
<event>
 6    1  0.4028964E-003  0.5101192E+03  0.7546771E-02  0.9377448E-01
        -11   -1    0    0    0    0  0.00000000000E+00  0.00000000000E+00  0.50000000000E+03  0.50000000000E+03  0.00000000000E+00 0.  1.
         11   -1    0    0    0    0 -0.00000000000E+00 -0.00000000000E+00 -0.50000000000E+03  0.50000000000E+03  0.00000000000E+00 0.  1.
        -11    1    1    2    0    0  0.32641627208E+02 -0.51665032040E+01  0.43886631747E+03  0.44010886516E+03  0.00000000000E+00 0.  1.
         11    1    1    2    0    0  0.12737597835E+01  0.65557644140E+01 -0.48983527569E+03  0.48988079961E+03  0.00000000000E+00 0.  1.
        -15    1    1    2    0    0 -0.21610206620E+02 -0.47663293447E+01  0.52533887043E+02  0.57032323663E+02  0.17770000000E+01 0. -1.
         15    1    1    2    0    0 -0.12305180372E+02  0.33770681347E+01 -0.15649288189E+01  0.12978011573E+02  0.17770000000E+01 0.  1.
</event>
<event>
 6    1  0.4028964E-003  0.5279473E+03  0.7546771E-02  0.9339359E-01
        -11   -1    0    0    0    0  0.00000000000E+00  0.00000000000E+00  0.50000000000E+03  0.50000000000E+03  0.00000000000E+00 0. -1.
         11   -1    0    0    0    0 -0.00000000000E+00 -0.00000000000E+00 -0.50000000000E+03  0.50000000000E+03  0.00000000000E+00 0. -1.
        -11    1    1    2    0    0  0.65720296556E+01  0.66605086779E+01  0.44918304932E+03  0.44928049785E+03  0.00000000000E+00 0. -1.
         11    1    1    2    0    0  0.10466814876E+02  0.32170360872E+00 -0.47193649496E+03  0.47205265912E+03  0.00000000000E+00 0. -1.
        -15    1    1    2    0    0 -0.90492757446E+01 -0.59774562625E+01  0.49485839361E+02  0.50691472667E+02  0.17770000000E+01 0.  1.
         15    1    1    2    0    0 -0.79895687868E+01 -0.10047560241E+01 -0.26732393716E+02  0.27975370361E+02  0.17770000000E+01 0. -1.
</event>
<event>
 6    1  0.4090377E-003  0.5153322E+03  0.7546771E-02  0.9366142E-01
        -11   -1    0    0    0    0  0.00000000000E+00  0.00000000000E+00  0.50000000000E+03  0.50000000000E+03  0.00000000000E+00 0.  1.
         11   -1    0    0    0    0 -0.00000000000E+00 -0.00000000000E+00 -0.50000000000E+03  0.50000000000E+03  0.00000000000E+00 0. -1.
        -11    1    1    2    0    0 -0.21293367574E+02 -0.22398366466E+01  0.48419465220E+03  0.48466780953E+03  0.00000000000E+00 0.  1.
         11    1    1    2    0    0  0.38288190821E+01 -0.20580529620E+02 -0.43485193818E+03  0.43535551701E+03  0.00000000000E+00 0. -1.
        -15    1    1    2    0    0  0.19169469923E+01  0.19325133248E+02 -0.58393822677E+02  0.61564045649E+02  0.17770000000E+01 0.  1.
         15    1    1    2    0    0  0.15547601500E+02  0.34952330189E+01  0.90511086468E+01  0.18412627813E+02  0.17770000000E+01 0. -1.
</event>
<event>
 6    1  0.4028964E-003  0.5081759E+03  0.7546771E-02  0.9381699E-01
        -11   -1    0    0    0    0  0.00000000000E+00  0.00000000000E+00  0.50000000000E+03  0.50000000000E+03  0.00000000000E+00 0.  1.
         11   -1    0    0    0    0 -0.00000000000E+00 -0.00000000000E+00 -0.50000000000E+03  0.50000000000E+03  0.00000000000E+00 0. -1.
        -11    1    1    2    0    0 -0.33505068243E+01 -0.94056616034E+01  0.49172275207E+03  0.49182411213E+03  0.00000000000E+00 0.  1.
         11    1    1    2    0    0 -0.72101894601E+01  0.13134738460E+01 -0.46369680727E+03  0.46375472086E+03  0.00000000000E+00 0. -1.
        -15    1    1    2    0    0 -0.10951571429E+02  0.63582159634E+01 -0.11170466112E+02  0.16979424877E+02  0.17770000000E+01 0.  1.
         15    1    1    2    0    0  0.21512267713E+02  0.17339717940E+01 -0.16855478692E+02  0.27441742133E+02  0.17770000000E+01 0. -1.
</event>
<event>
 6    1  0.4028964E-003  0.5041423E+03  0.7546771E-02  0.9390589E-01
        -11   -1    0    0    0    0  0.00000000000E+00  0.00000000000E+00  0.50000000000E+03  0.50000000000E+03  0.00000000000E+00 0. -1.
         11   -1    0    0    0    0 -0.00000000000E+00 -0.00000000000E+00 -0.50000000000E+03  0.50000000000E+03  0.00000000000E+00 0.  1.
        -11    1    1    2    0    0 -0.24817091825E+01  0.69059781752E+01  0.49580343533E+03  0.49585773958E+03  0.00000000000E+00 0. -1.
         11    1    1    2    0    0 -0.58138314775E+00 -0.10705795369E+02 -0.28352125171E+03  0.28372390141E+03  0.00000000000E+00 0.  1.
        -15    1    1    2    0    0  0.82060798373E+01 -0.11321748413E+02 -0.94944506408E+01  0.16994824371E+02  0.17770000000E+01 0. -1.
         15    1    1    2    0    0 -0.51429875071E+01  0.15121565607E+02 -0.20278773298E+03  0.20342353463E+03  0.17770000000E+01 0.  1.
</event>
<event>
 6    1  0.6727684E-003  0.5019333E+03  0.7546771E-02  0.9395494E-01
        -11   -1    0    0    0    0  0.00000000000E+00  0.00000000000E+00  0.50000000000E+03  0.50000000000E+03  0.00000000000E+00 0. -1.
         11   -1    0    0    0    0 -0.00000000000E+00 -0.00000000000E+00 -0.50000000000E+03  0.50000000000E+03  0.00000000000E+00 0.  1.
        -11    1    1    2    0    0 -0.66648833352E+01  0.54107513820E+01  0.49799274574E+03  0.49806673420E+03  0.00000000000E+00 0. -1.
         11    1    1    2    0    0 -0.62473923668E+01 -0.12909333388E+02 -0.30257445300E+03  0.30291414693E+03  0.00000000000E+00 0.  1.
        -15    1    1    2    0    0  0.54243223789E+01 -0.43672362317E+01 -0.68740194434E+01  0.99451444375E+01  0.17770000000E+01 0.  1.
         15    1    1    2    0    0  0.74879533231E+01  0.11865818238E+02 -0.18854427330E+03  0.18907397444E+03  0.17770000000E+01 0. -1.
</event>
<event>
 6    1  0.4028964E-003  0.5018771E+03  0.7546771E-02  0.9395619E-01
        -11   -1    0    0    0    0  0.00000000000E+00  0.00000000000E+00  0.50000000000E+03  0.50000000000E+03  0.00000000000E+00 0. -1.
         11   -1    0    0    0    0 -0.00000000000E+00 -0.00000000000E+00 -0.50000000000E+03  0.50000000000E+03  0.00000000000E+00 0. -1.
        -11    1    1    2    0    0 -0.17224043010E+02  0.65008355330E+01  0.21565179628E+03  0.21643619328E+03  0.00000000000E+00 0. -1.
         11    1    1    2    0    0 -0.13779742380E+02 -0.46084536781E+01 -0.49791096305E+03  0.49812292286E+03  0.00000000000E+00 0. -1.
        -15    1    1    2    0    0 -0.85488027533E+00  0.83540952197E+01  0.43244130812E+02  0.44087802235E+02  0.17770000000E+01 0. -1.
         15    1    1    2    0    0  0.31858665665E+02 -0.10246477075E+02  0.23901503596E+03  0.24135308163E+03  0.17770000000E+01 0.  1.
</event>
<event>
 6    1  0.4028964E-003  0.5030615E+03  0.7546771E-02  0.9392985E-01
        -11   -1    0    0    0    0  0.00000000000E+00  0.00000000000E+00  0.50000000000E+03  0.50000000000E+03  0.00000000000E+00 0.  1.
         11   -1    0    0    0    0 -0.00000000000E+00 -0.00000000000E+00 -0.50000000000E+03  0.50000000000E+03  0.00000000000E+00 0.  1.
        -11    1    1    2    0    0 -0.21446378634E+01 -0.64823399047E+01  0.49689160500E+03  0.49693851463E+03  0.00000000000E+00 0.  1.
         11    1    1    2    0    0  0.14094953221E+02  0.32970016762E+01 -0.35972224335E+03  0.36001337515E+03  0.00000000000E+00 0.  1.
        -15    1    1    2    0    0 -0.15686063287E+02  0.10652587502E+01 -0.13748168702E+03  0.13838915908E+03  0.17770000000E+01 0. -1.
         15    1    1    2    0    0  0.37357479295E+01  0.21200794784E+01  0.31232536717E+00  0.46589511397E+01  0.17770000000E+01 0.  1.
</event>
<event>
 6    1  0.4028964E-003  0.4828989E+03  0.7546771E-02  0.9438909E-01
        -11   -1    0    0    0    0  0.00000000000E+00  0.00000000000E+00  0.50000000000E+03  0.50000000000E+03  0.00000000000E+00 0.  1.
         11   -1    0    0    0    0 -0.00000000000E+00 -0.00000000000E+00 -0.50000000000E+03  0.50000000000E+03  0.00000000000E+00 0. -1.
        -11    1    1    2    0    0  0.25508488636E+02 -0.47696551843E+01  0.48257350069E+03  0.48327074831E+03  0.00000000000E+00 0.  1.
         11    1    1    2    0    0 -0.60322335256E+01 -0.79034464291E+01 -0.48270414299E+03  0.48280652643E+03  0.00000000000E+00 0. -1.
        -15    1    1    2    0    0 -0.22731854205E+02  0.14561138497E+02 -0.47934243842E+01  0.27475418036E+02  0.17770000000E+01 0.  1.
         15    1    1    2    0    0  0.32555990948E+01 -0.18880368832E+01  0.49240666826E+01  0.64473072234E+01  0.17770000000E+01 0. -1.
</event>
<event>
 6    1  0.4028964E-003  0.5002401E+03  0.7546771E-02  0.9399273E-01
        -11   -1    0    0    0    0  0.00000000000E+00  0.00000000000E+00  0.50000000000E+03  0.50000000000E+03  0.00000000000E+00 0. -1.
         11   -1    0    0    0    0 -0.00000000000E+00 -0.00000000000E+00 -0.50000000000E+03  0.50000000000E+03  0.00000000000E+00 0.  1.
        -11    1    1    2    0    0 -0.11618783624E+02  0.53960062190E+01  0.49959565233E+03  0.49975987118E+03  0.00000000000E+00 0. -1.
         11    1    1    2    0    0  0.33460751629E+01  0.31157536372E+01 -0.27156129698E+03  0.27159978306E+03  0.00000000000E+00 0.  1.
        -15    1    1    2    0    0 -0.64401168675E-02  0.22362334616E+01 -0.49569965345E+02  0.49652190031E+02  0.17770000000E+01 0.  1.
         15    1    1    2    0    0  0.82791485780E+01 -0.10747993318E+02 -0.17846439000E+03  0.17898815572E+03  0.17770000000E+01 0.  1.
</event>
<event>
 6    1  0.4028964E-003  0.5034982E+03  0.7546771E-02  0.9392016E-01
        -11   -1    0    0    0    0  0.00000000000E+00  0.00000000000E+00  0.50000000000E+03  0.50000000000E+03  0.00000000000E+00 0. -1.
         11   -1    0    0    0    0 -0.00000000000E+00 -0.00000000000E+00 -0.50000000000E+03  0.50000000000E+03  0.00000000000E+00 0.  1.
        -11    1    1    2    0    0  0.66677647424E+01 -0.61582123119E+01  0.49423295551E+03  0.49431629245E+03  0.00000000000E+00 0. -1.
         11    1    1    2    0    0 -0.55635406521E+01  0.79716150056E+01 -0.49640659762E+03  0.49650177219E+03  0.00000000000E+00 0.  1.
        -15    1    1    2    0    0 -0.13176018707E+01 -0.48866955909E+01  0.12653931191E+01  0.55113353403E+01  0.17770000000E+01 0.  1.
         15    1    1    2    0    0  0.21337778040E+00  0.30732928973E+01  0.90824898758E+00  0.36706000236E+01  0.17770000000E+01 0. -1.
</event>
<event>
 6    1  0.4028964E-003  0.5171272E+03  0.7546771E-02  0.9362281E-01
        -11   -1    0    0    0    0  0.00000000000E+00  0.00000000000E+00  0.50000000000E+03  0.50000000000E+03  0.00000000000E+00 0. -1.
         11   -1    0    0    0    0 -0.00000000000E+00 -0.00000000000E+00 -0.50000000000E+03  0.50000000000E+03  0.00000000000E+00 0.  1.
        -11    1    1    2    0    0  0.88443173044E+01 -0.26392508040E+00  0.48279170933E+03  0.48287278470E+03  0.00000000000E+00 0. -1.
         11    1    1    2    0    0  0.71139893853E+01 -0.10619916473E+02 -0.35979611675E+03  0.36002310634E+03  0.00000000000E+00 0.  1.
        -15    1    1    2    0    0 -0.19610109373E+02  0.51199659245E+02 -0.53298163767E+02  0.76484073416E+02  0.17770000000E+01 0.  1.
         15    1    1    2    0    0  0.36518026836E+01 -0.40315817691E+02 -0.69697428816E+02  0.80620035546E+02  0.17770000000E+01 0. -1.
</event>
<event>
 6    1  0.4028964E-003  0.5004740E+03  0.7546771E-02  0.9398750E-01
        -11   -1    0    0    0    0  0.00000000000E+00  0.00000000000E+00  0.50000000000E+03  0.50000000000E+03  0.00000000000E+00 0.  1.
         11   -1    0    0    0    0 -0.00000000000E+00 -0.00000000000E+00 -0.50000000000E+03  0.50000000000E+03  0.00000000000E+00 0.  1.
        -11    1    1    2    0    0  0.33386659201E+01  0.53005068141E+01  0.36595442905E+03  0.36600804117E+03  0.00000000000E+00 0.  1.
         11    1    1    2    0    0 -0.33284347712E+01 -0.82010008087E+01 -0.49944754942E+03  0.49952596480E+03  0.00000000000E+00 0.  1.
        -15    1    1    2    0    0  0.35465478863E+01  0.54642574733E+01  0.25798619572E+02  0.26667632300E+02  0.17770000000E+01 0.  1.
         15    1    1    2    0    0 -0.35567790352E+01 -0.25637634786E+01  0.10769450080E+03  0.10779836173E+03  0.17770000000E+01 0. -1.
</event>
<event>
 6    1  0.4028964E-003  0.5024346E+03  0.7546771E-02  0.9394379E-01
        -11   -1    0    0    0    0  0.00000000000E+00  0.00000000000E+00  0.50000000000E+03  0.50000000000E+03  0.00000000000E+00 0. -1.
         11   -1    0    0    0    0 -0.00000000000E+00 -0.00000000000E+00 -0.50000000000E+03  0.50000000000E+03  0.00000000000E+00 0. -1.
        -11    1    1    2    0    0  0.15206846204E+02 -0.86641144675E+01  0.49725751987E+03  0.49756542898E+03  0.00000000000E+00 0. -1.
         11    1    1    2    0    0 -0.49956859135E+01  0.52866080632E+01 -0.42362460707E+03  0.42368704584E+03  0.00000000000E+00 0. -1.
        -15    1    1    2    0    0 -0.88197343127E+01  0.94207786676E+01 -0.15453494061E+02  0.20211555896E+02  0.17770000000E+01 0.  1.
         15    1    1    2    0    0 -0.13914259775E+01 -0.60432722633E+01 -0.58179418738E+02  0.58535969280E+02  0.17770000000E+01 0. -1.
</event>
<event>
 6    1  0.4028964E-003  0.5427959E+03  0.7546771E-02  0.9308834E-01
        -11   -1    0    0    0    0  0.00000000000E+00  0.00000000000E+00  0.50000000000E+03  0.50000000000E+03  0.00000000000E+00 0. -1.
         11   -1    0    0    0    0 -0.00000000000E+00 -0.00000000000E+00 -0.50000000000E+03  0.50000000000E+03  0.00000000000E+00 0. -1.
        -11    1    1    2    0    0  0.51252987481E+00 -0.13320345696E+02  0.41387277436E+03  0.41408739132E+03  0.00000000000E+00 0. -1.
         11    1    1    2    0    0 -0.10982157205E+02  0.55006895240E+02 -0.45375018200E+03  0.45720410537E+03  0.00000000000E+00 0. -1.
        -15    1    1    2    0    0  0.24082226559E+02  0.30887473004E+02  0.38331791801E+02  0.54831319666E+02  0.17770000000E+01 0.  1.
         15    1    1    2    0    0 -0.13612599229E+02 -0.72574022547E+02  0.15456158412E+01  0.73877183648E+02  0.17770000000E+01 0. -1.
</event>
<event>
 6    1  0.4028964E-003  0.5002242E+03  0.7546771E-02  0.9399308E-01
        -11   -1    0    0    0    0  0.00000000000E+00  0.00000000000E+00  0.50000000000E+03  0.50000000000E+03  0.00000000000E+00 0.  1.
         11   -1    0    0    0    0 -0.00000000000E+00 -0.00000000000E+00 -0.50000000000E+03  0.50000000000E+03  0.00000000000E+00 0.  1.
        -11    1    1    2    0    0  0.46453408523E+01 -0.27686258610E+01  0.27718804208E+03  0.27724078912E+03  0.00000000000E+00 0.  1.
         11    1    1    2    0    0  0.83775166626E+01  0.68316646302E+01 -0.49965890759E+03  0.49977582811E+03  0.00000000000E+00 0.  1.
        -15    1    1    2    0    0 -0.47248906728E+01  0.28610078292E+00  0.51748286160E+02  0.51994704490E+02  0.17770000000E+01 0. -1.
         15    1    1    2    0    0 -0.82979668421E+01 -0.43491395521E+01  0.17072257935E+03  0.17098867827E+03  0.17770000000E+01 0.  1.
</event>
<event>
 6    1  0.4028964E-003  0.5025368E+03  0.7546771E-02  0.9394151E-01
        -11   -1    0    0    0    0  0.00000000000E+00  0.00000000000E+00  0.50000000000E+03  0.50000000000E+03  0.00000000000E+00 0. -1.
         11   -1    0    0    0    0 -0.00000000000E+00 -0.00000000000E+00 -0.50000000000E+03  0.50000000000E+03  0.00000000000E+00 0.  1.
        -11    1    1    2    0    0 -0.11392079331E+02 -0.23331301231E+01  0.49732728175E+03  0.49746321285E+03  0.00000000000E+00 0. -1.
         11    1    1    2    0    0  0.33962060393E+01 -0.56747902233E+01 -0.30321126294E+03  0.30328337810E+03  0.00000000000E+00 0.  1.
        -15    1    1    2    0    0  0.11168448350E+02  0.17401038146E+02 -0.42430505718E+02  0.47233842862E+02  0.17770000000E+01 0. -1.
         15    1    1    2    0    0 -0.31725750583E+01 -0.93931177992E+01 -0.15168551309E+03  0.15201956619E+03  0.17770000000E+01 0.  1.
</event>
<event>
 6    1  0.4028964E-003  0.5119412E+03  0.7546771E-02  0.9373480E-01
        -11   -1    0    0    0    0  0.00000000000E+00  0.00000000000E+00  0.50000000000E+03  0.50000000000E+03  0.00000000000E+00 0.  1.
         11   -1    0    0    0    0 -0.00000000000E+00 -0.00000000000E+00 -0.50000000000E+03  0.50000000000E+03  0.00000000000E+00 0.  1.
        -11    1    1    2    0    0  0.22253610049E+02  0.49880025908E+02  0.34793718156E+03  0.35219812955E+03  0.00000000000E+00 0.  1.
         11    1    1    2    0    0 -0.71668448034E+01  0.83326085443E+01 -0.48793506467E+03  0.48805883187E+03  0.00000000000E+00 0.  1.
        -15    1    1    2    0    0  0.12461345847E+02 -0.73811891986E+00  0.30995046372E+02  0.33461628599E+02  0.17770000000E+01 0. -1.
         15    1    1    2    0    0 -0.27548111093E+02 -0.57474515532E+02  0.10900283674E+03  0.12628140998E+03  0.17770000000E+01 0.  1.
</event>
<event>
 6    1  0.4028964E-003  0.4840165E+03  0.7546771E-02  0.9436302E-01
        -11   -1    0    0    0    0  0.00000000000E+00  0.00000000000E+00  0.50000000000E+03  0.50000000000E+03  0.00000000000E+00 0. -1.
         11   -1    0    0    0    0 -0.00000000000E+00 -0.00000000000E+00 -0.50000000000E+03  0.50000000000E+03  0.00000000000E+00 0. -1.
        -11    1    1    2    0    0  0.18200079978E+02  0.10573011762E+02  0.48374166740E+03  0.48419937244E+03  0.00000000000E+00 0. -1.
         11    1    1    2    0    0 -0.23366622946E+01  0.87448964771E+01 -0.48407168759E+03  0.48415630940E+03  0.00000000000E+00 0. -1.
        -15    1    1    2    0    0 -0.10505001342E+02 -0.22286234546E+02 -0.21623235615E+01  0.24796464982E+02  0.17770000000E+01 0.  1.
         15    1    1    2    0    0 -0.53584163407E+01  0.29683263070E+01  0.24923437541E+01  0.68478531770E+01  0.17770000000E+01 0. -1.
</event>
<event>
 6    1  0.4028964E-003  0.5128886E+03  0.7546771E-02  0.9371423E-01
        -11   -1    0    0    0    0  0.00000000000E+00  0.00000000000E+00  0.50000000000E+03  0.50000000000E+03  0.00000000000E+00 0.  1.
         11   -1    0    0    0    0 -0.00000000000E+00 -0.00000000000E+00 -0.50000000000E+03  0.50000000000E+03  0.00000000000E+00 0. -1.
        -11    1    1    2    0    0 -0.30209921748E+01  0.16231310605E+02  0.40859783359E+03  0.40893125516E+03  0.00000000000E+00 0.  1.
         11    1    1    2    0    0 -0.13697741884E+02  0.32025495096E+01 -0.48690821229E+03  0.48711137499E+03  0.00000000000E+00 0. -1.
        -15    1    1    2    0    0  0.45618473983E+01 -0.16106811592E+02  0.86955797491E+02  0.88570357782E+02  0.17770000000E+01 0. -1.
         15    1    1    2    0    0  0.12156886660E+02 -0.33270485225E+01 -0.86454187896E+01  0.15387012062E+02  0.17770000000E+01 0. -1.
</event>
<event>
 6    1  0.4028964E-003  0.5006375E+03  0.7546771E-02  0.9398384E-01
        -11   -1    0    0    0    0  0.00000000000E+00  0.00000000000E+00  0.50000000000E+03  0.50000000000E+03  0.00000000000E+00 0.  1.
         11   -1    0    0    0    0 -0.00000000000E+00 -0.00000000000E+00 -0.50000000000E+03  0.50000000000E+03  0.00000000000E+00 0. -1.
        -11    1    1    2    0    0  0.79101214571E+01  0.89544400883E+01  0.49921952098E+03  0.49936247571E+03  0.00000000000E+00 0.  1.
         11    1    1    2    0    0 -0.20257351163E+01 -0.74799272537E+01 -0.33747076252E+03  0.33755972579E+03  0.00000000000E+00 0. -1.
        -15    1    1    2    0    0 -0.80815013843E+01 -0.73393435940E+01 -0.53388732465E+02  0.54522390926E+02  0.17770000000E+01 0.  1.
         15    1    1    2    0    0  0.21971150435E+01  0.58648307594E+01 -0.10836002599E+03  0.10855540758E+03  0.17770000000E+01 0. -1.
</event>
<event>
 6    1  0.4028964E-003  0.5239850E+03  0.7546771E-02  0.9347685E-01
        -11   -1    0    0    0    0  0.00000000000E+00  0.00000000000E+00  0.50000000000E+03  0.50000000000E+03  0.00000000000E+00 0. -1.
         11   -1    0    0    0    0 -0.00000000000E+00 -0.00000000000E+00 -0.50000000000E+03  0.50000000000E+03  0.00000000000E+00 0. -1.
        -11    1    1    2    0    0 -0.12036652990E+02 -0.74742534264E+01  0.47580411638E+03  0.47601502355E+03  0.00000000000E+00 0. -1.
         11    1    1    2    0    0  0.31574903194E+01 -0.26001320202E+01 -0.28411345346E+03  0.28414289516E+03  0.00000000000E+00 0. -1.
        -15    1    1    2    0    0 -0.28672861417E+02 -0.30502401005E+02 -0.17798971869E+03  0.18285520812E+03  0.17770000000E+01 0.  1.
         15    1    1    2    0    0  0.37552024087E+02  0.40576786452E+02 -0.13700944230E+02  0.56986873169E+02  0.17770000000E+01 0. -1.
</event>
<event>
 6    1  0.4028964E-003  0.5462840E+03  0.7546771E-02  0.9301814E-01
        -11   -1    0    0    0    0  0.00000000000E+00  0.00000000000E+00  0.50000000000E+03  0.50000000000E+03  0.00000000000E+00 0.  1.
         11   -1    0    0    0    0 -0.00000000000E+00 -0.00000000000E+00 -0.50000000000E+03  0.50000000000E+03  0.00000000000E+00 0. -1.
        -11    1    1    2    0    0 -0.71544800120E+01 -0.48616174841E+02  0.45104710011E+03  0.45371599658E+03  0.00000000000E+00 0.  1.
         11    1    1    2    0    0  0.37864995175E+01  0.54403901724E+01 -0.24986339503E+03  0.24995129845E+03  0.00000000000E+00 0. -1.
        -15    1    1    2    0    0 -0.41660753729E+01  0.61232935527E+00 -0.23889689694E+03  0.23894061234E+03  0.17770000000E+01 0. -1.
         15    1    1    2    0    0  0.75340558673E+01  0.42563455313E+02  0.37713191859E+02  0.57392092620E+02  0.17770000000E+01 0.  1.
</event>
<event>
 6    1  0.4028964E-003  0.5006282E+03  0.7546771E-02  0.9398405E-01
        -11   -1    0    0    0    0  0.00000000000E+00  0.00000000000E+00  0.50000000000E+03  0.50000000000E+03  0.00000000000E+00 0.  1.
         11   -1    0    0    0    0 -0.00000000000E+00 -0.00000000000E+00 -0.50000000000E+03  0.50000000000E+03  0.00000000000E+00 0.  1.
        -11    1    1    2    0    0 -0.19250726010E+01  0.42222105677E+01  0.33506514681E+03  0.33509727778E+03  0.00000000000E+00 0.  1.
         11    1    1    2    0    0 -0.14223984795E+01 -0.71653534370E+01 -0.49931838470E+03  0.49937182020E+03  0.00000000000E+00 0.  1.
        -15    1    1    2    0    0 -0.22547922682E+01 -0.14884414581E+01  0.14304586238E+03  0.14308240988E+03  0.17770000000E+01 0.  1.
         15    1    1    2    0    0  0.56022633487E+01  0.44315843274E+01  0.21207375511E+02  0.22448492140E+02  0.17770000000E+01 0.  1.
</event>
<event>
 6    1  0.4028964E-003  0.5115186E+03  0.7546771E-02  0.9374399E-01
        -11   -1    0    0    0    0  0.00000000000E+00  0.00000000000E+00  0.50000000000E+03  0.50000000000E+03  0.00000000000E+00 0. -1.
         11   -1    0    0    0    0 -0.00000000000E+00 -0.00000000000E+00 -0.50000000000E+03  0.50000000000E+03  0.00000000000E+00 0.  1.
        -11    1    1    2    0    0  0.15838781092E+02  0.67379716743E+01  0.47519761063E+03  0.47550923902E+03  0.00000000000E+00 0. -1.
         11    1    1    2    0    0 -0.33703421864E+01  0.63981807851E+01 -0.48842787468E+03  0.48848140669E+03  0.00000000000E+00 0.  1.
        -15    1    1    2    0    0 -0.14966260601E+02 -0.10675781276E+02  0.20593620447E+02  0.27662541357E+02  0.17770000000E+01 0. -1.
         15    1    1    2    0    0  0.24978216956E+01 -0.24603711831E+01 -0.73633563991E+01  0.83468129272E+01  0.17770000000E+01 0.  1.
</event>
<event>
 6    1  0.4028964E-003  0.5083625E+03  0.7546771E-02  0.9381290E-01
        -11   -1    0    0    0    0  0.00000000000E+00  0.00000000000E+00  0.50000000000E+03  0.50000000000E+03  0.00000000000E+00 0. -1.
         11   -1    0    0    0    0 -0.00000000000E+00 -0.00000000000E+00 -0.50000000000E+03  0.50000000000E+03  0.00000000000E+00 0.  1.
        -11    1    1    2    0    0 -0.92115687818E+01  0.10644239989E+02  0.47940212824E+03  0.47960875034E+03  0.00000000000E+00 0. -1.
         11    1    1    2    0    0  0.12718490876E+02 -0.76119529795E+01 -0.49141404060E+03  0.49163753024E+03  0.00000000000E+00 0.  1.
        -15    1    1    2    0    0  0.47542825189E+01 -0.11483620002E+02  0.11116013064E+02  0.16769025197E+02  0.17770000000E+01 0. -1.
         15    1    1    2    0    0 -0.82612046132E+01  0.84513329926E+01  0.89589929673E+00  0.11984694221E+02  0.17770000000E+01 0.  1.
</event>
<event>
 6    1  0.4028964E-003  0.5005492E+03  0.7546771E-02  0.9398582E-01
        -11   -1    0    0    0    0  0.00000000000E+00  0.00000000000E+00  0.50000000000E+03  0.50000000000E+03  0.00000000000E+00 0. -1.
         11   -1    0    0    0    0 -0.00000000000E+00 -0.00000000000E+00 -0.50000000000E+03  0.50000000000E+03  0.00000000000E+00 0. -1.
        -11    1    1    2    0    0  0.15477986735E+01  0.11289065390E+02  0.49932079849E+03  0.49945079686E+03  0.00000000000E+00 0. -1.
         11    1    1    2    0    0  0.37972043294E+00 -0.77276505571E+01 -0.33518044936E+03  0.33526973380E+03  0.00000000000E+00 0. -1.
        -15    1    1    2    0    0 -0.46641666856E+01 -0.10270188916E+02 -0.80292825282E+02  0.81100719799E+02  0.17770000000E+01 0.  1.
         15    1    1    2    0    0  0.27366475792E+01  0.67087740834E+01 -0.83847523849E+02  0.84178749541E+02  0.17770000000E+01 0. -1.
</event>
<event>
 6    1  0.4028964E-003  0.5093547E+03  0.7546771E-02  0.9379118E-01
        -11   -1    0    0    0    0  0.00000000000E+00  0.00000000000E+00  0.50000000000E+03  0.50000000000E+03  0.00000000000E+00 0. -1.
         11   -1    0    0    0    0 -0.00000000000E+00 -0.00000000000E+00 -0.50000000000E+03  0.50000000000E+03  0.00000000000E+00 0. -1.
        -11    1    1    2    0    0 -0.36515852427E+02  0.18396705241E+02  0.48893857654E+03  0.49064526684E+03  0.00000000000E+00 0. -1.
         11    1    1    2    0    0  0.13001818125E+02 -0.57936321666E+01 -0.43497265607E+03  0.43520549741E+03  0.00000000000E+00 0. -1.
        -15    1    1    2    0    0  0.17098439996E+02 -0.18333966341E+02 -0.58925719117E+02  0.64061603746E+02  0.17770000000E+01 0.  1.
         15    1    1    2    0    0  0.64155943059E+01  0.57308932671E+01  0.49597986441E+01  0.10087632008E+02  0.17770000000E+01 0. -1.
</event>
<event>
 6    1  0.4028964E-003  0.5030638E+03  0.7546771E-02  0.9392980E-01
        -11   -1    0    0    0    0  0.00000000000E+00  0.00000000000E+00  0.50000000000E+03  0.50000000000E+03  0.00000000000E+00 0.  1.
         11   -1    0    0    0    0 -0.00000000000E+00 -0.00000000000E+00 -0.50000000000E+03  0.50000000000E+03  0.00000000000E+00 0. -1.
        -11    1    1    2    0    0  0.79629275099E+01 -0.92557892652E+01  0.49678616907E+03  0.49693618869E+03  0.00000000000E+00 0.  1.
         11    1    1    2    0    0 -0.52274226200E+01  0.79038569816E+01 -0.48775155423E+03  0.48784359743E+03  0.00000000000E+00 0. -1.
        -15    1    1    2    0    0  0.81621120093E+00  0.10894506955E+01  0.22985621329E+01  0.32084607557E+01  0.17770000000E+01 0.  1.
         15    1    1    2    0    0 -0.35517160909E+01  0.26248158822E+00 -0.11333176974E+02  0.12011753124E+02  0.17770000000E+01 0. -1.
</event>
<event>
 6    1  0.4028964E-003  0.5061021E+03  0.7546771E-02  0.9386258E-01
        -11   -1    0    0    0    0  0.00000000000E+00  0.00000000000E+00  0.50000000000E+03  0.50000000000E+03  0.00000000000E+00 0.  1.
         11   -1    0    0    0    0 -0.00000000000E+00 -0.00000000000E+00 -0.50000000000E+03  0.50000000000E+03  0.00000000000E+00 0.  1.
        -11    1    1    2    0    0 -0.97698694594E+01  0.17879536543E+02  0.42623725313E+03  0.42672394370E+03  0.00000000000E+00 0.  1.
         11    1    1    2    0    0  0.64403711552E+01  0.21543724083E+01 -0.49385121541E+03  0.49389790712E+03  0.00000000000E+00 0.  1.
        -15    1    1    2    0    0 -0.14414528209E+01 -0.16801505355E+02  0.70628927575E+02  0.72635883059E+02  0.17770000000E+01 0.  1.
         15    1    1    2    0    0  0.47709511250E+01 -0.32324035964E+01 -0.30149652947E+01  0.67422661158E+01  0.17770000000E+01 0.  1.
</event>
<event>
 6    1  0.4028964E-003  0.5022427E+03  0.7546771E-02  0.9394805E-01
        -11   -1    0    0    0    0  0.00000000000E+00  0.00000000000E+00  0.50000000000E+03  0.50000000000E+03  0.00000000000E+00 0.  1.
         11   -1    0    0    0    0 -0.00000000000E+00 -0.00000000000E+00 -0.50000000000E+03  0.50000000000E+03  0.00000000000E+00 0. -1.
        -11    1    1    2    0    0 -0.17987304546E+01  0.12609967391E+02  0.49759429012E+03  0.49775729454E+03  0.00000000000E+00 0.  1.
         11    1    1    2    0    0  0.10378608346E+02  0.79384492663E-01 -0.45858223502E+03  0.45869967091E+03  0.00000000000E+00 0. -1.
        -15    1    1    2    0    0 -0.13072865728E+01 -0.10287415377E+02 -0.15356178846E+02  0.18614775611E+02  0.17770000000E+01 0. -1.
         15    1    1    2    0    0 -0.72725913189E+01 -0.24019365062E+01 -0.23655876254E+02  0.24928258940E+02  0.17770000000E+01 0.  1.
</event>
<event>
 6    1  0.4028964E-003  0.5042384E+03  0.7546771E-02  0.9390376E-01
        -11   -1    0    0    0    0  0.00000000000E+00  0.00000000000E+00  0.50000000000E+03  0.50000000000E+03  0.00000000000E+00 0.  1.
         11   -1    0    0    0    0 -0.00000000000E+00 -0.00000000000E+00 -0.50000000000E+03  0.50000000000E+03  0.00000000000E+00 0.  1.
        -11    1    1    2    0    0  0.62099888709E+01 -0.63108038691E+01  0.49568254155E+03  0.49576160824E+03  0.00000000000E+00 0.  1.
         11    1    1    2    0    0 -0.94293689037E+01  0.57699987651E+01 -0.47947993976E+03  0.47960735870E+03  0.00000000000E+00 0.  1.
        -15    1    1    2    0    0  0.10554970903E+02 -0.12209513020E+01 -0.87507817208E+01  0.13879194594E+02  0.17770000000E+01 0.  1.
         15    1    1    2    0    0 -0.73355908707E+01  0.17617564059E+01 -0.74518200715E+01  0.10751838468E+02  0.17770000000E+01 0. -1.
</event>
<event>
 6    1  0.4028964E-003  0.5084242E+03  0.7546771E-02  0.9381155E-01
        -11   -1    0    0    0    0  0.00000000000E+00  0.00000000000E+00  0.50000000000E+03  0.50000000000E+03  0.00000000000E+00 0. -1.
         11   -1    0    0    0    0 -0.00000000000E+00 -0.00000000000E+00 -0.50000000000E+03  0.50000000000E+03  0.00000000000E+00 0.  1.
        -11    1    1    2    0    0  0.81394024322E+01 -0.12531532288E-01  0.46645572698E+03  0.46652673585E+03  0.00000000000E+00 0. -1.
         11    1    1    2    0    0 -0.14569986733E+02  0.70297333036E+01 -0.49130949350E+03  0.49157575212E+03  0.00000000000E+00 0.  1.
        -15    1    1    2    0    0 -0.27629881816E+01 -0.57942783713E+01  0.30281587164E+02  0.31005483639E+02  0.17770000000E+01 0.  1.
         15    1    1    2    0    0  0.91935724825E+01 -0.12229233999E+01 -0.54278206401E+01  0.10892028394E+02  0.17770000000E+01 0. -1.
</event>
<event>
 6    1  0.4028964E-003  0.5005973E+03  0.7546771E-02  0.9398474E-01
        -11   -1    0    0    0    0  0.00000000000E+00  0.00000000000E+00  0.50000000000E+03  0.50000000000E+03  0.00000000000E+00 0.  1.
         11   -1    0    0    0    0 -0.00000000000E+00 -0.00000000000E+00 -0.50000000000E+03  0.50000000000E+03  0.00000000000E+00 0.  1.
        -11    1    1    2    0    0  0.34221763117E+01  0.29673595008E+00  0.11442548482E+03  0.11447703228E+03  0.00000000000E+00 0.  1.
         11    1    1    2    0    0  0.96580221688E+01  0.45638325946E+01 -0.49928846224E+03  0.49940271774E+03  0.00000000000E+00 0.  1.
        -15    1    1    2    0    0 -0.25077795425E+01  0.58732226493E+01  0.28801566038E+03  0.28809193334E+03  0.17770000000E+01 0.  1.
         15    1    1    2    0    0 -0.10572418938E+02 -0.10733791194E+02  0.96847317046E+02  0.98028316642E+02  0.17770000000E+01 0. -1.
</event>
<event>
 6    1  0.4028964E-003  0.5017885E+03  0.7546771E-02  0.9395817E-01
        -11   -1    0    0    0    0  0.00000000000E+00  0.00000000000E+00  0.50000000000E+03  0.50000000000E+03  0.00000000000E+00 0.  1.
         11   -1    0    0    0    0 -0.00000000000E+00 -0.00000000000E+00 -0.50000000000E+03  0.50000000000E+03  0.00000000000E+00 0. -1.
        -11    1    1    2    0    0 -0.61402362199E+01 -0.93308533394E+01  0.49808625089E+03  0.49821148185E+03  0.00000000000E+00 0.  1.
         11    1    1    2    0    0  0.87019364972E+01  0.83246378289E+01 -0.13920157450E+03  0.13972151459E+03  0.00000000000E+00 0. -1.
        -15    1    1    2    0    0  0.17373825220E+02 -0.20262709642E+01 -0.60672265544E+02  0.63168323644E+02  0.17770000000E+01 0.  1.
         15    1    1    2    0    0 -0.19935525498E+02  0.30324864747E+01 -0.29821241084E+03  0.29889867992E+03  0.17770000000E+01 0. -1.
</event>
<event>
 6    1  0.4028964E-003  0.5101658E+03  0.7546771E-02  0.9377346E-01
        -11   -1    0    0    0    0  0.00000000000E+00  0.00000000000E+00  0.50000000000E+03  0.50000000000E+03  0.00000000000E+00 0. -1.
         11   -1    0    0    0    0 -0.00000000000E+00 -0.00000000000E+00 -0.50000000000E+03  0.50000000000E+03  0.00000000000E+00 0.  1.
        -11    1    1    2    0    0 -0.86197019538E+01 -0.14720562908E+02  0.48953704070E+03  0.48983416423E+03  0.00000000000E+00 0. -1.
         11    1    1    2    0    0 -0.14280735848E+02  0.15290787235E+01 -0.47259911594E+03  0.47281730286E+03  0.00000000000E+00 0.  1.
        -15    1    1    2    0    0  0.15269699716E+02 -0.40329734626E+00 -0.16923449292E+01  0.15470880341E+02  0.17770000000E+01 0.  1.
         15    1    1    2    0    0  0.76307380857E+01  0.13594781531E+02 -0.15245579830E+02  0.21877652570E+02  0.17770000000E+01 0. -1.
</event>
<event>
 6    1  0.4028964E-003  0.5013849E+03  0.7546771E-02  0.9396716E-01
        -11   -1    0    0    0    0  0.00000000000E+00  0.00000000000E+00  0.50000000000E+03  0.50000000000E+03  0.00000000000E+00 0.  1.
         11   -1    0    0    0    0 -0.00000000000E+00 -0.00000000000E+00 -0.50000000000E+03  0.50000000000E+03  0.00000000000E+00 0.  1.
        -11    1    1    2    0    0  0.56583142521E+01 -0.36781284131E+01  0.40382586015E+03  0.40388224828E+03  0.00000000000E+00 0.  1.
         11    1    1    2    0    0 -0.52111433765E+01  0.56926331561E+01 -0.49855532990E+03  0.49861506100E+03  0.00000000000E+00 0.  1.
        -15    1    1    2    0    0  0.39761515487E+01  0.21990575680E+01  0.33878632843E+01  0.59397796221E+01  0.17770000000E+01 0. -1.
         15    1    1    2    0    0 -0.44233224242E+01 -0.42135623110E+01  0.91341606466E+02  0.91562911102E+02  0.17770000000E+01 0.  1.
</event>
<event>
 6    1  0.4028964E-003  0.5047458E+03  0.7546771E-02  0.9389253E-01
        -11   -1    0    0    0    0  0.00000000000E+00  0.00000000000E+00  0.50000000000E+03  0.50000000000E+03  0.00000000000E+00 0. -1.
         11   -1    0    0    0    0 -0.00000000000E+00 -0.00000000000E+00 -0.50000000000E+03  0.50000000000E+03  0.00000000000E+00 0. -1.
        -11    1    1    2    0    0  0.72287732636E+01  0.19023473261E+01  0.49519782410E+03  0.49525423681E+03  0.00000000000E+00 0. -1.
         11    1    1    2    0    0 -0.67071585930E+01 -0.10979349257E+01 -0.46981255392E+03  0.46986171078E+03  0.00000000000E+00 0. -1.
        -15    1    1    2    0    0  0.66699318021E+01 -0.14895855842E+01 -0.26443130345E+02  0.27369759350E+02  0.17770000000E+01 0. -1.
         15    1    1    2    0    0 -0.71915464728E+01  0.68517318374E+00  0.10578601647E+01  0.75142930532E+01  0.17770000000E+01 0.  1.
</event>
<event>
 6    1  0.4028964E-003  0.5426529E+03  0.7546771E-02  0.9309123E-01
        -11   -1    0    0    0    0  0.00000000000E+00  0.00000000000E+00  0.50000000000E+03  0.50000000000E+03  0.00000000000E+00 0. -1.
         11   -1    0    0    0    0 -0.00000000000E+00 -0.00000000000E+00 -0.50000000000E+03  0.50000000000E+03  0.00000000000E+00 0. -1.
        -11    1    1    2    0    0 -0.10165632166E+02  0.14689375446E+02  0.45699809647E+03  0.45734710888E+03  0.00000000000E+00 0. -1.
         11    1    1    2    0    0 -0.36279357661E+01  0.26839444606E+02 -0.41764604164E+03  0.41852327749E+03  0.00000000000E+00 0. -1.
        -15    1    1    2    0    0  0.17313784627E+02 -0.55181127092E+01  0.36087191267E+02  0.40443291267E+02  0.17770000000E+01 0. -1.
         15    1    1    2    0    0 -0.35202166947E+01 -0.36010707343E+02 -0.75439246094E+02  0.83686322355E+02  0.17770000000E+01 0.  1.
</event>
<event>
 6    1  0.4028964E-003  0.5023410E+03  0.7546771E-02  0.9394587E-01
        -11   -1    0    0    0    0  0.00000000000E+00  0.00000000000E+00  0.50000000000E+03  0.50000000000E+03  0.00000000000E+00 0. -1.
         11   -1    0    0    0    0 -0.00000000000E+00 -0.00000000000E+00 -0.50000000000E+03  0.50000000000E+03  0.00000000000E+00 0. -1.
        -11    1    1    2    0    0  0.65517944968E+01 -0.24205142402E+01  0.49761003207E+03  0.49765904887E+03  0.00000000000E+00 0. -1.
         11    1    1    2    0    0  0.84218029283E+01 -0.33201420929E+01 -0.34554544944E+03  0.34566400989E+03  0.00000000000E+00 0. -1.
        -15    1    1    2    0    0 -0.11450714127E+02  0.71287001249E+01 -0.15188212910E+03  0.15249024916E+03  0.17770000000E+01 0.  1.
         15    1    1    2    0    0 -0.35228832976E+01 -0.13880437918E+01 -0.18245353576E+00  0.41866920819E+01  0.17770000000E+01 0. -1.
</event>
<event>
 6    1  0.4028964E-003  0.5124138E+03  0.7546771E-02  0.9372453E-01
        -11   -1    0    0    0    0  0.00000000000E+00  0.00000000000E+00  0.50000000000E+03  0.50000000000E+03  0.00000000000E+00 0. -1.
         11   -1    0    0    0    0 -0.00000000000E+00 -0.00000000000E+00 -0.50000000000E+03  0.50000000000E+03  0.00000000000E+00 0.  1.
        -11    1    1    2    0    0 -0.14741909777E+02  0.14310473352E+02  0.48715317735E+03  0.48758623007E+03  0.00000000000E+00 0. -1.
         11    1    1    2    0    0 -0.39531635320E+01 -0.28956744814E+02 -0.26114618986E+03  0.26277643169E+03  0.00000000000E+00 0.  1.
        -15    1    1    2    0    0 -0.78764114587E+01 -0.41097761809E+02 -0.66570125015E+02  0.78649877029E+02  0.17770000000E+01 0. -1.
         15    1    1    2    0    0  0.26571484768E+02  0.55744033271E+02 -0.15943686247E+03  0.17098746121E+03  0.17770000000E+01 0.  1.
</event>
<event>
 6    1  0.4028964E-003  0.4883074E+03  0.7546771E-02  0.9426360E-01
        -11   -1    0    0    0    0  0.00000000000E+00  0.00000000000E+00  0.50000000000E+03  0.50000000000E+03  0.00000000000E+00 0.  1.
         11   -1    0    0    0    0 -0.00000000000E+00 -0.00000000000E+00 -0.50000000000E+03  0.50000000000E+03  0.00000000000E+00 0.  1.
        -11    1    1    2    0    0  0.11494553472E+02  0.13001221702E+01  0.48930944505E+03  0.48944616465E+03  0.00000000000E+00 0.  1.
         11    1    1    2    0    0 -0.14451419215E-01  0.11458495197E+02 -0.48718703748E+03  0.48732176928E+03  0.00000000000E+00 0.  1.
        -15    1    1    2    0    0 -0.10297398049E+02 -0.14034539787E+02  0.27971529936E+01  0.17719664429E+02  0.17770000000E+01 0. -1.
         15    1    1    2    0    0 -0.11827040038E+01  0.12759224199E+01 -0.49195605585E+01  0.55124016428E+01  0.17770000000E+01 0.  1.
</event>
<event>
 6    1  0.4028964E-003  0.5009297E+03  0.7546771E-02  0.9397732E-01
        -11   -1    0    0    0    0  0.00000000000E+00  0.00000000000E+00  0.50000000000E+03  0.50000000000E+03  0.00000000000E+00 0. -1.
         11   -1    0    0    0    0 -0.00000000000E+00 -0.00000000000E+00 -0.50000000000E+03  0.50000000000E+03  0.00000000000E+00 0. -1.
        -11    1    1    2    0    0  0.57929621449E+01 -0.54045271857E+01  0.49900745127E+03  0.49907033948E+03  0.00000000000E+00 0. -1.
         11    1    1    2    0    0  0.54219328330E+01  0.33720082770E+01 -0.41973358913E+03  0.41978215022E+03  0.00000000000E+00 0. -1.
        -15    1    1    2    0    0 -0.11149633899E+02  0.12139023145E+01 -0.77976644785E+02  0.78799129157E+02  0.17770000000E+01 0.  1.
         15    1    1    2    0    0 -0.65261078571E-01  0.81861659432E+00 -0.12972173541E+01  0.23483811447E+01  0.17770000000E+01 0.  1.
</event>
<event>
 6    1  0.4028964E-003  0.5500125E+03  0.7546771E-02  0.9294371E-01
        -11   -1    0    0    0    0  0.00000000000E+00  0.00000000000E+00  0.50000000000E+03  0.50000000000E+03  0.00000000000E+00 0. -1.
         11   -1    0    0    0    0 -0.00000000000E+00 -0.00000000000E+00 -0.50000000000E+03  0.50000000000E+03  0.00000000000E+00 0.  1.
        -11    1    1    2    0    0  0.53974642578E+01  0.19916415097E+01  0.25988733173E+03  0.25995100394E+03  0.00000000000E+00 0. -1.
         11    1    1    2    0    0 -0.97716903345E+01 -0.16081170225E+02 -0.44959391595E+03  0.44998753230E+03  0.00000000000E+00 0.  1.
        -15    1    1    2    0    0 -0.44146327579E+02 -0.50801216374E+02  0.19748362483E+03  0.20864467793E+03  0.17770000000E+01 0. -1.
         15    1    1    2    0    0  0.48520553655E+02  0.64890745090E+02 -0.77770406070E+01  0.81416785830E+02  0.17770000000E+01 0.  1.
</event>
<event>
 6    1  0.4028964E-003  0.5024701E+03  0.7546771E-02  0.9394300E-01
        -11   -1    0    0    0    0  0.00000000000E+00  0.00000000000E+00  0.50000000000E+03  0.50000000000E+03  0.00000000000E+00 0.  1.
         11   -1    0    0    0    0 -0.00000000000E+00 -0.00000000000E+00 -0.50000000000E+03  0.50000000000E+03  0.00000000000E+00 0.  1.
        -11    1    1    2    0    0 -0.43442511169E+01 -0.73288887373E+01  0.44125936095E+03  0.44134160098E+03  0.00000000000E+00 0.  1.
         11    1    1    2    0    0  0.48279995735E+01 -0.46597581174E+01 -0.49748468555E+03  0.49752993406E+03  0.00000000000E+00 0.  1.
        -15    1    1    2    0    0 -0.44163163953E+00  0.15636960943E+02  0.54482741137E+02  0.56711871746E+02  0.17770000000E+01 0.  1.
         15    1    1    2    0    0 -0.42116817156E-01 -0.36483140886E+01  0.17425834682E+01  0.44165932187E+01  0.17770000000E+01 0. -1.
</event>
<event>
 6    1  0.4028964E-003  0.5161330E+03  0.7546771E-02  0.9364417E-01
        -11   -1    0    0    0    0  0.00000000000E+00  0.00000000000E+00  0.50000000000E+03  0.50000000000E+03  0.00000000000E+00 0.  1.
         11   -1    0    0    0    0 -0.00000000000E+00 -0.00000000000E+00 -0.50000000000E+03  0.50000000000E+03  0.00000000000E+00 0. -1.
        -11    1    1    2    0    0  0.10971812024E+02  0.17798964672E+02  0.35128660792E+03  0.35190831861E+03  0.00000000000E+00 0.  1.
         11    1    1    2    0    0 -0.54471581271E+01 -0.62071420871E+01 -0.48379656531E+03  0.48386704450E+03  0.00000000000E+00 0. -1.
        -15    1    1    2    0    0 -0.32672213420E+02 -0.21633809775E+02  0.12921568485E+03  0.13503831381E+03  0.17770000000E+01 0.  1.
         15    1    1    2    0    0  0.27147559523E+02  0.10041987190E+02  0.32942725424E+01  0.29186323087E+02  0.17770000000E+01 0. -1.
</event>
<event>
 6    1  0.4028964E-003  0.4949531E+03  0.7546771E-02  0.9411174E-01
        -11   -1    0    0    0    0  0.00000000000E+00  0.00000000000E+00  0.50000000000E+03  0.50000000000E+03  0.00000000000E+00 0. -1.
         11   -1    0    0    0    0 -0.00000000000E+00 -0.00000000000E+00 -0.50000000000E+03  0.50000000000E+03  0.00000000000E+00 0.  1.
        -11    1    1    2    0    0  0.11922131588E+02 -0.82125077380E+01  0.48508144277E+03  0.48529742285E+03  0.00000000000E+00 0. -1.
         11    1    1    2    0    0 -0.19953186751E+02  0.77292862020E+00 -0.24165436784E+02  0.31347973063E+02  0.00000000000E+00 0.  1.
        -15    1    1    2    0    0  0.19690764379E+02  0.35720989616E+02 -0.28351050982E+02  0.49705685005E+02  0.17770000000E+01 0. -1.
         15    1    1    2    0    0 -0.11659709216E+02 -0.28281410498E+02 -0.43256495500E+03  0.43364891908E+03  0.17770000000E+01 0.  1.
</event>
<event>
 6    1  0.4028964E-003  0.5060634E+03  0.7546771E-02  0.9386344E-01
        -11   -1    0    0    0    0  0.00000000000E+00  0.00000000000E+00  0.50000000000E+03  0.50000000000E+03  0.00000000000E+00 0.  1.
         11   -1    0    0    0    0 -0.00000000000E+00 -0.00000000000E+00 -0.50000000000E+03  0.50000000000E+03  0.00000000000E+00 0.  1.
        -11    1    1    2    0    0 -0.89761115641E+01  0.16089881601E+01  0.48914926007E+03  0.48923425682E+03  0.00000000000E+00 0.  1.
         11    1    1    2    0    0  0.47248890695E+01 -0.77035633435E+01 -0.49385388480E+03  0.49393656374E+03  0.00000000000E+00 0.  1.
        -15    1    1    2    0    0  0.40932124461E+01 -0.92777712103E+00  0.77331068206E+01  0.89762925874E+01  0.17770000000E+01 0. -1.
         15    1    1    2    0    0  0.15801004846E+00  0.70223523044E+01 -0.30284820874E+01  0.78528868460E+01  0.17770000000E+01 0.  1.
</event>
<event>
 6    1  0.4028964E-003  0.5046207E+03  0.7546771E-02  0.9389529E-01
        -11   -1    0    0    0    0  0.00000000000E+00  0.00000000000E+00  0.50000000000E+03  0.50000000000E+03  0.00000000000E+00 0.  1.
         11   -1    0    0    0    0 -0.00000000000E+00 -0.00000000000E+00 -0.50000000000E+03  0.50000000000E+03  0.00000000000E+00 0. -1.
        -11    1    1    2    0    0 -0.67282225816E+01 -0.16873870032E+02  0.41239433204E+03  0.41279423635E+03  0.00000000000E+00 0.  1.
         11    1    1    2    0    0  0.11758756710E+02  0.46723237774E+01 -0.49521768184E+03  0.49537930051E+03  0.00000000000E+00 0. -1.
        -15    1    1    2    0    0  0.62807295957E+01 -0.89792599148E+01  0.93677329809E+01  0.14525385471E+02  0.17770000000E+01 0. -1.
         15    1    1    2    0    0 -0.11311263724E+02  0.21180806170E+02  0.73455616821E+02  0.77301077668E+02  0.17770000000E+01 0.  1.
</event>
<event>
 6    1  0.4028964E-003  0.5145857E+03  0.7546771E-02  0.9367752E-01
        -11   -1    0    0    0    0  0.00000000000E+00  0.00000000000E+00  0.50000000000E+03  0.50000000000E+03  0.00000000000E+00 0.  1.
         11   -1    0    0    0    0 -0.00000000000E+00 -0.00000000000E+00 -0.50000000000E+03  0.50000000000E+03  0.00000000000E+00 0. -1.
        -11    1    1    2    0    0 -0.15341757190E+02 -0.52249965965E+01  0.48514364144E+03  0.48541427969E+03  0.00000000000E+00 0.  1.
         11    1    1    2    0    0 -0.14680732399E+00  0.55774640164E+01 -0.34022785396E+03  0.34027359913E+03  0.00000000000E+00 0. -1.
        -15    1    1    2    0    0  0.75777394166E+01 -0.77865358347E+01 -0.15733614691E+03  0.15772087094E+03  0.17770000000E+01 0.  1.
         15    1    1    2    0    0  0.79108250971E+01  0.74340684148E+01  0.12420359434E+02  0.16591250236E+02  0.17770000000E+01 0. -1.
</event>
<event>
 6    1  0.4028964E-003  0.5032114E+03  0.7546771E-02  0.9392653E-01
        -11   -1    0    0    0    0  0.00000000000E+00  0.00000000000E+00  0.50000000000E+03  0.50000000000E+03  0.00000000000E+00 0.  1.
         11   -1    0    0    0    0 -0.00000000000E+00 -0.00000000000E+00 -0.50000000000E+03  0.50000000000E+03  0.00000000000E+00 0. -1.
        -11    1    1    2    0    0 -0.13314777633E+02 -0.72584740859E+00  0.49660962183E+03  0.49678861365E+03  0.00000000000E+00 0.  1.
         11    1    1    2    0    0 -0.11760968229E+02  0.49050855492E+01 -0.41536525587E+03  0.41556067670E+03  0.00000000000E+00 0. -1.
        -15    1    1    2    0    0  0.13716547261E+02  0.35747165201E-01 -0.68856538583E+02  0.70231941318E+02  0.17770000000E+01 0.  1.
         15    1    1    2    0    0  0.11359198601E+02 -0.42149853058E+01 -0.12387827379E+02  0.17418768331E+02  0.17770000000E+01 0. -1.
</event>
<event>
 6    1  0.4028964E-003  0.5065307E+03  0.7546771E-02  0.9385314E-01
        -11   -1    0    0    0    0  0.00000000000E+00  0.00000000000E+00  0.50000000000E+03  0.50000000000E+03  0.00000000000E+00 0. -1.
         11   -1    0    0    0    0 -0.00000000000E+00 -0.00000000000E+00 -0.50000000000E+03  0.50000000000E+03  0.00000000000E+00 0. -1.
        -11    1    1    2    0    0  0.14507812095E+02  0.43812334704E+02  0.49130635781E+03  0.49346928426E+03  0.00000000000E+00 0. -1.
         11    1    1    2    0    0 -0.51654718159E+01  0.72023191209E+01 -0.28806180601E+03  0.28819812557E+03  0.00000000000E+00 0. -1.
        -15    1    1    2    0    0  0.40940243361E+01 -0.24719044538E+02 -0.17703852189E+03  0.17881159962E+03  0.17770000000E+01 0.  1.
         15    1    1    2    0    0 -0.13436364615E+02 -0.26295609287E+02 -0.26206029911E+02  0.39520990556E+02  0.17770000000E+01 0. -1.
</event>
<event>
 6    1  0.4028964E-003  0.4786051E+03  0.7546771E-02  0.9448997E-01
        -11   -1    0    0    0    0  0.00000000000E+00  0.00000000000E+00  0.50000000000E+03  0.50000000000E+03  0.00000000000E+00 0. -1.
         11   -1    0    0    0    0 -0.00000000000E+00 -0.00000000000E+00 -0.50000000000E+03  0.50000000000E+03  0.00000000000E+00 0.  1.
        -11    1    1    2    0    0  0.14138199606E+02  0.45665792448E+01  0.47474232802E+03  0.47497475759E+03  0.00000000000E+00 0. -1.
         11    1    1    2    0    0  0.12631642295E+02 -0.11061500186E+02 -0.48237002326E+03  0.48266215360E+03  0.00000000000E+00 0.  1.
        -15    1    1    2    0    0 -0.20029804847E+02  0.17911990011E+02 -0.70484825591E-01  0.26929447924E+02  0.17770000000E+01 0. -1.
         15    1    1    2    0    0 -0.67400370537E+01 -0.11417069070E+02  0.76981800738E+01  0.15433640889E+02  0.17770000000E+01 0.  1.
</event>
<event>
 6    1  0.4028964E-003  0.5035851E+03  0.7546771E-02  0.9391823E-01
        -11   -1    0    0    0    0  0.00000000000E+00  0.00000000000E+00  0.50000000000E+03  0.50000000000E+03  0.00000000000E+00 0.  1.
         11   -1    0    0    0    0 -0.00000000000E+00 -0.00000000000E+00 -0.50000000000E+03  0.50000000000E+03  0.00000000000E+00 0.  1.
        -11    1    1    2    0    0  0.12877925550E+01  0.98848692027E+01  0.49631477819E+03  0.49641487498E+03  0.00000000000E+00 0.  1.
         11    1    1    2    0    0  0.80291332464E+01 -0.99550759361E+01 -0.45445225020E+03  0.45463217905E+03  0.00000000000E+00 0.  1.
        -15    1    1    2    0    0  0.44249295263E+01 -0.46490884751E+01 -0.27755324119E+01  0.72149382625E+01  0.17770000000E+01 0. -1.
         15    1    1    2    0    0 -0.13741855328E+02  0.47192952085E+01 -0.39086995578E+02  0.41738007708E+02  0.17770000000E+01 0.  1.
</event>
<event>
 6    1  0.4028964E-003  0.5009234E+03  0.7546771E-02  0.9397746E-01
        -11   -1    0    0    0    0  0.00000000000E+00  0.00000000000E+00  0.50000000000E+03  0.50000000000E+03  0.00000000000E+00 0. -1.
         11   -1    0    0    0    0 -0.00000000000E+00 -0.00000000000E+00 -0.50000000000E+03  0.50000000000E+03  0.00000000000E+00 0. -1.
        -11    1    1    2    0    0 -0.48672890580E+01  0.55340213669E+00  0.32975248895E+03  0.32978887295E+03  0.00000000000E+00 0. -1.
         11    1    1    2    0    0 -0.76488085539E+01 -0.40563955962E+00 -0.49901781608E+03  0.49907659691E+03  0.00000000000E+00 0. -1.
        -15    1    1    2    0    0  0.12000684053E+02  0.36388276059E+01  0.16351695771E+03  0.16400673972E+03  0.17770000000E+01 0. -1.
         15    1    1    2    0    0  0.51541355934E+00 -0.37865901830E+01  0.57483694213E+01  0.71277904258E+01  0.17770000000E+01 0.  1.
</event>
<event>
 6    1  0.4028964E-003  0.5185905E+03  0.7546771E-02  0.9359147E-01
        -11   -1    0    0    0    0  0.00000000000E+00  0.00000000000E+00  0.50000000000E+03  0.50000000000E+03  0.00000000000E+00 0. -1.
         11   -1    0    0    0    0 -0.00000000000E+00 -0.00000000000E+00 -0.50000000000E+03  0.50000000000E+03  0.00000000000E+00 0.  1.
        -11    1    1    2    0    0  0.65193491098E+01  0.87522714653E+01  0.46070731247E+03  0.46083655664E+03  0.00000000000E+00 0. -1.
         11    1    1    2    0    0 -0.44055686952E+01 -0.12211430185E+02 -0.48123446873E+03  0.48140953663E+03  0.00000000000E+00 0.  1.
        -15    1    1    2    0    0  0.10462871357E+00  0.19077916070E+02 -0.11258987402E+02  0.22223869039E+02  0.17770000000E+01 0. -1.
         15    1    1    2    0    0 -0.22184091282E+01 -0.15618757350E+02  0.31786143664E+02  0.35530037690E+02  0.17770000000E+01 0.  1.
</event>
<event>
 6    1  0.4028964E-003  0.5187002E+03  0.7546771E-02  0.9358912E-01
        -11   -1    0    0    0    0  0.00000000000E+00  0.00000000000E+00  0.50000000000E+03  0.50000000000E+03  0.00000000000E+00 0.  1.
         11   -1    0    0    0    0 -0.00000000000E+00 -0.00000000000E+00 -0.50000000000E+03  0.50000000000E+03  0.00000000000E+00 0. -1.
        -11    1    1    2    0    0  0.22437548067E+02  0.13755704787E+02  0.39990576865E+03  0.40077086567E+03  0.00000000000E+00 0.  1.
         11    1    1    2    0    0 -0.95611752632E+01  0.34439271972E+01 -0.48119252042E+03  0.48129982175E+03  0.00000000000E+00 0. -1.
        -15    1    1    2    0    0 -0.19408389500E+02 -0.13887509564E+02  0.97316807331E+02  0.10021610261E+03  0.17770000000E+01 0. -1.
         15    1    1    2    0    0  0.65320166966E+01 -0.33121224209E+01 -0.16030055553E+02  0.17713209960E+02  0.17770000000E+01 0.  1.
</event>
<event>
 6    1  0.4028964E-003  0.5164851E+03  0.7546771E-02  0.9363660E-01
        -11   -1    0    0    0    0  0.00000000000E+00  0.00000000000E+00  0.50000000000E+03  0.50000000000E+03  0.00000000000E+00 0.  1.
         11   -1    0    0    0    0 -0.00000000000E+00 -0.00000000000E+00 -0.50000000000E+03  0.50000000000E+03  0.00000000000E+00 0. -1.
        -11    1    1    2    0    0 -0.18441739104E+01  0.28419455773E+01  0.14235087124E+03  0.14239118012E+03  0.00000000000E+00 0.  1.
         11    1    1    2    0    0 -0.75847946916E+01 -0.11332206083E+02 -0.48332256870E+03  0.48351489472E+03  0.00000000000E+00 0. -1.
        -15    1    1    2    0    0 -0.29695427562E+01 -0.74891774005E+01  0.35124336087E+03  0.35134023715E+03  0.17770000000E+01 0. -1.
         15    1    1    2    0    0  0.12398511358E+02  0.15979437906E+02 -0.10271663413E+02  0.22753688008E+02  0.17770000000E+01 0.  1.
</event>
<event>
 6    1  0.4028964E-003  0.5067174E+03  0.7546771E-02  0.9384903E-01
        -11   -1    0    0    0    0  0.00000000000E+00  0.00000000000E+00  0.50000000000E+03  0.50000000000E+03  0.00000000000E+00 0.  1.
         11   -1    0    0    0    0 -0.00000000000E+00 -0.00000000000E+00 -0.50000000000E+03  0.50000000000E+03  0.00000000000E+00 0. -1.
        -11    1    1    2    0    0  0.12845849694E+01  0.12583839074E+02  0.49312037306E+03  0.49328258178E+03  0.00000000000E+00 0.  1.
         11    1    1    2    0    0  0.84675845580E+01 -0.81904917838E+01 -0.43892180583E+03  0.43907987403E+03  0.00000000000E+00 0. -1.
        -15    1    1    2    0    0 -0.69113691677E+00  0.15042625950E+02 -0.37342598897E+02  0.40303668407E+02  0.17770000000E+01 0.  1.
         15    1    1    2    0    0 -0.90610326106E+01 -0.19435973240E+02 -0.16855968336E+02  0.27333875783E+02  0.17770000000E+01 0. -1.
</event>
<event>
 6    1  0.4028964E-003  0.5064748E+03  0.7546771E-02  0.9385437E-01
        -11   -1    0    0    0    0  0.00000000000E+00  0.00000000000E+00  0.50000000000E+03  0.50000000000E+03  0.00000000000E+00 0.  1.
         11   -1    0    0    0    0 -0.00000000000E+00 -0.00000000000E+00 -0.50000000000E+03  0.50000000000E+03  0.00000000000E+00 0. -1.
        -11    1    1    2    0    0  0.16032019356E+02  0.91895618117E+01  0.33591252002E+03  0.33642041376E+03  0.00000000000E+00 0.  1.
         11    1    1    2    0    0 -0.46141805042E+01 -0.13944470210E+02 -0.49330655748E+03  0.49352517521E+03  0.00000000000E+00 0. -1.
        -15    1    1    2    0    0 -0.31094854996E+01  0.13971144349E+02  0.24805820626E+01  0.14634643517E+02  0.17770000000E+01 0.  1.
         15    1    1    2    0    0 -0.83083533526E+01 -0.92162359507E+01  0.15491345540E+03  0.15541976751E+03  0.17770000000E+01 0. -1.
</event>
<event>
 6    1  0.4028964E-003  0.5128105E+03  0.7546771E-02  0.9371593E-01
        -11   -1    0    0    0    0  0.00000000000E+00  0.00000000000E+00  0.50000000000E+03  0.50000000000E+03  0.00000000000E+00 0.  1.
         11   -1    0    0    0    0 -0.00000000000E+00 -0.00000000000E+00 -0.50000000000E+03  0.50000000000E+03  0.00000000000E+00 0. -1.
        -11    1    1    2    0    0 -0.63640903070E+01 -0.66946663095E+01  0.48452659419E+03  0.48461463110E+03  0.00000000000E+00 0.  1.
         11    1    1    2    0    0  0.65818886817E+01  0.27816225626E+01 -0.48713710801E+03  0.48718951209E+03  0.00000000000E+00 0. -1.
        -15    1    1    2    0    0  0.27553308611E+01 -0.10780805688E+02  0.59376567725E+01  0.12736997935E+02  0.17770000000E+01 0. -1.
         15    1    1    2    0    0 -0.29731292358E+01  0.14693849435E+02 -0.33271429444E+01  0.15458858879E+02  0.17770000000E+01 0.  1.
</event>
<event>
 6    1  0.4028964E-003  0.5161697E+03  0.7546771E-02  0.9364338E-01
        -11   -1    0    0    0    0  0.00000000000E+00  0.00000000000E+00  0.50000000000E+03  0.50000000000E+03  0.00000000000E+00 0. -1.
         11   -1    0    0    0    0 -0.00000000000E+00 -0.00000000000E+00 -0.50000000000E+03  0.50000000000E+03  0.00000000000E+00 0. -1.
        -11    1    1    2    0    0  0.43014450839E+01 -0.15837452559E+02  0.41858617733E+03  0.41890776453E+03  0.00000000000E+00 0. -1.
         11    1    1    2    0    0 -0.10788042584E+02  0.28514389348E-01 -0.48371001507E+03  0.48383030223E+03  0.00000000000E+00 0. -1.
        -15    1    1    2    0    0 -0.17871817048E+01 -0.48695956250E+01 -0.14004490332E+02  0.15039629599E+02  0.17770000000E+01 0.  1.
         15    1    1    2    0    0  0.82737792050E+01  0.20678533795E+02  0.79128328074E+02  0.82222303635E+02  0.17770000000E+01 0. -1.
</event>
<event>
 6    1  0.4028964E-003  0.5057010E+03  0.7546771E-02  0.9387143E-01
        -11   -1    0    0    0    0  0.00000000000E+00  0.00000000000E+00  0.50000000000E+03  0.50000000000E+03  0.00000000000E+00 0.  1.
         11   -1    0    0    0    0 -0.00000000000E+00 -0.00000000000E+00 -0.50000000000E+03  0.50000000000E+03  0.00000000000E+00 0. -1.
        -11    1    1    2    0    0  0.71055617959E+01  0.76471463228E+01  0.49418879173E+03  0.49429902865E+03  0.00000000000E+00 0.  1.
         11    1    1    2    0    0  0.84479636865E+01  0.32506947506E+01 -0.45750491930E+03  0.45759445614E+03  0.00000000000E+00 0. -1.
        -15    1    1    2    0    0 -0.17897512334E+01 -0.41104316257E+01  0.28913098578E+01  0.56228337447E+01  0.17770000000E+01 0. -1.
         15    1    1    2    0    0 -0.13763774249E+02 -0.67874094477E+01 -0.39575182285E+02  0.42483681461E+02  0.17770000000E+01 0.  1.
</event>
<event>
 6    1  0.4028964E-003  0.5000639E+03  0.7546771E-02  0.9399667E-01
        -11   -1    0    0    0    0  0.00000000000E+00  0.00000000000E+00  0.50000000000E+03  0.50000000000E+03  0.00000000000E+00 0.  1.
         11   -1    0    0    0    0 -0.00000000000E+00 -0.00000000000E+00 -0.50000000000E+03  0.50000000000E+03  0.00000000000E+00 0. -1.
        -11    1    1    2    0    0  0.79707669371E+01 -0.60947704998E+01  0.49983535489E+03  0.49993605726E+03  0.00000000000E+00 0.  1.
         11    1    1    2    0    0 -0.48316279319E+00  0.43017858676E+00 -0.14161776173E+02  0.14176544158E+02  0.00000000000E+00 0. -1.
        -15    1    1    2    0    0 -0.96623147026E+01  0.59919849909E+01 -0.40847100348E+03  0.40863306599E+03  0.17770000000E+01 0. -1.
         15    1    1    2    0    0  0.21747105587E+01 -0.32739307786E+00 -0.77202575236E+02  0.77254332593E+02  0.17770000000E+01 0. -1.
</event>
<event>
 6    1  0.4028964E-003  0.5061335E+03  0.7546771E-02  0.9386189E-01
        -11   -1    0    0    0    0  0.00000000000E+00  0.00000000000E+00  0.50000000000E+03  0.50000000000E+03  0.00000000000E+00 0. -1.
         11   -1    0    0    0    0 -0.00000000000E+00 -0.00000000000E+00 -0.50000000000E+03  0.50000000000E+03  0.00000000000E+00 0. -1.
        -11    1    1    2    0    0  0.22355920344E+02  0.58220756448E+01  0.34024540093E+03  0.34102876212E+03  0.00000000000E+00 0. -1.
         11    1    1    2    0    0 -0.42906489725E+01 -0.24768165445E+02 -0.49322633036E+03  0.49386646439E+03  0.00000000000E+00 0. -1.
        -15    1    1    2    0    0 -0.22392312582E+02 -0.28069418916E+01  0.13388001017E+03  0.13578037206E+03  0.17770000000E+01 0. -1.
         15    1    1    2    0    0  0.43270412107E+01  0.21753031692E+02  0.19100919261E+02  0.29324401427E+02  0.17770000000E+01 0.  1.
</event>
<event>
 6    1  0.4028964E-003  0.5038664E+03  0.7546771E-02  0.9391200E-01
        -11   -1    0    0    0    0  0.00000000000E+00  0.00000000000E+00  0.50000000000E+03  0.50000000000E+03  0.00000000000E+00 0.  1.
         11   -1    0    0    0    0 -0.00000000000E+00 -0.00000000000E+00 -0.50000000000E+03  0.50000000000E+03  0.00000000000E+00 0. -1.
        -11    1    1    2    0    0 -0.73118069634E+01  0.21816453640E+01  0.49607494247E+03  0.49613362176E+03  0.00000000000E+00 0.  1.
         11    1    1    2    0    0 -0.58003774336E+01 -0.11528572658E+02 -0.47351111617E+03  0.47368695306E+03  0.00000000000E+00 0. -1.
        -15    1    1    2    0    0  0.16731101095E+01 -0.19839186487E+01 -0.71846512675E+01  0.78429696849E+01  0.17770000000E+01 0.  1.
         15    1    1    2    0    0  0.11439074287E+02  0.11330845943E+02 -0.15379175033E+02  0.22336455494E+02  0.17770000000E+01 0. -1.
</event>
<event>
 6    1  0.4028964E-003  0.5003367E+03  0.7546771E-02  0.9399057E-01
        -11   -1    0    0    0    0  0.00000000000E+00  0.00000000000E+00  0.50000000000E+03  0.50000000000E+03  0.00000000000E+00 0.  1.
         11   -1    0    0    0    0 -0.00000000000E+00 -0.00000000000E+00 -0.50000000000E+03  0.50000000000E+03  0.00000000000E+00 0.  1.
        -11    1    1    2    0    0  0.81670702596E+00  0.76330543903E+01  0.49960435260E+03  0.49966332632E+03  0.00000000000E+00 0.  1.
         11    1    1    2    0    0  0.58810202046E+01  0.26533188535E+01 -0.16561207533E+03  0.16573770240E+03  0.00000000000E+00 0.  1.
        -15    1    1    2    0    0 -0.22930477712E+01 -0.20712084556E+01 -0.25691831174E+03  0.25694303767E+03  0.17770000000E+01 0.  1.
         15    1    1    2    0    0 -0.44046794594E+01 -0.82151647883E+01 -0.77073965530E+02  0.77655933612E+02  0.17770000000E+01 0. -1.
</event>
<event>
 6    1  0.4028964E-003  0.5604561E+03  0.7546771E-02  0.9273850E-01
        -11   -1    0    0    0    0  0.00000000000E+00  0.00000000000E+00  0.50000000000E+03  0.50000000000E+03  0.00000000000E+00 0. -1.
         11   -1    0    0    0    0 -0.00000000000E+00 -0.00000000000E+00 -0.50000000000E+03  0.50000000000E+03  0.00000000000E+00 0. -1.
        -11    1    1    2    0    0 -0.52608811785E+01 -0.27657842853E+00  0.21969285488E+03  0.21975600982E+03  0.00000000000E+00 0. -1.
         11    1    1    2    0    0  0.66526354113E+02 -0.90728316022E+01 -0.43438549693E+03  0.43954389088E+03  0.00000000000E+00 0. -1.
        -15    1    1    2    0    0 -0.40860152259E+02  0.93357460652E+02  0.23120023083E+03  0.25266949157E+03  0.17770000000E+01 0. -1.
         15    1    1    2    0    0 -0.20405320676E+02 -0.84008050622E+02 -0.16507588780E+02  0.88030607731E+02  0.17770000000E+01 0.  1.
</event>
<event>
 6    1  0.5275808E-003  0.5577968E+03  0.7546771E-02  0.9279030E-01
        -11   -1    0    0    0    0  0.00000000000E+00  0.00000000000E+00  0.50000000000E+03  0.50000000000E+03  0.00000000000E+00 0. -1.
         11   -1    0    0    0    0 -0.00000000000E+00 -0.00000000000E+00 -0.50000000000E+03  0.50000000000E+03  0.00000000000E+00 0. -1.
        -11    1    1    2    0    0  0.22515393604E+02 -0.74093463490E+00  0.36425391445E+03  0.36494986796E+03  0.00000000000E+00 0. -1.
         11    1    1    2    0    0 -0.47174917604E+01  0.66150335534E+01 -0.44212859304E+03  0.44220324081E+03  0.00000000000E+00 0. -1.
        -15    1    1    2    0    0  0.26934803808E+01 -0.32918932342E+01 -0.56598191173E+02  0.56785600029E+02  0.17770000000E+01 0.  1.
         15    1    1    2    0    0 -0.20491382225E+02 -0.25822056843E+01  0.13447286976E+03  0.13606129120E+03  0.17770000000E+01 0. -1.
</event>
<event>
 6    1  0.4028964E-003  0.5004548E+03  0.7546771E-02  0.9398793E-01
        -11   -1    0    0    0    0  0.00000000000E+00  0.00000000000E+00  0.50000000000E+03  0.50000000000E+03  0.00000000000E+00 0. -1.
         11   -1    0    0    0    0 -0.00000000000E+00 -0.00000000000E+00 -0.50000000000E+03  0.50000000000E+03  0.00000000000E+00 0.  1.
        -11    1    1    2    0    0  0.78201111374E+00  0.31500827251E+01  0.19557433685E+03  0.19560126737E+03  0.00000000000E+00 0. -1.
         11    1    1    2    0    0  0.53255588624E+01 -0.60249892313E+01 -0.49948050527E+03  0.49954523040E+03  0.00000000000E+00 0.  1.
        -15    1    1    2    0    0 -0.55350288104E+01  0.70565056126E+01  0.45639686218E+02  0.46546423090E+02  0.17770000000E+01 0. -1.
         15    1    1    2    0    0 -0.57254116574E+00 -0.41815991064E+01  0.25826648220E+03  0.25830707914E+03  0.17770000000E+01 0. -1.
</event>
<event>
 6    1  0.4028964E-003  0.4807254E+03  0.7546771E-02  0.9444002E-01
        -11   -1    0    0    0    0  0.00000000000E+00  0.00000000000E+00  0.50000000000E+03  0.50000000000E+03  0.00000000000E+00 0.  1.
         11   -1    0    0    0    0 -0.00000000000E+00 -0.00000000000E+00 -0.50000000000E+03  0.50000000000E+03  0.00000000000E+00 0.  1.
        -11    1    1    2    0    0 -0.88163883789E+01  0.10275199957E+02  0.48215470556E+03  0.48234476107E+03  0.00000000000E+00 0.  1.
         11    1    1    2    0    0  0.92952078582E+01  0.16620055212E+00 -0.47907763259E+03  0.47916782714E+03  0.00000000000E+00 0.  1.
        -15    1    1    2    0    0 -0.79364753465E+01  0.30661391008E+01 -0.16048895188E+02  0.18251400376E+02  0.17770000000E+01 0.  1.
         15    1    1    2    0    0  0.74576558673E+01 -0.13507539609E+02  0.12971822226E+02  0.20236011420E+02  0.17770000000E+01 0. -1.
</event>
<event>
 6    1  0.4028964E-003  0.5004505E+03  0.7546771E-02  0.9398802E-01
        -11   -1    0    0    0    0  0.00000000000E+00  0.00000000000E+00  0.50000000000E+03  0.50000000000E+03  0.00000000000E+00 0.  1.
         11   -1    0    0    0    0 -0.00000000000E+00 -0.00000000000E+00 -0.50000000000E+03  0.50000000000E+03  0.00000000000E+00 0. -1.
        -11    1    1    2    0    0  0.32202975355E+01 -0.13923276069E+02  0.49934507204E+03  0.49954952598E+03  0.00000000000E+00 0.  1.
         11    1    1    2    0    0  0.72178505026E-01 -0.60044863619E+01 -0.18998511416E+03  0.19007999019E+03  0.00000000000E+00 0. -1.
        -15    1    1    2    0    0  0.29868924584E+01  0.60953110276E+01 -0.42733000001E+02  0.43305211709E+02  0.17770000000E+01 0.  1.
         15    1    1    2    0    0 -0.62793684988E+01  0.13832451404E+02 -0.26662695788E+03  0.26706527213E+03  0.17770000000E+01 0. -1.
</event>
<event>
 6    1  0.4028964E-003  0.5125691E+03  0.7546771E-02  0.9372116E-01
        -11   -1    0    0    0    0  0.00000000000E+00  0.00000000000E+00  0.50000000000E+03  0.50000000000E+03  0.00000000000E+00 0. -1.
         11   -1    0    0    0    0 -0.00000000000E+00 -0.00000000000E+00 -0.50000000000E+03  0.50000000000E+03  0.00000000000E+00 0. -1.
        -11    1    1    2    0    0 -0.12842341534E+02 -0.14918239934E+02  0.43196432774E+03  0.43241260395E+03  0.00000000000E+00 0. -1.
         11    1    1    2    0    0 -0.52805130767E+01 -0.18409248465E+02 -0.48705450509E+03  0.48743089272E+03  0.00000000000E+00 0. -1.
        -15    1    1    2    0    0  0.13619094557E+02  0.33369912070E+02  0.61989426286E+02  0.71727801224E+02  0.17770000000E+01 0. -1.
         15    1    1    2    0    0  0.45037600537E+01 -0.42423670448E-01 -0.68992489298E+01  0.84287021056E+01  0.17770000000E+01 0.  1.
</event>
<event>
 6    1  0.4028964E-003  0.5004452E+03  0.7546771E-02  0.9398814E-01
        -11   -1    0    0    0    0  0.00000000000E+00  0.00000000000E+00  0.50000000000E+03  0.50000000000E+03  0.00000000000E+00 0. -1.
         11   -1    0    0    0    0 -0.00000000000E+00 -0.00000000000E+00 -0.50000000000E+03  0.50000000000E+03  0.00000000000E+00 0. -1.
        -11    1    1    2    0    0  0.36619729395E+01  0.57925224083E+01  0.49950774985E+03  0.49955475728E+03  0.00000000000E+00 0. -1.
         11    1    1    2    0    0  0.70090781412E+01 -0.75067367280E+01 -0.30057895347E+03  0.30075436080E+03  0.00000000000E+00 0. -1.
        -15    1    1    2    0    0  0.14028575772E+01  0.40379942277E+01 -0.74416161392E+02  0.74560017516E+02  0.17770000000E+01 0. -1.
         15    1    1    2    0    0 -0.12073908658E+02 -0.23237799080E+01 -0.12451263499E+03  0.12513086440E+03  0.17770000000E+01 0.  1.
</event>
<event>
 6    1  0.4028964E-003  0.5102048E+03  0.7546771E-02  0.9377261E-01
        -11   -1    0    0    0    0  0.00000000000E+00  0.00000000000E+00  0.50000000000E+03  0.50000000000E+03  0.00000000000E+00 0.  1.
         11   -1    0    0    0    0 -0.00000000000E+00 -0.00000000000E+00 -0.50000000000E+03  0.50000000000E+03  0.00000000000E+00 0. -1.
        -11    1    1    2    0    0 -0.16095200163E+02 -0.53927414307E+01  0.45533635772E+03  0.45565264818E+03  0.00000000000E+00 0.  1.
         11    1    1    2    0    0  0.78935938176E+01  0.45850138022E+01 -0.48971010497E+03  0.48979517972E+03  0.00000000000E+00 0. -1.
        -15    1    1    2    0    0  0.43023640292E+00 -0.32754281755E+01  0.42375779550E+02  0.42541485101E+02  0.17770000000E+01 0. -1.
         15    1    1    2    0    0  0.77713699427E+01  0.40831558040E+01 -0.80020323058E+01  0.12010686997E+02  0.17770000000E+01 0.  1.
</event>
<event>
 6    1  0.4028964E-003  0.5008392E+03  0.7546771E-02  0.9397934E-01
        -11   -1    0    0    0    0  0.00000000000E+00  0.00000000000E+00  0.50000000000E+03  0.50000000000E+03  0.00000000000E+00 0.  1.
         11   -1    0    0    0    0 -0.00000000000E+00 -0.00000000000E+00 -0.50000000000E+03  0.50000000000E+03  0.00000000000E+00 0. -1.
        -11    1    1    2    0    0  0.43997341792E+01  0.61161908177E+01  0.31855813444E+03  0.31864721946E+03  0.00000000000E+00 0.  1.
         11    1    1    2    0    0 -0.12681529320E+02  0.37376949168E+01 -0.49898572730E+03  0.49916084342E+03  0.00000000000E+00 0. -1.
        -15    1    1    2    0    0  0.56238651645E-01 -0.14962515056E+02  0.93136810049E+02  0.94347777582E+02  0.17770000000E+01 0.  1.
         15    1    1    2    0    0  0.82255564895E+01  0.51086293216E+01  0.87290782815E+02  0.87844159547E+02  0.17770000000E+01 0. -1.
</event>
<event>
 6    1  0.4028964E-003  0.5131095E+03  0.7546771E-02  0.9370945E-01
        -11   -1    0    0    0    0  0.00000000000E+00  0.00000000000E+00  0.50000000000E+03  0.50000000000E+03  0.00000000000E+00 0. -1.
         11   -1    0    0    0    0 -0.00000000000E+00 -0.00000000000E+00 -0.50000000000E+03  0.50000000000E+03  0.00000000000E+00 0. -1.
        -11    1    1    2    0    0 -0.46807338010E+01 -0.15358211043E+02  0.48662570866E+03  0.48689050539E+03  0.00000000000E+00 0. -1.
         11    1    1    2    0    0 -0.39113860362E+01  0.18603279130E+02 -0.46764044237E+03  0.46802667048E+03  0.00000000000E+00 0. -1.
        -15    1    1    2    0    0  0.97140911254E+01 -0.26565982274E+01 -0.31118044745E+02  0.32755328090E+02  0.17770000000E+01 0.  1.
         15    1    1    2    0    0 -0.11219712881E+01 -0.58846985955E+00  0.12132778461E+02  0.12327496037E+02  0.17770000000E+01 0. -1.
</event>
<event>
 6    1  0.4028964E-003  0.5015578E+03  0.7546771E-02  0.9396331E-01
        -11   -1    0    0    0    0  0.00000000000E+00  0.00000000000E+00  0.50000000000E+03  0.50000000000E+03  0.00000000000E+00 0. -1.
         11   -1    0    0    0    0 -0.00000000000E+00 -0.00000000000E+00 -0.50000000000E+03  0.50000000000E+03  0.00000000000E+00 0. -1.
        -11    1    1    2    0    0 -0.11111183212E+02  0.48904151398E+01  0.49829431880E+03  0.49844217589E+03  0.00000000000E+00 0. -1.
         11    1    1    2    0    0 -0.18178352383E+01  0.91272091395E+01 -0.33594599561E+03  0.33607487624E+03  0.00000000000E+00 0. -1.
        -15    1    1    2    0    0 -0.16338635680E+01  0.36882089584E+01 -0.75928519808E+02  0.76056362290E+02  0.17770000000E+01 0. -1.
         15    1    1    2    0    0  0.14562882018E+02 -0.17705833238E+02 -0.86419803387E+02  0.89426585587E+02  0.17770000000E+01 0.  1.
</event>
<event>
 6    1  0.4028964E-003  0.5043291E+03  0.7546771E-02  0.9390175E-01
        -11   -1    0    0    0    0  0.00000000000E+00  0.00000000000E+00  0.50000000000E+03  0.50000000000E+03  0.00000000000E+00 0. -1.
         11   -1    0    0    0    0 -0.00000000000E+00 -0.00000000000E+00 -0.50000000000E+03  0.50000000000E+03  0.00000000000E+00 0.  1.
        -11    1    1    2    0    0  0.77001967121E+01 -0.19583447316E+01  0.49560724630E+03  0.49567092988E+03  0.00000000000E+00 0. -1.
         11    1    1    2    0    0 -0.13681207291E+01 -0.18801198693E+02 -0.41573977802E+03  0.41616693749E+03  0.00000000000E+00 0.  1.
        -15    1    1    2    0    0 -0.17021058622E+00  0.23770951979E+02 -0.32705121237E+02  0.40470604317E+02  0.17770000000E+01 0.  1.
         15    1    1    2    0    0 -0.61618653968E+01 -0.30114085543E+01 -0.47162347036E+02  0.47691528321E+02  0.17770000000E+01 0. -1.
</event>
<event>
 6    1  0.4028964E-003  0.5047796E+03  0.7546771E-02  0.9389178E-01
        -11   -1    0    0    0    0  0.00000000000E+00  0.00000000000E+00  0.50000000000E+03  0.50000000000E+03  0.00000000000E+00 0. -1.
         11   -1    0    0    0    0 -0.00000000000E+00 -0.00000000000E+00 -0.50000000000E+03  0.50000000000E+03  0.00000000000E+00 0.  1.
        -11    1    1    2    0    0 -0.23202740362E+01  0.10931334128E+02  0.49509431290E+03  0.49522041194E+03  0.00000000000E+00 0. -1.
         11    1    1    2    0    0 -0.36247844856E+01  0.11308113661E+02 -0.42928209125E+03  0.42944630208E+03  0.00000000000E+00 0.  1.
        -15    1    1    2    0    0  0.46143208929E+01 -0.31988871303E+01  0.86752113993E+00  0.59527437458E+01  0.17770000000E+01 0.  1.
         15    1    1    2    0    0  0.13307376289E+01 -0.19040560658E+02 -0.66679742792E+02  0.69380542233E+02  0.17770000000E+01 0. -1.
</event>
<event>
 6    1  0.4028964E-003  0.5077043E+03  0.7546771E-02  0.9382734E-01
        -11   -1    0    0    0    0  0.00000000000E+00  0.00000000000E+00  0.50000000000E+03  0.50000000000E+03  0.00000000000E+00 0. -1.
         11   -1    0    0    0    0 -0.00000000000E+00 -0.00000000000E+00 -0.50000000000E+03  0.50000000000E+03  0.00000000000E+00 0.  1.
        -11    1    1    2    0    0  0.14375614840E+02  0.66623114114E+01  0.38624844936E+03  0.38657329102E+03  0.00000000000E+00 0. -1.
         11    1    1    2    0    0  0.34548281272E+01  0.25910794593E+02 -0.49160116622E+03  0.49229565480E+03  0.00000000000E+00 0.  1.
        -15    1    1    2    0    0 -0.16754805268E+02 -0.37926517816E+02  0.47839235626E+02  0.63331622808E+02  0.17770000000E+01 0.  1.
         15    1    1    2    0    0 -0.10756376990E+01  0.53534118120E+01  0.57513481225E+02  0.57799431365E+02  0.17770000000E+01 0. -1.
</event>
<event>
 6    1  0.4028964E-003  0.5009349E+03  0.7546771E-02  0.9397720E-01
        -11   -1    0    0    0    0  0.00000000000E+00  0.00000000000E+00  0.50000000000E+03  0.50000000000E+03  0.00000000000E+00 0.  1.
         11   -1    0    0    0    0 -0.00000000000E+00 -0.00000000000E+00 -0.50000000000E+03  0.50000000000E+03  0.00000000000E+00 0.  1.
        -11    1    1    2    0    0 -0.83816702612E+01  0.41162392322E+01  0.39588886926E+03  0.39599898058E+03  0.00000000000E+00 0.  1.
         11    1    1    2    0    0  0.13612326325E+02  0.16797047520E+01 -0.49887660232E+03  0.49906510715E+03  0.00000000000E+00 0.  1.
        -15    1    1    2    0    0  0.56201338239E+01 -0.64669016916E+01  0.55624392885E+02  0.56308414420E+02  0.17770000000E+01 0.  1.
         15    1    1    2    0    0 -0.10850789888E+02  0.67095770742E+00  0.47363340173E+02  0.48627497846E+02  0.17770000000E+01 0.  1.
</event>
<event>
 6    1  0.4028964E-003  0.4107093E+03  0.7546771E-02  0.9625277E-01
        -11   -1    0    0    0    0  0.00000000000E+00  0.00000000000E+00  0.50000000000E+03  0.50000000000E+03  0.00000000000E+00 0.  1.
         11   -1    0    0    0    0 -0.00000000000E+00 -0.00000000000E+00 -0.50000000000E+03  0.50000000000E+03  0.00000000000E+00 0. -1.
        -11    1    1    2    0    0 -0.19061160703E+02 -0.21301248715E+01  0.42163076631E+03  0.42206678190E+03  0.00000000000E+00 0.  1.
         11    1    1    2    0    0 -0.26072423921E+01 -0.35692502316E+02 -0.39921220386E+03  0.40081309378E+03  0.00000000000E+00 0. -1.
        -15    1    1    2    0    0  0.80718148794E+02  0.26401614100E+01  0.34518753921E+02  0.87846981156E+02  0.17770000000E+01 0. -1.
         15    1    1    2    0    0 -0.59049745699E+02  0.35182465777E+02 -0.56937316371E+02  0.89273143161E+02  0.17770000000E+01 0.  1.
</event>
<event>
 6    1  0.4028964E-003  0.5006385E+03  0.7546771E-02  0.9398382E-01
        -11   -1    0    0    0    0  0.00000000000E+00  0.00000000000E+00  0.50000000000E+03  0.50000000000E+03  0.00000000000E+00 0. -1.
         11   -1    0    0    0    0 -0.00000000000E+00 -0.00000000000E+00 -0.50000000000E+03  0.50000000000E+03  0.00000000000E+00 0. -1.
        -11    1    1    2    0    0 -0.40046674134E+00  0.85709752980E+01  0.18070778846E+03  0.18091137830E+03  0.00000000000E+00 0. -1.
         11    1    1    2    0    0  0.10508965875E+02  0.33609177348E+01 -0.49923954760E+03  0.49936145227E+03  0.00000000000E+00 0. -1.
        -15    1    1    2    0    0 -0.10885619955E+02 -0.39371030315E+01  0.28352428976E+03  0.28376606231E+03  0.17770000000E+01 0. -1.
         15    1    1    2    0    0  0.77712082126E+00 -0.79947900012E+01  0.35007469376E+02  0.35961107116E+02  0.17770000000E+01 0.  1.
</event>
<event>
 6    1  0.4028964E-003  0.5006445E+03  0.7546771E-02  0.9398369E-01
        -11   -1    0    0    0    0  0.00000000000E+00  0.00000000000E+00  0.50000000000E+03  0.50000000000E+03  0.00000000000E+00 0.  1.
         11   -1    0    0    0    0 -0.00000000000E+00 -0.00000000000E+00 -0.50000000000E+03  0.50000000000E+03  0.00000000000E+00 0. -1.
        -11    1    1    2    0    0  0.65538644351E+01 -0.70730191697E+01  0.34373015313E+03  0.34386537905E+03  0.00000000000E+00 0.  1.
         11    1    1    2    0    0 -0.72699484471E+00 -0.86231809841E+01 -0.49928046444E+03  0.49935545451E+03  0.00000000000E+00 0. -1.
        -15    1    1    2    0    0 -0.21920352742E+01  0.41097041096E+01  0.86729144964E+02  0.86872302846E+02  0.17770000000E+01 0.  1.
         15    1    1    2    0    0 -0.36348343161E+01  0.11586496044E+02  0.68821166348E+02  0.69906863594E+02  0.17770000000E+01 0. -1.
</event>
<event>
 6    1  0.4028964E-003  0.5000358E+03  0.7546771E-02  0.9399730E-01
        -11   -1    0    0    0    0  0.00000000000E+00  0.00000000000E+00  0.50000000000E+03  0.50000000000E+03  0.00000000000E+00 0. -1.
         11   -1    0    0    0    0 -0.00000000000E+00 -0.00000000000E+00 -0.50000000000E+03  0.50000000000E+03  0.00000000000E+00 0. -1.
        -11    1    1    2    0    0 -0.12958917923E+02  0.53908811273E+01  0.49976711562E+03  0.49996416373E+03  0.00000000000E+00 0. -1.
         11    1    1    2    0    0  0.19568058796E+00 -0.76521323679E+00 -0.38892091900E+02  0.38900111241E+02  0.00000000000E+00 0. -1.
        -15    1    1    2    0    0  0.25819830910E+01  0.11226303950E+01 -0.66334500750E+02  0.66417999476E+02  0.17770000000E+01 0.  1.
         15    1    1    2    0    0  0.10181254245E+02 -0.57482982855E+01 -0.39454052297E+03  0.39471772556E+03  0.17770000000E+01 0. -1.
</event>
<event>
 6    1  0.4028964E-003  0.5044199E+03  0.7546771E-02  0.9389974E-01
        -11   -1    0    0    0    0  0.00000000000E+00  0.00000000000E+00  0.50000000000E+03  0.50000000000E+03  0.00000000000E+00 0. -1.
         11   -1    0    0    0    0 -0.00000000000E+00 -0.00000000000E+00 -0.50000000000E+03  0.50000000000E+03  0.00000000000E+00 0. -1.
        -11    1    1    2    0    0  0.20654481753E+02 -0.12292670414E+01  0.22288122105E+03  0.22383957963E+03  0.00000000000E+00 0. -1.
         11    1    1    2    0    0 -0.16935373207E+02  0.24335798754E+01 -0.49528462292E+03  0.49558005093E+03  0.00000000000E+00 0. -1.
        -15    1    1    2    0    0  0.13778382550E+02 -0.70090707453E+01  0.12343443684E+02  0.19861752929E+02  0.17770000000E+01 0. -1.
         15    1    1    2    0    0 -0.17497491096E+02  0.58047579113E+01  0.26005995819E+03  0.26071861651E+03  0.17770000000E+01 0.  1.
</event>
<event>
 6    1  0.4028964E-003  0.5061621E+03  0.7546771E-02  0.9386126E-01
        -11   -1    0    0    0    0  0.00000000000E+00  0.00000000000E+00  0.50000000000E+03  0.50000000000E+03  0.00000000000E+00 0.  1.
         11   -1    0    0    0    0 -0.00000000000E+00 -0.00000000000E+00 -0.50000000000E+03  0.50000000000E+03  0.00000000000E+00 0. -1.
        -11    1    1    2    0    0 -0.16806342480E+01  0.42725507666E+01  0.23230535417E+03  0.23235071938E+03  0.00000000000E+00 0.  1.
         11    1    1    2    0    0 -0.22724791054E+02  0.82428144524E+01 -0.49324593411E+03  0.49383794066E+03  0.00000000000E+00 0. -1.
        -15    1    1    2    0    0  0.26703862594E+02  0.10972869811E+02  0.24138040912E+03  0.24310730097E+03  0.17770000000E+01 0.  1.
         15    1    1    2    0    0 -0.22984372922E+01 -0.23488235030E+02  0.19560170820E+02  0.30704038990E+02  0.17770000000E+01 0. -1.
</event>
<event>
 6    1  0.4028964E-003  0.5083433E+03  0.7546771E-02  0.9381332E-01
        -11   -1    0    0    0    0  0.00000000000E+00  0.00000000000E+00  0.50000000000E+03  0.50000000000E+03  0.00000000000E+00 0. -1.
         11   -1    0    0    0    0 -0.00000000000E+00 -0.00000000000E+00 -0.50000000000E+03  0.50000000000E+03  0.00000000000E+00 0.  1.
        -11    1    1    2    0    0  0.18837576829E+01  0.72038007075E+01  0.49160027968E+03  0.49165666707E+03  0.00000000000E+00 0. -1.
         11    1    1    2    0    0  0.83514673040E+01 -0.79484143048E+01 -0.48045692692E+03  0.48059523814E+03  0.00000000000E+00 0.  1.
        -15    1    1    2    0    0 -0.13456359597E+02 -0.30378109829E+01 -0.15557687364E+02  0.20868667286E+02  0.17770000000E+01 0.  1.
         15    1    1    2    0    0  0.32211346101E+01  0.37824245802E+01  0.44143346028E+01  0.68794275101E+01  0.17770000000E+01 0.  1.
</event>
<event>
 6    1  0.4028964E-003  0.5019347E+03  0.7546771E-02  0.9395491E-01
        -11   -1    0    0    0    0  0.00000000000E+00  0.00000000000E+00  0.50000000000E+03  0.50000000000E+03  0.00000000000E+00 0. -1.
         11   -1    0    0    0    0 -0.00000000000E+00 -0.00000000000E+00 -0.50000000000E+03  0.50000000000E+03  0.00000000000E+00 0. -1.
        -11    1    1    2    0    0  0.16917750395E+02 -0.24238970168E+01  0.49777199233E+03  0.49806529883E+03  0.00000000000E+00 0. -1.
         11    1    1    2    0    0 -0.36695423602E+01 -0.87668084133E+01 -0.29703791288E+03  0.29718991261E+03  0.00000000000E+00 0. -1.
        -15    1    1    2    0    0  0.25403390390E+01  0.63682970998E+01 -0.16695800609E+03  0.16710817472E+03  0.17770000000E+01 0.  1.
         15    1    1    2    0    0 -0.15788547073E+02  0.48224083303E+01 -0.33776073352E+02  0.37636613834E+02  0.17770000000E+01 0. -1.
</event>
<event>
 6    1  0.4028964E-003  0.5116808E+03  0.7546771E-02  0.9374046E-01
        -11   -1    0    0    0    0  0.00000000000E+00  0.00000000000E+00  0.50000000000E+03  0.50000000000E+03  0.00000000000E+00 0.  1.
         11   -1    0    0    0    0 -0.00000000000E+00 -0.00000000000E+00 -0.50000000000E+03  0.50000000000E+03  0.00000000000E+00 0. -1.
        -11    1    1    2    0    0 -0.11210044948E+02 -0.10052153862E+02  0.46233963312E+03  0.46258474603E+03  0.00000000000E+00 0.  1.
         11    1    1    2    0    0 -0.31342915529E+01 -0.13712750433E+02 -0.48811660982E+03  0.48831924812E+03  0.00000000000E+00 0. -1.
        -15    1    1    2    0    0  0.11201710866E+02  0.13808208807E+02  0.32116331778E+02  0.36752706739E+02  0.17770000000E+01 0. -1.
         15    1    1    2    0    0  0.31426256354E+01  0.99566954888E+01 -0.63393550822E+01  0.12343299105E+02  0.17770000000E+01 0.  1.
</event>
<event>
 6    1  0.4028964E-003  0.5075472E+03  0.7546771E-02  0.9383079E-01
        -11   -1    0    0    0    0  0.00000000000E+00  0.00000000000E+00  0.50000000000E+03  0.50000000000E+03  0.00000000000E+00 0. -1.
         11   -1    0    0    0    0 -0.00000000000E+00 -0.00000000000E+00 -0.50000000000E+03  0.50000000000E+03  0.00000000000E+00 0. -1.
        -11    1    1    2    0    0 -0.51669729808E+01 -0.50683654555E+01  0.41748326269E+03  0.41754599814E+03  0.00000000000E+00 0. -1.
         11    1    1    2    0    0 -0.42186765718E+01 -0.60965157344E+01 -0.49239696160E+03  0.49245277188E+03  0.00000000000E+00 0. -1.
        -15    1    1    2    0    0  0.23520226791E+01 -0.66883117421E+01  0.69639004782E+02  0.70021526981E+02  0.17770000000E+01 0. -1.
         15    1    1    2    0    0  0.70336268735E+01  0.17853192932E+02  0.52746941354E+01  0.19979703003E+02  0.17770000000E+01 0.  1.
</event>
<event>
 6    1  0.4028964E-003  0.5033345E+03  0.7546771E-02  0.9392379E-01
        -11   -1    0    0    0    0  0.00000000000E+00  0.00000000000E+00  0.50000000000E+03  0.50000000000E+03  0.00000000000E+00 0.  1.
         11   -1    0    0    0    0 -0.00000000000E+00 -0.00000000000E+00 -0.50000000000E+03  0.50000000000E+03  0.00000000000E+00 0. -1.
        -11    1    1    2    0    0  0.70033595145E+01  0.20440367886E+00  0.49661607956E+03  0.49666550042E+03  0.00000000000E+00 0.  1.
         11    1    1    2    0    0 -0.71763723772E+01  0.35464830640E+01 -0.47095890033E+03  0.47102692456E+03  0.00000000000E+00 0. -1.
        -15    1    1    2    0    0 -0.79823297357E+01  0.95274448589E+00 -0.52532841266E+01  0.97662701775E+01  0.17770000000E+01 0.  1.
         15    1    1    2    0    0  0.81553425984E+01 -0.47036312287E+01 -0.20403895108E+02  0.22541304847E+02  0.17770000000E+01 0.  1.
</event>
<event>
 6    1  0.4028964E-003  0.5131289E+03  0.7546771E-02  0.9370903E-01
        -11   -1    0    0    0    0  0.00000000000E+00  0.00000000000E+00  0.50000000000E+03  0.50000000000E+03  0.00000000000E+00 0.  1.
         11   -1    0    0    0    0 -0.00000000000E+00 -0.00000000000E+00 -0.50000000000E+03  0.50000000000E+03  0.00000000000E+00 0. -1.
        -11    1    1    2    0    0  0.32061615305E+01 -0.28669637546E+01  0.15324131013E+03  0.15330165714E+03  0.00000000000E+00 0.  1.
         11    1    1    2    0    0  0.48156241690E+02 -0.12816208218E+02 -0.48431412959E+03  0.48687108656E+03  0.00000000000E+00 0. -1.
        -15    1    1    2    0    0 -0.35757800779E+02 -0.17304348829E+02  0.31882255987E+03  0.32129276869E+03  0.17770000000E+01 0.  1.
         15    1    1    2    0    0 -0.15604602441E+02  0.32987520801E+02  0.12250259592E+02  0.38534487606E+02  0.17770000000E+01 0. -1.
</event>
<event>
 6    1  0.4028964E-003  0.5016140E+03  0.7546771E-02  0.9396205E-01
        -11   -1    0    0    0    0  0.00000000000E+00  0.00000000000E+00  0.50000000000E+03  0.50000000000E+03  0.00000000000E+00 0.  1.
         11   -1    0    0    0    0 -0.00000000000E+00 -0.00000000000E+00 -0.50000000000E+03  0.50000000000E+03  0.00000000000E+00 0. -1.
        -11    1    1    2    0    0  0.44382556123E+01  0.66491104828E+01  0.49832186149E+03  0.49838598136E+03  0.00000000000E+00 0.  1.
         11    1    1    2    0    0 -0.42445017243E+01 -0.49793966412E+01 -0.26334294400E+03  0.26342421366E+03  0.00000000000E+00 0. -1.
        -15    1    1    2    0    0  0.16731053086E+02  0.10861396348E+01 -0.58801485863E+02  0.61170910614E+02  0.17770000000E+01 0.  1.
         15    1    1    2    0    0 -0.16924806974E+02 -0.27558534765E+01 -0.17617743162E+03  0.17701889436E+03  0.17770000000E+01 0. -1.
</event>
<event>
 6    1  0.4028964E-003  0.5043094E+03  0.7546771E-02  0.9390218E-01
        -11   -1    0    0    0    0  0.00000000000E+00  0.00000000000E+00  0.50000000000E+03  0.50000000000E+03  0.00000000000E+00 0.  1.
         11   -1    0    0    0    0 -0.00000000000E+00 -0.00000000000E+00 -0.50000000000E+03  0.50000000000E+03  0.00000000000E+00 0. -1.
        -11    1    1    2    0    0  0.59679282509E+01 -0.73760754426E+01  0.49559975764E+03  0.49569057125E+03  0.00000000000E+00 0.  1.
         11    1    1    2    0    0 -0.53460152966E+01 -0.10759804471E+02 -0.37685311856E+03  0.37704459450E+03  0.00000000000E+00 0. -1.
        -15    1    1    2    0    0  0.86394009411E+01  0.19697499192E+02 -0.11498455663E+03  0.11699246436E+03  0.17770000000E+01 0.  1.
         15    1    1    2    0    0 -0.92613138955E+01 -0.15616192779E+01 -0.37620824462E+01  0.10272369891E+02  0.17770000000E+01 0. -1.
</event>
<event>
 6    1  0.4028964E-003  0.5104713E+03  0.7546771E-02  0.9376679E-01
        -11   -1    0    0    0    0  0.00000000000E+00  0.00000000000E+00  0.50000000000E+03  0.50000000000E+03  0.00000000000E+00 0.  1.
         11   -1    0    0    0    0 -0.00000000000E+00 -0.00000000000E+00 -0.50000000000E+03  0.50000000000E+03  0.00000000000E+00 0. -1.
        -11    1    1    2    0    0 -0.30038249965E+00 -0.82512404452E+01  0.48945906007E+03  0.48952869648E+03  0.00000000000E+00 0.  1.
         11    1    1    2    0    0 -0.98015490818E+01  0.69254257651E+01 -0.47344233414E+03  0.47359442104E+03  0.00000000000E+00 0. -1.
        -15    1    1    2    0    0  0.54999265346E+01  0.13525841774E+02  0.17005771169E+01  0.14807001017E+02  0.17770000000E+01 0.  1.
         15    1    1    2    0    0  0.46020050468E+01 -0.12200027094E+02 -0.17717303045E+02  0.22069881462E+02  0.17770000000E+01 0. -1.
</event>
<event>
 6    1  0.4028964E-003  0.4781296E+03  0.7546771E-02  0.9450122E-01
        -11   -1    0    0    0    0  0.00000000000E+00  0.00000000000E+00  0.50000000000E+03  0.50000000000E+03  0.00000000000E+00 0. -1.
         11   -1    0    0    0    0 -0.00000000000E+00 -0.00000000000E+00 -0.50000000000E+03  0.50000000000E+03  0.00000000000E+00 0.  1.
        -11    1    1    2    0    0  0.15162150073E+02  0.90686994040E+01  0.47190919732E+03  0.47223979356E+03  0.00000000000E+00 0. -1.
         11    1    1    2    0    0  0.20134886903E+02 -0.78989212978E+01 -0.48426847704E+03  0.48475123980E+03  0.00000000000E+00 0.  1.
        -15    1    1    2    0    0 -0.80139433931E+01  0.88361049747E+01  0.30126680016E+01  0.12431167979E+02  0.17770000000E+01 0.  1.
         15    1    1    2    0    0 -0.27283093584E+02 -0.10005883081E+02  0.93466117212E+01  0.30577798668E+02  0.17770000000E+01 0. -1.
</event>
<event>
 6    1  0.4028964E-003  0.5146755E+03  0.7546771E-02  0.9367558E-01
        -11   -1    0    0    0    0  0.00000000000E+00  0.00000000000E+00  0.50000000000E+03  0.50000000000E+03  0.00000000000E+00 0.  1.
         11   -1    0    0    0    0 -0.00000000000E+00 -0.00000000000E+00 -0.50000000000E+03  0.50000000000E+03  0.00000000000E+00 0.  1.
        -11    1    1    2    0    0  0.20810876588E+02  0.30359415672E+01  0.48486861508E+03  0.48532451351E+03  0.00000000000E+00 0.  1.
         11    1    1    2    0    0 -0.42745824698E+01  0.83179162900E+01 -0.47081604494E+03  0.47090891684E+03  0.00000000000E+00 0.  1.
        -15    1    1    2    0    0 -0.27113504965E+02 -0.59313407453E+01 -0.15199086339E+02  0.31693736117E+02  0.17770000000E+01 0.  1.
         15    1    1    2    0    0  0.10577210847E+02 -0.54225171119E+01  0.11465161917E+01  0.12072833533E+02  0.17770000000E+01 0. -1.
</event>
<event>
 6    1  0.4028964E-003  0.5056328E+03  0.7546771E-02  0.9387293E-01
        -11   -1    0    0    0    0  0.00000000000E+00  0.00000000000E+00  0.50000000000E+03  0.50000000000E+03  0.00000000000E+00 0. -1.
         11   -1    0    0    0    0 -0.00000000000E+00 -0.00000000000E+00 -0.50000000000E+03  0.50000000000E+03  0.00000000000E+00 0.  1.
        -11    1    1    2    0    0 -0.22869125561E+02 -0.80665214632E+01  0.49377203570E+03  0.49436716003E+03  0.00000000000E+00 0. -1.
         11    1    1    2    0    0  0.10967939804E+02  0.99596216669E+01 -0.29333501426E+03  0.29370890412E+03  0.00000000000E+00 0.  1.
        -15    1    1    2    0    0 -0.95638362765E+01 -0.68541034901E+01 -0.18398797818E+03  0.18437239365E+03  0.17770000000E+01 0.  1.
         15    1    1    2    0    0  0.21465022033E+02  0.49610032864E+01 -0.16449043264E+02  0.27551542203E+02  0.17770000000E+01 0. -1.
</event>
<event>
 6    1  0.4028964E-003  0.5090785E+03  0.7546771E-02  0.9379722E-01
        -11   -1    0    0    0    0  0.00000000000E+00  0.00000000000E+00  0.50000000000E+03  0.50000000000E+03  0.00000000000E+00 0. -1.
         11   -1    0    0    0    0 -0.00000000000E+00 -0.00000000000E+00 -0.50000000000E+03  0.50000000000E+03  0.00000000000E+00 0.  1.
        -11    1    1    2    0    0  0.75364939090E+01  0.72645470544E+01  0.49080992094E+03  0.49092153230E+03  0.00000000000E+00 0. -1.
         11    1    1    2    0    0 -0.58665523966E+01 -0.29411389627E+01 -0.48528417066E+03  0.48532854133E+03  0.00000000000E+00 0.  1.
        -15    1    1    2    0    0 -0.11830747699E+02 -0.40476423914E+01 -0.43810336157E+01  0.13367916239E+02  0.17770000000E+01 0.  1.
         15    1    1    2    0    0  0.10160806186E+02 -0.27576570032E+00 -0.11447166595E+01  0.10382010129E+02  0.17770000000E+01 0. -1.
</event>
<event>
 6    1  0.4028964E-003  0.5006082E+03  0.7546771E-02  0.9398450E-01
        -11   -1    0    0    0    0  0.00000000000E+00  0.00000000000E+00  0.50000000000E+03  0.50000000000E+03  0.00000000000E+00 0. -1.
         11   -1    0    0    0    0 -0.00000000000E+00 -0.00000000000E+00 -0.50000000000E+03  0.50000000000E+03  0.00000000000E+00 0.  1.
        -11    1    1    2    0    0  0.79991663231E+01  0.39251282636E+01  0.27440192622E+03  0.27454655417E+03  0.00000000000E+00 0. -1.
         11    1    1    2    0    0  0.92749309514E+01 -0.80893080145E+01 -0.49924013512E+03  0.49939180386E+03  0.00000000000E+00 0.  1.
        -15    1    1    2    0    0 -0.15170011191E+01 -0.26126327143E+01  0.97276238562E+02  0.97339362336E+02  0.17770000000E+01 0.  1.
         15    1    1    2    0    0 -0.15757096155E+02  0.67768124652E+01  0.12756197034E+03  0.12872227963E+03  0.17770000000E+01 0. -1.
</event>
<event>
 6    1  0.4028964E-003  0.5113378E+03  0.7546771E-02  0.9374792E-01
        -11   -1    0    0    0    0  0.00000000000E+00  0.00000000000E+00  0.50000000000E+03  0.50000000000E+03  0.00000000000E+00 0.  1.
         11   -1    0    0    0    0 -0.00000000000E+00 -0.00000000000E+00 -0.50000000000E+03  0.50000000000E+03  0.00000000000E+00 0.  1.
        -11    1    1    2    0    0  0.79125334626E+00  0.80284006182E+01  0.48859555547E+03  0.48866215131E+03  0.00000000000E+00 0.  1.
         11    1    1    2    0    0 -0.42879225596E+01 -0.30805525875E+01 -0.37176112687E+03  0.37179861691E+03  0.00000000000E+00 0.  1.
        -15    1    1    2    0    0  0.15824487410E+02 -0.37786212735E+02 -0.67543674363E+02  0.79015934786E+02  0.17770000000E+01 0. -1.
         15    1    1    2    0    0 -0.12327818197E+02  0.32838364704E+02 -0.49290754235E+02  0.60523297002E+02  0.17770000000E+01 0.  1.
</event>
<event>
 6    1  0.4028964E-003  0.5083545E+03  0.7546771E-02  0.9381308E-01
        -11   -1    0    0    0    0  0.00000000000E+00  0.00000000000E+00  0.50000000000E+03  0.50000000000E+03  0.00000000000E+00 0.  1.
         11   -1    0    0    0    0 -0.00000000000E+00 -0.00000000000E+00 -0.50000000000E+03  0.50000000000E+03  0.00000000000E+00 0.  1.
        -11    1    1    2    0    0 -0.86348973510E+01 -0.13410935945E+01  0.49156785242E+03  0.49164551611E+03  0.00000000000E+00 0.  1.
         11    1    1    2    0    0 -0.72494287595E+01  0.98961558509E+00 -0.46889642794E+03  0.46895350909E+03  0.00000000000E+00 0.  1.
        -15    1    1    2    0    0  0.98262932990E+01 -0.18609451640E+01 -0.28669681927E+02  0.30415909450E+02  0.17770000000E+01 0. -1.
         15    1    1    2    0    0  0.60580328115E+01  0.22124231734E+01  0.59982574496E+01  0.89850653461E+01  0.17770000000E+01 0.  1.
</event>
<event>
 6    1  0.4028964E-003  0.4552296E+03  0.7546771E-02  0.9505966E-01
        -11   -1    0    0    0    0  0.00000000000E+00  0.00000000000E+00  0.50000000000E+03  0.50000000000E+03  0.00000000000E+00 0.  1.
         11   -1    0    0    0    0 -0.00000000000E+00 -0.00000000000E+00 -0.50000000000E+03  0.50000000000E+03  0.00000000000E+00 0. -1.
        -11    1    1    2    0    0 -0.24351298305E+01 -0.10450122357E+02  0.46091021078E+03  0.46103509337E+03  0.00000000000E+00 0.  1.
         11    1    1    2    0    0 -0.18614019689E+02  0.57976855171E+01 -0.15015323157E+02  0.24608023404E+02  0.00000000000E+00 0. -1.
        -15    1    1    2    0    0 -0.34522191176E+02 -0.25649845103E+02 -0.44890525418E+03  0.45096427929E+03  0.17770000000E+01 0. -1.
         15    1    1    2    0    0  0.55571340696E+02  0.30302281943E+02  0.30103665576E+01  0.63392603934E+02  0.17770000000E+01 0.  1.
</event>
<event>
 6    1  0.4028964E-003  0.5011227E+03  0.7546771E-02  0.9397301E-01
        -11   -1    0    0    0    0  0.00000000000E+00  0.00000000000E+00  0.50000000000E+03  0.50000000000E+03  0.00000000000E+00 0.  1.
         11   -1    0    0    0    0 -0.00000000000E+00 -0.00000000000E+00 -0.50000000000E+03  0.50000000000E+03  0.00000000000E+00 0. -1.
        -11    1    1    2    0    0  0.66859813474E+01  0.25459623758E+01  0.43544633434E+03  0.43550510257E+03  0.00000000000E+00 0.  1.
         11    1    1    2    0    0 -0.79643913208E+01  0.46516217868E+01 -0.49879204086E+03  0.49887730871E+03  0.00000000000E+00 0. -1.
        -15    1    1    2    0    0 -0.31347308359E+00 -0.47029599022E+01  0.61494968470E+02  0.61700931706E+02  0.17770000000E+01 0. -1.
         15    1    1    2    0    0  0.15918830570E+01 -0.24946242603E+01  0.18507380521E+01  0.39166570191E+01  0.17770000000E+01 0.  1.
</event>
<event>
 6    1  0.5118756E-003  0.5008837E+03  0.7546771E-02  0.9397835E-01
        -11   -1    0    0    0    0  0.00000000000E+00  0.00000000000E+00  0.50000000000E+03  0.50000000000E+03  0.00000000000E+00 0.  1.
         11   -1    0    0    0    0 -0.00000000000E+00 -0.00000000000E+00 -0.50000000000E+03  0.50000000000E+03  0.00000000000E+00 0. -1.
        -11    1    1    2    0    0 -0.10079772840E+02  0.26171621085E+01  0.49900768466E+03  0.49911633985E+03  0.00000000000E+00 0.  1.
         11    1    1    2    0    0 -0.26636919948E+00 -0.52199968958E+01 -0.37678787188E+03  0.37682412305E+03  0.00000000000E+00 0. -1.
        -15    1    1    2    0    0  0.86037029855E+01 -0.23270597014E+01 -0.23665068589E+02  0.25350189590E+02  0.17770000000E+01 0. -1.
         15    1    1    2    0    0  0.17424390536E+01  0.49298944887E+01 -0.98554744190E+02  0.98709347505E+02  0.17770000000E+01 0.  1.
</event>
<event>
 6    1  0.4028964E-003  0.5005185E+03  0.7546771E-02  0.9398650E-01
        -11   -1    0    0    0    0  0.00000000000E+00  0.00000000000E+00  0.50000000000E+03  0.50000000000E+03  0.00000000000E+00 0. -1.
         11   -1    0    0    0    0 -0.00000000000E+00 -0.00000000000E+00 -0.50000000000E+03  0.50000000000E+03  0.00000000000E+00 0.  1.
        -11    1    1    2    0    0 -0.27176903928E+01  0.40741209284E+01  0.23415221178E+03  0.23420342137E+03  0.00000000000E+00 0. -1.
         11    1    1    2    0    0 -0.56108864235E+01 -0.10074065195E+02 -0.49934833717E+03  0.49948146178E+03  0.00000000000E+00 0.  1.
        -15    1    1    2    0    0 -0.22487351078E+01  0.55850847911E+01  0.20950693517E+03  0.20960096277E+03  0.17770000000E+01 0. -1.
         15    1    1    2    0    0  0.10577311924E+02  0.41485947583E+00  0.55689190218E+02  0.56714154071E+02  0.17770000000E+01 0.  1.
</event>
<event>
 6    1  0.4028964E-003  0.5154957E+03  0.7546771E-02  0.9365789E-01
        -11   -1    0    0    0    0  0.00000000000E+00  0.00000000000E+00  0.50000000000E+03  0.50000000000E+03  0.00000000000E+00 0. -1.
         11   -1    0    0    0    0 -0.00000000000E+00 -0.00000000000E+00 -0.50000000000E+03  0.50000000000E+03  0.00000000000E+00 0.  1.
        -11    1    1    2    0    0 -0.10876661143E+02  0.32084511078E+00  0.48438212147E+03  0.48450432847E+03  0.00000000000E+00 0. -1.
         11    1    1    2    0    0  0.22246740481E+01 -0.66567013405E+01 -0.38811847247E+03  0.38818192838E+03  0.00000000000E+00 0.  1.
        -15    1    1    2    0    0  0.10888010264E+02  0.32202382563E+01  0.13351896020E+02  0.17616740852E+02  0.17770000000E+01 0.  1.
         15    1    1    2    0    0 -0.22360231696E+01  0.31156179734E+01 -0.10961554502E+03  0.10969700230E+03  0.17770000000E+01 0.  1.
</event>
<event>
 6    1  0.4028964E-003  0.5266169E+03  0.7546771E-02  0.9342146E-01
        -11   -1    0    0    0    0  0.00000000000E+00  0.00000000000E+00  0.50000000000E+03  0.50000000000E+03  0.00000000000E+00 0.  1.
         11   -1    0    0    0    0 -0.00000000000E+00 -0.00000000000E+00 -0.50000000000E+03  0.50000000000E+03  0.00000000000E+00 0. -1.
        -11    1    1    2    0    0  0.23008734204E+02  0.95703447318E+01  0.39459062630E+03  0.39537672632E+03  0.00000000000E+00 0.  1.
         11    1    1    2    0    0  0.26173228116E+01 -0.11658190661E+02 -0.47323230315E+03  0.47338311813E+03  0.00000000000E+00 0. -1.
        -15    1    1    2    0    0 -0.15477127581E+02 -0.78935896969E-01 -0.23698062267E+02  0.28360246706E+02  0.17770000000E+01 0.  1.
         15    1    1    2    0    0 -0.10148929434E+02  0.21667818267E+01  0.10233973912E+03  0.10287990884E+03  0.17770000000E+01 0. -1.
</event>
<event>
 6    1  0.4028964E-003  0.5004923E+03  0.7546771E-02  0.9398709E-01
        -11   -1    0    0    0    0  0.00000000000E+00  0.00000000000E+00  0.50000000000E+03  0.50000000000E+03  0.00000000000E+00 0.  1.
         11   -1    0    0    0    0 -0.00000000000E+00 -0.00000000000E+00 -0.50000000000E+03  0.50000000000E+03  0.00000000000E+00 0.  1.
        -11    1    1    2    0    0 -0.30142895329E+01  0.65701055699E+01  0.25584487678E+03  0.25594697342E+03  0.00000000000E+00 0.  1.
         11    1    1    2    0    0  0.69052131403E-01 -0.17042312502E+02 -0.49921687896E+03  0.49950769505E+03  0.00000000000E+00 0.  1.
        -15    1    1    2    0    0  0.54887904007E+01  0.54217755473E+00  0.19412394998E+03  0.19421041800E+03  0.17770000000E+01 0.  1.
         15    1    1    2    0    0 -0.25435529992E+01  0.99300293770E+01  0.49248052201E+02  0.50334913528E+02  0.17770000000E+01 0. -1.
</event>
<event>
 6    1  0.4028964E-003  0.5093408E+03  0.7546771E-02  0.9379148E-01
        -11   -1    0    0    0    0  0.00000000000E+00  0.00000000000E+00  0.50000000000E+03  0.50000000000E+03  0.00000000000E+00 0.  1.
         11   -1    0    0    0    0 -0.00000000000E+00 -0.00000000000E+00 -0.50000000000E+03  0.50000000000E+03  0.00000000000E+00 0.  1.
        -11    1    1    2    0    0 -0.12814396223E+02  0.17946689435E+02  0.49016340371E+03  0.49065920428E+03  0.00000000000E+00 0.  1.
         11    1    1    2    0    0  0.10644673012E+02 -0.10428502203E+02 -0.47177824934E+03  0.47201353717E+03  0.00000000000E+00 0.  1.
        -15    1    1    2    0    0 -0.59405999072E+01  0.10719963547E+02 -0.81537353505E+01  0.14827321905E+02  0.17770000000E+01 0. -1.
         15    1    1    2    0    0  0.81103231177E+01 -0.18238150779E+02 -0.10231419012E+02  0.22499936642E+02  0.17770000000E+01 0.  1.
</event>
<event>
 6    1  0.4028964E-003  0.5093703E+03  0.7546771E-02  0.9379084E-01
        -11   -1    0    0    0    0  0.00000000000E+00  0.00000000000E+00  0.50000000000E+03  0.50000000000E+03  0.00000000000E+00 0.  1.
         11   -1    0    0    0    0 -0.00000000000E+00 -0.00000000000E+00 -0.50000000000E+03  0.50000000000E+03  0.00000000000E+00 0.  1.
        -11    1    1    2    0    0 -0.43827363946E+01  0.46503217495E+01  0.46975274686E+03  0.46979620800E+03  0.00000000000E+00 0.  1.
         11    1    1    2    0    0  0.10814471047E+02  0.36943145342E+01 -0.49049662752E+03  0.49062974059E+03  0.00000000000E+00 0.  1.
        -15    1    1    2    0    0  0.16359547234E+01 -0.69174104119E+01  0.27717327447E+02  0.28669406769E+02  0.17770000000E+01 0. -1.
         15    1    1    2    0    0 -0.80676893756E+01 -0.14272258717E+01 -0.69734467837E+01  0.10904644634E+02  0.17770000000E+01 0.  1.
</event>
<event>
 6    1  0.4028964E-003  0.5000617E+03  0.7546771E-02  0.9399672E-01
        -11   -1    0    0    0    0  0.00000000000E+00  0.00000000000E+00  0.50000000000E+03  0.50000000000E+03  0.00000000000E+00 0. -1.
         11   -1    0    0    0    0 -0.00000000000E+00 -0.00000000000E+00 -0.50000000000E+03  0.50000000000E+03  0.00000000000E+00 0.  1.
        -11    1    1    2    0    0 -0.66957606455E+01 -0.28867204324E+01  0.49988508862E+03  0.49993826438E+03  0.00000000000E+00 0. -1.
         11    1    1    2    0    0  0.76690359111E+00  0.41130622382E+01 -0.21831157747E+03  0.21835166654E+03  0.00000000000E+00 0.  1.
        -15    1    1    2    0    0  0.43488521949E+01 -0.25971005897E+01 -0.12866741629E+03  0.12877934303E+03  0.17770000000E+01 0. -1.
         15    1    1    2    0    0  0.15800048594E+01  0.13707587838E+01 -0.15290609486E+03  0.15293072605E+03  0.17770000000E+01 0.  1.
</event>
<event>
 6    1  0.4028964E-003  0.5016630E+03  0.7546771E-02  0.9396096E-01
        -11   -1    0    0    0    0  0.00000000000E+00  0.00000000000E+00  0.50000000000E+03  0.50000000000E+03  0.00000000000E+00 0.  1.
         11   -1    0    0    0    0 -0.00000000000E+00 -0.00000000000E+00 -0.50000000000E+03  0.50000000000E+03  0.00000000000E+00 0.  1.
        -11    1    1    2    0    0  0.19232043505E+01 -0.75863000017E+01  0.46708738935E+03  0.46715295135E+03  0.00000000000E+00 0.  1.
         11    1    1    2    0    0 -0.80964232944E+01  0.27491977095E+01 -0.49826368595E+03  0.49833704548E+03  0.00000000000E+00 0.  1.
        -15    1    1    2    0    0  0.82665247871E+00  0.15076910690E+01 -0.17887405469E+00  0.24791554222E+01  0.17770000000E+01 0.  1.
         15    1    1    2    0    0  0.53465664651E+01  0.33294112233E+01  0.31355170653E+02  0.32030847752E+02  0.17770000000E+01 0. -1.
</event>
<event>
 6    1  0.4028964E-003  0.5004055E+03  0.7546771E-02  0.9398903E-01
        -11   -1    0    0    0    0  0.00000000000E+00  0.00000000000E+00  0.50000000000E+03  0.50000000000E+03  0.00000000000E+00 0.  1.
         11   -1    0    0    0    0 -0.00000000000E+00 -0.00000000000E+00 -0.50000000000E+03  0.50000000000E+03  0.00000000000E+00 0.  1.
        -11    1    1    2    0    0  0.29023341820E+01  0.27834516481E+01  0.29718578154E+03  0.29721298743E+03  0.00000000000E+00 0.  1.
         11    1    1    2    0    0 -0.93287381337E+01  0.51069343265E+01 -0.49948127895E+03  0.49959448972E+03  0.00000000000E+00 0.  1.
        -15    1    1    2    0    0 -0.36592775767E+00 -0.15856942328E+01  0.15202280384E+03  0.15204189865E+03  0.17770000000E+01 0. -1.
         15    1    1    2    0    0  0.67923317094E+01 -0.63046917419E+01  0.50272693577E+02  0.51150624204E+02  0.17770000000E+01 0.  1.
</event>
<event>
 6    1  0.4028964E-003  0.5036829E+03  0.7546771E-02  0.9391606E-01
        -11   -1    0    0    0    0  0.00000000000E+00  0.00000000000E+00  0.50000000000E+03  0.50000000000E+03  0.00000000000E+00 0.  1.
         11   -1    0    0    0    0 -0.00000000000E+00 -0.00000000000E+00 -0.50000000000E+03  0.50000000000E+03  0.00000000000E+00 0.  1.
        -11    1    1    2    0    0 -0.64763744506E+01  0.12095881383E+02  0.49612742623E+03  0.49631711318E+03  0.00000000000E+00 0.  1.
         11    1    1    2    0    0  0.34154553306E+01 -0.38466180431E+01 -0.32096426632E+03  0.32100548603E+03  0.00000000000E+00 0.  1.
        -15    1    1    2    0    0  0.13789120143E+02 -0.90752189958E+01 -0.16964425755E+03  0.17045477782E+03  0.17770000000E+01 0.  1.
         15    1    1    2    0    0 -0.10728201023E+02  0.82595565612E+00 -0.55189023615E+01  0.12222622967E+02  0.17770000000E+01 0. -1.
</event>
<event>
 6    1  0.4028964E-003  0.5024684E+03  0.7546771E-02  0.9394303E-01
        -11   -1    0    0    0    0  0.00000000000E+00  0.00000000000E+00  0.50000000000E+03  0.50000000000E+03  0.00000000000E+00 0.  1.
         11   -1    0    0    0    0 -0.00000000000E+00 -0.00000000000E+00 -0.50000000000E+03  0.50000000000E+03  0.00000000000E+00 0.  1.
        -11    1    1    2    0    0  0.27294550756E+01 -0.73549861342E+01  0.49746978698E+03  0.49753164191E+03  0.00000000000E+00 0.  1.
         11    1    1    2    0    0 -0.84719948847E+01 -0.17492971312E+02 -0.37048589150E+03  0.37099538345E+03  0.00000000000E+00 0.  1.
        -15    1    1    2    0    0  0.16581931455E+01  0.13736570884E+01 -0.60672343488E+00  0.28569880348E+01  0.17770000000E+01 0.  1.
         15    1    1    2    0    0  0.40843466636E+01  0.23474300358E+02 -0.12637717205E+03  0.12861598660E+03  0.17770000000E+01 0. -1.
</event>
<event>
 6    1  0.4028964E-003  0.5002134E+03  0.7546771E-02  0.9399332E-01
        -11   -1    0    0    0    0  0.00000000000E+00  0.00000000000E+00  0.50000000000E+03  0.50000000000E+03  0.00000000000E+00 0. -1.
         11   -1    0    0    0    0 -0.00000000000E+00 -0.00000000000E+00 -0.50000000000E+03  0.50000000000E+03  0.00000000000E+00 0. -1.
        -11    1    1    2    0    0  0.16402722607E+01 -0.17184133101E+01  0.12130342240E+03  0.12132668183E+03  0.00000000000E+00 0. -1.
         11    1    1    2    0    0  0.49099649312E+01  0.65247371939E+01 -0.49971989305E+03  0.49978660592E+03  0.00000000000E+00 0. -1.
        -15    1    1    2    0    0  0.86883786815E-01  0.58876982423E+01  0.12904620194E+03  0.12919269524E+03  0.17770000000E+01 0.  1.
         15    1    1    2    0    0 -0.66371209787E+01 -0.10694022126E+02  0.24937026870E+03  0.24969401700E+03  0.17770000000E+01 0. -1.
</event>
<event>
 6    1  0.4028964E-003  0.5079334E+03  0.7546771E-02  0.9382231E-01
        -11   -1    0    0    0    0  0.00000000000E+00  0.00000000000E+00  0.50000000000E+03  0.50000000000E+03  0.00000000000E+00 0. -1.
         11   -1    0    0    0    0 -0.00000000000E+00 -0.00000000000E+00 -0.50000000000E+03  0.50000000000E+03  0.00000000000E+00 0.  1.
        -11    1    1    2    0    0 -0.45123135711E+01  0.92439081891E+01  0.49195904503E+03  0.49206657354E+03  0.00000000000E+00 0. -1.
         11    1    1    2    0    0  0.54547363557E+01  0.60328864528E+01 -0.42655840095E+03  0.42663593296E+03  0.00000000000E+00 0.  1.
        -15    1    1    2    0    0  0.81198414971E+01 -0.15722523951E+02 -0.27829209492E+01  0.18000887848E+02  0.17770000000E+01 0.  1.
         15    1    1    2    0    0 -0.90622642818E+01  0.44572930890E+00 -0.62617723127E+02  0.63296605652E+02  0.17770000000E+01 0. -1.
</event>
<event>
 6    1  0.4028964E-003  0.5073715E+03  0.7546771E-02  0.9383465E-01
        -11   -1    0    0    0    0  0.00000000000E+00  0.00000000000E+00  0.50000000000E+03  0.50000000000E+03  0.00000000000E+00 0. -1.
         11   -1    0    0    0    0 -0.00000000000E+00 -0.00000000000E+00 -0.50000000000E+03  0.50000000000E+03  0.00000000000E+00 0.  1.
        -11    1    1    2    0    0  0.48341199404E+01  0.56041149153E+01  0.43121971352E+03  0.43128322034E+03  0.00000000000E+00 0. -1.
         11    1    1    2    0    0 -0.63258813739E+01 -0.12869903347E+02 -0.49241974817E+03  0.49262852087E+03  0.00000000000E+00 0.  1.
        -15    1    1    2    0    0 -0.12659841032E+01 -0.15700298716E+02  0.45220636662E+02  0.47918324309E+02  0.17770000000E+01 0.  1.
         15    1    1    2    0    0  0.27577455367E+01  0.22966087148E+02  0.15979397990E+02  0.28169934477E+02  0.17770000000E+01 0. -1.
</event>
<event>
 6    1  0.4028964E-003  0.5021796E+03  0.7546771E-02  0.9394946E-01
        -11   -1    0    0    0    0  0.00000000000E+00  0.00000000000E+00  0.50000000000E+03  0.50000000000E+03  0.00000000000E+00 0.  1.
         11   -1    0    0    0    0 -0.00000000000E+00 -0.00000000000E+00 -0.50000000000E+03  0.50000000000E+03  0.00000000000E+00 0. -1.
        -11    1    1    2    0    0  0.28574712370E+02 -0.47670721234E+01  0.49697674698E+03  0.49782037544E+03  0.00000000000E+00 0.  1.
         11    1    1    2    0    0  0.60892639501E+00 -0.50930632048E+01 -0.37154813771E+03  0.37158354205E+03  0.00000000000E+00 0. -1.
        -15    1    1    2    0    0 -0.27989734748E+02  0.19933930934E+01 -0.92925496408E+02  0.97086067378E+02  0.17770000000E+01 0.  1.
         15    1    1    2    0    0 -0.11939040174E+01  0.78667422348E+01 -0.32503112853E+02  0.33510015135E+02  0.17770000000E+01 0. -1.
</event>
<event>
 6    1  0.4028964E-003  0.4780442E+03  0.7546771E-02  0.9450324E-01
        -11   -1    0    0    0    0  0.00000000000E+00  0.00000000000E+00  0.50000000000E+03  0.50000000000E+03  0.00000000000E+00 0.  1.
         11   -1    0    0    0    0 -0.00000000000E+00 -0.00000000000E+00 -0.50000000000E+03  0.50000000000E+03  0.00000000000E+00 0. -1.
        -11    1    1    2    0    0  0.58146411788E+01 -0.46793188832E+01  0.47333973606E+03  0.47339857605E+03  0.00000000000E+00 0.  1.
         11    1    1    2    0    0  0.11940420429E+02  0.33783320940E+01 -0.48274235958E+03  0.48290182491E+03  0.00000000000E+00 0. -1.
        -15    1    1    2    0    0 -0.12439191663E+02  0.10087109601E+02  0.22050893123E+02  0.27310856556E+02  0.17770000000E+01 0. -1.
         15    1    1    2    0    0 -0.53158699452E+01 -0.87861228113E+01 -0.12648269604E+02  0.16388742487E+02  0.17770000000E+01 0.  1.
</event>
<event>
 6    1  0.4028964E-003  0.5025729E+03  0.7546771E-02  0.9394071E-01
        -11   -1    0    0    0    0  0.00000000000E+00  0.00000000000E+00  0.50000000000E+03  0.50000000000E+03  0.00000000000E+00 0. -1.
         11   -1    0    0    0    0 -0.00000000000E+00 -0.00000000000E+00 -0.50000000000E+03  0.50000000000E+03  0.00000000000E+00 0. -1.
        -11    1    1    2    0    0 -0.40938496857E+00  0.75587996429E+01  0.49736949000E+03  0.49742709278E+03  0.00000000000E+00 0. -1.
         11    1    1    2    0    0 -0.26821592331E+01  0.83227476874E+01 -0.41770085695E+03  0.41779237427E+03  0.00000000000E+00 0. -1.
        -15    1    1    2    0    0  0.49050944512E+01 -0.27126072567E+01 -0.63508413715E+02  0.63780048066E+02  0.17770000000E+01 0. -1.
         15    1    1    2    0    0 -0.18135502496E+01 -0.13168940074E+02 -0.16160219339E+02  0.21000484881E+02  0.17770000000E+01 0.  1.
</event>
<event>
 6    1  0.4028964E-003  0.5183974E+03  0.7546771E-02  0.9359560E-01
        -11   -1    0    0    0    0  0.00000000000E+00  0.00000000000E+00  0.50000000000E+03  0.50000000000E+03  0.00000000000E+00 0.  1.
         11   -1    0    0    0    0 -0.00000000000E+00 -0.00000000000E+00 -0.50000000000E+03  0.50000000000E+03  0.00000000000E+00 0. -1.
        -11    1    1    2    0    0  0.24311471472E+02  0.86707214267E+02  0.47310871546E+03  0.48160258025E+03  0.00000000000E+00 0.  1.
         11    1    1    2    0    0 -0.26763792452E+02  0.71832314720E+01 -0.30802185898E+03  0.30926584843E+03  0.00000000000E+00 0. -1.
        -15    1    1    2    0    0  0.18372250323E+02 -0.29336301550E+02 -0.12876504677E+03  0.13334824022E+03  0.17770000000E+01 0.  1.
         15    1    1    2    0    0 -0.15919929343E+02 -0.64554144189E+02 -0.36321809714E+02  0.75783331097E+02  0.17770000000E+01 0. -1.
</event>
<event>
 6    1  0.4028964E-003  0.5123535E+03  0.7546771E-02  0.9372584E-01
        -11   -1    0    0    0    0  0.00000000000E+00  0.00000000000E+00  0.50000000000E+03  0.50000000000E+03  0.00000000000E+00 0. -1.
         11   -1    0    0    0    0 -0.00000000000E+00 -0.00000000000E+00 -0.50000000000E+03  0.50000000000E+03  0.00000000000E+00 0.  1.
        -11    1    1    2    0    0  0.96203961777E+01 -0.10806366577E+01  0.43914005346E+03  0.43924674882E+03  0.00000000000E+00 0. -1.
         11    1    1    2    0    0 -0.21127478503E+02  0.95578395841E+00 -0.48718768070E+03  0.48764651141E+03  0.00000000000E+00 0.  1.
        -15    1    1    2    0    0  0.14643698312E+02 -0.14588291884E+02  0.53203182316E+02  0.57105100454E+02  0.17770000000E+01 0. -1.
         15    1    1    2    0    0 -0.31366159866E+01  0.14713144583E+02 -0.51555550831E+01  0.16001639309E+02  0.17770000000E+01 0.  1.
</event>
<event>
 6    1  0.4028964E-003  0.5028482E+03  0.7546771E-02  0.9393459E-01
        -11   -1    0    0    0    0  0.00000000000E+00  0.00000000000E+00  0.50000000000E+03  0.50000000000E+03  0.00000000000E+00 0.  1.
         11   -1    0    0    0    0 -0.00000000000E+00 -0.00000000000E+00 -0.50000000000E+03  0.50000000000E+03  0.00000000000E+00 0.  1.
        -11    1    1    2    0    0 -0.11274303462E+02  0.61600993107E+01  0.14147618276E+03  0.14205832263E+03  0.00000000000E+00 0.  1.
         11    1    1    2    0    0  0.81559152117E+01  0.18094809092E+02 -0.49675546353E+03  0.49715181948E+03  0.00000000000E+00 0.  1.
        -15    1    1    2    0    0  0.18974857018E+01 -0.91788984401E+01  0.33639297848E+03  0.33652822516E+03  0.17770000000E+01 0.  1.
         15    1    1    2    0    0  0.12209025488E+01 -0.15076009963E+02  0.18886302287E+02  0.24261632726E+02  0.17770000000E+01 0. -1.
</event>
<event>
 6    1  0.4028964E-003  0.5270473E+03  0.7546771E-02  0.9341243E-01
        -11   -1    0    0    0    0  0.00000000000E+00  0.00000000000E+00  0.50000000000E+03  0.50000000000E+03  0.00000000000E+00 0. -1.
         11   -1    0    0    0    0 -0.00000000000E+00 -0.00000000000E+00 -0.50000000000E+03  0.50000000000E+03  0.00000000000E+00 0.  1.
        -11    1    1    2    0    0  0.91404093949E+01  0.26764960702E+01  0.44512558137E+03  0.44522746311E+03  0.00000000000E+00 0. -1.
         11    1    1    2    0    0 -0.33293296455E+02  0.12155708884E+02 -0.47162281956E+03  0.47295273419E+03  0.00000000000E+00 0.  1.
        -15    1    1    2    0    0 -0.77051754444E+01 -0.20246198705E+02  0.40961382441E+02  0.46371013264E+02  0.17770000000E+01 0.  1.
         15    1    1    2    0    0  0.31858062504E+02  0.54139937509E+01 -0.14464144246E+02  0.35448789438E+02  0.17770000000E+01 0. -1.
</event>
<event>
 6    1  0.4028964E-003  0.5682954E+03  0.7546771E-02  0.9258756E-01
        -11   -1    0    0    0    0  0.00000000000E+00  0.00000000000E+00  0.50000000000E+03  0.50000000000E+03  0.00000000000E+00 0. -1.
         11   -1    0    0    0    0 -0.00000000000E+00 -0.00000000000E+00 -0.50000000000E+03  0.50000000000E+03  0.00000000000E+00 0.  1.
        -11    1    1    2    0    0  0.57668357602E+02  0.11170073450E+01  0.42783407929E+03  0.43170462886E+03  0.00000000000E+00 0. -1.
         11    1    1    2    0    0 -0.54887371200E+01  0.40257410133E+01 -0.26568544147E+03  0.26577262206E+03  0.00000000000E+00 0.  1.
        -15    1    1    2    0    0  0.48997674641E+02  0.66378838606E+02  0.17426004712E+02  0.84343024039E+02  0.17770000000E+01 0. -1.
         15    1    1    2    0    0 -0.10117729512E+03 -0.71521586964E+02 -0.17957464254E+03  0.21817972505E+03  0.17770000000E+01 0.  1.
</event>
<event>
 6    1  0.4028964E-003  0.4662585E+03  0.7546771E-02  0.9478645E-01
        -11   -1    0    0    0    0  0.00000000000E+00  0.00000000000E+00  0.50000000000E+03  0.50000000000E+03  0.00000000000E+00 0. -1.
         11   -1    0    0    0    0 -0.00000000000E+00 -0.00000000000E+00 -0.50000000000E+03  0.50000000000E+03  0.00000000000E+00 0. -1.
        -11    1    1    2    0    0 -0.20866862080E+02 -0.19222388625E+01  0.46151595698E+03  0.46199144958E+03  0.00000000000E+00 0. -1.
         11    1    1    2    0    0 -0.47206718793E+01  0.29685104041E+02 -0.47037206287E+03  0.47133148386E+03  0.00000000000E+00 0. -1.
        -15    1    1    2    0    0  0.20196185853E+02 -0.67951536994E+00  0.26863205035E+02  0.33662102993E+02  0.17770000000E+01 0. -1.
         15    1    1    2    0    0  0.53913481060E+01 -0.27083349808E+02 -0.18007099145E+02  0.33014963575E+02  0.17770000000E+01 0.  1.
</event>
<event>
 6    1  0.4028964E-003  0.5256877E+03  0.7546771E-02  0.9344098E-01
        -11   -1    0    0    0    0  0.00000000000E+00  0.00000000000E+00  0.50000000000E+03  0.50000000000E+03  0.00000000000E+00 0. -1.
         11   -1    0    0    0    0 -0.00000000000E+00 -0.00000000000E+00 -0.50000000000E+03  0.50000000000E+03  0.00000000000E+00 0. -1.
        -11    1    1    2    0    0 -0.18725637124E+02 -0.46839292066E+02  0.29517371127E+03  0.29945298227E+03  0.00000000000E+00 0. -1.
         11    1    1    2    0    0 -0.67791512262E+01 -0.49485437893E+01 -0.47423807918E+03  0.47431234511E+03  0.00000000000E+00 0. -1.
        -15    1    1    2    0    0  0.24954639995E+02  0.86577077679E+02  0.16626723408E+03  0.18911973798E+03  0.17770000000E+01 0. -1.
         15    1    1    2    0    0  0.55014835507E+00 -0.34789241823E+02  0.12797133836E+02  0.37114934639E+02  0.17770000000E+01 0.  1.
</event>
<event>
 6    1  0.4028964E-003  0.5595392E+03  0.7546771E-02  0.9275633E-01
        -11   -1    0    0    0    0  0.00000000000E+00  0.00000000000E+00  0.50000000000E+03  0.50000000000E+03  0.00000000000E+00 0.  1.
         11   -1    0    0    0    0 -0.00000000000E+00 -0.00000000000E+00 -0.50000000000E+03  0.50000000000E+03  0.00000000000E+00 0. -1.
        -11    1    1    2    0    0 -0.73064479047E+01  0.40412836440E+01  0.44038165034E+03  0.44046079748E+03  0.00000000000E+00 0.  1.
         11    1    1    2    0    0 -0.96284422249E+01 -0.59627655844E+01 -0.36409959863E+03  0.36427569119E+03  0.00000000000E+00 0. -1.
        -15    1    1    2    0    0 -0.34716994003E+02  0.34227416074E+01  0.48744266959E+02  0.59967875759E+02  0.17770000000E+01 0. -1.
         15    1    1    2    0    0  0.51651884133E+02 -0.15012596670E+01 -0.12502631867E+03  0.13529563557E+03  0.17770000000E+01 0.  1.
</event>
<event>
 6    1  0.4028964E-003  0.5123594E+03  0.7546771E-02  0.9372572E-01
        -11   -1    0    0    0    0  0.00000000000E+00  0.00000000000E+00  0.50000000000E+03  0.50000000000E+03  0.00000000000E+00 0.  1.
         11   -1    0    0    0    0 -0.00000000000E+00 -0.00000000000E+00 -0.50000000000E+03  0.50000000000E+03  0.00000000000E+00 0. -1.
        -11    1    1    2    0    0  0.21452769815E+01 -0.75138851848E+01  0.48757800148E+03  0.48764061378E+03  0.00000000000E+00 0.  1.
         11    1    1    2    0    0 -0.85449380667E+01  0.52305387611E+00 -0.45690058137E+03  0.45698077728E+03  0.00000000000E+00 0. -1.
        -15    1    1    2    0    0 -0.19254005676E+02  0.51989964342E+01 -0.16592035432E+02  0.26003839472E+02  0.17770000000E+01 0.  1.
         15    1    1    2    0    0  0.25653666762E+02  0.17918348745E+01 -0.14085384681E+02  0.29374769465E+02  0.17770000000E+01 0. -1.
</event>
<event>
 6    1  0.4028964E-003  0.5007897E+03  0.7546771E-02  0.9398044E-01
        -11   -1    0    0    0    0  0.00000000000E+00  0.00000000000E+00  0.50000000000E+03  0.50000000000E+03  0.00000000000E+00 0.  1.
         11   -1    0    0    0    0 -0.00000000000E+00 -0.00000000000E+00 -0.50000000000E+03  0.50000000000E+03  0.00000000000E+00 0.  1.
        -11    1    1    2    0    0 -0.46933909069E+01 -0.10325952162E+02  0.33657169993E+03  0.33676276872E+03  0.00000000000E+00 0.  1.
         11    1    1    2    0    0  0.37979741049E+01  0.90349983446E+01 -0.49911408590E+03  0.49921030292E+03  0.00000000000E+00 0.  1.
        -15    1    1    2    0    0 -0.27738883379E+01 -0.45954798559E+01  0.11499484703E+02  0.12814396945E+02  0.17770000000E+01 0. -1.
         15    1    1    2    0    0  0.36693051399E+01  0.58864336735E+01  0.15104290127E+03  0.15121253141E+03  0.17770000000E+01 0.  1.
</event>
<event>
 6    1  0.4028964E-003  0.5030826E+03  0.7546771E-02  0.9392938E-01
        -11   -1    0    0    0    0  0.00000000000E+00  0.00000000000E+00  0.50000000000E+03  0.50000000000E+03  0.00000000000E+00 0.  1.
         11   -1    0    0    0    0 -0.00000000000E+00 -0.00000000000E+00 -0.50000000000E+03  0.50000000000E+03  0.00000000000E+00 0.  1.
        -11    1    1    2    0    0 -0.15588563553E+02 -0.17219257527E+02  0.44507349863E+03  0.44567917309E+03  0.00000000000E+00 0.  1.
         11    1    1    2    0    0  0.94627439739E+01 -0.65220281151E+00 -0.49682681510E+03  0.49691735037E+03  0.00000000000E+00 0.  1.
        -15    1    1    2    0    0  0.10601410193E+02  0.15576307739E+02  0.34572080903E+02  0.39413167442E+02  0.17770000000E+01 0. -1.
         15    1    1    2    0    0 -0.44755906136E+01  0.22951525989E+01  0.17181235570E+02  0.17990309100E+02  0.17770000000E+01 0.  1.
</event>
<event>
 6    1  0.4028964E-003  0.5025251E+03  0.7546771E-02  0.9394177E-01
        -11   -1    0    0    0    0  0.00000000000E+00  0.00000000000E+00  0.50000000000E+03  0.50000000000E+03  0.00000000000E+00 0. -1.
         11   -1    0    0    0    0 -0.00000000000E+00 -0.00000000000E+00 -0.50000000000E+03  0.50000000000E+03  0.00000000000E+00 0.  1.
        -11    1    1    2    0    0  0.60936381974E+01  0.33481569443E+01  0.48223690611E+03  0.48228702677E+03  0.00000000000E+00 0. -1.
         11    1    1    2    0    0 -0.48882580219E+01 -0.74665601734E+01 -0.49739479901E+03  0.49747485431E+03  0.00000000000E+00 0.  1.
        -15    1    1    2    0    0 -0.13630541378E+01  0.76961138626E+01  0.53233429371E+01  0.96220472974E+01  0.17770000000E+01 0.  1.
         15    1    1    2    0    0  0.15767396223E+00 -0.35777106336E+01  0.98345499678E+01  0.10616071615E+02  0.17770000000E+01 0. -1.
</event>
<event>
 6    1  0.4028964E-003  0.5157773E+03  0.7546771E-02  0.9365183E-01
        -11   -1    0    0    0    0  0.00000000000E+00  0.00000000000E+00  0.50000000000E+03  0.50000000000E+03  0.00000000000E+00 0. -1.
         11   -1    0    0    0    0 -0.00000000000E+00 -0.00000000000E+00 -0.50000000000E+03  0.50000000000E+03  0.00000000000E+00 0. -1.
        -11    1    1    2    0    0 -0.44453759191E+01 -0.90583876450E+00  0.25309364208E+03  0.25313429948E+03  0.00000000000E+00 0. -1.
         11    1    1    2    0    0  0.20877995599E+01 -0.10312669259E+02 -0.48410834223E+03  0.48422267302E+03  0.00000000000E+00 0. -1.
        -15    1    1    2    0    0  0.46391014112E+01  0.41255902729E+02  0.22862678843E+03  0.23237240991E+03  0.17770000000E+01 0. -1.
         15    1    1    2    0    0 -0.22815250521E+01 -0.30037394706E+02  0.23879117145E+01  0.30270617579E+02  0.17770000000E+01 0.  1.
</event>
<event>
 6    1  0.1364211E-002  0.5006648E+03  0.7546771E-02  0.9398323E-01
        -11   -1    0    0    0    0  0.00000000000E+00  0.00000000000E+00  0.50000000000E+03  0.50000000000E+03  0.00000000000E+00 0. -1.
         11   -1    0    0    0    0 -0.00000000000E+00 -0.00000000000E+00 -0.50000000000E+03  0.50000000000E+03  0.00000000000E+00 0. -1.
        -11    1    1    2    0    0  0.14690589635E+01 -0.12455906536E+02  0.49917762124E+03  0.49933516328E+03  0.00000000000E+00 0. -1.
         11    1    1    2    0    0 -0.10222041089E+01  0.28298312403E+00 -0.78194266482E+02  0.78201459650E+02  0.00000000000E+00 0. -1.
        -15    1    1    2    0    0  0.33800904055E+01  0.48232585058E+01 -0.39662792349E+03  0.39667563103E+03  0.17770000000E+01 0. -1.
         15    1    1    2    0    0 -0.38269452600E+01  0.73496649064E+01 -0.24355431270E+02  0.25787746036E+02  0.17770000000E+01 0.  1.
</event>
<event>
 6    1  0.4028964E-003  0.5028960E+03  0.7546771E-02  0.9393353E-01
        -11   -1    0    0    0    0  0.00000000000E+00  0.00000000000E+00  0.50000000000E+03  0.50000000000E+03  0.00000000000E+00 0.  1.
         11   -1    0    0    0    0 -0.00000000000E+00 -0.00000000000E+00 -0.50000000000E+03  0.50000000000E+03  0.00000000000E+00 0. -1.
        -11    1    1    2    0    0  0.68689384608E+01 -0.13952498698E+01  0.49705460611E+03  0.49710402381E+03  0.00000000000E+00 0.  1.
         11    1    1    2    0    0 -0.10978687787E+01  0.72605292837E+01 -0.47906781732E+03  0.47912409060E+03  0.00000000000E+00 0. -1.
        -15    1    1    2    0    0 -0.74351418033E+01  0.10717474042E+01 -0.62945199531E+01  0.99603557454E+01  0.17770000000E+01 0. -1.
         15    1    1    2    0    0  0.16640721212E+01 -0.69370268180E+01 -0.11692268832E+02  0.13811529840E+02  0.17770000000E+01 0. -1.
</event>
<event>
 6    1  0.4028964E-003  0.5021488E+03  0.7546771E-02  0.9395014E-01
        -11   -1    0    0    0    0  0.00000000000E+00  0.00000000000E+00  0.50000000000E+03  0.50000000000E+03  0.00000000000E+00 0. -1.
         11   -1    0    0    0    0 -0.00000000000E+00 -0.00000000000E+00 -0.50000000000E+03  0.50000000000E+03  0.00000000000E+00 0. -1.
        -11    1    1    2    0    0 -0.16366409273E+01 -0.94372988605E+01  0.39601822439E+03  0.39613403698E+03  0.00000000000E+00 0. -1.
         11    1    1    2    0    0 -0.44110352221E+01  0.11078836542E+02 -0.49770838787E+03  0.49785121996E+03  0.00000000000E+00 0. -1.
        -15    1    1    2    0    0  0.23063012092E+01 -0.15085698261E+02  0.43008462231E+02  0.45670371903E+02  0.17770000000E+01 0. -1.
         15    1    1    2    0    0  0.37413749402E+01  0.13444160580E+02  0.58681701252E+02  0.60344371163E+02  0.17770000000E+01 0.  1.
</event>
<event>
 6    1  0.4028964E-003  0.5012891E+03  0.7546771E-02  0.9396930E-01
        -11   -1    0    0    0    0  0.00000000000E+00  0.00000000000E+00  0.50000000000E+03  0.50000000000E+03  0.00000000000E+00 0. -1.
         11   -1    0    0    0    0 -0.00000000000E+00 -0.00000000000E+00 -0.50000000000E+03  0.50000000000E+03  0.00000000000E+00 0. -1.
        -11    1    1    2    0    0 -0.78635030188E+01  0.41574622675E+01  0.49863155231E+03  0.49871088231E+03  0.00000000000E+00 0. -1.
         11    1    1    2    0    0 -0.40540258408E+01 -0.10935104445E+02 -0.32429426670E+03  0.32450390298E+03  0.00000000000E+00 0. -1.
        -15    1    1    2    0    0  0.24238928096E+01  0.73675676326E+01 -0.13598433056E+02  0.15755361619E+02  0.17770000000E+01 0. -1.
         15    1    1    2    0    0  0.94936360500E+01 -0.58992545516E+00 -0.16073885255E+03  0.16102985309E+03  0.17770000000E+01 0.  1.
</event>
<event>
 6    1  0.4028964E-003  0.5177371E+03  0.7546771E-02  0.9360973E-01
        -11   -1    0    0    0    0  0.00000000000E+00  0.00000000000E+00  0.50000000000E+03  0.50000000000E+03  0.00000000000E+00 0. -1.
         11   -1    0    0    0    0 -0.00000000000E+00 -0.00000000000E+00 -0.50000000000E+03  0.50000000000E+03  0.00000000000E+00 0.  1.
        -11    1    1    2    0    0  0.49408468999E+00 -0.48443653474E+01  0.32194128901E+03  0.32197811349E+03  0.00000000000E+00 0. -1.
         11    1    1    2    0    0 -0.56211579000E+01  0.57980105774E+01 -0.48219529659E+03  0.48226291418E+03  0.00000000000E+00 0.  1.
        -15    1    1    2    0    0  0.35398979037E+00  0.64773373904E+01  0.17679547792E+03  0.17692337310E+03  0.17770000000E+01 0. -1.
         15    1    1    2    0    0  0.47730834197E+01 -0.74309826204E+01 -0.16541470346E+02  0.18835599227E+02  0.17770000000E+01 0.  1.
</event>
<event>
 6    1  0.4028964E-003  0.4847001E+03  0.7546771E-02  0.9434710E-01
        -11   -1    0    0    0    0  0.00000000000E+00  0.00000000000E+00  0.50000000000E+03  0.50000000000E+03  0.00000000000E+00 0.  1.
         11   -1    0    0    0    0 -0.00000000000E+00 -0.00000000000E+00 -0.50000000000E+03  0.50000000000E+03  0.00000000000E+00 0. -1.
        -11    1    1    2    0    0 -0.36688954472E+01  0.13595112299E+02  0.48455942728E+03  0.48476399045E+03  0.00000000000E+00 0.  1.
         11    1    1    2    0    0 -0.10481077219E+02  0.28089616846E+01 -0.48475692011E+03  0.48487835056E+03  0.00000000000E+00 0. -1.
        -15    1    1    2    0    0 -0.44935135348E+01 -0.14422350481E+01 -0.34514845145E+01  0.61108248359E+01  0.17770000000E+01 0.  1.
         15    1    1    2    0    0  0.18643486201E+02 -0.14961838936E+02  0.36489773463E+01  0.24246834159E+02  0.17770000000E+01 0. -1.
</event>
<event>
 6    1  0.4028964E-003  0.5058996E+03  0.7546771E-02  0.9386705E-01
        -11   -1    0    0    0    0  0.00000000000E+00  0.00000000000E+00  0.50000000000E+03  0.50000000000E+03  0.00000000000E+00 0. -1.
         11   -1    0    0    0    0 -0.00000000000E+00 -0.00000000000E+00 -0.50000000000E+03  0.50000000000E+03  0.00000000000E+00 0.  1.
        -11    1    1    2    0    0 -0.19550833264E+02 -0.45091734485E+01  0.49369289245E+03  0.49410043492E+03  0.00000000000E+00 0. -1.
         11    1    1    2    0    0  0.14904204842E+02 -0.71396730038E+00 -0.31249693015E+03  0.31285296295E+03  0.00000000000E+00 0.  1.
        -15    1    1    2    0    0 -0.16229466212E+02 -0.63233994958E+00 -0.16529471704E+03  0.16610026080E+03  0.17770000000E+01 0.  1.
         15    1    1    2    0    0  0.20876094635E+02  0.58554806984E+01 -0.15901245263E+02  0.26946341335E+02  0.17770000000E+01 0.  1.
</event>
<event>
 6    1  0.4028964E-003  0.5095292E+03  0.7546771E-02  0.9378736E-01
        -11   -1    0    0    0    0  0.00000000000E+00  0.00000000000E+00  0.50000000000E+03  0.50000000000E+03  0.00000000000E+00 0.  1.
         11   -1    0    0    0    0 -0.00000000000E+00 -0.00000000000E+00 -0.50000000000E+03  0.50000000000E+03  0.00000000000E+00 0. -1.
        -11    1    1    2    0    0  0.27758701735E+02 -0.17296472733E+02  0.48937909880E+03  0.49047081038E+03  0.00000000000E+00 0.  1.
         11    1    1    2    0    0  0.88693557669E+01 -0.62103383656E+01 -0.43855775604E+03  0.43869139399E+03  0.00000000000E+00 0. -1.
        -15    1    1    2    0    0  0.19070014925E+01  0.54486238733E+01 -0.28272988991E+01  0.66689957917E+01  0.17770000000E+01 0. -1.
         15    1    1    2    0    0 -0.38535058995E+02  0.18058187225E+02 -0.47994043863E+02  0.64168799840E+02  0.17770000000E+01 0. -1.
</event>
<event>
 6    1  0.4028964E-003  0.5058990E+03  0.7546771E-02  0.9386706E-01
        -11   -1    0    0    0    0  0.00000000000E+00  0.00000000000E+00  0.50000000000E+03  0.50000000000E+03  0.00000000000E+00 0. -1.
         11   -1    0    0    0    0 -0.00000000000E+00 -0.00000000000E+00 -0.50000000000E+03  0.50000000000E+03  0.00000000000E+00 0.  1.
        -11    1    1    2    0    0 -0.10665890450E+02 -0.39861513690E+01  0.49396975816E+03  0.49410097409E+03  0.00000000000E+00 0. -1.
         11    1    1    2    0    0  0.28942076049E+01 -0.57821779162E+01 -0.44366138903E+03  0.44370850582E+03  0.00000000000E+00 0.  1.
        -15    1    1    2    0    0  0.74270096346E+00  0.12101190208E+02 -0.52779668080E+02  0.54183406139E+02  0.17770000000E+01 0. -1.
         15    1    1    2    0    0  0.70289818817E+01 -0.23328609229E+01  0.24712989510E+01  0.80071139547E+01  0.17770000000E+01 0.  1.
</event>
<event>
 6    1  0.4028964E-003  0.4821748E+03  0.7546771E-02  0.9440603E-01
        -11   -1    0    0    0    0  0.00000000000E+00  0.00000000000E+00  0.50000000000E+03  0.50000000000E+03  0.00000000000E+00 0.  1.
         11   -1    0    0    0    0 -0.00000000000E+00 -0.00000000000E+00 -0.50000000000E+03  0.50000000000E+03  0.00000000000E+00 0.  1.
        -11    1    1    2    0    0 -0.23285143811E+01  0.70057846893E+01  0.48093678375E+03  0.48099344378E+03  0.00000000000E+00 0.  1.
         11    1    1    2    0    0 -0.26141571261E+01 -0.71076971635E+01 -0.48331246970E+03  0.48337179949E+03  0.00000000000E+00 0.  1.
        -15    1    1    2    0    0  0.13018938318E+02  0.95664554923E+01 -0.90898792795E+01  0.18622391359E+02  0.17770000000E+01 0.  1.
         15    1    1    2    0    0 -0.80762668111E+01 -0.94645430182E+01  0.11465565234E+02  0.17012365364E+02  0.17770000000E+01 0. -1.
</event>
<event>
 6    1  0.4028964E-003  0.5012097E+03  0.7546771E-02  0.9397107E-01
        -11   -1    0    0    0    0  0.00000000000E+00  0.00000000000E+00  0.50000000000E+03  0.50000000000E+03  0.00000000000E+00 0. -1.
         11   -1    0    0    0    0 -0.00000000000E+00 -0.00000000000E+00 -0.50000000000E+03  0.50000000000E+03  0.00000000000E+00 0.  1.
        -11    1    1    2    0    0  0.74585169395E+01  0.23270125656E+01  0.43297094546E+03  0.43304143459E+03  0.00000000000E+00 0. -1.
         11    1    1    2    0    0 -0.11251203753E+02 -0.55818368289E+01 -0.49863215289E+03  0.49879030703E+03  0.00000000000E+00 0.  1.
        -15    1    1    2    0    0  0.29263113368E+01 -0.11854139877E+01  0.16642142999E+01  0.39869590665E+01  0.17770000000E+01 0.  1.
         15    1    1    2    0    0  0.86637547669E+00  0.44402382510E+01  0.63996993134E+02  0.64181299312E+02  0.17770000000E+01 0. -1.
</event>
<event>
 6    1  0.4028964E-003  0.5076784E+03  0.7546771E-02  0.9382791E-01
        -11   -1    0    0    0    0  0.00000000000E+00  0.00000000000E+00  0.50000000000E+03  0.50000000000E+03  0.00000000000E+00 0. -1.
         11   -1    0    0    0    0 -0.00000000000E+00 -0.00000000000E+00 -0.50000000000E+03  0.50000000000E+03  0.00000000000E+00 0. -1.
        -11    1    1    2    0    0 -0.66518262323E+01 -0.10274368227E+02  0.38070797747E+03  0.38090467776E+03  0.00000000000E+00 0. -1.
         11    1    1    2    0    0 -0.21399533647E+02 -0.18181431654E+02 -0.49152013820E+03  0.49232159282E+03  0.00000000000E+00 0. -1.
        -15    1    1    2    0    0  0.15666203644E+02  0.10498477544E+02  0.62516341652E+01  0.19947145814E+02  0.17770000000E+01 0.  1.
         15    1    1    2    0    0  0.12385156235E+02  0.17957322336E+02  0.10456052657E+03  0.10682658361E+03  0.17770000000E+01 0. -1.
</event>
<event>
 6    1  0.4028964E-003  0.5050574E+03  0.7546771E-02  0.9388564E-01
        -11   -1    0    0    0    0  0.00000000000E+00  0.00000000000E+00  0.50000000000E+03  0.50000000000E+03  0.00000000000E+00 0. -1.
         11   -1    0    0    0    0 -0.00000000000E+00 -0.00000000000E+00 -0.50000000000E+03  0.50000000000E+03  0.00000000000E+00 0.  1.
        -11    1    1    2    0    0 -0.10099423935E+02 -0.86102392497E+01  0.43560925125E+03  0.43581137474E+03  0.00000000000E+00 0. -1.
         11    1    1    2    0    0  0.10597864275E+01 -0.80910108641E+01 -0.49487536756E+03  0.49494264013E+03  0.00000000000E+00 0.  1.
        -15    1    1    2    0    0  0.15100451831E+02  0.80358899329E+00  0.43096302535E+02  0.45706874997E+02  0.17770000000E+01 0.  1.
         15    1    1    2    0    0 -0.60608143230E+01  0.15897661121E+02  0.16169813774E+02  0.23539110133E+02  0.17770000000E+01 0. -1.
</event>
<event>
 6    1  0.4028964E-003  0.5156148E+03  0.7546771E-02  0.9365533E-01
        -11   -1    0    0    0    0  0.00000000000E+00  0.00000000000E+00  0.50000000000E+03  0.50000000000E+03  0.00000000000E+00 0. -1.
         11   -1    0    0    0    0 -0.00000000000E+00 -0.00000000000E+00 -0.50000000000E+03  0.50000000000E+03  0.00000000000E+00 0. -1.
        -11    1    1    2    0    0 -0.10845418671E+02  0.10929858906E+01  0.43917633084E+03  0.43931158338E+03  0.00000000000E+00 0. -1.
         11    1    1    2    0    0 -0.94063689817E+01  0.87106018409E+00 -0.48429310764E+03  0.48438523164E+03  0.00000000000E+00 0. -1.
        -15    1    1    2    0    0  0.14552218102E+02 -0.94110661114E+01  0.57834985598E+02  0.60401808791E+02  0.17770000000E+01 0. -1.
         15    1    1    2    0    0  0.56995695499E+01  0.74470200366E+01 -0.12718208803E+02  0.15901376187E+02  0.17770000000E+01 0.  1.
</event>
<event>
 6    1  0.4028964E-003  0.5080765E+03  0.7546771E-02  0.9381917E-01
        -11   -1    0    0    0    0  0.00000000000E+00  0.00000000000E+00  0.50000000000E+03  0.50000000000E+03  0.00000000000E+00 0.  1.
         11   -1    0    0    0    0 -0.00000000000E+00 -0.00000000000E+00 -0.50000000000E+03  0.50000000000E+03  0.00000000000E+00 0. -1.
        -11    1    1    2    0    0 -0.58470870751E+01 -0.51570896797E+01  0.49186174666E+03  0.49192353250E+03  0.00000000000E+00 0.  1.
         11    1    1    2    0    0  0.28344306806E+01  0.67569987567E+01 -0.46960908871E+03  0.46966625089E+03  0.00000000000E+00 0. -1.
        -15    1    1    2    0    0 -0.20452094292E+01 -0.14650438244E+02 -0.18609298827E+02  0.23838665110E+02  0.17770000000E+01 0.  1.
         15    1    1    2    0    0  0.50578658237E+01  0.13050529167E+02 -0.36433591300E+01  0.14571551496E+02  0.17770000000E+01 0. -1.
</event>
<event>
 6    1  0.4028964E-003  0.5015388E+03  0.7546771E-02  0.9396373E-01
        -11   -1    0    0    0    0  0.00000000000E+00  0.00000000000E+00  0.50000000000E+03  0.50000000000E+03  0.00000000000E+00 0.  1.
         11   -1    0    0    0    0 -0.00000000000E+00 -0.00000000000E+00 -0.50000000000E+03  0.50000000000E+03  0.00000000000E+00 0. -1.
        -11    1    1    2    0    0 -0.53828679488E+01 -0.83105941877E+01  0.22354564793E+03  0.22376482733E+03  0.00000000000E+00 0.  1.
         11    1    1    2    0    0 -0.12948150110E+02 -0.13721325019E+02 -0.49810408533E+03  0.49846124140E+03  0.00000000000E+00 0. -1.
        -15    1    1    2    0    0  0.90596612155E+01 -0.16678408172E+01  0.21821775061E+02  0.23753036651E+02  0.17770000000E+01 0. -1.
         15    1    1    2    0    0  0.92713568435E+01  0.23699760024E+02  0.25273666234E+03  0.25402089462E+03  0.17770000000E+01 0.  1.
</event>
<event>
 6    1  0.4028964E-003  0.5009089E+03  0.7546771E-02  0.9397778E-01
        -11   -1    0    0    0    0  0.00000000000E+00  0.00000000000E+00  0.50000000000E+03  0.50000000000E+03  0.00000000000E+00 0.  1.
         11   -1    0    0    0    0 -0.00000000000E+00 -0.00000000000E+00 -0.50000000000E+03  0.50000000000E+03  0.00000000000E+00 0.  1.
        -11    1    1    2    0    0 -0.34807425340E+01 -0.12902055405E+02  0.32336882481E+03  0.32364482919E+03  0.00000000000E+00 0.  1.
         11    1    1    2    0    0  0.10456948175E+02  0.11734569510E+02 -0.49884349366E+03  0.49909105287E+03  0.00000000000E+00 0.  1.
        -15    1    1    2    0    0  0.38675454743E+01  0.25045889808E+00  0.56317375279E+01  0.70636275552E+01  0.17770000000E+01 0. -1.
         15    1    1    2    0    0 -0.10843751115E+02  0.91702699671E+00  0.16984293132E+03  0.17020049038E+03  0.17770000000E+01 0.  1.
</event>
<event>
 6    1  0.4028964E-003  0.5052171E+03  0.7546771E-02  0.9388211E-01
        -11   -1    0    0    0    0  0.00000000000E+00  0.00000000000E+00  0.50000000000E+03  0.50000000000E+03  0.00000000000E+00 0. -1.
         11   -1    0    0    0    0 -0.00000000000E+00 -0.00000000000E+00 -0.50000000000E+03  0.50000000000E+03  0.00000000000E+00 0.  1.
        -11    1    1    2    0    0  0.13930665931E+02  0.13549694782E+01  0.45348391040E+03  0.45369985276E+03  0.00000000000E+00 0. -1.
         11    1    1    2    0    0 -0.94473939127E+01 -0.19600965615E+02 -0.49430419407E+03  0.49478286893E+03  0.00000000000E+00 0.  1.
        -15    1    1    2    0    0 -0.17143817239E+01  0.22045008184E+02  0.40858056459E+02  0.46491504569E+02  0.17770000000E+01 0. -1.
         15    1    1    2    0    0 -0.27688902943E+01 -0.37990120472E+01 -0.37772788732E-01  0.50257737494E+01  0.17770000000E+01 0.  1.
</event>
<event>
 6    1  0.4028964E-003  0.5194263E+03  0.7546771E-02  0.9357361E-01
        -11   -1    0    0    0    0  0.00000000000E+00  0.00000000000E+00  0.50000000000E+03  0.50000000000E+03  0.00000000000E+00 0. -1.
         11   -1    0    0    0    0 -0.00000000000E+00 -0.00000000000E+00 -0.50000000000E+03  0.50000000000E+03  0.00000000000E+00 0. -1.
        -11    1    1    2    0    0  0.80205904360E+01  0.71051364177E+01  0.34269215296E+03  0.34285962803E+03  0.00000000000E+00 0. -1.
         11    1    1    2    0    0  0.20704786821E+01  0.24351582440E+02 -0.47995191413E+03  0.48057374702E+03  0.00000000000E+00 0. -1.
        -15    1    1    2    0    0 -0.57908310504E+01 -0.38334496825E+01  0.14679946457E+03  0.14697438412E+03  0.17770000000E+01 0. -1.
         15    1    1    2    0    0 -0.43002380676E+01 -0.27623269175E+02 -0.95397034000E+01  0.29592240829E+02  0.17770000000E+01 0.  1.
</event>
<event>
 6    1  0.4028964E-003  0.5302081E+03  0.7546771E-02  0.9334643E-01
        -11   -1    0    0    0    0  0.00000000000E+00  0.00000000000E+00  0.50000000000E+03  0.50000000000E+03  0.00000000000E+00 0. -1.
         11   -1    0    0    0    0 -0.00000000000E+00 -0.00000000000E+00 -0.50000000000E+03  0.50000000000E+03  0.00000000000E+00 0.  1.
        -11    1    1    2    0    0 -0.39976584146E+01  0.13877595318E+02  0.46956983465E+03  0.46979186726E+03  0.00000000000E+00 0. -1.
         11    1    1    2    0    0 -0.17435697182E+02  0.89560261188E+01 -0.22074493369E+03  0.22161349167E+03  0.00000000000E+00 0.  1.
        -15    1    1    2    0    0 -0.19131997844E+02 -0.20246824603E+02 -0.26377542424E+03  0.26524818455E+03  0.17770000000E+01 0.  1.
         15    1    1    2    0    0  0.40565353440E+02 -0.25867968337E+01  0.14950523277E+02  0.43346456520E+02  0.17770000000E+01 0. -1.
</event>
<event>
 6    1  0.4028964E-003  0.5006764E+03  0.7546771E-02  0.9398298E-01
        -11   -1    0    0    0    0  0.00000000000E+00  0.00000000000E+00  0.50000000000E+03  0.50000000000E+03  0.00000000000E+00 0.  1.
         11   -1    0    0    0    0 -0.00000000000E+00 -0.00000000000E+00 -0.50000000000E+03  0.50000000000E+03  0.00000000000E+00 0.  1.
        -11    1    1    2    0    0 -0.57944516222E+01  0.51478154942E+00  0.37356865478E+03  0.37361394581E+03  0.00000000000E+00 0.  1.
         11    1    1    2    0    0 -0.70881386992E+01  0.15272038223E+01 -0.49927100109E+03  0.49932364914E+03  0.00000000000E+00 0.  1.
        -15    1    1    2    0    0  0.68874160641E+01 -0.11198194917E+01  0.10844835351E+03  0.10868713633E+03  0.17770000000E+01 0.  1.
         15    1    1    2    0    0  0.59951742574E+01 -0.92216588005E+00  0.17253992792E+02  0.18375268721E+02  0.17770000000E+01 0. -1.
</event>
<event>
 6    1  0.4028964E-003  0.5072484E+03  0.7546771E-02  0.9383735E-01
        -11   -1    0    0    0    0  0.00000000000E+00  0.00000000000E+00  0.50000000000E+03  0.50000000000E+03  0.00000000000E+00 0.  1.
         11   -1    0    0    0    0 -0.00000000000E+00 -0.00000000000E+00 -0.50000000000E+03  0.50000000000E+03  0.00000000000E+00 0.  1.
        -11    1    1    2    0    0 -0.19966757907E+02 -0.95195772767E+01  0.46385384707E+03  0.46438096991E+03  0.00000000000E+00 0.  1.
         11    1    1    2    0    0  0.79000640063E+01  0.10853589791E+02 -0.49256868981E+03  0.49275158610E+03  0.00000000000E+00 0.  1.
        -15    1    1    2    0    0 -0.52357362216E+01 -0.71257258248E+01  0.26557644994E+00  0.90231459128E+01  0.17770000000E+01 0.  1.
         15    1    1    2    0    0  0.17302430123E+02  0.57917133101E+01  0.28449266293E+02  0.33844298084E+02  0.17770000000E+01 0. -1.
</event>
<event>
 6    1  0.4028964E-003  0.5385209E+03  0.7546771E-02  0.9317515E-01
        -11   -1    0    0    0    0  0.00000000000E+00  0.00000000000E+00  0.50000000000E+03  0.50000000000E+03  0.00000000000E+00 0.  1.
         11   -1    0    0    0    0 -0.00000000000E+00 -0.00000000000E+00 -0.50000000000E+03  0.50000000000E+03  0.00000000000E+00 0. -1.
        -11    1    1    2    0    0  0.63364158452E+01 -0.24109808131E-01  0.46143556853E+03  0.46147907282E+03  0.00000000000E+00 0.  1.
         11    1    1    2    0    0 -0.16383568643E+02 -0.98525523872E+01 -0.42830583037E+03  0.42873229227E+03  0.00000000000E+00 0. -1.
        -15    1    1    2    0    0  0.34215764212E+02  0.39611566536E+02  0.86359864222E+01  0.53080436269E+02  0.17770000000E+01 0. -1.
         15    1    1    2    0    0 -0.24168611414E+02 -0.29734904341E+02 -0.41765724584E+02  0.56708198639E+02  0.17770000000E+01 0.  1.
</event>
<event>
 6    1  0.4028964E-003  0.5172751E+03  0.7546771E-02  0.9361964E-01
        -11   -1    0    0    0    0  0.00000000000E+00  0.00000000000E+00  0.50000000000E+03  0.50000000000E+03  0.00000000000E+00 0.  1.
         11   -1    0    0    0    0 -0.00000000000E+00 -0.00000000000E+00 -0.50000000000E+03  0.50000000000E+03  0.00000000000E+00 0. -1.
        -11    1    1    2    0    0 -0.54825231747E+01  0.51726209009E+01  0.45429180793E+03  0.45435433399E+03  0.00000000000E+00 0.  1.
         11    1    1    2    0    0  0.76920867484E+01  0.42171557742E+01 -0.48264517400E+03  0.48272488706E+03  0.00000000000E+00 0. -1.
        -15    1    1    2    0    0 -0.29147044239E+01 -0.66085884338E+01 -0.16416970694E+02  0.18023418065E+02  0.17770000000E+01 0. -1.
         15    1    1    2    0    0  0.70514085018E+00 -0.27811882412E+01  0.44770336763E+02  0.44897360886E+02  0.17770000000E+01 0.  1.
</event>
<event>
 6    1  0.4028964E-003  0.5027903E+03  0.7546771E-02  0.9393588E-01
        -11   -1    0    0    0    0  0.00000000000E+00  0.00000000000E+00  0.50000000000E+03  0.50000000000E+03  0.00000000000E+00 0.  1.
         11   -1    0    0    0    0 -0.00000000000E+00 -0.00000000000E+00 -0.50000000000E+03  0.50000000000E+03  0.00000000000E+00 0. -1.
        -11    1    1    2    0    0 -0.33551389662E+01  0.12632527440E+02  0.44331270269E+03  0.44350534391E+03  0.00000000000E+00 0.  1.
         11    1    1    2    0    0 -0.98325587178E+01  0.39113705443E+01 -0.49709707532E+03  0.49720969452E+03  0.00000000000E+00 0. -1.
        -15    1    1    2    0    0  0.10138414033E+01  0.77738224205E+00  0.14122301439E+02  0.14290882565E+02  0.17770000000E+01 0.  1.
         15    1    1    2    0    0  0.12173856281E+02 -0.17321280226E+02  0.39662071194E+02  0.44994079008E+02  0.17770000000E+01 0. -1.
</event>
<event>
 6    1  0.4028964E-003  0.5010259E+03  0.7546771E-02  0.9397517E-01
        -11   -1    0    0    0    0  0.00000000000E+00  0.00000000000E+00  0.50000000000E+03  0.50000000000E+03  0.00000000000E+00 0. -1.
         11   -1    0    0    0    0 -0.00000000000E+00 -0.00000000000E+00 -0.50000000000E+03  0.50000000000E+03  0.00000000000E+00 0. -1.
        -11    1    1    2    0    0  0.76245010831E+01 -0.96309432354E+01  0.49882287044E+03  0.49897409167E+03  0.00000000000E+00 0. -1.
         11    1    1    2    0    0  0.25014347097E+01  0.57879712934E+01 -0.35650728960E+03  0.35656304538E+03  0.00000000000E+00 0. -1.
        -15    1    1    2    0    0  0.17596986557E+01 -0.68746784931E+01 -0.69725801407E+02  0.70108507719E+02  0.17770000000E+01 0.  1.
         15    1    1    2    0    0 -0.11885634448E+02  0.10717650435E+02 -0.72589779424E+02  0.74354355238E+02  0.17770000000E+01 0. -1.
</event>
<event>
 6    1  0.4028964E-003  0.5013951E+03  0.7546771E-02  0.9396693E-01
        -11   -1    0    0    0    0  0.00000000000E+00  0.00000000000E+00  0.50000000000E+03  0.50000000000E+03  0.00000000000E+00 0. -1.
         11   -1    0    0    0    0 -0.00000000000E+00 -0.00000000000E+00 -0.50000000000E+03  0.50000000000E+03  0.00000000000E+00 0. -1.
        -11    1    1    2    0    0  0.37728698412E+01 -0.61248351625E+01  0.49855301341E+03  0.49860490905E+03  0.00000000000E+00 0. -1.
         11    1    1    2    0    0  0.47782105554E+01  0.88259623054E+01 -0.35708206879E+03  0.35722308542E+03  0.00000000000E+00 0. -1.
        -15    1    1    2    0    0 -0.46033253594E+01 -0.64154402423E+01 -0.11426631803E+02  0.14002646936E+02  0.17770000000E+01 0. -1.
         15    1    1    2    0    0 -0.39477550372E+01  0.37143130994E+01 -0.13004431281E+03  0.13016935859E+03  0.17770000000E+01 0. -1.
</event>
<event>
 6    1  0.4028964E-003  0.5015292E+03  0.7546771E-02  0.9396394E-01
        -11   -1    0    0    0    0  0.00000000000E+00  0.00000000000E+00  0.50000000000E+03  0.50000000000E+03  0.00000000000E+00 0.  1.
         11   -1    0    0    0    0 -0.00000000000E+00 -0.00000000000E+00 -0.50000000000E+03  0.50000000000E+03  0.00000000000E+00 0. -1.
        -11    1    1    2    0    0 -0.19617989375E+02 -0.21998973701E+02  0.49759854077E+03  0.49847078964E+03  0.00000000000E+00 0.  1.
         11    1    1    2    0    0  0.42364407842E+01 -0.39157151247E+01 -0.27052954977E+03  0.27059105225E+03  0.00000000000E+00 0. -1.
        -15    1    1    2    0    0  0.17871953809E+02  0.21937630443E+02 -0.10483165494E+03  0.10859788197E+03  0.17770000000E+01 0. -1.
         15    1    1    2    0    0 -0.24904052186E+01  0.39770583826E+01 -0.12223733606E+03  0.12234027614E+03  0.17770000000E+01 0.  1.
</event>
<event>
 6    1  0.4028964E-003  0.5055076E+03  0.7546771E-02  0.9387570E-01
        -11   -1    0    0    0    0  0.00000000000E+00  0.00000000000E+00  0.50000000000E+03  0.50000000000E+03  0.00000000000E+00 0.  1.
         11   -1    0    0    0    0 -0.00000000000E+00 -0.00000000000E+00 -0.50000000000E+03  0.50000000000E+03  0.00000000000E+00 0.  1.
        -11    1    1    2    0    0  0.68227707728E+01  0.14065614372E+01  0.49444334113E+03  0.49449241268E+03  0.00000000000E+00 0.  1.
         11    1    1    2    0    0 -0.19540329778E+01 -0.10152253519E+02 -0.48614171073E+03  0.48625163178E+03  0.00000000000E+00 0.  1.
        -15    1    1    2    0    0 -0.45633699549E+01  0.60212720079E+01  0.23542445114E+01  0.81105029534E+01  0.17770000000E+01 0.  1.
         15    1    1    2    0    0 -0.30536784019E+00  0.27244200740E+01 -0.10655874907E+02  0.11145452584E+02  0.17770000000E+01 0. -1.
</event>
<event>
 6    1  0.4028964E-003  0.5004029E+03  0.7546771E-02  0.9398909E-01
        -11   -1    0    0    0    0  0.00000000000E+00  0.00000000000E+00  0.50000000000E+03  0.50000000000E+03  0.00000000000E+00 0. -1.
         11   -1    0    0    0    0 -0.00000000000E+00 -0.00000000000E+00 -0.50000000000E+03  0.50000000000E+03  0.00000000000E+00 0. -1.
        -11    1    1    2    0    0 -0.50547674486E+01 -0.21504354866E+01  0.38197965773E+03  0.38201915393E+03  0.00000000000E+00 0. -1.
         11    1    1    2    0    0  0.67779757942E+01  0.71021268563E+01 -0.49950065826E+03  0.49959712646E+03  0.00000000000E+00 0. -1.
        -15    1    1    2    0    0  0.25480186260E+01 -0.16883532995E+01  0.97860551521E+02  0.97924400477E+02  0.17770000000E+01 0. -1.
         15    1    1    2    0    0 -0.42712269715E+01 -0.32633380702E+01  0.19660449011E+02  0.20459319137E+02  0.17770000000E+01 0.  1.
</event>
<event>
 6    1  0.4028964E-003  0.5019704E+03  0.7546771E-02  0.9395411E-01
        -11   -1    0    0    0    0  0.00000000000E+00  0.00000000000E+00  0.50000000000E+03  0.50000000000E+03  0.00000000000E+00 0. -1.
         11   -1    0    0    0    0 -0.00000000000E+00 -0.00000000000E+00 -0.50000000000E+03  0.50000000000E+03  0.00000000000E+00 0. -1.
        -11    1    1    2    0    0 -0.62223311136E+00  0.80929230381E+01  0.42295744902E+03  0.42303532507E+03  0.00000000000E+00 0. -1.
         11    1    1    2    0    0  0.68297872537E+00 -0.15924326991E+02 -0.49777443216E+03  0.49802955331E+03  0.00000000000E+00 0. -1.
        -15    1    1    2    0    0  0.44630533566E+00  0.14099843969E+02  0.25577193790E+02  0.29263550017E+02  0.17770000000E+01 0. -1.
         15    1    1    2    0    0 -0.50705094967E+00 -0.62684400162E+01  0.49239789354E+02  0.49671571603E+02  0.17770000000E+01 0.  1.
</event>
<event>
 6    1  0.4028964E-003  0.5042428E+03  0.7546771E-02  0.9390366E-01
        -11   -1    0    0    0    0  0.00000000000E+00  0.00000000000E+00  0.50000000000E+03  0.50000000000E+03  0.00000000000E+00 0.  1.
         11   -1    0    0    0    0 -0.00000000000E+00 -0.00000000000E+00 -0.50000000000E+03  0.50000000000E+03  0.00000000000E+00 0. -1.
        -11    1    1    2    0    0  0.15006591130E+02 -0.29467500330E+01  0.49552123349E+03  0.49575717237E+03  0.00000000000E+00 0.  1.
         11    1    1    2    0    0  0.16311683566E+02 -0.10116406208E+02 -0.28732906993E+03  0.28796945519E+03  0.00000000000E+00 0. -1.
        -15    1    1    2    0    0 -0.27885735116E+02  0.28943710380E+02 -0.11956884943E+03  0.12615553922E+03  0.17770000000E+01 0.  1.
         15    1    1    2    0    0 -0.34325395801E+01 -0.15880554139E+02 -0.88623314129E+02  0.90117833218E+02  0.17770000000E+01 0. -1.
</event>
<event>
 6    1  0.4028964E-003  0.5001361E+03  0.7546771E-02  0.9399505E-01
        -11   -1    0    0    0    0  0.00000000000E+00  0.00000000000E+00  0.50000000000E+03  0.50000000000E+03  0.00000000000E+00 0.  1.
         11   -1    0    0    0    0 -0.00000000000E+00 -0.00000000000E+00 -0.50000000000E+03  0.50000000000E+03  0.00000000000E+00 0.  1.
        -11    1    1    2    0    0  0.16729685084E+01  0.12756808208E+02  0.49969826609E+03  0.49986387359E+03  0.00000000000E+00 0.  1.
         11    1    1    2    0    0 -0.18672125446E+01 -0.69685149052E+01 -0.23293481833E+03  0.23304651096E+03  0.00000000000E+00 0.  1.
        -15    1    1    2    0    0  0.41017769245E+01 -0.43294628771E+01 -0.70587165890E+02  0.70860952154E+02  0.17770000000E+01 0. -1.
         15    1    1    2    0    0 -0.39075328884E+01 -0.14588304253E+01 -0.19617628188E+03  0.19622866330E+03  0.17770000000E+01 0.  1.
</event>
<event>
 6    1  0.4028964E-003  0.5405604E+03  0.7546771E-02  0.9313363E-01
        -11   -1    0    0    0    0  0.00000000000E+00  0.00000000000E+00  0.50000000000E+03  0.50000000000E+03  0.00000000000E+00 0. -1.
         11   -1    0    0    0    0 -0.00000000000E+00 -0.00000000000E+00 -0.50000000000E+03  0.50000000000E+03  0.00000000000E+00 0.  1.
        -11    1    1    2    0    0 -0.12906928811E+02  0.10737462685E+01  0.45925701367E+03  0.45943960032E+03  0.00000000000E+00 0. -1.
         11    1    1    2    0    0  0.11506781072E+02 -0.17517519311E+01 -0.36574609505E+03  0.36593125132E+03  0.00000000000E+00 0.  1.
        -15    1    1    2    0    0 -0.52656161658E+01  0.26555435279E+02 -0.12806748585E+03  0.13090972659E+03  0.17770000000E+01 0.  1.
         15    1    1    2    0    0  0.66657639043E+01 -0.25877429617E+02  0.34556567228E+02  0.43719421767E+02  0.17770000000E+01 0. -1.
</event>
<event>
 6    1  0.4028964E-003  0.4775094E+03  0.7546771E-02  0.9451590E-01
        -11   -1    0    0    0    0  0.00000000000E+00  0.00000000000E+00  0.50000000000E+03  0.50000000000E+03  0.00000000000E+00 0. -1.
         11   -1    0    0    0    0 -0.00000000000E+00 -0.00000000000E+00 -0.50000000000E+03  0.50000000000E+03  0.00000000000E+00 0. -1.
        -11    1    1    2    0    0 -0.39176375294E+00  0.14444420949E+02  0.48209651471E+03  0.48231301483E+03  0.00000000000E+00 0. -1.
         11    1    1    2    0    0  0.22438928677E+02  0.10945617116E+02 -0.47268510720E+03  0.47334397917E+03  0.00000000000E+00 0. -1.
        -15    1    1    2    0    0 -0.25351347408E+02 -0.14076130127E+02 -0.13096017749E+02  0.31866779954E+02  0.17770000000E+01 0.  1.
         15    1    1    2    0    0  0.33041824836E+01 -0.11313907937E+02  0.36846102318E+01  0.12476226042E+02  0.17770000000E+01 0. -1.
</event>
<event>
 6    1  0.4028964E-003  0.5044510E+03  0.7546771E-02  0.9389905E-01
        -11   -1    0    0    0    0  0.00000000000E+00  0.00000000000E+00  0.50000000000E+03  0.50000000000E+03  0.00000000000E+00 0. -1.
         11   -1    0    0    0    0 -0.00000000000E+00 -0.00000000000E+00 -0.50000000000E+03  0.50000000000E+03  0.00000000000E+00 0. -1.
        -11    1    1    2    0    0 -0.89603451018E+01  0.18287601268E+01  0.47830686995E+03  0.47839428717E+03  0.00000000000E+00 0. -1.
         11    1    1    2    0    0 -0.11256626880E+01  0.10876405493E+02 -0.49542833705E+03  0.49554898896E+03  0.00000000000E+00 0. -1.
        -15    1    1    2    0    0  0.45980367852E+01 -0.10051691350E+02  0.47708318635E+01  0.12169511368E+02  0.17770000000E+01 0. -1.
         15    1    1    2    0    0  0.54879710047E+01 -0.26534742703E+01  0.12350635232E+02  0.13887212502E+02  0.17770000000E+01 0.  1.
</event>
<event>
 6    1  0.4028964E-003  0.5004238E+03  0.7546771E-02  0.9398862E-01
        -11   -1    0    0    0    0  0.00000000000E+00  0.00000000000E+00  0.50000000000E+03  0.50000000000E+03  0.00000000000E+00 0.  1.
         11   -1    0    0    0    0 -0.00000000000E+00 -0.00000000000E+00 -0.50000000000E+03  0.50000000000E+03  0.00000000000E+00 0.  1.
        -11    1    1    2    0    0 -0.72817682074E+01 -0.44694612264E+01  0.49950314942E+03  0.49957621692E+03  0.00000000000E+00 0.  1.
         11    1    1    2    0    0  0.39951020565E+01  0.59271458930E+01 -0.27991582709E+03  0.28000707519E+03  0.00000000000E+00 0.  1.
        -15    1    1    2    0    0 -0.15402944265E+01 -0.21688749389E+01 -0.20322567670E+03  0.20325085467E+03  0.17770000000E+01 0. -1.
         15    1    1    2    0    0  0.48269605773E+01  0.71119027240E+00 -0.16361645632E+02  0.17165853221E+02  0.17770000000E+01 0.  1.
</event>
<event>
 6    1  0.4028964E-003  0.5193928E+03  0.7546771E-02  0.9357433E-01
        -11   -1    0    0    0    0  0.00000000000E+00  0.00000000000E+00  0.50000000000E+03  0.50000000000E+03  0.00000000000E+00 0. -1.
         11   -1    0    0    0    0 -0.00000000000E+00 -0.00000000000E+00 -0.50000000000E+03  0.50000000000E+03  0.00000000000E+00 0.  1.
        -11    1    1    2    0    0  0.11244802889E+02 -0.65067771325E+01  0.48043159196E+03  0.48060721831E+03  0.00000000000E+00 0. -1.
         11    1    1    2    0    0  0.12044494749E+02 -0.15311293329E+02 -0.31225679376E+03  0.31286388543E+03  0.00000000000E+00 0.  1.
        -15    1    1    2    0    0 -0.20541083304E+02  0.38705036339E+02 -0.69645815659E+01  0.44403592948E+02  0.17770000000E+01 0. -1.
         15    1    1    2    0    0 -0.27482143341E+01 -0.16886965877E+02 -0.16121021663E+03  0.16212530331E+03  0.17770000000E+01 0.  1.
</event>
<event>
 6    1  0.4028964E-003  0.5003756E+03  0.7546771E-02  0.9398970E-01
        -11   -1    0    0    0    0  0.00000000000E+00  0.00000000000E+00  0.50000000000E+03  0.50000000000E+03  0.00000000000E+00 0.  1.
         11   -1    0    0    0    0 -0.00000000000E+00 -0.00000000000E+00 -0.50000000000E+03  0.50000000000E+03  0.00000000000E+00 0.  1.
        -11    1    1    2    0    0 -0.12609524708E+01 -0.90061831722E+01  0.49954165235E+03  0.49962442271E+03  0.00000000000E+00 0.  1.
         11    1    1    2    0    0 -0.55032952819E+01  0.79352635169E+00 -0.24768926130E+03  0.24775166216E+03  0.00000000000E+00 0.  1.
        -15    1    1    2    0    0  0.36126759761E+01  0.63366257413E+01 -0.38096779373E+02  0.38829455070E+02  0.17770000000E+01 0. -1.
         15    1    1    2    0    0  0.31515717766E+01  0.18760310792E+01 -0.21375561168E+03  0.21379446006E+03  0.17770000000E+01 0.  1.
</event>
<event>
 6    1  0.4028964E-003  0.5114672E+03  0.7546771E-02  0.9374510E-01
        -11   -1    0    0    0    0  0.00000000000E+00  0.00000000000E+00  0.50000000000E+03  0.50000000000E+03  0.00000000000E+00 0. -1.
         11   -1    0    0    0    0 -0.00000000000E+00 -0.00000000000E+00 -0.50000000000E+03  0.50000000000E+03  0.00000000000E+00 0. -1.
        -11    1    1    2    0    0  0.21875551910E+02  0.50217097871E+01  0.45125149052E+03  0.45180932377E+03  0.00000000000E+00 0. -1.
         11    1    1    2    0    0 -0.20225152989E+02 -0.23971136844E+02 -0.48752504854E+03  0.48853284963E+03  0.00000000000E+00 0. -1.
        -15    1    1    2    0    0 -0.98189677834E+01 -0.56202187926E+01  0.31170827360E+02  0.33208089300E+02  0.17770000000E+01 0.  1.
         15    1    1    2    0    0  0.81685688623E+01  0.24569645849E+02  0.51027306535E+01  0.26449737305E+02  0.17770000000E+01 0. -1.
</event>
<event>
 6    1  0.4028964E-003  0.5006547E+03  0.7546771E-02  0.9398346E-01
        -11   -1    0    0    0    0  0.00000000000E+00  0.00000000000E+00  0.50000000000E+03  0.50000000000E+03  0.00000000000E+00 0. -1.
         11   -1    0    0    0    0 -0.00000000000E+00 -0.00000000000E+00 -0.50000000000E+03  0.50000000000E+03  0.00000000000E+00 0.  1.
        -11    1    1    2    0    0 -0.81245767872E+01 -0.61711223591E+01  0.35776702020E+03  0.35791246450E+03  0.00000000000E+00 0. -1.
         11    1    1    2    0    0 -0.77451323151E+01  0.73284999752E+01 -0.49923141127E+03  0.49934526731E+03  0.00000000000E+00 0.  1.
        -15    1    1    2    0    0 -0.68436159229E+00 -0.50790366441E+00  0.78768812832E+01  0.81196862421E+01  0.17770000000E+01 0. -1.
         15    1    1    2    0    0  0.16554070695E+02 -0.64947395165E+00  0.13358750978E+03  0.13462258195E+03  0.17770000000E+01 0. -1.
</event>
<event>
 6    1  0.4028964E-003  0.5006881E+03  0.7546771E-02  0.9398271E-01
        -11   -1    0    0    0    0  0.00000000000E+00  0.00000000000E+00  0.50000000000E+03  0.50000000000E+03  0.00000000000E+00 0. -1.
         11   -1    0    0    0    0 -0.00000000000E+00 -0.00000000000E+00 -0.50000000000E+03  0.50000000000E+03  0.00000000000E+00 0. -1.
        -11    1    1    2    0    0  0.67355700373E+01  0.45591509515E+01  0.49924566040E+03  0.49931190972E+03  0.00000000000E+00 0. -1.
         11    1    1    2    0    0 -0.27565359413E+01  0.55259350521E+01 -0.20481648391E+03  0.20490955695E+03  0.00000000000E+00 0. -1.
        -15    1    1    2    0    0 -0.62951590725E+01 -0.29032417157E+01 -0.20033784900E+02  0.21273648174E+02  0.17770000000E+01 0.  1.
         15    1    1    2    0    0  0.23161249764E+01 -0.71818442879E+01 -0.27439539159E+03  0.27450488516E+03  0.17770000000E+01 0. -1.
</event>
<event>
 6    1  0.4028964E-003  0.4463194E+03  0.7546771E-02  0.9528647E-01
        -11   -1    0    0    0    0  0.00000000000E+00  0.00000000000E+00  0.50000000000E+03  0.50000000000E+03  0.00000000000E+00 0.  1.
         11   -1    0    0    0    0 -0.00000000000E+00 -0.00000000000E+00 -0.50000000000E+03  0.50000000000E+03  0.00000000000E+00 0. -1.
        -11    1    1    2    0    0  0.32487379767E+02 -0.19487665244E+02  0.45592710511E+03  0.45749833236E+03  0.00000000000E+00 0.  1.
         11    1    1    2    0    0  0.33135777366E+02  0.22918594180E+02 -0.43592169069E+03  0.43777958166E+03  0.00000000000E+00 0. -1.
        -15    1    1    2    0    0 -0.23031873864E+02 -0.64304513296E+01  0.30348985291E+02  0.38678631765E+02  0.17770000000E+01 0.  1.
         15    1    1    2    0    0 -0.42591283269E+02  0.29995223934E+01 -0.50354399710E+02  0.66043454212E+02  0.17770000000E+01 0. -1.
</event>
<event>
 6    1  0.4028964E-003  0.5042481E+03  0.7546771E-02  0.9390354E-01
        -11   -1    0    0    0    0  0.00000000000E+00  0.00000000000E+00  0.50000000000E+03  0.50000000000E+03  0.00000000000E+00 0.  1.
         11   -1    0    0    0    0 -0.00000000000E+00 -0.00000000000E+00 -0.50000000000E+03  0.50000000000E+03  0.00000000000E+00 0. -1.
        -11    1    1    2    0    0  0.78674075240E+01 -0.26994886915E+01  0.46038936143E+03  0.46046449099E+03  0.00000000000E+00 0.  1.
         11    1    1    2    0    0 -0.81316042765E+01 -0.61513167905E+01 -0.49564707177E+03  0.49575193539E+03  0.00000000000E+00 0. -1.
        -15    1    1    2    0    0 -0.65502890942E+01  0.24457925935E+01  0.33290242542E+02  0.34062973536E+02  0.17770000000E+01 0. -1.
         15    1    1    2    0    0  0.68144858468E+01  0.64050128885E+01  0.19674677973E+01  0.97206000839E+01  0.17770000000E+01 0.  1.
</event>
<event>
 6    1  0.4028964E-003  0.5001252E+03  0.7546771E-02  0.9399530E-01
        -11   -1    0    0    0    0  0.00000000000E+00  0.00000000000E+00  0.50000000000E+03  0.50000000000E+03  0.00000000000E+00 0. -1.
         11   -1    0    0    0    0 -0.00000000000E+00 -0.00000000000E+00 -0.50000000000E+03  0.50000000000E+03  0.00000000000E+00 0.  1.
        -11    1    1    2    0    0 -0.33736572526E+01  0.75852625056E+01  0.49980582790E+03  0.49987476769E+03  0.00000000000E+00 0. -1.
         11    1    1    2    0    0 -0.53677921363E+00 -0.23333750570E+01 -0.13498873661E+03  0.13500996919E+03  0.00000000000E+00 0.  1.
        -15    1    1    2    0    0  0.37176124688E+01  0.26094165807E+01 -0.23349995183E+03  0.23355088296E+03  0.17770000000E+01 0.  1.
         15    1    1    2    0    0  0.19282399743E+00 -0.78613040293E+01 -0.13131713946E+03  0.13156438016E+03  0.17770000000E+01 0. -1.
</event>
<event>
 6    1  0.4028964E-003  0.5011474E+03  0.7546771E-02  0.9397246E-01
        -11   -1    0    0    0    0  0.00000000000E+00  0.00000000000E+00  0.50000000000E+03  0.50000000000E+03  0.00000000000E+00 0. -1.
         11   -1    0    0    0    0 -0.00000000000E+00 -0.00000000000E+00 -0.50000000000E+03  0.50000000000E+03  0.00000000000E+00 0.  1.
        -11    1    1    2    0    0  0.14426799942E+02 -0.32334683947E+01  0.49863349611E+03  0.49885263487E+03  0.00000000000E+00 0. -1.
         11    1    1    2    0    0 -0.52415133399E+00  0.50281475283E+01 -0.35177412846E+03  0.35181045246E+03  0.00000000000E+00 0.  1.
        -15    1    1    2    0    0 -0.67044158829E+01 -0.25016953365E+01 -0.13582013826E+03  0.13602012850E+03  0.17770000000E+01 0.  1.
         15    1    1    2    0    0 -0.71982327253E+01  0.70701620291E+00 -0.11039229386E+02  0.13316784173E+02  0.17770000000E+01 0. -1.
</event>
<event>
 6    1  0.4028964E-003  0.5010068E+03  0.7546771E-02  0.9397560E-01
        -11   -1    0    0    0    0  0.00000000000E+00  0.00000000000E+00  0.50000000000E+03  0.50000000000E+03  0.00000000000E+00 0. -1.
         11   -1    0    0    0    0 -0.00000000000E+00 -0.00000000000E+00 -0.50000000000E+03  0.50000000000E+03  0.00000000000E+00 0. -1.
        -11    1    1    2    0    0  0.25586330518E+01 -0.73227111481E+01  0.37878471471E+03  0.37886412974E+03  0.00000000000E+00 0. -1.
         11    1    1    2    0    0  0.79742497004E+01 -0.62910289616E+01 -0.49888985861E+03  0.49899324317E+03  0.00000000000E+00 0. -1.
        -15    1    1    2    0    0 -0.62531886424E+01  0.26013724046E+01  0.17570934543E+02  0.18914676215E+02  0.17770000000E+01 0. -1.
         15    1    1    2    0    0 -0.42796941099E+01  0.11012367705E+02  0.10253420936E+03  0.10322795088E+03  0.17770000000E+01 0.  1.
</event>
<event>
 6    1  0.4028964E-003  0.5081070E+03  0.7546771E-02  0.9381850E-01
        -11   -1    0    0    0    0  0.00000000000E+00  0.00000000000E+00  0.50000000000E+03  0.50000000000E+03  0.00000000000E+00 0. -1.
         11   -1    0    0    0    0 -0.00000000000E+00 -0.00000000000E+00 -0.50000000000E+03  0.50000000000E+03  0.00000000000E+00 0.  1.
        -11    1    1    2    0    0 -0.10577107141E+02 -0.88179639722E+01  0.44197272668E+03  0.44218720335E+03  0.00000000000E+00 0. -1.
         11    1    1    2    0    0 -0.17605262892E+02  0.11368846547E+02 -0.49144635261E+03  0.49189298984E+03  0.00000000000E+00 0.  1.
        -15    1    1    2    0    0  0.21730337555E+02  0.32285417538E+01  0.52203468249E+02  0.56665605779E+02  0.17770000000E+01 0. -1.
         15    1    1    2    0    0  0.64520324785E+01 -0.57794243286E+01 -0.27298423111E+01  0.92542010307E+01  0.17770000000E+01 0.  1.
</event>
<event>
 6    1  0.4028964E-003  0.5199160E+03  0.7546771E-02  0.9356317E-01
        -11   -1    0    0    0    0  0.00000000000E+00  0.00000000000E+00  0.50000000000E+03  0.50000000000E+03  0.00000000000E+00 0.  1.
         11   -1    0    0    0    0 -0.00000000000E+00 -0.00000000000E+00 -0.50000000000E+03  0.50000000000E+03  0.00000000000E+00 0. -1.
        -11    1    1    2    0    0 -0.30890746756E+02  0.99829411759E+01  0.44557850435E+03  0.44675955602E+03  0.00000000000E+00 0.  1.
         11    1    1    2    0    0 -0.96852971295E+01 -0.23874980156E+02 -0.47939217420E+03  0.48008403050E+03  0.00000000000E+00 0. -1.
        -15    1    1    2    0    0  0.17642920453E+02  0.20774583707E+02 -0.47560869294E+01  0.27724250435E+02  0.17770000000E+01 0.  1.
         15    1    1    2    0    0  0.22933123432E+02 -0.68825447270E+01  0.38569756776E+02  0.45432163046E+02  0.17770000000E+01 0. -1.
</event>
<event>
 6    1  0.4028964E-003  0.5013635E+03  0.7546771E-02  0.9396764E-01
        -11   -1    0    0    0    0  0.00000000000E+00  0.00000000000E+00  0.50000000000E+03  0.50000000000E+03  0.00000000000E+00 0. -1.
         11   -1    0    0    0    0 -0.00000000000E+00 -0.00000000000E+00 -0.50000000000E+03  0.50000000000E+03  0.00000000000E+00 0. -1.
        -11    1    1    2    0    0  0.20314187422E+01 -0.79606905615E+01  0.49856882757E+03  0.49863651599E+03  0.00000000000E+00 0. -1.
         11    1    1    2    0    0 -0.87221448417E+00  0.59798054704E+01 -0.31923826617E+03  0.31929545787E+03  0.00000000000E+00 0. -1.
        -15    1    1    2    0    0 -0.10851811714E+02 -0.58874947111E+01 -0.34429460581E+02  0.36619255814E+02  0.17770000000E+01 0.  1.
         15    1    1    2    0    0  0.96926074561E+01  0.78683798023E+01 -0.14490110082E+03  0.14544877032E+03  0.17770000000E+01 0. -1.
</event>
<event>
 6    1  0.4028964E-003  0.5045733E+03  0.7546771E-02  0.9389634E-01
        -11   -1    0    0    0    0  0.00000000000E+00  0.00000000000E+00  0.50000000000E+03  0.50000000000E+03  0.00000000000E+00 0. -1.
         11   -1    0    0    0    0 -0.00000000000E+00 -0.00000000000E+00 -0.50000000000E+03  0.50000000000E+03  0.00000000000E+00 0. -1.
        -11    1    1    2    0    0  0.63415353177E+01 -0.24622427692E+01  0.49537994409E+03  0.49542665120E+03  0.00000000000E+00 0. -1.
         11    1    1    2    0    0  0.65728612022E+01  0.33019807627E+01 -0.48532684318E+03  0.48538258136E+03  0.00000000000E+00 0. -1.
        -15    1    1    2    0    0 -0.11423269592E+02 -0.36404735005E+01 -0.53575353036E+01  0.13251605526E+02  0.17770000000E+01 0.  1.
         15    1    1    2    0    0 -0.14911269281E+01  0.28007355070E+01 -0.46955656102E+01  0.59391619187E+01  0.17770000000E+01 0. -1.
</event>
<event>
 6    1  0.4028964E-003  0.5195328E+03  0.7546771E-02  0.9357134E-01
        -11   -1    0    0    0    0  0.00000000000E+00  0.00000000000E+00  0.50000000000E+03  0.50000000000E+03  0.00000000000E+00 0. -1.
         11   -1    0    0    0    0 -0.00000000000E+00 -0.00000000000E+00 -0.50000000000E+03  0.50000000000E+03  0.00000000000E+00 0.  1.
        -11    1    1    2    0    0 -0.23843977782E+02 -0.19814007247E+02  0.47946592393E+03  0.48046717096E+03  0.00000000000E+00 0. -1.
         11    1    1    2    0    0 -0.26983564137E+01  0.14470720815E+02 -0.43655981376E+03  0.43680791417E+03  0.00000000000E+00 0.  1.
        -15    1    1    2    0    0  0.22572081904E+02  0.17145392474E+02  0.86242678344E+01  0.29681628817E+02  0.17770000000E+01 0. -1.
         15    1    1    2    0    0  0.39702522916E+01 -0.11802106041E+02 -0.51530378000E+02  0.53043286060E+02  0.17770000000E+01 0.  1.
</event>
<event>
 6    1  0.4028964E-003  0.4870408E+03  0.7546771E-02  0.9429283E-01
        -11   -1    0    0    0    0  0.00000000000E+00  0.00000000000E+00  0.50000000000E+03  0.50000000000E+03  0.00000000000E+00 0. -1.
         11   -1    0    0    0    0 -0.00000000000E+00 -0.00000000000E+00 -0.50000000000E+03  0.50000000000E+03  0.00000000000E+00 0. -1.
        -11    1    1    2    0    0 -0.67715091416E+01 -0.19548373756E+01  0.48845335246E+03  0.48850419881E+03  0.00000000000E+00 0. -1.
         11    1    1    2    0    0  0.44254585717E+01  0.15709027475E+02 -0.48540787479E+03  0.48568216267E+03  0.00000000000E+00 0. -1.
        -15    1    1    2    0    0  0.75257994833E+01 -0.81510569740E+01  0.68754033908E+01  0.13172178576E+02  0.17770000000E+01 0. -1.
         15    1    1    2    0    0 -0.51797489133E+01 -0.56031331256E+01 -0.99208810533E+01  0.12641459943E+02  0.17770000000E+01 0.  1.
</event>
<event>
 6    1  0.4028964E-003  0.5034504E+03  0.7546771E-02  0.9392122E-01
        -11   -1    0    0    0    0  0.00000000000E+00  0.00000000000E+00  0.50000000000E+03  0.50000000000E+03  0.00000000000E+00 0. -1.
         11   -1    0    0    0    0 -0.00000000000E+00 -0.00000000000E+00 -0.50000000000E+03  0.50000000000E+03  0.00000000000E+00 0. -1.
        -11    1    1    2    0    0 -0.15401048004E+01 -0.21385558997E+01  0.16371744871E+03  0.16373865871E+03  0.00000000000E+00 0. -1.
         11    1    1    2    0    0 -0.62009902653E+02  0.66515523004E+01 -0.49261749200E+03  0.49654955905E+03  0.00000000000E+00 0. -1.
        -15    1    1    2    0    0  0.60473674904E+02  0.90787155644E+01  0.31098593155E+03  0.31694620330E+03  0.17770000000E+01 0. -1.
         15    1    1    2    0    0  0.30763325494E+01 -0.13591711965E+02  0.17914111735E+02  0.22765578937E+02  0.17770000000E+01 0.  1.
</event>
<event>
 6    1  0.4028964E-003  0.5100311E+03  0.7546771E-02  0.9377640E-01
        -11   -1    0    0    0    0  0.00000000000E+00  0.00000000000E+00  0.50000000000E+03  0.50000000000E+03  0.00000000000E+00 0.  1.
         11   -1    0    0    0    0 -0.00000000000E+00 -0.00000000000E+00 -0.50000000000E+03  0.50000000000E+03  0.00000000000E+00 0. -1.
        -11    1    1    2    0    0 -0.11000026556E+02 -0.85084786165E+01  0.48977155032E+03  0.48996894422E+03  0.00000000000E+00 0.  1.
         11    1    1    2    0    0 -0.97746988878E+01  0.24564107663E+02 -0.44658191699E+03  0.44736377670E+03  0.00000000000E+00 0. -1.
        -15    1    1    2    0    0  0.36437648495E+01  0.78047197547E+01  0.17335879073E+01  0.89640241387E+01  0.17770000000E+01 0. -1.
         15    1    1    2    0    0  0.17130960594E+02 -0.23860348801E+02 -0.44923221241E+02  0.53703254943E+02  0.17770000000E+01 0.  1.
</event>
<event>
 6    1  0.4028964E-003  0.5554062E+03  0.7546771E-02  0.9283713E-01
        -11   -1    0    0    0    0  0.00000000000E+00  0.00000000000E+00  0.50000000000E+03  0.50000000000E+03  0.00000000000E+00 0.  1.
         11   -1    0    0    0    0 -0.00000000000E+00 -0.00000000000E+00 -0.50000000000E+03  0.50000000000E+03  0.00000000000E+00 0. -1.
        -11    1    1    2    0    0  0.32960319791E+02 -0.10647319202E+02  0.37981894769E+03  0.38139504600E+03  0.00000000000E+00 0.  1.
         11    1    1    2    0    0 -0.79901016273E+01 -0.48226094510E+01 -0.44449586655E+03  0.44459383112E+03  0.00000000000E+00 0. -1.
        -15    1    1    2    0    0 -0.61173600606E+02 -0.49589119998E+02  0.56310175570E+01  0.78969337854E+02  0.17770000000E+01 0.  1.
         15    1    1    2    0    0  0.36203382442E+02  0.65059048652E+02  0.59045901303E+02  0.95041785029E+02  0.17770000000E+01 0. -1.
</event>
<event>
 6    1  0.4028964E-003  0.5005527E+03  0.7546771E-02  0.9398574E-01
        -11   -1    0    0    0    0  0.00000000000E+00  0.00000000000E+00  0.50000000000E+03  0.50000000000E+03  0.00000000000E+00 0.  1.
         11   -1    0    0    0    0 -0.00000000000E+00 -0.00000000000E+00 -0.50000000000E+03  0.50000000000E+03  0.00000000000E+00 0. -1.
        -11    1    1    2    0    0  0.75257633835E+01  0.67935157145E+00  0.49939012932E+03  0.49944729442E+03  0.00000000000E+00 0.  1.
         11    1    1    2    0    0 -0.13132993888E+01 -0.28577458776E+01 -0.22401067788E+03  0.22403275490E+03  0.00000000000E+00 0. -1.
        -15    1    1    2    0    0 -0.14166272257E+01  0.12639322415E+02 -0.17418650621E+03  0.17465925677E+03  0.17770000000E+01 0. -1.
         15    1    1    2    0    0 -0.47958367689E+01 -0.10460928109E+02 -0.10119294524E+03  0.10186069391E+03  0.17770000000E+01 0.  1.
</event>
<event>
 6    1  0.4028964E-003  0.5328235E+03  0.7546771E-02  0.9329219E-01
        -11   -1    0    0    0    0  0.00000000000E+00  0.00000000000E+00  0.50000000000E+03  0.50000000000E+03  0.00000000000E+00 0. -1.
         11   -1    0    0    0    0 -0.00000000000E+00 -0.00000000000E+00 -0.50000000000E+03  0.50000000000E+03  0.00000000000E+00 0.  1.
        -11    1    1    2    0    0  0.16756421681E+01 -0.20289018846E+02  0.40564803829E+03  0.40615856883E+03  0.00000000000E+00 0. -1.
         11    1    1    2    0    0  0.11601232988E+01  0.14183282046E+02 -0.46695974706E+03  0.46717653702E+03  0.00000000000E+00 0.  1.
        -15    1    1    2    0    0  0.36319048538E+02  0.42180382214E+02  0.42918284483E+02  0.70309279632E+02  0.17770000000E+01 0. -1.
         15    1    1    2    0    0 -0.39154814005E+02 -0.36074645414E+02  0.18393424281E+02  0.56355614514E+02  0.17770000000E+01 0.  1.
</event>
<event>
 6    1  0.4028964E-003  0.5001936E+03  0.7546771E-02  0.9399377E-01
        -11   -1    0    0    0    0  0.00000000000E+00  0.00000000000E+00  0.50000000000E+03  0.50000000000E+03  0.00000000000E+00 0. -1.
         11   -1    0    0    0    0 -0.00000000000E+00 -0.00000000000E+00 -0.50000000000E+03  0.50000000000E+03  0.00000000000E+00 0. -1.
        -11    1    1    2    0    0 -0.22669608295E+01 -0.64824190878E+01  0.49975922704E+03  0.49980640840E+03  0.00000000000E+00 0. -1.
         11    1    1    2    0    0 -0.13244028437E+01 -0.33427439199E+01 -0.26424709675E+02  0.26668206937E+02  0.00000000000E+00 0. -1.
        -15    1    1    2    0    0  0.17478669780E+01  0.13664645662E+01 -0.40051155730E+02  0.40151899939E+02  0.17770000000E+01 0.  1.
         15    1    1    2    0    0  0.18434966952E+01  0.84586984416E+01 -0.43328336164E+03  0.43337348472E+03  0.17770000000E+01 0. -1.
</event>
<event>
 6    1  0.4028964E-003  0.5009166E+03  0.7546771E-02  0.9397761E-01
        -11   -1    0    0    0    0  0.00000000000E+00  0.00000000000E+00  0.50000000000E+03  0.50000000000E+03  0.00000000000E+00 0. -1.
         11   -1    0    0    0    0 -0.00000000000E+00 -0.00000000000E+00 -0.50000000000E+03  0.50000000000E+03  0.00000000000E+00 0.  1.
        -11    1    1    2    0    0  0.48899792162E+01  0.68539755096E+01  0.45478429775E+03  0.45486222789E+03  0.00000000000E+00 0. -1.
         11    1    1    2    0    0 -0.76466470810E+01 -0.15255155556E+01 -0.49902252070E+03  0.49908343448E+03  0.00000000000E+00 0.  1.
        -15    1    1    2    0    0  0.56066946383E+01 -0.79016856228E-01  0.14085571626E+02  0.15264413695E+02  0.17770000000E+01 0. -1.
         15    1    1    2    0    0 -0.28500267734E+01 -0.52494430978E+01  0.30152651317E+02  0.30789923935E+02  0.17770000000E+01 0. -1.
</event>
<event>
 6    1  0.4028964E-003  0.5002970E+03  0.7546771E-02  0.9399145E-01
        -11   -1    0    0    0    0  0.00000000000E+00  0.00000000000E+00  0.50000000000E+03  0.50000000000E+03  0.00000000000E+00 0.  1.
         11   -1    0    0    0    0 -0.00000000000E+00 -0.00000000000E+00 -0.50000000000E+03  0.50000000000E+03  0.00000000000E+00 0. -1.
        -11    1    1    2    0    0  0.69152337142E+01 -0.56968814912E+00  0.49965482081E+03  0.49970299675E+03  0.00000000000E+00 0.  1.
         11    1    1    2    0    0 -0.57121070983E+01  0.31012949894E+01 -0.46968020485E+03  0.46972517606E+03  0.00000000000E+00 0. -1.
        -15    1    1    2    0    0  0.12566360094E+01 -0.12809654130E+01 -0.92333982068E+01  0.95725324703E+01  0.17770000000E+01 0. -1.
         15    1    1    2    0    0 -0.24597626252E+01 -0.12506414272E+01 -0.20741217748E+02  0.20999294722E+02  0.17770000000E+01 0. -1.
</event>
<event>
 6    1  0.4028964E-003  0.5078439E+03  0.7546771E-02  0.9382427E-01
        -11   -1    0    0    0    0  0.00000000000E+00  0.00000000000E+00  0.50000000000E+03  0.50000000000E+03  0.00000000000E+00 0.  1.
         11   -1    0    0    0    0 -0.00000000000E+00 -0.00000000000E+00 -0.50000000000E+03  0.50000000000E+03  0.00000000000E+00 0. -1.
        -11    1    1    2    0    0 -0.56061812273E+01  0.11156501370E+02  0.49199765794E+03  0.49215606489E+03  0.00000000000E+00 0.  1.
         11    1    1    2    0    0 -0.95492592990E+01 -0.72062264939E+01 -0.29084235410E+03  0.29108829072E+03  0.00000000000E+00 0. -1.
        -15    1    1    2    0    0  0.12104662971E+02 -0.20619942433E+02 -0.11958461099E+02  0.26793047838E+02  0.17770000000E+01 0.  1.
         15    1    1    2    0    0  0.30507775556E+01  0.16669667557E+02 -0.18919684274E+03  0.18996259656E+03  0.17770000000E+01 0. -1.
</event>
<event>
 6    1  0.4028964E-003  0.4733200E+03  0.7546771E-02  0.9461571E-01
        -11   -1    0    0    0    0  0.00000000000E+00  0.00000000000E+00  0.50000000000E+03  0.50000000000E+03  0.00000000000E+00 0.  1.
         11   -1    0    0    0    0 -0.00000000000E+00 -0.00000000000E+00 -0.50000000000E+03  0.50000000000E+03  0.00000000000E+00 0. -1.
        -11    1    1    2    0    0 -0.33901152398E+01  0.71007535948E+01  0.46781244940E+03  0.46787861823E+03  0.00000000000E+00 0.  1.
         11    1    1    2    0    0  0.45186103708E+01 -0.31683507412E+02 -0.47806658151E+03  0.47913663901E+03  0.00000000000E+00 0. -1.
        -15    1    1    2    0    0 -0.58334366473E+01 -0.12654520852E+02  0.45395690437E-01  0.14047265601E+02  0.17770000000E+01 0. -1.
         15    1    1    2    0    0  0.47049415162E+01  0.37237274669E+02  0.10208736421E+02  0.38937477163E+02  0.17770000000E+01 0.  1.
</event>
<event>
 6    1  0.4028964E-003  0.5006721E+03  0.7546771E-02  0.9398307E-01
        -11   -1    0    0    0    0  0.00000000000E+00  0.00000000000E+00  0.50000000000E+03  0.50000000000E+03  0.00000000000E+00 0.  1.
         11   -1    0    0    0    0 -0.00000000000E+00 -0.00000000000E+00 -0.50000000000E+03  0.50000000000E+03  0.00000000000E+00 0.  1.
        -11    1    1    2    0    0  0.13094613675E+02  0.96082434272E+01  0.49906370111E+03  0.49932791331E+03  0.00000000000E+00 0.  1.
         11    1    1    2    0    0 -0.66729901342E+00  0.23154273231E+01 -0.14936431113E+03  0.14938374721E+03  0.00000000000E+00 0.  1.
        -15    1    1    2    0    0  0.55796337507E+01  0.41545669733E+01 -0.14233190714E+03  0.14251288453E+03  0.17770000000E+01 0.  1.
         15    1    1    2    0    0 -0.18006948413E+02 -0.16078237724E+02 -0.20736748284E+03  0.20877545495E+03  0.17770000000E+01 0. -1.
</event>
<event>
 6    1  0.4028964E-003  0.5125252E+03  0.7546771E-02  0.9372212E-01
        -11   -1    0    0    0    0  0.00000000000E+00  0.00000000000E+00  0.50000000000E+03  0.50000000000E+03  0.00000000000E+00 0.  1.
         11   -1    0    0    0    0 -0.00000000000E+00 -0.00000000000E+00 -0.50000000000E+03  0.50000000000E+03  0.00000000000E+00 0.  1.
        -11    1    1    2    0    0  0.76110902532E+01  0.17169232792E+02  0.48711293445E+03  0.48747484259E+03  0.00000000000E+00 0.  1.
         11    1    1    2    0    0  0.56731371188E+01 -0.29875177099E+01 -0.20080334171E+03  0.20090567884E+03  0.00000000000E+00 0.  1.
        -15    1    1    2    0    0  0.21199502744E+02  0.20000206333E+01 -0.26881827914E+03  0.26966617127E+03  0.17770000000E+01 0.  1.
         15    1    1    2    0    0 -0.34483730116E+02 -0.16181735716E+02 -0.17491313590E+02  0.41953307302E+02  0.17770000000E+01 0. -1.
</event>
<event>
 6    1  0.4028964E-003  0.5126106E+03  0.7546771E-02  0.9372026E-01
        -11   -1    0    0    0    0  0.00000000000E+00  0.00000000000E+00  0.50000000000E+03  0.50000000000E+03  0.00000000000E+00 0. -1.
         11   -1    0    0    0    0 -0.00000000000E+00 -0.00000000000E+00 -0.50000000000E+03  0.50000000000E+03  0.00000000000E+00 0.  1.
        -11    1    1    2    0    0  0.30691835552E+01  0.65661102359E+01  0.48733553664E+03  0.48738943255E+03  0.00000000000E+00 0. -1.
         11    1    1    2    0    0 -0.86498497752E+01 -0.15925125927E+02 -0.44200630155E+03  0.44237766687E+03  0.00000000000E+00 0.  1.
        -15    1    1    2    0    0  0.15389415334E+02  0.18705624230E+02 -0.50166915634E+02  0.55736986242E+02  0.17770000000E+01 0. -1.
         15    1    1    2    0    0 -0.98087491137E+01 -0.93466085390E+01  0.48376805432E+01  0.14495914335E+02  0.17770000000E+01 0.  1.
</event>
<event>
 6    1  0.4028964E-003  0.5056676E+03  0.7546771E-02  0.9387217E-01
        -11   -1    0    0    0    0  0.00000000000E+00  0.00000000000E+00  0.50000000000E+03  0.50000000000E+03  0.00000000000E+00 0. -1.
         11   -1    0    0    0    0 -0.00000000000E+00 -0.00000000000E+00 -0.50000000000E+03  0.50000000000E+03  0.00000000000E+00 0. -1.
        -11    1    1    2    0    0 -0.75482077424E+01 -0.86598018408E+01  0.43412699501E+03  0.43427896035E+03  0.00000000000E+00 0. -1.
         11    1    1    2    0    0  0.18441021454E+01  0.12902961474E+02 -0.49416057730E+03  0.49433244207E+03  0.00000000000E+00 0. -1.
        -15    1    1    2    0    0 -0.10374890580E+02 -0.12993456930E+02  0.13971863108E+02  0.21790800014E+02  0.17770000000E+01 0.  1.
         15    1    1    2    0    0  0.16078996177E+02  0.87502972971E+01  0.46061719178E+02  0.49597797567E+02  0.17770000000E+01 0. -1.
</event>
<event>
 6    1  0.4028964E-003  0.5014087E+03  0.7546771E-02  0.9396663E-01
        -11   -1    0    0    0    0  0.00000000000E+00  0.00000000000E+00  0.50000000000E+03  0.50000000000E+03  0.00000000000E+00 0.  1.
         11   -1    0    0    0    0 -0.00000000000E+00 -0.00000000000E+00 -0.50000000000E+03  0.50000000000E+03  0.00000000000E+00 0. -1.
        -11    1    1    2    0    0  0.92935272852E+00  0.54025461057E+01  0.18737789310E+03  0.18745806471E+03  0.00000000000E+00 0.  1.
         11    1    1    2    0    0  0.13862649530E+02 -0.13199238950E+02 -0.49822371427E+03  0.49859127793E+03  0.00000000000E+00 0. -1.
        -15    1    1    2    0    0 -0.13821081090E+02 -0.41368435746E+01  0.35798197927E+02  0.38636827782E+02  0.17770000000E+01 0. -1.
         15    1    1    2    0    0 -0.97092116882E+00  0.11933536419E+02  0.27504762324E+03  0.27531382958E+03  0.17770000000E+01 0.  1.
</event>
<event>
 6    1  0.4028964E-003  0.4946364E+03  0.7546771E-02  0.9411892E-01
        -11   -1    0    0    0    0  0.00000000000E+00  0.00000000000E+00  0.50000000000E+03  0.50000000000E+03  0.00000000000E+00 0.  1.
         11   -1    0    0    0    0 -0.00000000000E+00 -0.00000000000E+00 -0.50000000000E+03  0.50000000000E+03  0.00000000000E+00 0. -1.
        -11    1    1    2    0    0  0.18191460362E+01  0.28069348073E+01  0.11758834427E+02  0.12225316454E+02  0.00000000000E+00 0.  1.
         11    1    1    2    0    0  0.69096579179E+01 -0.26606124807E+02 -0.49826149472E+03  0.49901918437E+03  0.00000000000E+00 0. -1.
        -15    1    1    2    0    0 -0.20176935221E+02  0.40888764564E+01  0.32323607321E+03  0.32389588510E+03  0.17770000000E+01 0.  1.
         15    1    1    2    0    0  0.11448131267E+02  0.19710313543E+02  0.16326658708E+03  0.16485961408E+03  0.17770000000E+01 0. -1.
</event>
<event>
 6    1  0.4028964E-003  0.5004050E+03  0.7546771E-02  0.9398904E-01
        -11   -1    0    0    0    0  0.00000000000E+00  0.00000000000E+00  0.50000000000E+03  0.50000000000E+03  0.00000000000E+00 0.  1.
         11   -1    0    0    0    0 -0.00000000000E+00 -0.00000000000E+00 -0.50000000000E+03  0.50000000000E+03  0.00000000000E+00 0.  1.
        -11    1    1    2    0    0 -0.83164630631E+01  0.49706034426E+01  0.49950100246E+03  0.49959495786E+03  0.00000000000E+00 0.  1.
         11    1    1    2    0    0 -0.30209435491E+00 -0.43685448213E+01 -0.15171066991E+03  0.15177385417E+03  0.00000000000E+00 0.  1.
        -15    1    1    2    0    0  0.49527127489E+01  0.37916101607E+01 -0.32505140878E+03  0.32511610503E+03  0.17770000000E+01 0.  1.
         15    1    1    2    0    0  0.36658446691E+01 -0.43936687820E+01 -0.22738923779E+02  0.23515082950E+02  0.17770000000E+01 0. -1.
</event>
<event>
 6    1  0.4028964E-003  0.5117293E+03  0.7546771E-02  0.9373940E-01
        -11   -1    0    0    0    0  0.00000000000E+00  0.00000000000E+00  0.50000000000E+03  0.50000000000E+03  0.00000000000E+00 0. -1.
         11   -1    0    0    0    0 -0.00000000000E+00 -0.00000000000E+00 -0.50000000000E+03  0.50000000000E+03  0.00000000000E+00 0.  1.
        -11    1    1    2    0    0  0.76854890723E+01  0.21807751580E+02  0.43796576494E+03  0.43857571300E+03  0.00000000000E+00 0. -1.
         11    1    1    2    0    0 -0.89510910643E+01 -0.24214236498E+01 -0.48818265688E+03  0.48827071569E+03  0.00000000000E+00 0.  1.
        -15    1    1    2    0    0  0.24819667850E+02 -0.91408589236E+01  0.32302077344E+02  0.41786997306E+02  0.17770000000E+01 0. -1.
         15    1    1    2    0    0 -0.23554065858E+02 -0.10245469007E+02  0.17914814597E+02  0.31366574003E+02  0.17770000000E+01 0.  1.
</event>
<event>
 6    1  0.4028964E-003  0.5005139E+03  0.7546771E-02  0.9398660E-01
        -11   -1    0    0    0    0  0.00000000000E+00  0.00000000000E+00  0.50000000000E+03  0.50000000000E+03  0.00000000000E+00 0.  1.
         11   -1    0    0    0    0 -0.00000000000E+00 -0.00000000000E+00 -0.50000000000E+03  0.50000000000E+03  0.00000000000E+00 0.  1.
        -11    1    1    2    0    0 -0.79164076867E+01 -0.49494926101E+01  0.49939880372E+03  0.49948606802E+03  0.00000000000E+00 0.  1.
         11    1    1    2    0    0 -0.18330346961E+01  0.29021633672E+01 -0.19050480697E+03  0.19053572905E+03  0.00000000000E+00 0.  1.
        -15    1    1    2    0    0  0.14089130765E+02  0.78846449169E+01 -0.26075086351E+03  0.26125627606E+03  0.17770000000E+01 0.  1.
         15    1    1    2    0    0 -0.43396883819E+01 -0.58373156740E+01 -0.48143133248E+02  0.48721926866E+02  0.17770000000E+01 0. -1.
</event>
<event>
 6    1  0.4028964E-003  0.5140803E+03  0.7546771E-02  0.9368844E-01
        -11   -1    0    0    0    0  0.00000000000E+00  0.00000000000E+00  0.50000000000E+03  0.50000000000E+03  0.00000000000E+00 0. -1.
         11   -1    0    0    0    0 -0.00000000000E+00 -0.00000000000E+00 -0.50000000000E+03  0.50000000000E+03  0.00000000000E+00 0. -1.
        -11    1    1    2    0    0 -0.11686669365E+02 -0.10630178253E+01  0.39407853471E+03  0.39425321783E+03  0.00000000000E+00 0. -1.
         11    1    1    2    0    0  0.14380454725E+01 -0.80894123832E+01 -0.48585025168E+03  0.48591971932E+03  0.00000000000E+00 0. -1.
        -15    1    1    2    0    0 -0.24514178195E+01 -0.30443657669E+02  0.19058537686E+02  0.36044574201E+02  0.17770000000E+01 0.  1.
         15    1    1    2    0    0  0.12700041712E+02  0.39596087878E+02  0.72713179283E+02  0.83782488655E+02  0.17770000000E+01 0. -1.
</event>
<event>
 6    1  0.4028964E-003  0.5111238E+03  0.7546771E-02  0.9375258E-01
        -11   -1    0    0    0    0  0.00000000000E+00  0.00000000000E+00  0.50000000000E+03  0.50000000000E+03  0.00000000000E+00 0. -1.
         11   -1    0    0    0    0 -0.00000000000E+00 -0.00000000000E+00 -0.50000000000E+03  0.50000000000E+03  0.00000000000E+00 0. -1.
        -11    1    1    2    0    0 -0.92348036322E+01 -0.33644182267E+01  0.46366467633E+03  0.46376883572E+03  0.00000000000E+00 0. -1.
         11    1    1    2    0    0 -0.64239736106E+01 -0.64820947589E+01 -0.48879098450E+03  0.48887617196E+03  0.00000000000E+00 0. -1.
        -15    1    1    2    0    0  0.62530109130E+01  0.67591936960E+01  0.33173904549E+02  0.34473939678E+02  0.17770000000E+01 0.  1.
         15    1    1    2    0    0  0.94057663298E+01  0.30873192895E+01 -0.80475963806E+01  0.12881052641E+02  0.17770000000E+01 0. -1.
</event>
<event>
 6    1  0.4028964E-003  0.5386893E+03  0.7546771E-02  0.9317172E-01
        -11   -1    0    0    0    0  0.00000000000E+00  0.00000000000E+00  0.50000000000E+03  0.50000000000E+03  0.00000000000E+00 0. -1.
         11   -1    0    0    0    0 -0.00000000000E+00 -0.00000000000E+00 -0.50000000000E+03  0.50000000000E+03  0.00000000000E+00 0.  1.
        -11    1    1    2    0    0  0.46983434156E+01 -0.31405549136E+01  0.26845324593E+03  0.26851272366E+03  0.00000000000E+00 0. -1.
         11    1    1    2    0    0 -0.19321374066E-01 -0.23608231461E+02 -0.46070618988E+03  0.46131067879E+03  0.00000000000E+00 0.  1.
        -15    1    1    2    0    0  0.60310965710E+01  0.21801189199E+02 -0.35489001468E+02  0.42122356659E+02  0.17770000000E+01 0.  1.
         15    1    1    2    0    0 -0.10710118613E+02  0.49475971754E+01  0.22774194542E+03  0.22805424090E+03  0.17770000000E+01 0. -1.
</event>
<event>
 6    1  0.4028964E-003  0.5002764E+03  0.7546771E-02  0.9399191E-01
        -11   -1    0    0    0    0  0.00000000000E+00  0.00000000000E+00  0.50000000000E+03  0.50000000000E+03  0.00000000000E+00 0.  1.
         11   -1    0    0    0    0 -0.00000000000E+00 -0.00000000000E+00 -0.50000000000E+03  0.50000000000E+03  0.00000000000E+00 0.  1.
        -11    1    1    2    0    0  0.61502217271E+01 -0.14475619209E+02  0.49947599563E+03  0.49972356257E+03  0.00000000000E+00 0.  1.
         11    1    1    2    0    0 -0.22055791622E+01 -0.61716860862E+00 -0.16905262425E+03  0.16906813787E+03  0.00000000000E+00 0.  1.
        -15    1    1    2    0    0 -0.22326431308E+01  0.27355393584E+01 -0.14368707767E+02  0.14902528739E+02  0.17770000000E+01 0. -1.
         15    1    1    2    0    0 -0.17119994341E+01  0.12357248459E+02 -0.31605466362E+03  0.31630577082E+03  0.17770000000E+01 0.  1.
</event>
<event>
 6    1  0.4028964E-003  0.5043817E+03  0.7546771E-02  0.9390058E-01
        -11   -1    0    0    0    0  0.00000000000E+00  0.00000000000E+00  0.50000000000E+03  0.50000000000E+03  0.00000000000E+00 0. -1.
         11   -1    0    0    0    0 -0.00000000000E+00 -0.00000000000E+00 -0.50000000000E+03  0.50000000000E+03  0.00000000000E+00 0. -1.
        -11    1    1    2    0    0  0.54216150375E+01 -0.72617336869E+01  0.44729251352E+03  0.44738430833E+03  0.00000000000E+00 0. -1.
         11    1    1    2    0    0 -0.43111987962E+01 -0.17520945070E+02 -0.49528972836E+03  0.49561828554E+03  0.00000000000E+00 0. -1.
        -15    1    1    2    0    0  0.60189743956E+01  0.95617744249E+01  0.91992410992E+01  0.14677852320E+02  0.17770000000E+01 0.  1.
         15    1    1    2    0    0 -0.71293906368E+01  0.15220904332E+02  0.38797973732E+02  0.42319553805E+02  0.17770000000E+01 0. -1.
</event>
<event>
 6    1  0.4028964E-003  0.5036171E+03  0.7546771E-02  0.9391752E-01
        -11   -1    0    0    0    0  0.00000000000E+00  0.00000000000E+00  0.50000000000E+03  0.50000000000E+03  0.00000000000E+00 0. -1.
         11   -1    0    0    0    0 -0.00000000000E+00 -0.00000000000E+00 -0.50000000000E+03  0.50000000000E+03  0.00000000000E+00 0. -1.
        -11    1    1    2    0    0 -0.11634660954E+01  0.15753706078E+02  0.42106610961E+03  0.42136231627E+03  0.00000000000E+00 0. -1.
         11    1    1    2    0    0  0.66137119057E+01  0.56644906026E+01 -0.49630647594E+03  0.49638286201E+03  0.00000000000E+00 0. -1.
        -15    1    1    2    0    0  0.30659782661E+00 -0.11286017163E+02  0.66764902034E+02  0.67736091253E+02  0.17770000000E+01 0.  1.
         15    1    1    2    0    0 -0.57568436370E+01 -0.10132179517E+02  0.84754642894E+01  0.14518730466E+02  0.17770000000E+01 0. -1.
</event>
<event>
 6    1  0.4028964E-003  0.5666431E+03  0.7546771E-02  0.9261916E-01
        -11   -1    0    0    0    0  0.00000000000E+00  0.00000000000E+00  0.50000000000E+03  0.50000000000E+03  0.00000000000E+00 0.  1.
         11   -1    0    0    0    0 -0.00000000000E+00 -0.00000000000E+00 -0.50000000000E+03  0.50000000000E+03  0.00000000000E+00 0. -1.
        -11    1    1    2    0    0  0.12544550615E+02 -0.15243242848E+02  0.43290702617E+03  0.43335691469E+03  0.00000000000E+00 0.  1.
         11    1    1    2    0    0  0.53962054144E+01  0.28024076265E+01 -0.41807540147E+03  0.41811961666E+03  0.00000000000E+00 0. -1.
        -15    1    1    2    0    0 -0.19594990316E+01 -0.77072813691E+01 -0.78974881664E+02  0.79394152715E+02  0.17770000000E+01 0. -1.
         15    1    1    2    0    0 -0.15981256997E+02  0.20148116590E+02  0.64143256973E+02  0.69129315934E+02  0.17770000000E+01 0.  1.
</event>
<event>
 6    1  0.4028964E-003  0.5029877E+03  0.7546771E-02  0.9393149E-01
        -11   -1    0    0    0    0  0.00000000000E+00  0.00000000000E+00  0.50000000000E+03  0.50000000000E+03  0.00000000000E+00 0. -1.
         11   -1    0    0    0    0 -0.00000000000E+00 -0.00000000000E+00 -0.50000000000E+03  0.50000000000E+03  0.00000000000E+00 0. -1.
        -11    1    1    2    0    0 -0.52583105139E+01 -0.84872568881E+01  0.32317521101E+03  0.32332939918E+03  0.00000000000E+00 0. -1.
         11    1    1    2    0    0  0.68715388946E+01  0.58490462594E+01 -0.49693037445E+03  0.49701230009E+03  0.00000000000E+00 0. -1.
        -15    1    1    2    0    0 -0.72050174062E+00 -0.30408240674E+01 -0.17859363248E+01  0.40141040499E+01  0.17770000000E+01 0.  1.
         15    1    1    2    0    0 -0.89272664008E+00  0.56790346961E+01  0.17554109976E+03  0.17564419669E+03  0.17770000000E+01 0. -1.
</event>
<event>
 6    1  0.4028964E-003  0.5056237E+03  0.7546771E-02  0.9387313E-01
        -11   -1    0    0    0    0  0.00000000000E+00  0.00000000000E+00  0.50000000000E+03  0.50000000000E+03  0.00000000000E+00 0.  1.
         11   -1    0    0    0    0 -0.00000000000E+00 -0.00000000000E+00 -0.50000000000E+03  0.50000000000E+03  0.00000000000E+00 0.  1.
        -11    1    1    2    0    0  0.12196587741E+02  0.43811481391E+01  0.49420638008E+03  0.49437627100E+03  0.00000000000E+00 0.  1.
         11    1    1    2    0    0 -0.59328817893E+01 -0.20375139694E+01 -0.46063682554E+03  0.46067953677E+03  0.00000000000E+00 0.  1.
        -15    1    1    2    0    0 -0.83798357604E+01 -0.97723397147E+01 -0.29640740360E+01  0.13329056034E+02  0.17770000000E+01 0.  1.
         15    1    1    2    0    0  0.21161298090E+01  0.74287055449E+01 -0.30605480503E+02  0.31615136205E+02  0.17770000000E+01 0. -1.
</event>
<event>
 6    1  0.4028964E-003  0.5041123E+03  0.7546771E-02  0.9390655E-01
        -11   -1    0    0    0    0  0.00000000000E+00  0.00000000000E+00  0.50000000000E+03  0.50000000000E+03  0.00000000000E+00 0.  1.
         11   -1    0    0    0    0 -0.00000000000E+00 -0.00000000000E+00 -0.50000000000E+03  0.50000000000E+03  0.00000000000E+00 0.  1.
        -11    1    1    2    0    0  0.12924350672E+02  0.13734773915E+02  0.20690859509E+03  0.20776633408E+03  0.00000000000E+00 0.  1.
         11    1    1    2    0    0 -0.11116933774E+02  0.40520133724E+01 -0.49574649888E+03  0.49588768504E+03  0.00000000000E+00 0.  1.
        -15    1    1    2    0    0 -0.62015226620E+01 -0.56030801711E+01  0.28094493964E+03  0.28107484809E+03  0.17770000000E+01 0.  1.
         15    1    1    2    0    0  0.43941057647E+01 -0.12183707117E+02  0.78929641509E+01  0.15271132789E+02  0.17770000000E+01 0. -1.
</event>
<event>
 6    1  0.4028964E-003  0.5061552E+03  0.7546771E-02  0.9386141E-01
        -11   -1    0    0    0    0  0.00000000000E+00  0.00000000000E+00  0.50000000000E+03  0.50000000000E+03  0.00000000000E+00 0. -1.
         11   -1    0    0    0    0 -0.00000000000E+00 -0.00000000000E+00 -0.50000000000E+03  0.50000000000E+03  0.00000000000E+00 0. -1.
        -11    1    1    2    0    0  0.25204509228E+02  0.56411649614E+00  0.49320085746E+03  0.49384478463E+03  0.00000000000E+00 0. -1.
         11    1    1    2    0    0 -0.39463626447E+01 -0.82566070257E+01 -0.45681771779E+03  0.45690937025E+03  0.00000000000E+00 0. -1.
        -15    1    1    2    0    0 -0.90502675153E+01  0.49607340265E+01 -0.35002130268E+02  0.36535230620E+02  0.17770000000E+01 0.  1.
         15    1    1    2    0    0 -0.12207879068E+02  0.27317565030E+01 -0.13810093978E+01  0.12710614497E+02  0.17770000000E+01 0. -1.
</event>
<event>
 6    1  0.4028964E-003  0.5027370E+03  0.7546771E-02  0.9393706E-01
        -11   -1    0    0    0    0  0.00000000000E+00  0.00000000000E+00  0.50000000000E+03  0.50000000000E+03  0.00000000000E+00 0.  1.
         11   -1    0    0    0    0 -0.00000000000E+00 -0.00000000000E+00 -0.50000000000E+03  0.50000000000E+03  0.00000000000E+00 0. -1.
        -11    1    1    2    0    0  0.10612031780E+02 -0.31412982305E+01  0.49713983397E+03  0.49726300636E+03  0.00000000000E+00 0.  1.
         11    1    1    2    0    0  0.12814082590E+01  0.63938360755E+01 -0.44550173428E+03  0.44554945673E+03  0.00000000000E+00 0. -1.
        -15    1    1    2    0    0 -0.33795355608E+01 -0.86788530549E+01 -0.42203648250E+02  0.43255628600E+02  0.17770000000E+01 0.  1.
         15    1    1    2    0    0 -0.85139044782E+01  0.54263152100E+01 -0.94344514354E+01  0.13931908308E+02  0.17770000000E+01 0. -1.
</event>
<event>
 6    1  0.4028964E-003  0.5085272E+03  0.7546771E-02  0.9380929E-01
        -11   -1    0    0    0    0  0.00000000000E+00  0.00000000000E+00  0.50000000000E+03  0.50000000000E+03  0.00000000000E+00 0.  1.
         11   -1    0    0    0    0 -0.00000000000E+00 -0.00000000000E+00 -0.50000000000E+03  0.50000000000E+03  0.00000000000E+00 0.  1.
        -11    1    1    2    0    0 -0.23777517522E+01 -0.31387852789E+01  0.29165248409E+03  0.29167906533E+03  0.00000000000E+00 0.  1.
         11    1    1    2    0    0 -0.70410341791E+01 -0.98307293423E+00 -0.49142139111E+03  0.49147281333E+03  0.00000000000E+00 0.  1.
        -15    1    1    2    0    0  0.85160934999E+00  0.28325149637E+01  0.20600036546E+03  0.20602926170E+03  0.17770000000E+01 0. -1.
         15    1    1    2    0    0  0.85671765813E+01  0.12893432494E+01 -0.62314584378E+01  0.10818859637E+02  0.17770000000E+01 0. -1.
</event>
<event>
 6    1  0.4028964E-003  0.5023866E+03  0.7546771E-02  0.9394485E-01
        -11   -1    0    0    0    0  0.00000000000E+00  0.00000000000E+00  0.50000000000E+03  0.50000000000E+03  0.00000000000E+00 0. -1.
         11   -1    0    0    0    0 -0.00000000000E+00 -0.00000000000E+00 -0.50000000000E+03  0.50000000000E+03  0.00000000000E+00 0. -1.
        -11    1    1    2    0    0  0.13926809862E+01  0.77941797601E+01  0.49755042668E+03  0.49761342012E+03  0.00000000000E+00 0. -1.
         11    1    1    2    0    0  0.10851190891E+02  0.35569579716E+01 -0.17146274252E+03  0.17184258019E+03  0.00000000000E+00 0. -1.
        -15    1    1    2    0    0 -0.16206101992E+02 -0.22471258256E+02 -0.90700228030E+02  0.94854015640E+02  0.17770000000E+01 0.  1.
         15    1    1    2    0    0  0.39622301146E+01  0.11120120524E+02 -0.23538745613E+03  0.23568998405E+03  0.17770000000E+01 0. -1.
</event>
<event>
 6    1  0.4028964E-003  0.5096443E+03  0.7546771E-02  0.9378485E-01
        -11   -1    0    0    0    0  0.00000000000E+00  0.00000000000E+00  0.50000000000E+03  0.50000000000E+03  0.00000000000E+00 0. -1.
         11   -1    0    0    0    0 -0.00000000000E+00 -0.00000000000E+00 -0.50000000000E+03  0.50000000000E+03  0.00000000000E+00 0.  1.
        -11    1    1    2    0    0  0.10064498971E+02 -0.11542413932E+02  0.49011650088E+03  0.49035569324E+03  0.00000000000E+00 0. -1.
         11    1    1    2    0    0 -0.89569612668E+01 -0.65408244088E+01 -0.47790040380E+03  0.47802908436E+03  0.00000000000E+00 0.  1.
        -15    1    1    2    0    0  0.94982016860E+00  0.68320690289E+01 -0.17497891648E+02  0.18892148281E+02  0.17770000000E+01 0. -1.
         15    1    1    2    0    0 -0.20573578729E+01  0.11251169311E+02  0.52817945723E+01  0.12723074125E+02  0.17770000000E+01 0.  1.
</event>
<event>
 6    1  0.4028964E-003  0.5010578E+03  0.7546771E-02  0.9397446E-01
        -11   -1    0    0    0    0  0.00000000000E+00  0.00000000000E+00  0.50000000000E+03  0.50000000000E+03  0.00000000000E+00 0. -1.
         11   -1    0    0    0    0 -0.00000000000E+00 -0.00000000000E+00 -0.50000000000E+03  0.50000000000E+03  0.00000000000E+00 0.  1.
        -11    1    1    2    0    0 -0.10278805506E+02 -0.12137718884E+00  0.27741625872E+03  0.27760664469E+03  0.00000000000E+00 0. -1.
         11    1    1    2    0    0  0.18996863899E+01 -0.10884147408E+02 -0.49881988833E+03  0.49894223560E+03  0.00000000000E+00 0.  1.
        -15    1    1    2    0    0  0.10294313035E+02  0.27381889613E+01  0.20089467729E+03  0.20118474011E+03  0.17770000000E+01 0.  1.
         15    1    1    2    0    0 -0.19151939188E+01  0.82673356352E+01  0.20508952322E+02  0.22266379602E+02  0.17770000000E+01 0. -1.
</event>
<event>
 6    1  0.4028964E-003  0.5097130E+03  0.7546771E-02  0.9378335E-01
        -11   -1    0    0    0    0  0.00000000000E+00  0.00000000000E+00  0.50000000000E+03  0.50000000000E+03  0.00000000000E+00 0. -1.
         11   -1    0    0    0    0 -0.00000000000E+00 -0.00000000000E+00 -0.50000000000E+03  0.50000000000E+03  0.00000000000E+00 0.  1.
        -11    1    1    2    0    0  0.12735518554E+02 -0.56313200789E+01  0.44412289862E+03  0.44434114628E+03  0.00000000000E+00 0. -1.
         11    1    1    2    0    0  0.19172416408E+02 -0.89729161241E+01 -0.48982977743E+03  0.49028696253E+03  0.00000000000E+00 0.  1.
        -15    1    1    2    0    0 -0.25772028369E+02  0.14881579806E+02  0.13838216927E+02  0.32868112822E+02  0.17770000000E+01 0. -1.
         15    1    1    2    0    0 -0.61359065937E+01 -0.27734360285E+00  0.31868661883E+02  0.32503778371E+02  0.17770000000E+01 0.  1.
</event>
<event>
 6    1  0.4028964E-003  0.5017892E+03  0.7546771E-02  0.9395815E-01
        -11   -1    0    0    0    0  0.00000000000E+00  0.00000000000E+00  0.50000000000E+03  0.50000000000E+03  0.00000000000E+00 0. -1.
         11   -1    0    0    0    0 -0.00000000000E+00 -0.00000000000E+00 -0.50000000000E+03  0.50000000000E+03  0.00000000000E+00 0. -1.
        -11    1    1    2    0    0  0.10413777367E+02  0.59755697124E+01  0.49806615583E+03  0.49821084872E+03  0.00000000000E+00 0. -1.
         11    1    1    2    0    0  0.55337369859E+00  0.22507808918E+00 -0.28521264658E+02  0.28527520402E+02  0.00000000000E+00 0. -1.
        -15    1    1    2    0    0  0.83251886974E+01 -0.12705465109E+02 -0.34510284901E+02  0.37747252925E+02  0.17770000000E+01 0.  1.
         15    1    1    2    0    0 -0.19292339763E+02  0.65048173073E+01 -0.43503460627E+03  0.43551437796E+03  0.17770000000E+01 0. -1.
</event>
<event>
 6    1  0.4028964E-003  0.5006766E+03  0.7546771E-02  0.9398297E-01
        -11   -1    0    0    0    0  0.00000000000E+00  0.00000000000E+00  0.50000000000E+03  0.50000000000E+03  0.00000000000E+00 0.  1.
         11   -1    0    0    0    0 -0.00000000000E+00 -0.00000000000E+00 -0.50000000000E+03  0.50000000000E+03  0.00000000000E+00 0. -1.
        -11    1    1    2    0    0  0.14010653642E+02 -0.64892622876E+01  0.49908464807E+03  0.49932343714E+03  0.00000000000E+00 0.  1.
         11    1    1    2    0    0  0.52609466785E+01  0.14101628380E+01 -0.25285851059E+03  0.25291716529E+03  0.00000000000E+00 0. -1.
        -15    1    1    2    0    0 -0.82829172701E+01 -0.66797970902E+01 -0.75450270582E+02  0.76217632261E+02  0.17770000000E+01 0.  1.
         15    1    1    2    0    0 -0.10988683050E+02  0.11758896540E+02 -0.17077586689E+03  0.17154176531E+03  0.17770000000E+01 0. -1.
</event>
<event>
 6    1  0.4028964E-003  0.5025779E+03  0.7546771E-02  0.9394060E-01
        -11   -1    0    0    0    0  0.00000000000E+00  0.00000000000E+00  0.50000000000E+03  0.50000000000E+03  0.00000000000E+00 0.  1.
         11   -1    0    0    0    0 -0.00000000000E+00 -0.00000000000E+00 -0.50000000000E+03  0.50000000000E+03  0.00000000000E+00 0. -1.
        -11    1    1    2    0    0 -0.63511890752E+01  0.34772488841E+01  0.49736934910E+03  0.49742205247E+03  0.00000000000E+00 0.  1.
         11    1    1    2    0    0 -0.52762545928E+01  0.46305969009E+01 -0.43495810169E+03  0.43501474862E+03  0.00000000000E+00 0. -1.
        -15    1    1    2    0    0  0.10278358145E+02 -0.64468045975E+01 -0.12277168687E+02  0.17352018200E+02  0.17770000000E+01 0.  1.
         15    1    1    2    0    0  0.13490855236E+01 -0.16610411875E+01 -0.50134078721E+02  0.50211180705E+02  0.17770000000E+01 0. -1.
</event>
<event>
 6    1  0.4028964E-003  0.5018688E+03  0.7546771E-02  0.9395638E-01
        -11   -1    0    0    0    0  0.00000000000E+00  0.00000000000E+00  0.50000000000E+03  0.50000000000E+03  0.00000000000E+00 0.  1.
         11   -1    0    0    0    0 -0.00000000000E+00 -0.00000000000E+00 -0.50000000000E+03  0.50000000000E+03  0.00000000000E+00 0. -1.
        -11    1    1    2    0    0 -0.66884204673E+01 -0.29120765988E+01  0.34690209934E+03  0.34697879140E+03  0.00000000000E+00 0.  1.
         11    1    1    2    0    0  0.40887733721E+01  0.18350853474E+02 -0.49777628265E+03  0.49813120708E+03  0.00000000000E+00 0. -1.
        -15    1    1    2    0    0  0.12921859536E+02 -0.11977661694E+02  0.13072352149E+03  0.13191753346E+03  0.17770000000E+01 0.  1.
         15    1    1    2    0    0 -0.10322212440E+02 -0.34611151820E+01  0.20150661823E+02  0.22972468062E+02  0.17770000000E+01 0. -1.
</event>
<event>
 6    1  0.4028964E-003  0.5042739E+03  0.7546771E-02  0.9390297E-01
        -11   -1    0    0    0    0  0.00000000000E+00  0.00000000000E+00  0.50000000000E+03  0.50000000000E+03  0.00000000000E+00 0.  1.
         11   -1    0    0    0    0 -0.00000000000E+00 -0.00000000000E+00 -0.50000000000E+03  0.50000000000E+03  0.00000000000E+00 0.  1.
        -11    1    1    2    0    0 -0.90948643956E+00  0.72790908863E+01  0.49567184511E+03  0.49572612435E+03  0.00000000000E+00 0.  1.
         11    1    1    2    0    0  0.65290845260E+01  0.39583408758E+01 -0.46288003078E+03  0.46294299897E+03  0.00000000000E+00 0.  1.
        -15    1    1    2    0    0 -0.58536751539E+01 -0.12966727917E+02 -0.80078525215E+01  0.16422088073E+02  0.17770000000E+01 0. -1.
         15    1    1    2    0    0  0.23407706753E+00  0.17292961546E+01 -0.24783961814E+02  0.24908788599E+02  0.17770000000E+01 0.  1.
</event>
<event>
 6    1  0.4028964E-003  0.5054405E+03  0.7546771E-02  0.9387718E-01
        -11   -1    0    0    0    0  0.00000000000E+00  0.00000000000E+00  0.50000000000E+03  0.50000000000E+03  0.00000000000E+00 0.  1.
         11   -1    0    0    0    0 -0.00000000000E+00 -0.00000000000E+00 -0.50000000000E+03  0.50000000000E+03  0.00000000000E+00 0. -1.
        -11    1    1    2    0    0 -0.40291030305E+01  0.24195702051E+02  0.49395087108E+03  0.49455953000E+03  0.00000000000E+00 0.  1.
         11    1    1    2    0    0 -0.44577963579E+01  0.61735213700E+01 -0.35632237427E+03  0.35640372995E+03  0.00000000000E+00 0. -1.
        -15    1    1    2    0    0 -0.93488308319E+01 -0.20191737369E+02 -0.11956178277E+03  0.12162764704E+03  0.17770000000E+01 0. -1.
         15    1    1    2    0    0  0.17835730220E+02 -0.10177486052E+02 -0.18066714031E+02  0.27409093012E+02  0.17770000000E+01 0.  1.
</event>
<event>
 6    1  0.4028964E-003  0.5070997E+03  0.7546771E-02  0.9384062E-01
        -11   -1    0    0    0    0  0.00000000000E+00  0.00000000000E+00  0.50000000000E+03  0.50000000000E+03  0.00000000000E+00 0. -1.
         11   -1    0    0    0    0 -0.00000000000E+00 -0.00000000000E+00 -0.50000000000E+03  0.50000000000E+03  0.00000000000E+00 0. -1.
        -11    1    1    2    0    0  0.19462999612E+00 -0.85715459041E+01  0.32469101791E+03  0.32480419701E+03  0.00000000000E+00 0. -1.
         11    1    1    2    0    0  0.57256146878E+02  0.18525443338E+02 -0.48921284427E+03  0.49290025908E+03  0.00000000000E+00 0. -1.
        -15    1    1    2    0    0 -0.10770988751E+02  0.18752524039E+02  0.66890754546E+02  0.70322131149E+02  0.17770000000E+01 0.  1.
         15    1    1    2    0    0 -0.46679788123E+02 -0.28706421474E+02  0.97631071810E+02  0.11197341276E+03  0.17770000000E+01 0. -1.
</event>
<event>
 6    1  0.4028964E-003  0.5005601E+03  0.7546771E-02  0.9398557E-01
        -11   -1    0    0    0    0  0.00000000000E+00  0.00000000000E+00  0.50000000000E+03  0.50000000000E+03  0.00000000000E+00 0.  1.
         11   -1    0    0    0    0 -0.00000000000E+00 -0.00000000000E+00 -0.50000000000E+03  0.50000000000E+03  0.00000000000E+00 0. -1.
        -11    1    1    2    0    0  0.13260109268E+02 -0.53373980075E+01  0.49923529942E+03  0.49943988878E+03  0.00000000000E+00 0.  1.
         11    1    1    2    0    0 -0.43309764248E+01  0.87298380901E+00 -0.31857222987E+03  0.31860286424E+03  0.00000000000E+00 0. -1.
        -15    1    1    2    0    0 -0.50234815716E+01  0.87118418477E+00 -0.11529676215E+02  0.12731280046E+02  0.17770000000E+01 0.  1.
         15    1    1    2    0    0 -0.39056512719E+01  0.35932300137E+01 -0.16913339334E+03  0.16922596693E+03  0.17770000000E+01 0. -1.
</event>
<event>
 6    1  0.4028964E-003  0.5070156E+03  0.7546771E-02  0.9384247E-01
        -11   -1    0    0    0    0  0.00000000000E+00  0.00000000000E+00  0.50000000000E+03  0.50000000000E+03  0.00000000000E+00 0.  1.
         11   -1    0    0    0    0 -0.00000000000E+00 -0.00000000000E+00 -0.50000000000E+03  0.50000000000E+03  0.00000000000E+00 0.  1.
        -11    1    1    2    0    0 -0.45271223617E+01 -0.14479573783E+02  0.46819356449E+03  0.46843928820E+03  0.00000000000E+00 0.  1.
         11    1    1    2    0    0  0.32206879134E+01  0.22343973899E+02 -0.49246729970E+03  0.49298444932E+03  0.00000000000E+00 0.  1.
        -15    1    1    2    0    0  0.97611575702E+01 -0.16008676465E+01  0.25900455618E+02  0.27781906064E+02  0.17770000000E+01 0.  1.
         15    1    1    2    0    0 -0.84547231218E+01 -0.62635324688E+01 -0.16267204108E+01  0.10794356412E+02  0.17770000000E+01 0. -1.
</event>
<event>
 6    1  0.4028964E-003  0.5064222E+03  0.7546771E-02  0.9385553E-01
        -11   -1    0    0    0    0  0.00000000000E+00  0.00000000000E+00  0.50000000000E+03  0.50000000000E+03  0.00000000000E+00 0. -1.
         11   -1    0    0    0    0 -0.00000000000E+00 -0.00000000000E+00 -0.50000000000E+03  0.50000000000E+03  0.00000000000E+00 0.  1.
        -11    1    1    2    0    0 -0.12481129889E+02 -0.19461090834E+02  0.32599805300E+03  0.32681683436E+03  0.00000000000E+00 0. -1.
         11    1    1    2    0    0 -0.50325218934E+01  0.82007646609E+01 -0.49348400593E+03  0.49357779825E+03  0.00000000000E+00 0.  1.
        -15    1    1    2    0    0  0.76684096308E+01 -0.21752536703E+01 -0.26966477464E+01  0.86003414388E+01  0.17770000000E+01 0. -1.
         15    1    1    2    0    0  0.98452421513E+01  0.13435579843E+02  0.17018260067E+03  0.17100502595E+03  0.17770000000E+01 0.  1.
</event>
<event>
 6    1  0.4028964E-003  0.5002950E+03  0.7546771E-02  0.9399150E-01
        -11   -1    0    0    0    0  0.00000000000E+00  0.00000000000E+00  0.50000000000E+03  0.50000000000E+03  0.00000000000E+00 0.  1.
         11   -1    0    0    0    0 -0.00000000000E+00 -0.00000000000E+00 -0.50000000000E+03  0.50000000000E+03  0.00000000000E+00 0.  1.
        -11    1    1    2    0    0  0.40291386334E+00  0.14417502555E+01  0.90527706082E+02  0.90540082570E+02  0.00000000000E+00 0.  1.
         11    1    1    2    0    0 -0.64288048748E+01  0.38363165113E+01 -0.49964890450E+03  0.49970498759E+03  0.00000000000E+00 0.  1.
        -15    1    1    2    0    0  0.13248533355E+02 -0.37280195388E+01  0.32342404299E+03  0.32372162590E+03  0.17770000000E+01 0.  1.
         15    1    1    2    0    0 -0.72226423438E+01 -0.15500472280E+01  0.85697155427E+02  0.86033303936E+02  0.17770000000E+01 0. -1.
</event>
<event>
 6    1  0.4028964E-003  0.5001386E+03  0.7546771E-02  0.9399500E-01
        -11   -1    0    0    0    0  0.00000000000E+00  0.00000000000E+00  0.50000000000E+03  0.50000000000E+03  0.00000000000E+00 0.  1.
         11   -1    0    0    0    0 -0.00000000000E+00 -0.00000000000E+00 -0.50000000000E+03  0.50000000000E+03  0.00000000000E+00 0.  1.
        -11    1    1    2    0    0 -0.90365102703E+00 -0.16746512201E+01  0.92076411832E+02  0.92096072977E+02  0.00000000000E+00 0.  1.
         11    1    1    2    0    0 -0.53136778013E+01 -0.70263035032E+01 -0.49978373205E+03  0.49986136372E+03  0.00000000000E+00 0.  1.
        -15    1    1    2    0    0  0.51373254746E+01  0.20761480447E+01  0.63712913049E+02  0.63978086264E+02  0.17770000000E+01 0. -1.
         15    1    1    2    0    0  0.10800033537E+01  0.66248066785E+01  0.34399440717E+03  0.34406447704E+03  0.17770000000E+01 0.  1.
</event>
<event>
 6    1  0.4028964E-003  0.5077809E+03  0.7546771E-02  0.9382566E-01
        -11   -1    0    0    0    0  0.00000000000E+00  0.00000000000E+00  0.50000000000E+03  0.50000000000E+03  0.00000000000E+00 0.  1.
         11   -1    0    0    0    0 -0.00000000000E+00 -0.00000000000E+00 -0.50000000000E+03  0.50000000000E+03  0.00000000000E+00 0. -1.
        -11    1    1    2    0    0 -0.64660478704E+00  0.10669750464E+02  0.49210298487E+03  0.49221906647E+03  0.00000000000E+00 0.  1.
         11    1    1    2    0    0 -0.13548928986E+01 -0.69828522087E+01 -0.48901451418E+03  0.48906624402E+03  0.00000000000E+00 0. -1.
        -15    1    1    2    0    0  0.45081858979E+01 -0.10156282102E+02 -0.12630501958E+01  0.11323728671E+02  0.17770000000E+01 0. -1.
         15    1    1    2    0    0 -0.25066882123E+01  0.64693838465E+01 -0.18254204976E+01  0.73909608401E+01  0.17770000000E+01 0.  1.
</event>
<event>
 6    1  0.4028964E-003  0.5056946E+03  0.7546771E-02  0.9387157E-01
        -11   -1    0    0    0    0  0.00000000000E+00  0.00000000000E+00  0.50000000000E+03  0.50000000000E+03  0.00000000000E+00 0. -1.
         11   -1    0    0    0    0 -0.00000000000E+00 -0.00000000000E+00 -0.50000000000E+03  0.50000000000E+03  0.00000000000E+00 0.  1.
        -11    1    1    2    0    0  0.70427404887E+01 -0.53380973317E+01  0.41185030138E+03  0.41194510098E+03  0.00000000000E+00 0. -1.
         11    1    1    2    0    0  0.16120850774E+01 -0.86789440678E+01 -0.49422661218E+03  0.49430543905E+03  0.00000000000E+00 0.  1.
        -15    1    1    2    0    0 -0.12381755282E+02  0.57246876261E+01  0.83310922494E+02  0.84439016148E+02  0.17770000000E+01 0.  1.
         15    1    1    2    0    0  0.37269297160E+01  0.82923537735E+01 -0.93461169560E+00  0.93104438258E+01  0.17770000000E+01 0. -1.
</event>
<event>
 6    1  0.4028964E-003  0.5018391E+03  0.7546771E-02  0.9395704E-01
        -11   -1    0    0    0    0  0.00000000000E+00  0.00000000000E+00  0.50000000000E+03  0.50000000000E+03  0.00000000000E+00 0. -1.
         11   -1    0    0    0    0 -0.00000000000E+00 -0.00000000000E+00 -0.50000000000E+03  0.50000000000E+03  0.00000000000E+00 0. -1.
        -11    1    1    2    0    0 -0.49238199165E+01 -0.22622504014E+01  0.39340920390E+03  0.39344651923E+03  0.00000000000E+00 0. -1.
         11    1    1    2    0    0 -0.75769575060E+01  0.48020791592E+01 -0.49808012863E+03  0.49816090251E+03  0.00000000000E+00 0. -1.
        -15    1    1    2    0    0  0.11819668972E+02 -0.47968272597E+01  0.20765127730E+02  0.24434860037E+02  0.17770000000E+01 0. -1.
         15    1    1    2    0    0  0.68110845051E+00  0.22569985019E+01  0.83905797002E+02  0.83957718231E+02  0.17770000000E+01 0. -1.
</event>
<event>
 6    1  0.4028964E-003  0.4696869E+03  0.7546771E-02  0.9470315E-01
        -11   -1    0    0    0    0  0.00000000000E+00  0.00000000000E+00  0.50000000000E+03  0.50000000000E+03  0.00000000000E+00 0.  1.
         11   -1    0    0    0    0 -0.00000000000E+00 -0.00000000000E+00 -0.50000000000E+03  0.50000000000E+03  0.00000000000E+00 0.  1.
        -11    1    1    2    0    0  0.29197009929E+00  0.90018997087E+01  0.47146885566E+03  0.47155487623E+03  0.00000000000E+00 0.  1.
         11    1    1    2    0    0 -0.30444746897E+02  0.12339973618E+02 -0.46740089431E+03  0.46855389611E+03  0.00000000000E+00 0.  1.
        -15    1    1    2    0    0  0.42284669655E+02 -0.13850250312E+02  0.13072437792E+01  0.44549852265E+02  0.17770000000E+01 0. -1.
         15    1    1    2    0    0 -0.12131892857E+02 -0.74916230140E+01 -0.53752051258E+01  0.15341375389E+02  0.17770000000E+01 0.  1.
</event>
<event>
 6    1  0.4028964E-003  0.5158321E+03  0.7546771E-02  0.9365065E-01
        -11   -1    0    0    0    0  0.00000000000E+00  0.00000000000E+00  0.50000000000E+03  0.50000000000E+03  0.00000000000E+00 0. -1.
         11   -1    0    0    0    0 -0.00000000000E+00 -0.00000000000E+00 -0.50000000000E+03  0.50000000000E+03  0.00000000000E+00 0.  1.
        -11    1    1    2    0    0  0.70599393307E+01 -0.43891088490E+01  0.40864257617E+03  0.40872712422E+03  0.00000000000E+00 0. -1.
         11    1    1    2    0    0  0.15752848354E+02  0.79153459565E+01 -0.48384685950E+03  0.48416793407E+03  0.00000000000E+00 0.  1.
        -15    1    1    2    0    0 -0.30878128642E+02 -0.11322555652E+02  0.19702110674E+01  0.32995432345E+02  0.17770000000E+01 0.  1.
         15    1    1    2    0    0  0.80653409577E+01  0.77963185450E+01  0.73234072269E+02  0.74109509361E+02  0.17770000000E+01 0. -1.
</event>
<event>
 6    1  0.4028964E-003  0.5072583E+03  0.7546771E-02  0.9383714E-01
        -11   -1    0    0    0    0  0.00000000000E+00  0.00000000000E+00  0.50000000000E+03  0.50000000000E+03  0.00000000000E+00 0.  1.
         11   -1    0    0    0    0 -0.00000000000E+00 -0.00000000000E+00 -0.50000000000E+03  0.50000000000E+03  0.00000000000E+00 0.  1.
        -11    1    1    2    0    0  0.64830671507E+01 -0.67611466091E+01  0.49265268961E+03  0.49274173341E+03  0.00000000000E+00 0.  1.
         11    1    1    2    0    0 -0.38028936890E+01 -0.63764791447E+01 -0.48301827073E+03  0.48307532679E+03  0.00000000000E+00 0.  1.
        -15    1    1    2    0    0 -0.21837224635E+01 -0.10601512652E+01 -0.93937974805E+01  0.98637581382E+01  0.17770000000E+01 0.  1.
         15    1    1    2    0    0 -0.49645099821E+00  0.14197777019E+02 -0.24062139923E+00  0.14319181664E+02  0.17770000000E+01 0. -1.
</event>
<event>
 6    1  0.4028964E-003  0.5012903E+03  0.7546771E-02  0.9396927E-01
        -11   -1    0    0    0    0  0.00000000000E+00  0.00000000000E+00  0.50000000000E+03  0.50000000000E+03  0.00000000000E+00 0.  1.
         11   -1    0    0    0    0 -0.00000000000E+00 -0.00000000000E+00 -0.50000000000E+03  0.50000000000E+03  0.00000000000E+00 0.  1.
        -11    1    1    2    0    0  0.49697524367E+01 -0.70120905979E+01  0.35968464506E+03  0.35978731460E+03  0.00000000000E+00 0.  1.
         11    1    1    2    0    0  0.37407044759E+01  0.78489014329E+01 -0.49863394010E+03  0.49870973957E+03  0.00000000000E+00 0.  1.
        -15    1    1    2    0    0  0.36582189696E+01 -0.98682498916E+01  0.72952276660E+02  0.73728944932E+02  0.17770000000E+01 0.  1.
         15    1    1    2    0    0 -0.12368675882E+02  0.90314390565E+01  0.65997018375E+02  0.67774000899E+02  0.17770000000E+01 0. -1.
</event>
<event>
 6    1  0.4028964E-003  0.5009830E+03  0.7546771E-02  0.9397613E-01
        -11   -1    0    0    0    0  0.00000000000E+00  0.00000000000E+00  0.50000000000E+03  0.50000000000E+03  0.00000000000E+00 0.  1.
         11   -1    0    0    0    0 -0.00000000000E+00 -0.00000000000E+00 -0.50000000000E+03  0.50000000000E+03  0.00000000000E+00 0.  1.
        -11    1    1    2    0    0 -0.10997519660E+01 -0.61116082332E+01  0.41968136359E+03  0.41972730213E+03  0.00000000000E+00 0.  1.
         11    1    1    2    0    0  0.16282635228E+01  0.11381152525E+02 -0.49888458279E+03  0.49901704262E+03  0.00000000000E+00 0.  1.
        -15    1    1    2    0    0  0.40668701038E+01  0.40120156681E+01  0.14204937621E+02  0.15413425446E+02  0.17770000000E+01 0. -1.
         15    1    1    2    0    0 -0.45953816606E+01 -0.92815599597E+01  0.64998281580E+02  0.65842229802E+02  0.17770000000E+01 0.  1.
</event>
<event>
 6    1  0.4028964E-003  0.5185453E+03  0.7546771E-02  0.9359243E-01
        -11   -1    0    0    0    0  0.00000000000E+00  0.00000000000E+00  0.50000000000E+03  0.50000000000E+03  0.00000000000E+00 0. -1.
         11   -1    0    0    0    0 -0.00000000000E+00 -0.00000000000E+00 -0.50000000000E+03  0.50000000000E+03  0.00000000000E+00 0.  1.
        -11    1    1    2    0    0  0.21670118753E+02  0.30287265890E+02  0.44053046409E+03  0.44210180085E+03  0.00000000000E+00 0. -1.
         11    1    1    2    0    0 -0.71559970836E+01  0.42207915859E+01 -0.48138302646E+03  0.48145471390E+03  0.00000000000E+00 0.  1.
        -15    1    1    2    0    0 -0.19482308489E+02 -0.31355821596E+02  0.51951532987E+02  0.63756312634E+02  0.17770000000E+01 0. -1.
         15    1    1    2    0    0  0.49681868194E+01 -0.31522358802E+01 -0.11098970619E+02  0.12687172621E+02  0.17770000000E+01 0.  1.
</event>
<event>
 6    1  0.4028964E-003  0.4602612E+03  0.7546771E-02  0.9493400E-01
        -11   -1    0    0    0    0  0.00000000000E+00  0.00000000000E+00  0.50000000000E+03  0.50000000000E+03  0.00000000000E+00 0. -1.
         11   -1    0    0    0    0 -0.00000000000E+00 -0.00000000000E+00 -0.50000000000E+03  0.50000000000E+03  0.00000000000E+00 0.  1.
        -11    1    1    2    0    0 -0.10270465319E+02 -0.13146223205E+01  0.46142126943E+03  0.46153742922E+03  0.00000000000E+00 0. -1.
         11    1    1    2    0    0 -0.72291054982E-01  0.18420734127E+02 -0.45883593942E+03  0.45920556179E+03  0.00000000000E+00 0.  1.
        -15    1    1    2    0    0  0.88182699072E+01 -0.37574804869E+02 -0.27131102483E+02  0.47211039980E+02  0.17770000000E+01 0.  1.
         15    1    1    2    0    0  0.15244864667E+01  0.20468693063E+02  0.24545772473E+02  0.32045969013E+02  0.17770000000E+01 0. -1.
</event>
<event>
 6    1  0.4028964E-003  0.5926740E+03  0.7546771E-02  0.9213415E-01
        -11   -1    0    0    0    0  0.00000000000E+00  0.00000000000E+00  0.50000000000E+03  0.50000000000E+03  0.00000000000E+00 0. -1.
         11   -1    0    0    0    0 -0.00000000000E+00 -0.00000000000E+00 -0.50000000000E+03  0.50000000000E+03  0.00000000000E+00 0.  1.
        -11    1    1    2    0    0 -0.11527102180E+02 -0.65576656755E+01  0.31360827887E+03  0.31388856245E+03  0.00000000000E+00 0. -1.
         11    1    1    2    0    0 -0.84392544672E+01  0.46286030453E+01 -0.40721224225E+03  0.40732598151E+03  0.00000000000E+00 0.  1.
        -15    1    1    2    0    0  0.24093866769E+02 -0.37653620481E+02 -0.84859288977E+02  0.95930006806E+02  0.17770000000E+01 0.  1.
         15    1    1    2    0    0 -0.41275101218E+01  0.39582683112E+02  0.17846325235E+03  0.18285544923E+03  0.17770000000E+01 0. -1.
</event>
<event>
 6    1  0.8119842E-003  0.5046611E+03  0.7546771E-02  0.9389440E-01
        -11   -1    0    0    0    0  0.00000000000E+00  0.00000000000E+00  0.50000000000E+03  0.50000000000E+03  0.00000000000E+00 0. -1.
         11   -1    0    0    0    0 -0.00000000000E+00 -0.00000000000E+00 -0.50000000000E+03  0.50000000000E+03  0.00000000000E+00 0.  1.
        -11    1    1    2    0    0  0.69211501745E+01 -0.18450528561E+01  0.49528710259E+03  0.49533889463E+03  0.00000000000E+00 0. -1.
         11    1    1    2    0    0  0.24587470597E+01 -0.16471993885E-01 -0.17711665315E+03  0.17713371936E+03  0.00000000000E+00 0.  1.
        -15    1    1    2    0    0 -0.85223135643E+01  0.66675640009E+01 -0.17976755307E+01  0.11111957726E+02  0.17770000000E+01 0.  1.
         15    1    1    2    0    0 -0.85758366997E+00 -0.48060391509E+01 -0.31637277390E+03  0.31641542829E+03  0.17770000000E+01 0.  1.
</event>
<event>
 6    1  0.4028964E-003  0.5002433E+03  0.7546771E-02  0.9399266E-01
        -11   -1    0    0    0    0  0.00000000000E+00  0.00000000000E+00  0.50000000000E+03  0.50000000000E+03  0.00000000000E+00 0. -1.
         11   -1    0    0    0    0 -0.00000000000E+00 -0.00000000000E+00 -0.50000000000E+03  0.50000000000E+03  0.00000000000E+00 0. -1.
        -11    1    1    2    0    0  0.68275787096E+01 -0.47169267935E+01  0.49968784282E+03  0.49975674632E+03  0.00000000000E+00 0. -1.
         11    1    1    2    0    0 -0.35551072344E+01  0.27800540745E+01 -0.26680417734E+03  0.26684234396E+03  0.00000000000E+00 0. -1.
        -15    1    1    2    0    0 -0.42336519320E+01  0.53534992444E+00 -0.22668857088E+03  0.22673569703E+03  0.17770000000E+01 0. -1.
         15    1    1    2    0    0  0.96118045676E+00  0.14015227945E+01 -0.61950946032E+01  0.66652126866E+01  0.17770000000E+01 0.  1.
</event>
<event>
 6    1  0.4028964E-003  0.5082897E+03  0.7546771E-02  0.9381449E-01
        -11   -1    0    0    0    0  0.00000000000E+00  0.00000000000E+00  0.50000000000E+03  0.50000000000E+03  0.00000000000E+00 0.  1.
         11   -1    0    0    0    0 -0.00000000000E+00 -0.00000000000E+00 -0.50000000000E+03  0.50000000000E+03  0.00000000000E+00 0.  1.
        -11    1    1    2    0    0 -0.14461998279E+02  0.57345629593E+01  0.45475797566E+03  0.45502401149E+03  0.00000000000E+00 0.  1.
         11    1    1    2    0    0  0.77144475898E+01  0.72247473810E+01 -0.49159665245E+03  0.49171025857E+03  0.00000000000E+00 0.  1.
        -15    1    1    2    0    0  0.14889609356E+01  0.34798650945E+01  0.35628018655E+02  0.35872550899E+02  0.17770000000E+01 0. -1.
         15    1    1    2    0    0  0.52585897537E+01 -0.16439175435E+02  0.12106581378E+01  0.17393179045E+02  0.17770000000E+01 0.  1.
</event>
<event>
 6    1  0.4028964E-003  0.5117094E+03  0.7546771E-02  0.9373984E-01
        -11   -1    0    0    0    0  0.00000000000E+00  0.00000000000E+00  0.50000000000E+03  0.50000000000E+03  0.00000000000E+00 0.  1.
         11   -1    0    0    0    0 -0.00000000000E+00 -0.00000000000E+00 -0.50000000000E+03  0.50000000000E+03  0.00000000000E+00 0.  1.
        -11    1    1    2    0    0 -0.16376136685E+02 -0.38162071600E+02  0.48652153011E+03  0.48829061103E+03  0.00000000000E+00 0.  1.
         11    1    1    2    0    0  0.60764641835E+01 -0.49494855037E+01 -0.36115421163E+03  0.36123923569E+03  0.00000000000E+00 0.  1.
        -15    1    1    2    0    0  0.62084207066E+01  0.79313059413E+01  0.76721727882E+01  0.12785541283E+02  0.17770000000E+01 0. -1.
         15    1    1    2    0    0  0.40912517949E+01  0.35180251163E+02 -0.13303949127E+03  0.13768461199E+03  0.17770000000E+01 0.  1.
</event>
<event>
 6    1  0.4028964E-003  0.5092815E+03  0.7546771E-02  0.9379278E-01
        -11   -1    0    0    0    0  0.00000000000E+00  0.00000000000E+00  0.50000000000E+03  0.50000000000E+03  0.00000000000E+00 0. -1.
         11   -1    0    0    0    0 -0.00000000000E+00 -0.00000000000E+00 -0.50000000000E+03  0.50000000000E+03  0.00000000000E+00 0.  1.
        -11    1    1    2    0    0 -0.13562242739E+02 -0.96206567162E+01  0.49043672418E+03  0.49071852613E+03  0.00000000000E+00 0. -1.
         11    1    1    2    0    0  0.11506700209E+02 -0.51613239703E+01 -0.43967436220E+03  0.43985519002E+03  0.00000000000E+00 0.  1.
        -15    1    1    2    0    0 -0.13845634142E+02  0.67849050246E+01  0.88586663883E-01  0.15521021151E+02  0.17770000000E+01 0.  1.
         15    1    1    2    0    0  0.15901176672E+02  0.79970756619E+01 -0.50850948647E+02  0.53905262693E+02  0.17770000000E+01 0. -1.
</event>
<event>
 6    1  0.4028964E-003  0.5150070E+03  0.7546771E-02  0.9366843E-01
        -11   -1    0    0    0    0  0.00000000000E+00  0.00000000000E+00  0.50000000000E+03  0.50000000000E+03  0.00000000000E+00 0.  1.
         11   -1    0    0    0    0 -0.00000000000E+00 -0.00000000000E+00 -0.50000000000E+03  0.50000000000E+03  0.00000000000E+00 0.  1.
        -11    1    1    2    0    0 -0.19873473051E+02 -0.34401316958E+01  0.46186828716E+03  0.46230845128E+03  0.00000000000E+00 0.  1.
         11    1    1    2    0    0 -0.19274281120E+01 -0.12143387832E+02 -0.48483711520E+03  0.48499299492E+03  0.00000000000E+00 0.  1.
        -15    1    1    2    0    0  0.15864527954E+02 -0.50141361095E+01  0.26058536228E+02  0.30968207043E+02  0.17770000000E+01 0. -1.
         15    1    1    2    0    0  0.59363732097E+01  0.20597655638E+02 -0.30897081898E+01  0.21730346761E+02  0.17770000000E+01 0.  1.
</event>
<event>
 6    1  0.4028964E-003  0.5305458E+03  0.7546771E-02  0.9333941E-01
        -11   -1    0    0    0    0  0.00000000000E+00  0.00000000000E+00  0.50000000000E+03  0.50000000000E+03  0.00000000000E+00 0. -1.
         11   -1    0    0    0    0 -0.00000000000E+00 -0.00000000000E+00 -0.50000000000E+03  0.50000000000E+03  0.00000000000E+00 0.  1.
        -11    1    1    2    0    0 -0.17096042570E+02  0.12826173957E+02  0.42036934584E+03  0.42091230955E+03  0.00000000000E+00 0. -1.
         11    1    1    2    0    0  0.58697012375E+01  0.54942783870E+01 -0.46938535432E+03  0.46945420579E+03  0.00000000000E+00 0.  1.
        -15    1    1    2    0    0  0.15956614228E+02 -0.13259245508E+02  0.77508686888E+02  0.80256933664E+02  0.17770000000E+01 0. -1.
         15    1    1    2    0    0 -0.47302728949E+01 -0.50612068356E+01 -0.28492678410E+02  0.29376550994E+02  0.17770000000E+01 0. -1.
</event>
<event>
 6    1  0.4028964E-003  0.5039881E+03  0.7546771E-02  0.9390930E-01
        -11   -1    0    0    0    0  0.00000000000E+00  0.00000000000E+00  0.50000000000E+03  0.50000000000E+03  0.00000000000E+00 0. -1.
         11   -1    0    0    0    0 -0.00000000000E+00 -0.00000000000E+00 -0.50000000000E+03  0.50000000000E+03  0.00000000000E+00 0.  1.
        -11    1    1    2    0    0 -0.11909319621E+02  0.10685537693E+02  0.44315081221E+03  0.44343957308E+03  0.00000000000E+00 0. -1.
         11    1    1    2    0    0  0.31290608077E+01 -0.12609863301E+02 -0.49584169599E+03  0.49601188207E+03  0.00000000000E+00 0.  1.
        -15    1    1    2    0    0  0.68780205740E+01  0.41717675568E+01  0.55499945094E+02  0.56108042614E+02  0.17770000000E+01 0.  1.
         15    1    1    2    0    0  0.19022382398E+01 -0.22474419490E+01 -0.28090613190E+01  0.44405022383E+01  0.17770000000E+01 0. -1.
</event>
<event>
 6    1  0.4028964E-003  0.5036207E+03  0.7546771E-02  0.9391744E-01
        -11   -1    0    0    0    0  0.00000000000E+00  0.00000000000E+00  0.50000000000E+03  0.50000000000E+03  0.00000000000E+00 0.  1.
         11   -1    0    0    0    0 -0.00000000000E+00 -0.00000000000E+00 -0.50000000000E+03  0.50000000000E+03  0.00000000000E+00 0. -1.
        -11    1    1    2    0    0  0.24094111019E+02  0.14968822421E+02  0.49556814137E+03  0.49637926485E+03  0.00000000000E+00 0.  1.
         11    1    1    2    0    0  0.60673901434E+01 -0.80025496078E+01 -0.39801311673E+03  0.39813979343E+03  0.00000000000E+00 0. -1.
        -15    1    1    2    0    0 -0.17959967849E+02 -0.14894596613E+02 -0.42593769005E+02  0.48598316231E+02  0.17770000000E+01 0. -1.
         15    1    1    2    0    0 -0.12201533314E+02  0.79283238001E+01 -0.54961255633E+02  0.56882625495E+02  0.17770000000E+01 0.  1.
</event>
<event>
 6    1  0.4028964E-003  0.5021930E+03  0.7546771E-02  0.9394916E-01
        -11   -1    0    0    0    0  0.00000000000E+00  0.00000000000E+00  0.50000000000E+03  0.50000000000E+03  0.00000000000E+00 0.  1.
         11   -1    0    0    0    0 -0.00000000000E+00 -0.00000000000E+00 -0.50000000000E+03  0.50000000000E+03  0.00000000000E+00 0.  1.
        -11    1    1    2    0    0  0.48903141533E+01 -0.53125831368E+01  0.49775465469E+03  0.49780702584E+03  0.00000000000E+00 0.  1.
         11    1    1    2    0    0 -0.47395827125E+01  0.58825501283E+01 -0.46865961925E+03  0.46872049961E+03  0.00000000000E+00 0.  1.
        -15    1    1    2    0    0  0.32360506231E+01 -0.49716770504E+01 -0.26275531014E+02  0.26995385816E+02  0.17770000000E+01 0.  1.
         15    1    1    2    0    0 -0.33867820638E+01  0.44017100589E+01 -0.28195044274E+01  0.64770887292E+01  0.17770000000E+01 0. -1.
</event>
<event>
 6    1  0.4028964E-003  0.5022371E+03  0.7546771E-02  0.9394818E-01
        -11   -1    0    0    0    0  0.00000000000E+00  0.00000000000E+00  0.50000000000E+03  0.50000000000E+03  0.00000000000E+00 0. -1.
         11   -1    0    0    0    0 -0.00000000000E+00 -0.00000000000E+00 -0.50000000000E+03  0.50000000000E+03  0.00000000000E+00 0.  1.
        -11    1    1    2    0    0 -0.54328099433E+01 -0.52037525883E+01  0.41277015620E+03  0.41283870496E+03  0.00000000000E+00 0. -1.
         11    1    1    2    0    0 -0.76509761827E+01 -0.28437146632E+01 -0.49769596699E+03  0.49776289507E+03  0.00000000000E+00 0.  1.
        -15    1    1    2    0    0  0.23592121727E+01  0.39239655455E+00  0.67070401607E+02  0.67136550089E+02  0.17770000000E+01 0.  1.
         15    1    1    2    0    0  0.10724573953E+02  0.76550706970E+01  0.17855409188E+02  0.22261849881E+02  0.17770000000E+01 0. -1.
</event>
<event>
 6    1  0.4028964E-003  0.5024108E+03  0.7546771E-02  0.9394431E-01
        -11   -1    0    0    0    0  0.00000000000E+00  0.00000000000E+00  0.50000000000E+03  0.50000000000E+03  0.00000000000E+00 0. -1.
         11   -1    0    0    0    0 -0.00000000000E+00 -0.00000000000E+00 -0.50000000000E+03  0.50000000000E+03  0.00000000000E+00 0. -1.
        -11    1    1    2    0    0 -0.46145647704E+01  0.11424367933E+02  0.42146431983E+03  0.42164438011E+03  0.00000000000E+00 0. -1.
         11    1    1    2    0    0 -0.90385136124E+01  0.63564386800E+01 -0.49746647171E+03  0.49758917745E+03  0.00000000000E+00 0. -1.
        -15    1    1    2    0    0  0.13812024472E+02 -0.13131583744E+02  0.71618247360E+02  0.74131920221E+02  0.17770000000E+01 0. -1.
         15    1    1    2    0    0 -0.15894608940E+00 -0.46492228691E+01  0.43839045199E+01  0.66345222123E+01  0.17770000000E+01 0.  1.
</event>
<event>
 6    1  0.4028964E-003  0.5137901E+03  0.7546771E-02  0.9369471E-01
        -11   -1    0    0    0    0  0.00000000000E+00  0.00000000000E+00  0.50000000000E+03  0.50000000000E+03  0.00000000000E+00 0. -1.
         11   -1    0    0    0    0 -0.00000000000E+00 -0.00000000000E+00 -0.50000000000E+03  0.50000000000E+03  0.00000000000E+00 0. -1.
        -11    1    1    2    0    0  0.10404396954E+02 -0.32814277030E+02  0.48498973866E+03  0.48620990823E+03  0.00000000000E+00 0. -1.
         11    1    1    2    0    0  0.56198752627E+01  0.26897640930E+02 -0.24874047510E+03  0.25025365140E+03  0.00000000000E+00 0. -1.
        -15    1    1    2    0    0  0.33714758222E+02 -0.32448911794E+02 -0.14776702279E+03  0.15500924989E+03  0.17770000000E+01 0. -1.
         15    1    1    2    0    0 -0.49739030439E+02  0.38365547895E+02 -0.88482240767E+02  0.10852719048E+03  0.17770000000E+01 0.  1.
</event>
<event>
 6    1  0.4028964E-003  0.5082902E+03  0.7546771E-02  0.9381449E-01
        -11   -1    0    0    0    0  0.00000000000E+00  0.00000000000E+00  0.50000000000E+03  0.50000000000E+03  0.00000000000E+00 0. -1.
         11   -1    0    0    0    0 -0.00000000000E+00 -0.00000000000E+00 -0.50000000000E+03  0.50000000000E+03  0.00000000000E+00 0.  1.
        -11    1    1    2    0    0 -0.10466838357E+02 -0.98800346202E+01  0.39947380467E+03  0.39973302392E+03  0.00000000000E+00 0. -1.
         11    1    1    2    0    0 -0.61160376590E+01 -0.12385598043E+02 -0.49151578205E+03  0.49170984631E+03  0.00000000000E+00 0.  1.
        -15    1    1    2    0    0  0.32240211282E+02  0.24927174829E+02  0.57524513476E+02  0.70519661429E+02  0.17770000000E+01 0. -1.
         15    1    1    2    0    0 -0.15657335266E+02 -0.26615421657E+01  0.34517463904E+02  0.38037468340E+02  0.17770000000E+01 0.  1.
</event>
<event>
 6    1  0.4028964E-003  0.5063646E+03  0.7546771E-02  0.9385680E-01
        -11   -1    0    0    0    0  0.00000000000E+00  0.00000000000E+00  0.50000000000E+03  0.50000000000E+03  0.00000000000E+00 0. -1.
         11   -1    0    0    0    0 -0.00000000000E+00 -0.00000000000E+00 -0.50000000000E+03  0.50000000000E+03  0.00000000000E+00 0. -1.
        -11    1    1    2    0    0  0.89499045531E+01  0.13556024244E+02  0.49336809407E+03  0.49363543514E+03  0.00000000000E+00 0. -1.
         11    1    1    2    0    0 -0.19774977819E+01 -0.15969011996E+02 -0.41512351055E+03  0.41543525230E+03  0.00000000000E+00 0. -1.
        -15    1    1    2    0    0  0.57728185446E+01  0.18942166091E+02 -0.16857655406E+02  0.26066633173E+02  0.17770000000E+01 0.  1.
         15    1    1    2    0    0 -0.12745225316E+02 -0.16529178339E+02 -0.61386928116E+02  0.64862679388E+02  0.17770000000E+01 0. -1.
</event>
<event>
 6    1  0.4028964E-003  0.5006421E+03  0.7546771E-02  0.9398374E-01
        -11   -1    0    0    0    0  0.00000000000E+00  0.00000000000E+00  0.50000000000E+03  0.50000000000E+03  0.00000000000E+00 0.  1.
         11   -1    0    0    0    0 -0.00000000000E+00 -0.00000000000E+00 -0.50000000000E+03  0.50000000000E+03  0.00000000000E+00 0. -1.
        -11    1    1    2    0    0 -0.10004031303E+02 -0.58643991667E+01  0.49922322072E+03  0.49935788362E+03  0.00000000000E+00 0.  1.
         11    1    1    2    0    0 -0.47526250677E+01  0.17826839745E+01 -0.31467832325E+03  0.31471925986E+03  0.00000000000E+00 0. -1.
        -15    1    1    2    0    0 -0.85479919208E+00  0.36237796818E+01 -0.88835099596E+02  0.88930844537E+02  0.17770000000E+01 0. -1.
         15    1    1    2    0    0  0.15611455562E+02  0.45793551041E+00 -0.95709797879E+02  0.96992011984E+02  0.17770000000E+01 0.  1.
</event>
<event>
 6    1  0.4028964E-003  0.5006206E+03  0.7546771E-02  0.9398422E-01
        -11   -1    0    0    0    0  0.00000000000E+00  0.00000000000E+00  0.50000000000E+03  0.50000000000E+03  0.00000000000E+00 0. -1.
         11   -1    0    0    0    0 -0.00000000000E+00 -0.00000000000E+00 -0.50000000000E+03  0.50000000000E+03  0.00000000000E+00 0.  1.
        -11    1    1    2    0    0  0.66151326138E+01 -0.31253123497E+00  0.32285099691E+03  0.32291891221E+03  0.00000000000E+00 0. -1.
         11    1    1    2    0    0  0.88141862979E+00 -0.81798359419E+01 -0.49931164114E+03  0.49937941647E+03  0.00000000000E+00 0.  1.
        -15    1    1    2    0    0 -0.12226468362E+02  0.18264061077E+01  0.11445573827E+03  0.11513512079E+03  0.17770000000E+01 0.  1.
         15    1    1    2    0    0  0.47299171182E+01  0.66659610691E+01  0.62004905966E+02  0.62566550535E+02  0.17770000000E+01 0. -1.
</event>
<event>
 6    1  0.4028964E-003  0.5018156E+03  0.7546771E-02  0.9395756E-01
        -11   -1    0    0    0    0  0.00000000000E+00  0.00000000000E+00  0.50000000000E+03  0.50000000000E+03  0.00000000000E+00 0.  1.
         11   -1    0    0    0    0 -0.00000000000E+00 -0.00000000000E+00 -0.50000000000E+03  0.50000000000E+03  0.00000000000E+00 0.  1.
        -11    1    1    2    0    0 -0.24948285295E+01  0.76976637992E+01  0.44941095558E+03  0.44948379859E+03  0.00000000000E+00 0.  1.
         11    1    1    2    0    0  0.34053513948E+01  0.74804304577E+01 -0.49811660903E+03  0.49818441310E+03  0.00000000000E+00 0.  1.
        -15    1    1    2    0    0 -0.45132461358E+01 -0.11453502230E+02  0.24063225960E+02  0.27087795713E+02  0.17770000000E+01 0.  1.
         15    1    1    2    0    0  0.36027232705E+01 -0.37245920273E+01  0.24642427493E+02  0.25243992602E+02  0.17770000000E+01 0. -1.
</event>
<event>
 6    1  0.4028964E-003  0.5044612E+03  0.7546771E-02  0.9389883E-01
        -11   -1    0    0    0    0  0.00000000000E+00  0.00000000000E+00  0.50000000000E+03  0.50000000000E+03  0.00000000000E+00 0.  1.
         11   -1    0    0    0    0 -0.00000000000E+00 -0.00000000000E+00 -0.50000000000E+03  0.50000000000E+03  0.00000000000E+00 0. -1.
        -11    1    1    2    0    0  0.20705368574E+02  0.23024515097E+01  0.43067239006E+03  0.43117597467E+03  0.00000000000E+00 0.  1.
         11    1    1    2    0    0 -0.12299593184E+02  0.16956266129E+02 -0.49509590417E+03  0.49553884739E+03  0.00000000000E+00 0. -1.
        -15    1    1    2    0    0 -0.52005348198E+01 -0.18743739227E+02  0.66312962715E+02  0.69129878313E+02  0.17770000000E+01 0.  1.
         15    1    1    2    0    0 -0.32052405708E+01 -0.51497841215E+00 -0.18894486138E+01  0.41552996216E+01  0.17770000000E+01 0. -1.
</event>
<event>
 6    1  0.4028964E-003  0.5004719E+03  0.7546771E-02  0.9398755E-01
        -11   -1    0    0    0    0  0.00000000000E+00  0.00000000000E+00  0.50000000000E+03  0.50000000000E+03  0.00000000000E+00 0.  1.
         11   -1    0    0    0    0 -0.00000000000E+00 -0.00000000000E+00 -0.50000000000E+03  0.50000000000E+03  0.00000000000E+00 0. -1.
        -11    1    1    2    0    0  0.28478947026E-01  0.74259117091E+01  0.49947294026E+03  0.49952814038E+03  0.00000000000E+00 0.  1.
         11    1    1    2    0    0 -0.33595181858E+00 -0.10727284408E+02 -0.32726485545E+03  0.32744079329E+03  0.00000000000E+00 0. -1.
        -15    1    1    2    0    0 -0.77924667759E+01  0.28505470344E+01 -0.94647549283E+02  0.95027177539E+02  0.17770000000E+01 0. -1.
         15    1    1    2    0    0  0.80999396475E+01  0.45082566418E+00 -0.77560535530E+02  0.78003888792E+02  0.17770000000E+01 0.  1.
</event>
<event>
 6    1  0.4028964E-003  0.5257006E+03  0.7546771E-02  0.9344071E-01
        -11   -1    0    0    0    0  0.00000000000E+00  0.00000000000E+00  0.50000000000E+03  0.50000000000E+03  0.00000000000E+00 0.  1.
         11   -1    0    0    0    0 -0.00000000000E+00 -0.00000000000E+00 -0.50000000000E+03  0.50000000000E+03  0.00000000000E+00 0. -1.
        -11    1    1    2    0    0 -0.64590321885E+00 -0.97856375685E+01  0.47419805035E+03  0.47429944850E+03  0.00000000000E+00 0.  1.
         11    1    1    2    0    0  0.50307493051E+01 -0.70638988412E+00 -0.17307971081E+03  0.17315424835E+03  0.00000000000E+00 0. -1.
        -15    1    1    2    0    0  0.10453029586E+02 -0.81834399350E+01  0.23499513259E+02  0.27048463341E+02  0.17770000000E+01 0.  1.
         15    1    1    2    0    0 -0.14837875673E+02  0.18675467388E+02 -0.32461785280E+03  0.32549783981E+03  0.17770000000E+01 0. -1.
</event>
<event>
 6    1  0.4028964E-003  0.5009790E+03  0.7546771E-02  0.9397622E-01
        -11   -1    0    0    0    0  0.00000000000E+00  0.00000000000E+00  0.50000000000E+03  0.50000000000E+03  0.00000000000E+00 0. -1.
         11   -1    0    0    0    0 -0.00000000000E+00 -0.00000000000E+00 -0.50000000000E+03  0.50000000000E+03  0.00000000000E+00 0. -1.
        -11    1    1    2    0    0  0.56293960806E+01 -0.12035337000E+01  0.42707081120E+03  0.42710960698E+03  0.00000000000E+00 0. -1.
         11    1    1    2    0    0 -0.99421046704E+01  0.76099338280E+01 -0.49886391222E+03  0.49902100101E+03  0.00000000000E+00 0. -1.
        -15    1    1    2    0    0  0.16932754601E+01  0.83700930862E+00  0.57317059670E+02  0.57375698903E+02  0.17770000000E+01 0. -1.
         15    1    1    2    0    0  0.26194331296E+01 -0.72434094367E+01  0.14476041346E+02  0.16493693105E+02  0.17770000000E+01 0.  1.
</event>
<event>
 6    1  0.4028964E-003  0.5030460E+03  0.7546771E-02  0.9393020E-01
        -11   -1    0    0    0    0  0.00000000000E+00  0.00000000000E+00  0.50000000000E+03  0.50000000000E+03  0.00000000000E+00 0. -1.
         11   -1    0    0    0    0 -0.00000000000E+00 -0.00000000000E+00 -0.50000000000E+03  0.50000000000E+03  0.00000000000E+00 0.  1.
        -11    1    1    2    0    0  0.13247972067E+02 -0.76995934576E+01  0.49671774767E+03  0.49695403545E+03  0.00000000000E+00 0. -1.
         11    1    1    2    0    0 -0.54935033639E+01 -0.61945261279E+01 -0.45729244711E+03  0.45736739381E+03  0.00000000000E+00 0.  1.
        -15    1    1    2    0    0  0.21429290492E+01  0.12591773421E+02 -0.20842943111E+02  0.24509812511E+02  0.17770000000E+01 0.  1.
         15    1    1    2    0    0 -0.98973977521E+01  0.13023461646E+01 -0.18582357441E+02  0.21168758227E+02  0.17770000000E+01 0. -1.
</event>
<event>
 6    1  0.4028964E-003  0.5112925E+03  0.7546771E-02  0.9374890E-01
        -11   -1    0    0    0    0  0.00000000000E+00  0.00000000000E+00  0.50000000000E+03  0.50000000000E+03  0.00000000000E+00 0.  1.
         11   -1    0    0    0    0 -0.00000000000E+00 -0.00000000000E+00 -0.50000000000E+03  0.50000000000E+03  0.00000000000E+00 0. -1.
        -11    1    1    2    0    0 -0.11230368057E+02  0.92584599995E+01  0.48849066862E+03  0.48870745193E+03  0.00000000000E+00 0.  1.
         11    1    1    2    0    0  0.22105093417E+02  0.47377635476E+00 -0.45822906700E+03  0.45876217963E+03  0.00000000000E+00 0. -1.
        -15    1    1    2    0    0  0.14111967671E+02  0.28441787166E+01 -0.13818896864E+02  0.20033886883E+02  0.17770000000E+01 0.  1.
         15    1    1    2    0    0 -0.24986693032E+02 -0.12576415071E+02 -0.16442704756E+02  0.32496481554E+02  0.17770000000E+01 0. -1.
</event>
<event>
 6    1  0.4028964E-003  0.5025734E+03  0.7546771E-02  0.9394070E-01
        -11   -1    0    0    0    0  0.00000000000E+00  0.00000000000E+00  0.50000000000E+03  0.50000000000E+03  0.00000000000E+00 0.  1.
         11   -1    0    0    0    0 -0.00000000000E+00 -0.00000000000E+00 -0.50000000000E+03  0.50000000000E+03  0.00000000000E+00 0. -1.
        -11    1    1    2    0    0 -0.24404195989E+01  0.75237863915E+01  0.46704843669E+03  0.46711540889E+03  0.00000000000E+00 0.  1.
         11    1    1    2    0    0  0.38708569932E+01  0.84410066011E+01 -0.49733992474E+03  0.49742661255E+03  0.00000000000E+00 0. -1.
        -15    1    1    2    0    0 -0.46197444884E+01 -0.12095932769E+02  0.20417603666E+02  0.24242316250E+02  0.17770000000E+01 0.  1.
         15    1    1    2    0    0  0.31893070941E+01 -0.38688602239E+01  0.98738843904E+01  0.11215662313E+02  0.17770000000E+01 0. -1.
</event>
<event>
 6    1  0.4028964E-003  0.5139521E+03  0.7546771E-02  0.9369121E-01
        -11   -1    0    0    0    0  0.00000000000E+00  0.00000000000E+00  0.50000000000E+03  0.50000000000E+03  0.00000000000E+00 0. -1.
         11   -1    0    0    0    0 -0.00000000000E+00 -0.00000000000E+00 -0.50000000000E+03  0.50000000000E+03  0.00000000000E+00 0. -1.
        -11    1    1    2    0    0  0.11650978643E+02 -0.35079554150E+01  0.23918110553E+03  0.23949040126E+03  0.00000000000E+00 0. -1.
         11    1    1    2    0    0 -0.50291540296E+02 -0.12387548563E+02 -0.48328035290E+03  0.48604792962E+03  0.00000000000E+00 0. -1.
        -15    1    1    2    0    0  0.42214090214E+02  0.57017373058E+01  0.15143008543E+02  0.45243868730E+02  0.17770000000E+01 0.  1.
         15    1    1    2    0    0 -0.35735285615E+01  0.10193766672E+02  0.22895623883E+03  0.22921780039E+03  0.17770000000E+01 0. -1.
</event>
<event>
 6    1  0.4028964E-003  0.5001186E+03  0.7546771E-02  0.9399544E-01
        -11   -1    0    0    0    0  0.00000000000E+00  0.00000000000E+00  0.50000000000E+03  0.50000000000E+03  0.00000000000E+00 0. -1.
         11   -1    0    0    0    0 -0.00000000000E+00 -0.00000000000E+00 -0.50000000000E+03  0.50000000000E+03  0.00000000000E+00 0. -1.
        -11    1    1    2    0    0  0.51164490763E+01 -0.55539257418E+01  0.49982432563E+03  0.49988136656E+03  0.00000000000E+00 0. -1.
         11    1    1    2    0    0  0.22857827553E+01  0.51452581376E+00 -0.16890050051E+03  0.16891675053E+03  0.00000000000E+00 0. -1.
        -15    1    1    2    0    0 -0.44678028263E+00  0.55858779198E+01 -0.19384264611E+03  0.19393176848E+03  0.17770000000E+01 0.  1.
         15    1    1    2    0    0 -0.69554515490E+01 -0.54647799168E+00 -0.13708117902E+03  0.13727011442E+03  0.17770000000E+01 0. -1.
</event>
<event>
 6    1  0.4028964E-003  0.5126494E+03  0.7546771E-02  0.9371942E-01
        -11   -1    0    0    0    0  0.00000000000E+00  0.00000000000E+00  0.50000000000E+03  0.50000000000E+03  0.00000000000E+00 0.  1.
         11   -1    0    0    0    0 -0.00000000000E+00 -0.00000000000E+00 -0.50000000000E+03  0.50000000000E+03  0.00000000000E+00 0.  1.
        -11    1    1    2    0    0  0.24190324749E+00 -0.72488464662E+01  0.48729660144E+03  0.48735057410E+03  0.00000000000E+00 0.  1.
         11    1    1    2    0    0 -0.20293962374E+02 -0.88728884176E+00 -0.74882848935E+02  0.77589131036E+02  0.00000000000E+00 0.  1.
        -15    1    1    2    0    0 -0.32570492339E+01  0.37509920608E+02 -0.38898884347E+03  0.39081079896E+03  0.17770000000E+01 0.  1.
         15    1    1    2    0    0  0.23309108361E+02 -0.29373785300E+02 -0.23424909045E+02  0.44249495909E+02  0.17770000000E+01 0. -1.
</event>
<event>
 6    1  0.4028964E-003  0.5054899E+03  0.7546771E-02  0.9387609E-01
        -11   -1    0    0    0    0  0.00000000000E+00  0.00000000000E+00  0.50000000000E+03  0.50000000000E+03  0.00000000000E+00 0. -1.
         11   -1    0    0    0    0 -0.00000000000E+00 -0.00000000000E+00 -0.50000000000E+03  0.50000000000E+03  0.00000000000E+00 0. -1.
        -11    1    1    2    0    0 -0.38497645562E+01  0.11795217459E+02  0.48068616012E+03  0.48084626688E+03  0.00000000000E+00 0. -1.
         11    1    1    2    0    0 -0.70687715595E+01  0.78069645439E-01 -0.49445961183E+03  0.49451014283E+03  0.00000000000E+00 0. -1.
        -15    1    1    2    0    0  0.15264113136E+01 -0.44197817631E+00 -0.18767626548E+01  0.30340143818E+01  0.17770000000E+01 0. -1.
         15    1    1    2    0    0  0.93921248022E+01 -0.11431308928E+02  0.15650214368E+02  0.21609575907E+02  0.17770000000E+01 0.  1.
</event>
<event>
 6    1  0.4028964E-003  0.5032929E+03  0.7546771E-02  0.9392472E-01
        -11   -1    0    0    0    0  0.00000000000E+00  0.00000000000E+00  0.50000000000E+03  0.50000000000E+03  0.00000000000E+00 0.  1.
         11   -1    0    0    0    0 -0.00000000000E+00 -0.00000000000E+00 -0.50000000000E+03  0.50000000000E+03  0.00000000000E+00 0. -1.
        -11    1    1    2    0    0  0.11850451798E+02 -0.12888497767E+02  0.42796191378E+03  0.42831991108E+03  0.00000000000E+00 0.  1.
         11    1    1    2    0    0 -0.12323534997E+01  0.80523536705E+01 -0.49664025861E+03  0.49670706213E+03  0.00000000000E+00 0. -1.
        -15    1    1    2    0    0  0.16522138342E+01  0.39594111316E+01 -0.51497786583E+00  0.46722241240E+01  0.17770000000E+01 0. -1.
         15    1    1    2    0    0 -0.12270312133E+02  0.87673296542E+00  0.69193322695E+02  0.70300802664E+02  0.17770000000E+01 0.  1.
</event>
<event>
 6    1  0.4028964E-003  0.4775840E+03  0.7546771E-02  0.9451413E-01
        -11   -1    0    0    0    0  0.00000000000E+00  0.00000000000E+00  0.50000000000E+03  0.50000000000E+03  0.00000000000E+00 0.  1.
         11   -1    0    0    0    0 -0.00000000000E+00 -0.00000000000E+00 -0.50000000000E+03  0.50000000000E+03  0.00000000000E+00 0.  1.
        -11    1    1    2    0    0 -0.99304445942E+01  0.28064953209E+01  0.47568543002E+03  0.47579735022E+03  0.00000000000E+00 0.  1.
         11    1    1    2    0    0  0.26001148165E+01 -0.70168837590E+01 -0.47935673147E+03  0.47941513666E+03  0.00000000000E+00 0.  1.
        -15    1    1    2    0    0 -0.57068290552E+01  0.55148962205E+01 -0.17800967086E+02  0.19570746955E+02  0.17770000000E+01 0.  1.
         15    1    1    2    0    0  0.13037158833E+02 -0.13045077825E+01  0.21472268534E+02  0.25216766168E+02  0.17770000000E+01 0. -1.
</event>
<event>
 6    1  0.4028964E-003  0.4211951E+03  0.7546771E-02  0.9595769E-01
        -11   -1    0    0    0    0  0.00000000000E+00  0.00000000000E+00  0.50000000000E+03  0.50000000000E+03  0.00000000000E+00 0. -1.
         11   -1    0    0    0    0 -0.00000000000E+00 -0.00000000000E+00 -0.50000000000E+03  0.50000000000E+03  0.00000000000E+00 0. -1.
        -11    1    1    2    0    0 -0.81529636142E+01  0.21106401639E+01  0.42401302409E+03  0.42409665197E+03  0.00000000000E+00 0. -1.
         11    1    1    2    0    0 -0.36529829931E+02  0.71135833946E+02 -0.41506597587E+03  0.42269906514E+03  0.00000000000E+00 0. -1.
        -15    1    1    2    0    0  0.10212700874E+00  0.10467904189E+02  0.43522355638E+02  0.44798890805E+02  0.17770000000E+01 0. -1.
         15    1    1    2    0    0  0.44580666536E+02 -0.83714378298E+02 -0.52469403852E+02  0.10840539208E+03  0.17770000000E+01 0. -1.
</event>
<event>
 6    1  0.4028964E-003  0.5035390E+03  0.7546771E-02  0.9391926E-01
        -11   -1    0    0    0    0  0.00000000000E+00  0.00000000000E+00  0.50000000000E+03  0.50000000000E+03  0.00000000000E+00 0. -1.
         11   -1    0    0    0    0 -0.00000000000E+00 -0.00000000000E+00 -0.50000000000E+03  0.50000000000E+03  0.00000000000E+00 0.  1.
        -11    1    1    2    0    0 -0.10387419294E+02  0.47947153386E+00  0.49635208376E+03  0.49646099486E+03  0.00000000000E+00 0. -1.
         11    1    1    2    0    0  0.18176778478E+02  0.92016494923E+00 -0.41087375703E+03  0.41127665409E+03  0.00000000000E+00 0.  1.
        -15    1    1    2    0    0  0.70186377986E+01  0.24004811797E+01 -0.27402253501E+01  0.81049460462E+01  0.17770000000E+01 0.  1.
         15    1    1    2    0    0 -0.14807996982E+02 -0.38001176628E+01 -0.82738101371E+02  0.84157405000E+02  0.17770000000E+01 0. -1.
</event>
<event>
 6    1  0.4028964E-003  0.5016734E+03  0.7546771E-02  0.9396073E-01
        -11   -1    0    0    0    0  0.00000000000E+00  0.00000000000E+00  0.50000000000E+03  0.50000000000E+03  0.00000000000E+00 0. -1.
         11   -1    0    0    0    0 -0.00000000000E+00 -0.00000000000E+00 -0.50000000000E+03  0.50000000000E+03  0.00000000000E+00 0.  1.
        -11    1    1    2    0    0  0.34251961757E+01  0.58143547635E+01  0.49828094321E+03  0.49832663691E+03  0.00000000000E+00 0. -1.
         11    1    1    2    0    0  0.51952668964E+01 -0.37522662376E+01 -0.46808891383E+03  0.46813278196E+03  0.00000000000E+00 0.  1.
        -15    1    1    2    0    0 -0.62229761351E+01 -0.45804512057E+01 -0.90108140481E+01  0.12002435754E+02  0.17770000000E+01 0. -1.
         15    1    1    2    0    0 -0.23974869369E+01  0.25183626798E+01 -0.21181215330E+02  0.21538145371E+02  0.17770000000E+01 0. -1.
</event>
<event>
 6    1  0.4028964E-003  0.4738168E+03  0.7546771E-02  0.9460381E-01
        -11   -1    0    0    0    0  0.00000000000E+00  0.00000000000E+00  0.50000000000E+03  0.50000000000E+03  0.00000000000E+00 0.  1.
         11   -1    0    0    0    0 -0.00000000000E+00 -0.00000000000E+00 -0.50000000000E+03  0.50000000000E+03  0.00000000000E+00 0.  1.
        -11    1    1    2    0    0 -0.10133230314E+02  0.12225461819E+02  0.47056439731E+03  0.47083223795E+03  0.00000000000E+00 0.  1.
         11    1    1    2    0    0 -0.62521272056E+01  0.61134117378E+01 -0.47706265057E+03  0.47714278311E+03  0.00000000000E+00 0.  1.
        -15    1    1    2    0    0 -0.10610658873E+02 -0.16979521691E+01 -0.11234676480E+02  0.15647517627E+02  0.17770000000E+01 0. -1.
         15    1    1    2    0    0  0.26996016392E+02 -0.16640921388E+02  0.17732929740E+02  0.36377461317E+02  0.17770000000E+01 0.  1.
</event>
<event>
 6    1  0.4028964E-003  0.5009554E+03  0.7546771E-02  0.9397675E-01
        -11   -1    0    0    0    0  0.00000000000E+00  0.00000000000E+00  0.50000000000E+03  0.50000000000E+03  0.00000000000E+00 0.  1.
         11   -1    0    0    0    0 -0.00000000000E+00 -0.00000000000E+00 -0.50000000000E+03  0.50000000000E+03  0.00000000000E+00 0.  1.
        -11    1    1    2    0    0 -0.66644785626E+01 -0.80327133346E+01  0.49893548033E+03  0.49904464058E+03  0.00000000000E+00 0.  1.
         11    1    1    2    0    0  0.61840122543E+01 -0.19648444451E+01 -0.15505094133E+03  0.15518665222E+03  0.00000000000E+00 0.  1.
        -15    1    1    2    0    0 -0.11506018728E+02  0.11668385765E+02 -0.29187595308E+03  0.29234101561E+03  0.17770000000E+01 0.  1.
         15    1    1    2    0    0  0.11986485036E+02 -0.16708279854E+01 -0.52008585926E+02  0.53427691591E+02  0.17770000000E+01 0. -1.
</event>
<event>
 6    1  0.4028964E-003  0.4866379E+03  0.7546771E-02  0.9430215E-01
        -11   -1    0    0    0    0  0.00000000000E+00  0.00000000000E+00  0.50000000000E+03  0.50000000000E+03  0.00000000000E+00 0.  1.
         11   -1    0    0    0    0 -0.00000000000E+00 -0.00000000000E+00 -0.50000000000E+03  0.50000000000E+03  0.00000000000E+00 0.  1.
        -11    1    1    2    0    0 -0.21659402017E+01 -0.10101087369E+02  0.49199750744E+03  0.49210595464E+03  0.00000000000E+00 0.  1.
         11    1    1    2    0    0 -0.11758808261E+02 -0.30142242310E+01 -0.48126384828E+03  0.48141691576E+03  0.00000000000E+00 0.  1.
        -15    1    1    2    0    0  0.68842984880E+01  0.59309713948E+01  0.26594209135E+01  0.96332879098E+01  0.17770000000E+01 0.  1.
         15    1    1    2    0    0  0.70404499751E+01  0.71843402054E+01 -0.13393080078E+02  0.16843841694E+02  0.17770000000E+01 0. -1.
</event>
<event>
 6    1  0.4028964E-003  0.5012258E+03  0.7546771E-02  0.9397071E-01
        -11   -1    0    0    0    0  0.00000000000E+00  0.00000000000E+00  0.50000000000E+03  0.50000000000E+03  0.00000000000E+00 0.  1.
         11   -1    0    0    0    0 -0.00000000000E+00 -0.00000000000E+00 -0.50000000000E+03  0.50000000000E+03  0.00000000000E+00 0.  1.
        -11    1    1    2    0    0 -0.49821556239E+01  0.32323250857E+01  0.35875952122E+03  0.35880867306E+03  0.00000000000E+00 0.  1.
         11    1    1    2    0    0  0.22411968623E+01 -0.99023056677E+01 -0.49867085453E+03  0.49877419719E+03  0.00000000000E+00 0.  1.
        -15    1    1    2    0    0 -0.41139795897E+01  0.58961876855E+01  0.10719336502E+02  0.13028881814E+02  0.17770000000E+01 0.  1.
         15    1    1    2    0    0  0.68549383514E+01  0.77379289657E+00  0.12919199681E+03  0.12938824794E+03  0.17770000000E+01 0. -1.
</event>
<event>
 6    1  0.4028964E-003  0.5007597E+03  0.7546771E-02  0.9398111E-01
        -11   -1    0    0    0    0  0.00000000000E+00  0.00000000000E+00  0.50000000000E+03  0.50000000000E+03  0.00000000000E+00 0.  1.
         11   -1    0    0    0    0 -0.00000000000E+00 -0.00000000000E+00 -0.50000000000E+03  0.50000000000E+03  0.00000000000E+00 0. -1.
        -11    1    1    2    0    0  0.47216037223E+01 -0.65692713381E+01  0.36328516435E+03  0.36337523237E+03  0.00000000000E+00 0.  1.
         11    1    1    2    0    0 -0.74442726678E+00 -0.73242787611E+01 -0.49918600478E+03  0.49924028944E+03  0.00000000000E+00 0. -1.
        -15    1    1    2    0    0 -0.13408369812E+01  0.13141439784E+02  0.62237247907E+02  0.63648472405E+02  0.17770000000E+01 0.  1.
         15    1    1    2    0    0 -0.26363394743E+01  0.75211031496E+00  0.73663592525E+02  0.73736005781E+02  0.17770000000E+01 0. -1.
</event>
<event>
 6    1  0.4028964E-003  0.5034043E+03  0.7546771E-02  0.9392224E-01
        -11   -1    0    0    0    0  0.00000000000E+00  0.00000000000E+00  0.50000000000E+03  0.50000000000E+03  0.00000000000E+00 0.  1.
         11   -1    0    0    0    0 -0.00000000000E+00 -0.00000000000E+00 -0.50000000000E+03  0.50000000000E+03  0.00000000000E+00 0. -1.
        -11    1    1    2    0    0 -0.73153690082E+01 -0.12424334109E+01  0.49654026518E+03  0.49659570398E+03  0.00000000000E+00 0.  1.
         11    1    1    2    0    0 -0.87816369796E-01  0.62672420825E+01 -0.38811215829E+03  0.38816276669E+03  0.00000000000E+00 0. -1.
        -15    1    1    2    0    0  0.11287703674E+02 -0.35740748137E+01 -0.73204566287E+01  0.14033284693E+02  0.17770000000E+01 0. -1.
         15    1    1    2    0    0 -0.38845182963E+01 -0.14507338579E+01 -0.10110765027E+03  0.10120824464E+03  0.17770000000E+01 0.  1.
</event>
<event>
 6    1  0.4028964E-003  0.4806085E+03  0.7546771E-02  0.9444277E-01
        -11   -1    0    0    0    0  0.00000000000E+00  0.00000000000E+00  0.50000000000E+03  0.50000000000E+03  0.00000000000E+00 0. -1.
         11   -1    0    0    0    0 -0.00000000000E+00 -0.00000000000E+00 -0.50000000000E+03  0.50000000000E+03  0.00000000000E+00 0.  1.
        -11    1    1    2    0    0 -0.65143735967E+01  0.31534104116E+00  0.47792273546E+03  0.47796723483E+03  0.00000000000E+00 0. -1.
         11    1    1    2    0    0  0.20451272891E+02  0.69078458965E+01 -0.48290860843E+03  0.48339083255E+03  0.00000000000E+00 0.  1.
        -15    1    1    2    0    0 -0.30974087979E+01 -0.10682786266E+02 -0.13052634759E+02  0.17240790783E+02  0.17770000000E+01 0. -1.
         15    1    1    2    0    0 -0.10839490496E+02  0.34595993288E+01  0.18038507727E+02  0.21401141832E+02  0.17770000000E+01 0.  1.
</event>
<event>
 6    1  0.4028964E-003  0.5439346E+03  0.7546771E-02  0.9306536E-01
        -11   -1    0    0    0    0  0.00000000000E+00  0.00000000000E+00  0.50000000000E+03  0.50000000000E+03  0.00000000000E+00 0.  1.
         11   -1    0    0    0    0 -0.00000000000E+00 -0.00000000000E+00 -0.50000000000E+03  0.50000000000E+03  0.00000000000E+00 0. -1.
        -11    1    1    2    0    0  0.11019554691E+02  0.10266296187E+02  0.41680443117E+03  0.41707644535E+03  0.00000000000E+00 0.  1.
         11    1    1    2    0    0  0.49174834661E+01  0.40997941375E+01 -0.45602050143E+03  0.45606544232E+03  0.00000000000E+00 0. -1.
        -15    1    1    2    0    0 -0.17279415801E+02  0.57041593678E+01  0.79618260180E+02  0.81690517978E+02  0.17770000000E+01 0.  1.
         15    1    1    2    0    0  0.13423776439E+01 -0.20070249693E+02 -0.40402189921E+02  0.45167594356E+02  0.17770000000E+01 0. -1.
</event>
<event>
 6    1  0.4028964E-003  0.3933117E+03  0.7546771E-02  0.9676372E-01
        -11   -1    0    0    0    0  0.00000000000E+00  0.00000000000E+00  0.50000000000E+03  0.50000000000E+03  0.00000000000E+00 0. -1.
         11   -1    0    0    0    0 -0.00000000000E+00 -0.00000000000E+00 -0.50000000000E+03  0.50000000000E+03  0.00000000000E+00 0.  1.
        -11    1    1    2    0    0  0.10425516363E+02 -0.94035391888E+01  0.39954447293E+03  0.39979107518E+03  0.00000000000E+00 0. -1.
         11    1    1    2    0    0  0.14768472952E+02  0.58316881613E+01 -0.38701782596E+03  0.38734340576E+03  0.00000000000E+00 0.  1.
        -15    1    1    2    0    0  0.32967245691E+01  0.26771654208E+02  0.95235699164E+02  0.98997908999E+02  0.17770000000E+01 0. -1.
         15    1    1    2    0    0 -0.28490713884E+02 -0.23199803180E+02 -0.10776234614E+03  0.11386761006E+03  0.17770000000E+01 0.  1.
</event>
<event>
 6    1  0.4028964E-003  0.5016153E+03  0.7546771E-02  0.9396203E-01
        -11   -1    0    0    0    0  0.00000000000E+00  0.00000000000E+00  0.50000000000E+03  0.50000000000E+03  0.00000000000E+00 0.  1.
         11   -1    0    0    0    0 -0.00000000000E+00 -0.00000000000E+00 -0.50000000000E+03  0.50000000000E+03  0.00000000000E+00 0. -1.
        -11    1    1    2    0    0  0.49370936697E+01  0.27100562943E+01  0.23674247222E+03  0.23680945390E+03  0.00000000000E+00 0.  1.
         11    1    1    2    0    0 -0.51594818531E+01 -0.76977974770E+01 -0.49829849689E+03  0.49838465901E+03  0.00000000000E+00 0. -1.
        -15    1    1    2    0    0  0.28365233988E+01 -0.18708303617E+01  0.77066529363E+00  0.39112050865E+01  0.17770000000E+01 0.  1.
         15    1    1    2    0    0 -0.26141352155E+01  0.68585715444E+01  0.26078535937E+03  0.26089468200E+03  0.17770000000E+01 0. -1.
</event>
<event>
 6    1  0.4028964E-003  0.5034907E+03  0.7546771E-02  0.9392033E-01
        -11   -1    0    0    0    0  0.00000000000E+00  0.00000000000E+00  0.50000000000E+03  0.50000000000E+03  0.00000000000E+00 0. -1.
         11   -1    0    0    0    0 -0.00000000000E+00 -0.00000000000E+00 -0.50000000000E+03  0.50000000000E+03  0.00000000000E+00 0.  1.
        -11    1    1    2    0    0 -0.29241075583E+01 -0.66674420521E+01  0.70035602164E+02  0.70413001349E+02  0.00000000000E+00 0. -1.
         11    1    1    2    0    0  0.79709209088E+01  0.21402014706E+02 -0.49598377623E+03  0.49650930313E+03  0.00000000000E+00 0.  1.
        -15    1    1    2    0    0  0.10357836396E+01  0.28326739582E+02  0.25886788829E+03  0.26042123251E+03  0.17770000000E+01 0.  1.
         15    1    1    2    0    0 -0.60825969902E+01 -0.43061312236E+02  0.16708028577E+03  0.17265646301E+03  0.17770000000E+01 0. -1.
</event>
<event>
 6    1  0.4028964E-003  0.5615748E+03  0.7546771E-02  0.9271680E-01
        -11   -1    0    0    0    0  0.00000000000E+00  0.00000000000E+00  0.50000000000E+03  0.50000000000E+03  0.00000000000E+00 0.  1.
         11   -1    0    0    0    0 -0.00000000000E+00 -0.00000000000E+00 -0.50000000000E+03  0.50000000000E+03  0.00000000000E+00 0. -1.
        -11    1    1    2    0    0  0.16154988749E+02  0.11353508598E+01  0.33356167584E+03  0.33395458414E+03  0.00000000000E+00 0.  1.
         11    1    1    2    0    0 -0.83270280464E+01  0.19660861335E+02 -0.43790492574E+03  0.43842515080E+03  0.00000000000E+00 0. -1.
        -15    1    1    2    0    0 -0.56777348830E+02 -0.22363681292E+02 -0.41463387789E+02  0.73798183155E+02  0.17770000000E+01 0. -1.
         15    1    1    2    0    0  0.48949388127E+02  0.15674690977E+01  0.14580663769E+03  0.15382208190E+03  0.17770000000E+01 0.  1.
</event>
<event>
 6    1  0.4028964E-003  0.3451085E+03  0.7546771E-02  0.9834123E-01
        -11   -1    0    0    0    0  0.00000000000E+00  0.00000000000E+00  0.50000000000E+03  0.50000000000E+03  0.00000000000E+00 0.  1.
         11   -1    0    0    0    0 -0.00000000000E+00 -0.00000000000E+00 -0.50000000000E+03  0.50000000000E+03  0.00000000000E+00 0.  1.
        -11    1    1    2    0    0 -0.93669351640E+01 -0.71500997670E+01  0.14065790424E+03  0.14115066215E+03  0.00000000000E+00 0.  1.
         11    1    1    2    0    0  0.14254336138E+02 -0.23779224286E+02 -0.43227315189E+03  0.43316130420E+03  0.00000000000E+00 0.  1.
        -15    1    1    2    0    0  0.77344901572E+02  0.12712996956E+03  0.25270951955E+03  0.29327380033E+03  0.17770000000E+01 0.  1.
         15    1    1    2    0    0 -0.82232302546E+02 -0.96200645509E+02  0.38905728105E+02  0.13241423332E+03  0.17770000000E+01 0. -1.
</event>
<event>
 6    1  0.4028964E-003  0.5101530E+03  0.7546771E-02  0.9377374E-01
        -11   -1    0    0    0    0  0.00000000000E+00  0.00000000000E+00  0.50000000000E+03  0.50000000000E+03  0.00000000000E+00 0. -1.
         11   -1    0    0    0    0 -0.00000000000E+00 -0.00000000000E+00 -0.50000000000E+03  0.50000000000E+03  0.00000000000E+00 0.  1.
        -11    1    1    2    0    0  0.23051694185E+00  0.19008459390E+02  0.38661802709E+03  0.38708509858E+03  0.00000000000E+00 0. -1.
         11    1    1    2    0    0 -0.13865369012E+02 -0.84937221763E+00 -0.48964997017E+03  0.48984697935E+03  0.00000000000E+00 0.  1.
        -15    1    1    2    0    0 -0.20455976036E+02 -0.35546408092E+01  0.10437218135E+02  0.23306129628E+02  0.17770000000E+01 0. -1.
         15    1    1    2    0    0  0.34090828105E+02 -0.14604446364E+02  0.92594724945E+02  0.99761792441E+02  0.17770000000E+01 0.  1.
</event>
<event>
 6    1  0.4028964E-003  0.5125478E+03  0.7546771E-02  0.9372163E-01
        -11   -1    0    0    0    0  0.00000000000E+00  0.00000000000E+00  0.50000000000E+03  0.50000000000E+03  0.00000000000E+00 0.  1.
         11   -1    0    0    0    0 -0.00000000000E+00 -0.00000000000E+00 -0.50000000000E+03  0.50000000000E+03  0.00000000000E+00 0.  1.
        -11    1    1    2    0    0 -0.12133912508E+02  0.67437557656E+01  0.46984693356E+03  0.47005196633E+03  0.00000000000E+00 0.  1.
         11    1    1    2    0    0  0.91041839412E+01  0.30712453495E+01 -0.48735747307E+03  0.48745217742E+03  0.00000000000E+00 0.  1.
        -15    1    1    2    0    0  0.27598424924E+01 -0.35165210348E+01  0.28932206744E+02  0.29329387427E+02  0.17770000000E+01 0.  1.
         15    1    1    2    0    0  0.26988607438E+00 -0.62984800803E+01 -0.11421667239E+02  0.13166468826E+02  0.17770000000E+01 0. -1.
</event>
<event>
 6    1  0.4028964E-003  0.5044766E+03  0.7546771E-02  0.9389848E-01
        -11   -1    0    0    0    0  0.00000000000E+00  0.00000000000E+00  0.50000000000E+03  0.50000000000E+03  0.00000000000E+00 0. -1.
         11   -1    0    0    0    0 -0.00000000000E+00 -0.00000000000E+00 -0.50000000000E+03  0.50000000000E+03  0.00000000000E+00 0.  1.
        -11    1    1    2    0    0 -0.50543514245E+01 -0.52872044602E+01  0.38917094265E+03  0.38923967372E+03  0.00000000000E+00 0. -1.
         11    1    1    2    0    0  0.50279596305E-01 -0.99248191864E+01 -0.49542399021E+03  0.49552339464E+03  0.00000000000E+00 0.  1.
        -15    1    1    2    0    0 -0.63143214619E+00  0.10666852613E+02  0.23722625552E+01  0.11088994988E+02  0.17770000000E+01 0. -1.
         15    1    1    2    0    0  0.56355039743E+01  0.45451710337E+01  0.10388078501E+03  0.10414793665E+03  0.17770000000E+01 0. -1.
</event>
<event>
 6    1  0.4028964E-003  0.5002774E+03  0.7546771E-02  0.9399189E-01
        -11   -1    0    0    0    0  0.00000000000E+00  0.00000000000E+00  0.50000000000E+03  0.50000000000E+03  0.00000000000E+00 0. -1.
         11   -1    0    0    0    0 -0.00000000000E+00 -0.00000000000E+00 -0.50000000000E+03  0.50000000000E+03  0.00000000000E+00 0. -1.
        -11    1    1    2    0    0 -0.73716563014E+01  0.45767863365E+00  0.49966803235E+03  0.49972261639E+03  0.00000000000E+00 0. -1.
         11    1    1    2    0    0  0.78089875794E+01 -0.24835872930E+00 -0.28615086516E+03  0.28625750576E+03  0.00000000000E+00 0. -1.
        -15    1    1    2    0    0  0.63586478592E+01  0.25660304185E+01 -0.97210177606E+02  0.97467908943E+02  0.17770000000E+01 0.  1.
         15    1    1    2    0    0 -0.67959791372E+01 -0.27753503228E+01 -0.11630698958E+03  0.11655196891E+03  0.17770000000E+01 0. -1.
</event>
<event>
 6    1  0.4028964E-003  0.5035083E+03  0.7546771E-02  0.9391994E-01
        -11   -1    0    0    0    0  0.00000000000E+00  0.00000000000E+00  0.50000000000E+03  0.50000000000E+03  0.00000000000E+00 0. -1.
         11   -1    0    0    0    0 -0.00000000000E+00 -0.00000000000E+00 -0.50000000000E+03  0.50000000000E+03  0.00000000000E+00 0.  1.
        -11    1    1    2    0    0 -0.16880796777E+02 -0.53385555188E+01  0.41691207666E+03  0.41728783968E+03  0.00000000000E+00 0. -1.
         11    1    1    2    0    0 -0.19744543769E+01 -0.12246504999E+02 -0.49633666372E+03  0.49649165059E+03  0.00000000000E+00 0.  1.
        -15    1    1    2    0    0  0.63494820580E+01  0.44226820053E+01  0.55851370122E+02  0.56412847048E+02  0.17770000000E+01 0. -1.
         15    1    1    2    0    0  0.12505769096E+02  0.13162378513E+02  0.23573216938E+02  0.29807662682E+02  0.17770000000E+01 0.  1.
</event>
<event>
 6    1  0.4028964E-003  0.5052181E+03  0.7546771E-02  0.9388209E-01
        -11   -1    0    0    0    0  0.00000000000E+00  0.00000000000E+00  0.50000000000E+03  0.50000000000E+03  0.00000000000E+00 0. -1.
         11   -1    0    0    0    0 -0.00000000000E+00 -0.00000000000E+00 -0.50000000000E+03  0.50000000000E+03  0.00000000000E+00 0. -1.
        -11    1    1    2    0    0 -0.50050055387E+01 -0.75501780151E+01  0.49469893159E+03  0.49478185919E+03  0.00000000000E+00 0. -1.
         11    1    1    2    0    0 -0.27203254515E+01 -0.67669256777E+01 -0.48067467698E+03  0.48073000379E+03  0.00000000000E+00 0. -1.
        -15    1    1    2    0    0  0.50112264800E+01  0.11694762877E+02 -0.37244705369E+01  0.13375697341E+02  0.17770000000E+01 0. -1.
         15    1    1    2    0    0  0.27141045102E+01  0.26223408160E+01 -0.10299784071E+02  0.11112439677E+02  0.17770000000E+01 0.  1.
</event>
<event>
 6    1  0.4028964E-003  0.5115554E+03  0.7546771E-02  0.9374318E-01
        -11   -1    0    0    0    0  0.00000000000E+00  0.00000000000E+00  0.50000000000E+03  0.50000000000E+03  0.00000000000E+00 0. -1.
         11   -1    0    0    0    0 -0.00000000000E+00 -0.00000000000E+00 -0.50000000000E+03  0.50000000000E+03  0.00000000000E+00 0. -1.
        -11    1    1    2    0    0  0.26231597659E+02  0.10233227702E+02  0.48763230975E+03  0.48844455691E+03  0.00000000000E+00 0. -1.
         11    1    1    2    0    0 -0.20847662102E+02 -0.86495538633E+01 -0.42577092241E+03  0.42636875843E+03  0.00000000000E+00 0. -1.
        -15    1    1    2    0    0  0.21349176663E+02  0.40652286314E+00 -0.52554112015E+02  0.56754251152E+02  0.17770000000E+01 0.  1.
         15    1    1    2    0    0 -0.26733112220E+02 -0.19901967017E+01 -0.93072753249E+01  0.28432433502E+02  0.17770000000E+01 0. -1.
</event>
<event>
 6    1  0.4028964E-003  0.5013100E+03  0.7546771E-02  0.9396883E-01
        -11   -1    0    0    0    0  0.00000000000E+00  0.00000000000E+00  0.50000000000E+03  0.50000000000E+03  0.00000000000E+00 0. -1.
         11   -1    0    0    0    0 -0.00000000000E+00 -0.00000000000E+00 -0.50000000000E+03  0.50000000000E+03  0.00000000000E+00 0.  1.
        -11    1    1    2    0    0  0.11524721145E+02  0.62664996258E+01  0.19820520791E+03  0.19863884981E+03  0.00000000000E+00 0. -1.
         11    1    1    2    0    0  0.59451128209E-01 -0.12065767394E+02 -0.49854398274E+03  0.49868997283E+03  0.00000000000E+00 0.  1.
        -15    1    1    2    0    0 -0.59017521108E+01 -0.11507489222E+02  0.21479983364E+03  0.21519614133E+03  0.17770000000E+01 0.  1.
         15    1    1    2    0    0 -0.56824201622E+01  0.17306756990E+02  0.85538941197E+02  0.87475036019E+02  0.17770000000E+01 0. -1.
</event>
<event>
 6    1  0.4028964E-003  0.5043587E+03  0.7546771E-02  0.9390109E-01
        -11   -1    0    0    0    0  0.00000000000E+00  0.00000000000E+00  0.50000000000E+03  0.50000000000E+03  0.00000000000E+00 0. -1.
         11   -1    0    0    0    0 -0.00000000000E+00 -0.00000000000E+00 -0.50000000000E+03  0.50000000000E+03  0.00000000000E+00 0. -1.
        -11    1    1    2    0    0  0.97530937878E+01 -0.67752507559E+01  0.49549905122E+03  0.49564133869E+03  0.00000000000E+00 0. -1.
         11    1    1    2    0    0  0.17449332999E+02  0.97216235426E+01 -0.39593408701E+03  0.39643762490E+03  0.00000000000E+00 0. -1.
        -15    1    1    2    0    0 -0.22520789461E+02 -0.54106681339E+01 -0.29097138556E+02  0.37232546096E+02  0.17770000000E+01 0.  1.
         15    1    1    2    0    0 -0.46816373258E+01  0.24642953472E+01 -0.70467825659E+02  0.70688490306E+02  0.17770000000E+01 0. -1.
</event>
<event>
 6    1  0.4028964E-003  0.5007802E+03  0.7546771E-02  0.9398066E-01
        -11   -1    0    0    0    0  0.00000000000E+00  0.00000000000E+00  0.50000000000E+03  0.50000000000E+03  0.00000000000E+00 0.  1.
         11   -1    0    0    0    0 -0.00000000000E+00 -0.00000000000E+00 -0.50000000000E+03  0.50000000000E+03  0.00000000000E+00 0. -1.
        -11    1    1    2    0    0 -0.68126280432E+01  0.89046590926E+01  0.39572557917E+03  0.39588437563E+03  0.00000000000E+00 0.  1.
         11    1    1    2    0    0  0.11221722646E+02  0.33263019869E+01 -0.49908254706E+03  0.49921977136E+03  0.00000000000E+00 0. -1.
        -15    1    1    2    0    0 -0.83594058378E+00 -0.13448298047E+02  0.73114621709E+02  0.74367070358E+02  0.17770000000E+01 0.  1.
         15    1    1    2    0    0 -0.35731540188E+01  0.12173369672E+01  0.30242346176E+02  0.30528782651E+02  0.17770000000E+01 0. -1.
</event>
<event>
 6    1  0.4028964E-003  0.5002475E+03  0.7546771E-02  0.9399256E-01
        -11   -1    0    0    0    0  0.00000000000E+00  0.00000000000E+00  0.50000000000E+03  0.50000000000E+03  0.00000000000E+00 0. -1.
         11   -1    0    0    0    0 -0.00000000000E+00 -0.00000000000E+00 -0.50000000000E+03  0.50000000000E+03  0.00000000000E+00 0.  1.
        -11    1    1    2    0    0 -0.14546919900E+02 -0.27427237481E+01  0.49953321045E+03  0.49975250250E+03  0.00000000000E+00 0. -1.
         11    1    1    2    0    0  0.37032510915E+01 -0.16270839734E+01 -0.86573517525E+02  0.86667960675E+02  0.00000000000E+00 0.  1.
        -15    1    1    2    0    0  0.33640216649E+01  0.21445362725E+01 -0.17427849417E+02  0.17966728747E+02  0.17770000000E+01 0. -1.
         15    1    1    2    0    0  0.74796471432E+01  0.22252714491E+01 -0.39553184351E+03  0.39561280808E+03  0.17770000000E+01 0.  1.
</event>
<event>
 6    1  0.4028964E-003  0.5048697E+03  0.7546771E-02  0.9388979E-01
        -11   -1    0    0    0    0  0.00000000000E+00  0.00000000000E+00  0.50000000000E+03  0.50000000000E+03  0.00000000000E+00 0. -1.
         11   -1    0    0    0    0 -0.00000000000E+00 -0.00000000000E+00 -0.50000000000E+03  0.50000000000E+03  0.00000000000E+00 0. -1.
        -11    1    1    2    0    0  0.25058257059E+02  0.47005980681E+01  0.33499218482E+03  0.33596097356E+03  0.00000000000E+00 0. -1.
         11    1    1    2    0    0  0.19777548758E+01 -0.63923415045E+01 -0.49508504758E+03  0.49513026355E+03  0.00000000000E+00 0. -1.
        -15    1    1    2    0    0 -0.22077554659E+02  0.13245703244E+02  0.36707076833E+02  0.44871308124E+02  0.17770000000E+01 0.  1.
         15    1    1    2    0    0 -0.49584572759E+01 -0.11553959807E+02  0.12338578593E+03  0.12403745476E+03  0.17770000000E+01 0. -1.
</event>
<event>
 6    1  0.4028964E-003  0.5034513E+03  0.7546771E-02  0.9392120E-01
        -11   -1    0    0    0    0  0.00000000000E+00  0.00000000000E+00  0.50000000000E+03  0.50000000000E+03  0.00000000000E+00 0.  1.
         11   -1    0    0    0    0 -0.00000000000E+00 -0.00000000000E+00 -0.50000000000E+03  0.50000000000E+03  0.00000000000E+00 0. -1.
        -11    1    1    2    0    0 -0.92666846931E+01  0.73728220503E+01  0.48134155509E+03  0.48148719880E+03  0.00000000000E+00 0.  1.
         11    1    1    2    0    0  0.39927543325E+01 -0.75350717327E+01 -0.49647547339E+03  0.49654870363E+03  0.00000000000E+00 0. -1.
        -15    1    1    2    0    0 -0.33148222637E+01  0.17184133611E+01  0.11714154699E+02  0.12422565775E+02  0.17770000000E+01 0. -1.
         15    1    1    2    0    0  0.85887526243E+01 -0.15561636787E+01  0.34197636021E+01  0.95415318021E+01  0.17770000000E+01 0.  1.
</event>
<event>
 6    1  0.4028964E-003  0.5008250E+03  0.7546771E-02  0.9397966E-01
        -11   -1    0    0    0    0  0.00000000000E+00  0.00000000000E+00  0.50000000000E+03  0.50000000000E+03  0.00000000000E+00 0.  1.
         11   -1    0    0    0    0 -0.00000000000E+00 -0.00000000000E+00 -0.50000000000E+03  0.50000000000E+03  0.00000000000E+00 0. -1.
        -11    1    1    2    0    0  0.65729882392E+01  0.68318697672E+01  0.32300920157E+03  0.32314829864E+03  0.00000000000E+00 0.  1.
         11    1    1    2    0    0  0.10853252128E+02 -0.70909351031E+01 -0.49900657872E+03  0.49917495935E+03  0.00000000000E+00 0. -1.
        -15    1    1    2    0    0 -0.39766831590E+01  0.13015161370E+00  0.78130031776E+01  0.89460435972E+01  0.17770000000E+01 0.  1.
         15    1    1    2    0    0 -0.13449557208E+02  0.12891372218E+00  0.16818437397E+03  0.16873069841E+03  0.17770000000E+01 0. -1.
</event>
<event>
 6    1  0.4028964E-003  0.5054841E+03  0.7546771E-02  0.9387622E-01
        -11   -1    0    0    0    0  0.00000000000E+00  0.00000000000E+00  0.50000000000E+03  0.50000000000E+03  0.00000000000E+00 0. -1.
         11   -1    0    0    0    0 -0.00000000000E+00 -0.00000000000E+00 -0.50000000000E+03  0.50000000000E+03  0.00000000000E+00 0.  1.
        -11    1    1    2    0    0  0.24922062344E+02  0.14580742665E+02  0.36250162201E+03  0.36364973973E+03  0.00000000000E+00 0. -1.
         11    1    1    2    0    0 -0.92906917763E+01  0.27761772395E+01 -0.49442086977E+03  0.49451594572E+03  0.00000000000E+00 0.  1.
        -15    1    1    2    0    0 -0.17152191242E+02 -0.19486374525E+02  0.13496067944E+03  0.13744620468E+03  0.17770000000E+01 0. -1.
         15    1    1    2    0    0  0.15208206741E+01  0.21294546204E+01 -0.30414316845E+01  0.43881098658E+01  0.17770000000E+01 0.  1.
</event>
<event>
 6    1  0.4028964E-003  0.5109784E+03  0.7546771E-02  0.9375574E-01
        -11   -1    0    0    0    0  0.00000000000E+00  0.00000000000E+00  0.50000000000E+03  0.50000000000E+03  0.00000000000E+00 0. -1.
         11   -1    0    0    0    0 -0.00000000000E+00 -0.00000000000E+00 -0.50000000000E+03  0.50000000000E+03  0.00000000000E+00 0. -1.
        -11    1    1    2    0    0 -0.16542793854E+02  0.15021359641E+01  0.48873940952E+03  0.48902160572E+03  0.00000000000E+00 0. -1.
         11    1    1    2    0    0  0.10620629328E+02  0.21195428264E+01 -0.47596250068E+03  0.47608569846E+03  0.00000000000E+00 0. -1.
        -15    1    1    2    0    0 -0.22790660097E+01 -0.56869153463E+01 -0.21612018184E+02  0.22533801433E+02  0.17770000000E+01 0. -1.
         15    1    1    2    0    0  0.82012305351E+01  0.20652365558E+01  0.88351093415E+01  0.12358894384E+02  0.17770000000E+01 0.  1.
</event>
<event>
 6    1  0.4028964E-003  0.4717182E+03  0.7546771E-02  0.9465416E-01
        -11   -1    0    0    0    0  0.00000000000E+00  0.00000000000E+00  0.50000000000E+03  0.50000000000E+03  0.00000000000E+00 0.  1.
         11   -1    0    0    0    0 -0.00000000000E+00 -0.00000000000E+00 -0.50000000000E+03  0.50000000000E+03  0.00000000000E+00 0. -1.
        -11    1    1    2    0    0  0.10094001521E+02  0.47098308849E+01  0.47284503454E+03  0.47297621300E+03  0.00000000000E+00 0.  1.
         11    1    1    2    0    0 -0.10095063157E+01 -0.77286492755E+01 -0.47044721402E+03  0.47051177700E+03  0.00000000000E+00 0. -1.
        -15    1    1    2    0    0  0.35992128539E+00  0.32031589663E+01 -0.28479083916E+02  0.28715948885E+02  0.17770000000E+01 0. -1.
         15    1    1    2    0    0 -0.94444164905E+01 -0.18434057564E+00  0.26081263391E+02  0.27796061112E+02  0.17770000000E+01 0.  1.
</event>
<event>
 6    1  0.4028964E-003  0.5010935E+03  0.7546771E-02  0.9397366E-01
        -11   -1    0    0    0    0  0.00000000000E+00  0.00000000000E+00  0.50000000000E+03  0.50000000000E+03  0.00000000000E+00 0.  1.
         11   -1    0    0    0    0 -0.00000000000E+00 -0.00000000000E+00 -0.50000000000E+03  0.50000000000E+03  0.00000000000E+00 0.  1.
        -11    1    1    2    0    0 -0.72019614494E+01 -0.55178051237E+01  0.49882400838E+03  0.49890651004E+03  0.00000000000E+00 0.  1.
         11    1    1    2    0    0  0.39075680256E+00  0.69010546645E+01 -0.44198513519E+03  0.44203918037E+03  0.00000000000E+00 0.  1.
        -15    1    1    2    0    0  0.22353509906E+01 -0.12307207050E+01 -0.14202901011E+01  0.34185406939E+01  0.17770000000E+01 0.  1.
         15    1    1    2    0    0  0.45758536563E+01 -0.15252883571E+00 -0.55418583083E+02  0.55635768905E+02  0.17770000000E+01 0. -1.
</event>
<event>
 6    1  0.4028964E-003  0.5076057E+03  0.7546771E-02  0.9382950E-01
        -11   -1    0    0    0    0  0.00000000000E+00  0.00000000000E+00  0.50000000000E+03  0.50000000000E+03  0.00000000000E+00 0.  1.
         11   -1    0    0    0    0 -0.00000000000E+00 -0.00000000000E+00 -0.50000000000E+03  0.50000000000E+03  0.00000000000E+00 0.  1.
        -11    1    1    2    0    0 -0.34774126104E+01 -0.67757122432E+01  0.49233538672E+03  0.49239428885E+03  0.00000000000E+00 0.  1.
         11    1    1    2    0    0  0.20480759831E+02 -0.62374994409E+01 -0.35561984972E+03  0.35626373018E+03  0.00000000000E+00 0.  1.
        -15    1    1    2    0    0 -0.13888486860E+02  0.89265093535E+01 -0.14246465578E+03  0.14342910623E+03  0.17770000000E+01 0. -1.
         15    1    1    2    0    0 -0.31148603599E+01  0.40867023306E+01  0.57491187852E+01  0.79128747498E+01  0.17770000000E+01 0.  1.
</event>
<event>
 6    1  0.4028964E-003  0.5018236E+03  0.7546771E-02  0.9395739E-01
        -11   -1    0    0    0    0  0.00000000000E+00  0.00000000000E+00  0.50000000000E+03  0.50000000000E+03  0.00000000000E+00 0. -1.
         11   -1    0    0    0    0 -0.00000000000E+00 -0.00000000000E+00 -0.50000000000E+03  0.50000000000E+03  0.00000000000E+00 0. -1.
        -11    1    1    2    0    0 -0.11669513288E+02  0.18278160415E+02  0.49770419194E+03  0.49817640587E+03  0.00000000000E+00 0. -1.
         11    1    1    2    0    0 -0.85063677701E+01 -0.28319821471E+02 -0.36506207445E+03  0.36625768085E+03  0.00000000000E+00 0. -1.
        -15    1    1    2    0    0  0.11909713329E+02  0.12187139700E+02 -0.59878412531E+02  0.62281214357E+02  0.17770000000E+01 0. -1.
         15    1    1    2    0    0  0.82661677292E+01 -0.21454786446E+01 -0.72763704961E+02  0.73284698923E+02  0.17770000000E+01 0.  1.
</event>
<event>
 6    1  0.4028964E-003  0.4891660E+03  0.7546771E-02  0.9424383E-01
        -11   -1    0    0    0    0  0.00000000000E+00  0.00000000000E+00  0.50000000000E+03  0.50000000000E+03  0.00000000000E+00 0.  1.
         11   -1    0    0    0    0 -0.00000000000E+00 -0.00000000000E+00 -0.50000000000E+03  0.50000000000E+03  0.00000000000E+00 0.  1.
        -11    1    1    2    0    0 -0.84826213742E+01 -0.37455363619E+01  0.48912329896E+03  0.48921118701E+03  0.00000000000E+00 0.  1.
         11    1    1    2    0    0 -0.64424489181E+01 -0.58043011280E+01 -0.48920441022E+03  0.48928125862E+03  0.00000000000E+00 0.  1.
        -15    1    1    2    0    0  0.53990107096E+01 -0.58741800994E+00  0.39659041174E+01  0.69556093212E+01  0.17770000000E+01 0.  1.
         15    1    1    2    0    0  0.95260595827E+01  0.10137255500E+02 -0.38847928635E+01  0.14551945053E+02  0.17770000000E+01 0. -1.
</event>
<event>
 6    1  0.4028964E-003  0.5001337E+03  0.7546771E-02  0.9399511E-01
        -11   -1    0    0    0    0  0.00000000000E+00  0.00000000000E+00  0.50000000000E+03  0.50000000000E+03  0.00000000000E+00 0.  1.
         11   -1    0    0    0    0 -0.00000000000E+00 -0.00000000000E+00 -0.50000000000E+03  0.50000000000E+03  0.00000000000E+00 0.  1.
        -11    1    1    2    0    0 -0.10477143717E+02  0.38572336692E+01  0.49974160470E+03  0.49986630239E+03  0.00000000000E+00 0.  1.
         11    1    1    2    0    0  0.37142614252E+01  0.28300330386E+01 -0.25500794839E+03  0.25505069803E+03  0.00000000000E+00 0.  1.
        -15    1    1    2    0    0  0.21658440425E+01 -0.23281258617E+01 -0.17540422480E+03  0.17544204416E+03  0.17770000000E+01 0.  1.
         15    1    1    2    0    0  0.45970382491E+01 -0.43591408460E+01 -0.69329431509E+02  0.69640955421E+02  0.17770000000E+01 0. -1.
</event>
<event>
 6    1  0.4028964E-003  0.5028721E+03  0.7546771E-02  0.9393406E-01
        -11   -1    0    0    0    0  0.00000000000E+00  0.00000000000E+00  0.50000000000E+03  0.50000000000E+03  0.00000000000E+00 0. -1.
         11   -1    0    0    0    0 -0.00000000000E+00 -0.00000000000E+00 -0.50000000000E+03  0.50000000000E+03  0.00000000000E+00 0. -1.
        -11    1    1    2    0    0  0.56067588184E+01  0.47241943268E+01  0.49707384048E+03  0.49712790773E+03  0.00000000000E+00 0. -1.
         11    1    1    2    0    0 -0.76721122499E+01  0.37712123306E+01 -0.44258319211E+03  0.44266574894E+03  0.00000000000E+00 0. -1.
        -15    1    1    2    0    0 -0.19551493405E+01 -0.16674589748E+01  0.16143898247E+01  0.35166762550E+01  0.17770000000E+01 0. -1.
         15    1    1    2    0    0  0.40205027720E+01 -0.68279476826E+01 -0.56105038197E+02  0.56689667067E+02  0.17770000000E+01 0.  1.
</event>
<event>
 6    1  0.4247181E-003  0.5009764E+03  0.7546771E-02  0.9397628E-01
        -11   -1    0    0    0    0  0.00000000000E+00  0.00000000000E+00  0.50000000000E+03  0.50000000000E+03  0.00000000000E+00 0. -1.
         11   -1    0    0    0    0 -0.00000000000E+00 -0.00000000000E+00 -0.50000000000E+03  0.50000000000E+03  0.00000000000E+00 0.  1.
        -11    1    1    2    0    0  0.70830886221E+01 -0.47398722225E+01  0.49895083945E+03  0.49902362341E+03  0.00000000000E+00 0. -1.
         11    1    1    2    0    0  0.30642500132E+01  0.31522079953E+01 -0.21977553919E+03  0.21981950248E+03  0.00000000000E+00 0.  1.
        -15    1    1    2    0    0 -0.65701631727E+01  0.28183645926E+01 -0.12949271207E+02  0.14898039364E+02  0.17770000000E+01 0.  1.
         15    1    1    2    0    0 -0.35771754626E+01 -0.12307003654E+01 -0.26622602905E+03  0.26625883474E+03  0.17770000000E+01 0.  1.
</event>
<event>
 6    1  0.4028964E-003  0.5019807E+03  0.7546771E-02  0.9395389E-01
        -11   -1    0    0    0    0  0.00000000000E+00  0.00000000000E+00  0.50000000000E+03  0.50000000000E+03  0.00000000000E+00 0.  1.
         11   -1    0    0    0    0 -0.00000000000E+00 -0.00000000000E+00 -0.50000000000E+03  0.50000000000E+03  0.00000000000E+00 0. -1.
        -11    1    1    2    0    0 -0.10077223513E+02  0.50183636283E+00  0.49791707874E+03  0.49801929639E+03  0.00000000000E+00 0.  1.
         11    1    1    2    0    0 -0.17065249963E+01  0.62819100051E+01 -0.45602148576E+03  0.45606794461E+03  0.00000000000E+00 0. -1.
        -15    1    1    2    0    0  0.45826816216E+01 -0.19239465660E+01 -0.31098914771E+01  0.61263117153E+01  0.17770000000E+01 0. -1.
         15    1    1    2    0    0  0.72010668877E+01 -0.48597998020E+01 -0.38785701498E+02  0.39786447292E+02  0.17770000000E+01 0.  1.
</event>
<event>
 6    1  0.4028964E-003  0.4702742E+03  0.7546771E-02  0.9468896E-01
        -11   -1    0    0    0    0  0.00000000000E+00  0.00000000000E+00  0.50000000000E+03  0.50000000000E+03  0.00000000000E+00 0. -1.
         11   -1    0    0    0    0 -0.00000000000E+00 -0.00000000000E+00 -0.50000000000E+03  0.50000000000E+03  0.00000000000E+00 0.  1.
        -11    1    1    2    0    0  0.49529304414E+01 -0.22755224257E+02  0.46907197667E+03  0.46964971100E+03  0.00000000000E+00 0. -1.
         11    1    1    2    0    0 -0.19376047373E+01 -0.10790968844E+02 -0.47137693423E+03  0.47150441508E+03  0.00000000000E+00 0.  1.
        -15    1    1    2    0    0 -0.22140294835E+01  0.34126677655E+02 -0.17830122787E+02  0.38608328919E+02  0.17770000000E+01 0.  1.
         15    1    1    2    0    0 -0.80129622062E+00 -0.58048455413E+00  0.20135080345E+02  0.20237544995E+02  0.17770000000E+01 0. -1.
</event>
<event>
 6    1  0.4028964E-003  0.5042603E+03  0.7546771E-02  0.9390327E-01
        -11   -1    0    0    0    0  0.00000000000E+00  0.00000000000E+00  0.50000000000E+03  0.50000000000E+03  0.00000000000E+00 0.  1.
         11   -1    0    0    0    0 -0.00000000000E+00 -0.00000000000E+00 -0.50000000000E+03  0.50000000000E+03  0.00000000000E+00 0. -1.
        -11    1    1    2    0    0  0.36840343905E+01 -0.17369080225E+02  0.49542159363E+03  0.49573966201E+03  0.00000000000E+00 0.  1.
         11    1    1    2    0    0  0.10621850873E+02  0.34182677017E+01 -0.31537054942E+03  0.31556788764E+03  0.00000000000E+00 0. -1.
        -15    1    1    2    0    0  0.10553777815E+02 -0.42767756419E+01 -0.12534709373E+03  0.12587583037E+03  0.17770000000E+01 0.  1.
         15    1    1    2    0    0 -0.24859663078E+02  0.18227588166E+02 -0.54703950484E+02  0.62816619985E+02  0.17770000000E+01 0. -1.
</event>
<event>
 6    1  0.4028964E-003  0.5062997E+03  0.7546771E-02  0.9385823E-01
        -11   -1    0    0    0    0  0.00000000000E+00  0.00000000000E+00  0.50000000000E+03  0.50000000000E+03  0.00000000000E+00 0.  1.
         11   -1    0    0    0    0 -0.00000000000E+00 -0.00000000000E+00 -0.50000000000E+03  0.50000000000E+03  0.00000000000E+00 0. -1.
        -11    1    1    2    0    0 -0.16774481904E+02 -0.20138671135E+02  0.33093449953E+03  0.33197077025E+03  0.00000000000E+00 0.  1.
         11    1    1    2    0    0  0.10299926151E+02  0.59444364893E+01 -0.49355702289E+03  0.49370027309E+03  0.00000000000E+00 0. -1.
        -15    1    1    2    0    0 -0.98365913301E+01 -0.16798581299E+01  0.24478040844E-01  0.10136014034E+02  0.17770000000E+01 0. -1.
         15    1    1    2    0    0  0.16311147083E+02  0.15874092775E+02  0.16259804532E+03  0.16419294263E+03  0.17770000000E+01 0.  1.
</event>
<event>
 6    1  0.4028964E-003  0.5010309E+03  0.7546771E-02  0.9397506E-01
        -11   -1    0    0    0    0  0.00000000000E+00  0.00000000000E+00  0.50000000000E+03  0.50000000000E+03  0.00000000000E+00 0.  1.
         11   -1    0    0    0    0 -0.00000000000E+00 -0.00000000000E+00 -0.50000000000E+03  0.50000000000E+03  0.00000000000E+00 0. -1.
        -11    1    1    2    0    0 -0.20016388591E+01  0.10366124638E+02  0.49885744396E+03  0.49896914984E+03  0.00000000000E+00 0.  1.
         11    1    1    2    0    0  0.27280682880E+01  0.46133103859E+01 -0.39217725672E+03  0.39221387747E+03  0.00000000000E+00 0. -1.
        -15    1    1    2    0    0 -0.19549556581E+01 -0.14034722768E+02 -0.10488679882E+03  0.10585458701E+03  0.17770000000E+01 0. -1.
         15    1    1    2    0    0  0.12285262292E+01 -0.94471225595E+00 -0.17933884161E+01  0.29623856862E+01  0.17770000000E+01 0. -1.
</event>
<event>
 6    1  0.4028964E-003  0.5012113E+03  0.7546771E-02  0.9397103E-01
        -11   -1    0    0    0    0  0.00000000000E+00  0.00000000000E+00  0.50000000000E+03  0.50000000000E+03  0.00000000000E+00 0. -1.
         11   -1    0    0    0    0 -0.00000000000E+00 -0.00000000000E+00 -0.50000000000E+03  0.50000000000E+03  0.00000000000E+00 0. -1.
        -11    1    1    2    0    0  0.67393723546E+01 -0.19615529430E+02  0.49835726249E+03  0.49878868192E+03  0.00000000000E+00 0. -1.
         11    1    1    2    0    0 -0.60912248470E+01  0.41019058210E+01 -0.39909895266E+03  0.39916650995E+03  0.00000000000E+00 0. -1.
        -15    1    1    2    0    0  0.84175384276E+01  0.80287217326E+01 -0.51794402218E+02  0.53114340399E+02  0.17770000000E+01 0.  1.
         15    1    1    2    0    0 -0.90656859352E+01  0.74849018763E+01 -0.47463907613E+02  0.48930467732E+02  0.17770000000E+01 0. -1.
</event>
<event>
 6    1  0.4028964E-003  0.5007766E+03  0.7546771E-02  0.9398074E-01
        -11   -1    0    0    0    0  0.00000000000E+00  0.00000000000E+00  0.50000000000E+03  0.50000000000E+03  0.00000000000E+00 0.  1.
         11   -1    0    0    0    0 -0.00000000000E+00 -0.00000000000E+00 -0.50000000000E+03  0.50000000000E+03  0.00000000000E+00 0.  1.
        -11    1    1    2    0    0 -0.99423990670E+01  0.78261993955E+01  0.49906305591E+03  0.49922343141E+03  0.00000000000E+00 0.  1.
         11    1    1    2    0    0  0.68528305921E+01  0.42647285405E+00 -0.35924257565E+03  0.35930818433E+03  0.00000000000E+00 0.  1.
        -15    1    1    2    0    0 -0.53664062412E+01 -0.89868453840E+00 -0.97043762785E+02  0.97212425000E+02  0.17770000000E+01 0. -1.
         15    1    1    2    0    0  0.84559747161E+01 -0.73539877112E+01 -0.42776717470E+02  0.44255959261E+02  0.17770000000E+01 0. -1.
</event>
<event>
 6    1  0.4028964E-003  0.5017111E+03  0.7546771E-02  0.9395989E-01
        -11   -1    0    0    0    0  0.00000000000E+00  0.00000000000E+00  0.50000000000E+03  0.50000000000E+03  0.00000000000E+00 0. -1.
         11   -1    0    0    0    0 -0.00000000000E+00 -0.00000000000E+00 -0.50000000000E+03  0.50000000000E+03  0.00000000000E+00 0.  1.
        -11    1    1    2    0    0 -0.30122237029E+01  0.69377265404E+01  0.27722500078E+03  0.27732815688E+03  0.00000000000E+00 0. -1.
         11    1    1    2    0    0 -0.64485645396E+01 -0.26631624257E+01 -0.49824003395E+03  0.49828887992E+03  0.00000000000E+00 0.  1.
        -15    1    1    2    0    0  0.75189243231E+01  0.36640244090E+01  0.98147964166E+01  0.13017190770E+02  0.17770000000E+01 0.  1.
         15    1    1    2    0    0  0.19418639194E+01 -0.79385885237E+01  0.21120023675E+03  0.21136577244E+03  0.17770000000E+01 0.  1.
</event>
<event>
 6    1  0.4028964E-003  0.5007607E+03  0.7546771E-02  0.9398109E-01
        -11   -1    0    0    0    0  0.00000000000E+00  0.00000000000E+00  0.50000000000E+03  0.50000000000E+03  0.00000000000E+00 0.  1.
         11   -1    0    0    0    0 -0.00000000000E+00 -0.00000000000E+00 -0.50000000000E+03  0.50000000000E+03  0.00000000000E+00 0. -1.
        -11    1    1    2    0    0  0.52847546978E+01  0.11130383300E+01  0.22114975137E+03  0.22121568664E+03  0.00000000000E+00 0.  1.
         11    1    1    2    0    0  0.37975984648E+01 -0.11175952810E+02 -0.49909971450E+03  0.49923926998E+03  0.00000000000E+00 0. -1.
        -15    1    1    2    0    0 -0.26359478113E+01 -0.90095262540E+01  0.81429834824E+02  0.81988386450E+02  0.17770000000E+01 0.  1.
         15    1    1    2    0    0 -0.64464053514E+01  0.19072440734E+02  0.19652012831E+03  0.19755665693E+03  0.17770000000E+01 0.  1.
</event>
<event>
 6    1  0.4028964E-003  0.5032531E+03  0.7546771E-02  0.9392560E-01
        -11   -1    0    0    0    0  0.00000000000E+00  0.00000000000E+00  0.50000000000E+03  0.50000000000E+03  0.00000000000E+00 0. -1.
         11   -1    0    0    0    0 -0.00000000000E+00 -0.00000000000E+00 -0.50000000000E+03  0.50000000000E+03  0.00000000000E+00 0.  1.
        -11    1    1    2    0    0  0.45105011096E+01  0.97815380896E+01  0.49663011321E+03  0.49674690986E+03  0.00000000000E+00 0. -1.
         11    1    1    2    0    0  0.60706679395E+01 -0.98394326259E+00 -0.26614076914E+03  0.26621181445E+03  0.00000000000E+00 0.  1.
        -15    1    1    2    0    0 -0.29825166921E+01 -0.37644106266E+01  0.11231942162E+01  0.52426603391E+01  0.17770000000E+01 0.  1.
         15    1    1    2    0    0 -0.75986523570E+01 -0.50331842004E+01 -0.23161253829E+03  0.23179861536E+03  0.17770000000E+01 0. -1.
</event>
<event>
 6    1  0.4028964E-003  0.5004846E+03  0.7546771E-02  0.9398726E-01
        -11   -1    0    0    0    0  0.00000000000E+00  0.00000000000E+00  0.50000000000E+03  0.50000000000E+03  0.00000000000E+00 0. -1.
         11   -1    0    0    0    0 -0.00000000000E+00 -0.00000000000E+00 -0.50000000000E+03  0.50000000000E+03  0.00000000000E+00 0.  1.
        -11    1    1    2    0    0 -0.59191019314E+01 -0.57998883163E+01  0.49944667647E+03  0.49951542229E+03  0.00000000000E+00 0. -1.
         11    1    1    2    0    0 -0.39850175670E+01 -0.12538982175E+01 -0.26709769883E+03  0.26713036770E+03  0.00000000000E+00 0.  1.
        -15    1    1    2    0    0  0.65185637317E+01 -0.41884925234E+01 -0.14283427405E+03  0.14305531348E+03  0.17770000000E+01 0. -1.
         15    1    1    2    0    0  0.33855557667E+01  0.11242279057E+02 -0.89514703589E+02  0.90298896526E+02  0.17770000000E+01 0.  1.
</event>
<event>
 6    1  0.4028964E-003  0.5068169E+03  0.7546771E-02  0.9384684E-01
        -11   -1    0    0    0    0  0.00000000000E+00  0.00000000000E+00  0.50000000000E+03  0.50000000000E+03  0.00000000000E+00 0. -1.
         11   -1    0    0    0    0 -0.00000000000E+00 -0.00000000000E+00 -0.50000000000E+03  0.50000000000E+03  0.00000000000E+00 0.  1.
        -11    1    1    2    0    0 -0.16259738165E+02  0.17475096485E+01  0.47576299907E+03  0.47604397292E+03  0.00000000000E+00 0. -1.
         11    1    1    2    0    0  0.10239385830E+02  0.15619645190E+01 -0.49307428516E+03  0.49318306484E+03  0.00000000000E+00 0.  1.
        -15    1    1    2    0    0  0.11594408763E+02 -0.90414358600E+01  0.17042163218E+02  0.22578107386E+02  0.17770000000E+01 0. -1.
         15    1    1    2    0    0 -0.55740564284E+01  0.57319616924E+01  0.26912287559E+00  0.81948548512E+01  0.17770000000E+01 0.  1.
</event>
<event>
 6    1  0.4028964E-003  0.5031590E+03  0.7546771E-02  0.9392769E-01
        -11   -1    0    0    0    0  0.00000000000E+00  0.00000000000E+00  0.50000000000E+03  0.50000000000E+03  0.00000000000E+00 0. -1.
         11   -1    0    0    0    0 -0.00000000000E+00 -0.00000000000E+00 -0.50000000000E+03  0.50000000000E+03  0.00000000000E+00 0. -1.
        -11    1    1    2    0    0 -0.18363307791E+01  0.65855242842E+01  0.39488860247E+03  0.39494778086E+03  0.00000000000E+00 0. -1.
         11    1    1    2    0    0  0.10120827698E+02 -0.13416570753E+02 -0.49655665958E+03  0.49684097224E+03  0.00000000000E+00 0. -1.
        -15    1    1    2    0    0 -0.42067447128E+01 -0.14226540709E+02  0.51446950282E+02  0.53572731720E+02  0.17770000000E+01 0. -1.
         15    1    1    2    0    0 -0.40777522061E+01  0.21057587178E+02  0.50221106830E+02  0.54638515179E+02  0.17770000000E+01 0.  1.
</event>
<event>
 6    1  0.4028964E-003  0.5026061E+03  0.7546771E-02  0.9393997E-01
        -11   -1    0    0    0    0  0.00000000000E+00  0.00000000000E+00  0.50000000000E+03  0.50000000000E+03  0.00000000000E+00 0. -1.
         11   -1    0    0    0    0 -0.00000000000E+00 -0.00000000000E+00 -0.50000000000E+03  0.50000000000E+03  0.00000000000E+00 0.  1.
        -11    1    1    2    0    0  0.63999459597E+01  0.49892563708E+01  0.49732765085E+03  0.49739385228E+03  0.00000000000E+00 0. -1.
         11    1    1    2    0    0 -0.18767179736E+01 -0.32987838968E+01 -0.16893505892E+03  0.16897768544E+03  0.00000000000E+00 0.  1.
        -15    1    1    2    0    0  0.16049506699E+01 -0.38258841868E+01  0.61230821791E+00  0.45547674822E+01  0.17770000000E+01 0. -1.
         15    1    1    2    0    0 -0.61281786561E+01  0.21354117128E+01 -0.32900490015E+03  0.32907369480E+03  0.17770000000E+01 0.  1.
</event>
<event>
 6    1  0.4028964E-003  0.4860710E+03  0.7546771E-02  0.9431528E-01
        -11   -1    0    0    0    0  0.00000000000E+00  0.00000000000E+00  0.50000000000E+03  0.50000000000E+03  0.00000000000E+00 0. -1.
         11   -1    0    0    0    0 -0.00000000000E+00 -0.00000000000E+00 -0.50000000000E+03  0.50000000000E+03  0.00000000000E+00 0.  1.
        -11    1    1    2    0    0  0.31455560019E+01  0.75856710144E+01  0.48386893470E+03  0.48393861480E+03  0.00000000000E+00 0. -1.
         11    1    1    2    0    0  0.76352859389E+01 -0.32550771130E+01 -0.48821186041E+03  0.48828241189E+03  0.00000000000E+00 0.  1.
        -15    1    1    2    0    0 -0.13384478220E+01  0.99638478536E+01  0.13667106475E+01  0.10300258910E+02  0.17770000000E+01 0. -1.
         15    1    1    2    0    0 -0.94423941188E+01 -0.14294441755E+02  0.29762150588E+01  0.17478714394E+02  0.17770000000E+01 0.  1.
</event>
<event>
 6    1  0.4028964E-003  0.5042835E+03  0.7546771E-02  0.9390276E-01
        -11   -1    0    0    0    0  0.00000000000E+00  0.00000000000E+00  0.50000000000E+03  0.50000000000E+03  0.00000000000E+00 0. -1.
         11   -1    0    0    0    0 -0.00000000000E+00 -0.00000000000E+00 -0.50000000000E+03  0.50000000000E+03  0.00000000000E+00 0. -1.
        -11    1    1    2    0    0 -0.55779577383E+01  0.13763874874E+02  0.49549396803E+03  0.49571648169E+03  0.00000000000E+00 0. -1.
         11    1    1    2    0    0  0.46037045919E+01 -0.33464399420E+01 -0.77528797882E+02  0.77737425075E+02  0.00000000000E+00 0. -1.
        -15    1    1    2    0    0 -0.19765698780E+02 -0.34248586972E+02 -0.34158923284E+03  0.34387499223E+03  0.17770000000E+01 0. -1.
         15    1    1    2    0    0  0.20739951926E+02  0.23831152040E+02 -0.76375937308E+02  0.82671101010E+02  0.17770000000E+01 0.  1.
</event>
<event>
 6    1  0.4028964E-003  0.5007948E+03  0.7546771E-02  0.9398033E-01
        -11   -1    0    0    0    0  0.00000000000E+00  0.00000000000E+00  0.50000000000E+03  0.50000000000E+03  0.00000000000E+00 0. -1.
         11   -1    0    0    0    0 -0.00000000000E+00 -0.00000000000E+00 -0.50000000000E+03  0.50000000000E+03  0.00000000000E+00 0.  1.
        -11    1    1    2    0    0  0.29721837636E+01 -0.78068644173E+01  0.49913527181E+03  0.49920516881E+03  0.00000000000E+00 0. -1.
         11    1    1    2    0    0 -0.23352766716E+01 -0.40859682833E+01 -0.19939459666E+03  0.19945012868E+03  0.00000000000E+00 0.  1.
        -15    1    1    2    0    0  0.69368008988E+01  0.13548956620E+02 -0.79679700723E+02  0.81140038628E+02  0.17770000000E+01 0. -1.
         15    1    1    2    0    0 -0.75737079907E+01 -0.16561239193E+01 -0.22006097442E+03  0.22020466388E+03  0.17770000000E+01 0.  1.
</event>
<event>
 6    1  0.4028964E-003  0.4873757E+03  0.7546771E-02  0.9428509E-01
        -11   -1    0    0    0    0  0.00000000000E+00  0.00000000000E+00  0.50000000000E+03  0.50000000000E+03  0.00000000000E+00 0. -1.
         11   -1    0    0    0    0 -0.00000000000E+00 -0.00000000000E+00 -0.50000000000E+03  0.50000000000E+03  0.00000000000E+00 0.  1.
        -11    1    1    2    0    0  0.49423445473E+01  0.94859148962E+01  0.48325858510E+03  0.48337694341E+03  0.00000000000E+00 0. -1.
         11    1    1    2    0    0  0.63423572912E+01  0.39080431939E+01 -0.49151025456E+03  0.49156670822E+03  0.00000000000E+00 0.  1.
        -15    1    1    2    0    0 -0.13908094279E+02 -0.89328373036E+01  0.19945928844E+01  0.16744157147E+02  0.17770000000E+01 0. -1.
         15    1    1    2    0    0  0.26233924409E+01 -0.44611207865E+01  0.62570765764E+01  0.83121912185E+01  0.17770000000E+01 0.  1.
</event>
<event>
 6    1  0.4028964E-003  0.5073267E+03  0.7546771E-02  0.9383563E-01
        -11   -1    0    0    0    0  0.00000000000E+00  0.00000000000E+00  0.50000000000E+03  0.50000000000E+03  0.00000000000E+00 0. -1.
         11   -1    0    0    0    0 -0.00000000000E+00 -0.00000000000E+00 -0.50000000000E+03  0.50000000000E+03  0.00000000000E+00 0.  1.
        -11    1    1    2    0    0  0.10808802586E+01  0.14516398276E+02  0.49245822920E+03  0.49267332141E+03  0.00000000000E+00 0. -1.
         11    1    1    2    0    0 -0.68768851814E+01  0.11083361209E+02 -0.42716337548E+03  0.42736247121E+03  0.00000000000E+00 0.  1.
        -15    1    1    2    0    0 -0.20854969125E+01 -0.34007336686E+02 -0.43905848902E+02  0.55603323126E+02  0.17770000000E+01 0. -1.
         15    1    1    2    0    0  0.78815018353E+01  0.84075772014E+01 -0.21389004820E+02  0.24360884256E+02  0.17770000000E+01 0.  1.
</event>
<event>
 6    1  0.4028964E-003  0.5227384E+03  0.7546771E-02  0.9350320E-01
        -11   -1    0    0    0    0  0.00000000000E+00  0.00000000000E+00  0.50000000000E+03  0.50000000000E+03  0.00000000000E+00 0. -1.
         11   -1    0    0    0    0 -0.00000000000E+00 -0.00000000000E+00 -0.50000000000E+03  0.50000000000E+03  0.00000000000E+00 0.  1.
        -11    1    1    2    0    0  0.53572983539E+01  0.39166899881E+01  0.47721543689E+03  0.47726157850E+03  0.00000000000E+00 0. -1.
         11    1    1    2    0    0  0.44592915611E+01 -0.38859274830E+01 -0.36861273318E+03  0.36866018604E+03  0.00000000000E+00 0.  1.
        -15    1    1    2    0    0 -0.99344060099E+01  0.99622508506E+01 -0.12980190415E+03  0.13057423527E+03  0.17770000000E+01 0.  1.
         15    1    1    2    0    0  0.11781609494E+00 -0.99930133557E+01  0.21199200440E+02  0.23504000188E+02  0.17770000000E+01 0. -1.
</event>
<event>
 6    1  0.4028964E-003  0.5557382E+03  0.7546771E-02  0.9283061E-01
        -11   -1    0    0    0    0  0.00000000000E+00  0.00000000000E+00  0.50000000000E+03  0.50000000000E+03  0.00000000000E+00 0.  1.
         11   -1    0    0    0    0 -0.00000000000E+00 -0.00000000000E+00 -0.50000000000E+03  0.50000000000E+03  0.00000000000E+00 0.  1.
        -11    1    1    2    0    0  0.10309640999E+02  0.59640300510E+01  0.44410210800E+03  0.44426179296E+03  0.00000000000E+00 0.  1.
         11    1    1    2    0    0 -0.14397858752E+02 -0.89618860193E+01 -0.44039050600E+03  0.44071692900E+03  0.00000000000E+00 0.  1.
        -15    1    1    2    0    0  0.34184038249E+02  0.14141424199E+02  0.43987835341E+02  0.57503180228E+02  0.17770000000E+01 0.  1.
         15    1    1    2    0    0 -0.30095820496E+02 -0.11143568231E+02 -0.47699437340E+02  0.57518097811E+02  0.17770000000E+01 0. -1.
</event>
<event>
 6    1  0.4028964E-003  0.5011078E+03  0.7546771E-02  0.9397334E-01
        -11   -1    0    0    0    0  0.00000000000E+00  0.00000000000E+00  0.50000000000E+03  0.50000000000E+03  0.00000000000E+00 0. -1.
         11   -1    0    0    0    0 -0.00000000000E+00 -0.00000000000E+00 -0.50000000000E+03  0.50000000000E+03  0.00000000000E+00 0. -1.
        -11    1    1    2    0    0  0.13716744893E+02 -0.96847944632E+01  0.49860951204E+03  0.49889216252E+03  0.00000000000E+00 0. -1.
         11    1    1    2    0    0 -0.46465057670E+01 -0.34324858685E+01 -0.38617137859E+03  0.38621458494E+03  0.00000000000E+00 0. -1.
        -15    1    1    2    0    0 -0.97076395520E+01  0.10985356413E+02 -0.44317249708E+02  0.46712874798E+02  0.17770000000E+01 0. -1.
         15    1    1    2    0    0  0.63740042575E+00  0.21319239191E+01 -0.68120883735E+02  0.68180377739E+02  0.17770000000E+01 0.  1.
</event>
<event>
 6    1  0.4028964E-003  0.5024309E+03  0.7546771E-02  0.9394387E-01
        -11   -1    0    0    0    0  0.00000000000E+00  0.00000000000E+00  0.50000000000E+03  0.50000000000E+03  0.00000000000E+00 0. -1.
         11   -1    0    0    0    0 -0.00000000000E+00 -0.00000000000E+00 -0.50000000000E+03  0.50000000000E+03  0.00000000000E+00 0.  1.
        -11    1    1    2    0    0 -0.27854129566E+01 -0.51806931522E+01  0.14120265770E+03  0.14132511683E+03  0.00000000000E+00 0. -1.
         11    1    1    2    0    0 -0.86389750598E+01 -0.77471761356E+01 -0.49743377199E+03  0.49756909887E+03  0.00000000000E+00 0.  1.
        -15    1    1    2    0    0 -0.16711863179E+02  0.18108197626E+01  0.39986819964E+02  0.43412773914E+02  0.17770000000E+01 0.  1.
         15    1    1    2    0    0  0.28136251195E+02  0.11117049525E+02  0.31624429433E+03  0.31769301038E+03  0.17770000000E+01 0. -1.
</event>
<event>
 6    1  0.4028964E-003  0.5026165E+03  0.7546771E-02  0.9393974E-01
        -11   -1    0    0    0    0  0.00000000000E+00  0.00000000000E+00  0.50000000000E+03  0.50000000000E+03  0.00000000000E+00 0.  1.
         11   -1    0    0    0    0 -0.00000000000E+00 -0.00000000000E+00 -0.50000000000E+03  0.50000000000E+03  0.00000000000E+00 0. -1.
        -11    1    1    2    0    0  0.83473394912E+00  0.74037162778E+01  0.50346580573E+02  0.50894891403E+02  0.00000000000E+00 0.  1.
         11    1    1    2    0    0  0.44658775847E+02 -0.16178405110E+02 -0.49511033869E+03  0.49738354871E+03  0.00000000000E+00 0. -1.
        -15    1    1    2    0    0 -0.17228762703E+02 -0.26373435814E+02  0.13207020734E+03  0.13578691313E+03  0.17770000000E+01 0. -1.
         15    1    1    2    0    0 -0.28264747094E+02  0.35148124645E+02  0.31269355077E+03  0.31593464675E+03  0.17770000000E+01 0.  1.
</event>
<event>
 6    1  0.4028964E-003  0.5387392E+03  0.7546771E-02  0.9317070E-01
        -11   -1    0    0    0    0  0.00000000000E+00  0.00000000000E+00  0.50000000000E+03  0.50000000000E+03  0.00000000000E+00 0.  1.
         11   -1    0    0    0    0 -0.00000000000E+00 -0.00000000000E+00 -0.50000000000E+03  0.50000000000E+03  0.00000000000E+00 0. -1.
        -11    1    1    2    0    0  0.21758043438E+02 -0.98695127272E+00  0.38961886875E+03  0.39022717667E+03  0.00000000000E+00 0.  1.
         11    1    1    2    0    0 -0.47834972394E+01  0.19498809721E+02 -0.46082367490E+03  0.46126082077E+03  0.00000000000E+00 0. -1.
        -15    1    1    2    0    0  0.26857241548E+02 -0.61845299862E+02  0.27046721779E+02  0.72669356861E+02  0.17770000000E+01 0. -1.
         15    1    1    2    0    0 -0.43831787747E+02  0.43333441414E+02  0.44158084378E+02  0.75842645700E+02  0.17770000000E+01 0.  1.
</event>
<event>
 6    1  0.4028964E-003  0.5153655E+03  0.7546771E-02  0.9366070E-01
        -11   -1    0    0    0    0  0.00000000000E+00  0.00000000000E+00  0.50000000000E+03  0.50000000000E+03  0.00000000000E+00 0.  1.
         11   -1    0    0    0    0 -0.00000000000E+00 -0.00000000000E+00 -0.50000000000E+03  0.50000000000E+03  0.00000000000E+00 0. -1.
        -11    1    1    2    0    0  0.14250950276E+02 -0.66219913359E+01  0.44643386782E+03  0.44671035212E+03  0.00000000000E+00 0.  1.
         11    1    1    2    0    0 -0.17126541584E+01  0.18437601001E+02 -0.48428063971E+03  0.48463451828E+03  0.00000000000E+00 0. -1.
        -15    1    1    2    0    0 -0.86177152518E+01 -0.35445439954E+01  0.51364741851E+02  0.52233353738E+02  0.17770000000E+01 0. -1.
         15    1    1    2    0    0 -0.39205808659E+01 -0.82710656698E+01 -0.13517969961E+02  0.16421775863E+02  0.17770000000E+01 0.  1.
</event>
<event>
 6    1  0.4028964E-003  0.5619540E+03  0.7546771E-02  0.9270946E-01
        -11   -1    0    0    0    0  0.00000000000E+00  0.00000000000E+00  0.50000000000E+03  0.50000000000E+03  0.00000000000E+00 0. -1.
         11   -1    0    0    0    0 -0.00000000000E+00 -0.00000000000E+00 -0.50000000000E+03  0.50000000000E+03  0.00000000000E+00 0. -1.
        -11    1    1    2    0    0 -0.50261195279E+01 -0.67388503163E+01  0.43796531283E+03  0.43804598985E+03  0.00000000000E+00 0. -1.
         11    1    1    2    0    0  0.13665861418E+02  0.58433892113E+01 -0.26099916971E+03  0.26142201047E+03  0.00000000000E+00 0. -1.
        -15    1    1    2    0    0 -0.22441494471E+02 -0.12445047971E+02 -0.23653091365E+03  0.23792547307E+03  0.17770000000E+01 0. -1.
         15    1    1    2    0    0  0.13801752581E+02  0.13340509076E+02  0.59564770533E+02  0.62606526612E+02  0.17770000000E+01 0.  1.
</event>
<event>
 6    1  0.4028964E-003  0.5000339E+03  0.7546771E-02  0.9399734E-01
        -11   -1    0    0    0    0  0.00000000000E+00  0.00000000000E+00  0.50000000000E+03  0.50000000000E+03  0.00000000000E+00 0. -1.
         11   -1    0    0    0    0 -0.00000000000E+00 -0.00000000000E+00 -0.50000000000E+03  0.50000000000E+03  0.00000000000E+00 0.  1.
        -11    1    1    2    0    0 -0.28094861875E+01  0.46976893381E+00  0.15886704708E+03  0.15889258178E+03  0.00000000000E+00 0. -1.
         11    1    1    2    0    0  0.44213162509E+01 -0.83511092743E+01 -0.49987682362E+03  0.49996612670E+03  0.00000000000E+00 0.  1.
        -15    1    1    2    0    0 -0.17081893014E+01  0.59631675697E+01  0.19163585489E+03  0.19174445464E+03  0.17770000000E+01 0. -1.
         15    1    1    2    0    0  0.96359238000E-01  0.19181727709E+01  0.14937392165E+03  0.14939683688E+03  0.17770000000E+01 0. -1.
</event>
<event>
 6    1  0.4028964E-003  0.5012122E+03  0.7546771E-02  0.9397101E-01
        -11   -1    0    0    0    0  0.00000000000E+00  0.00000000000E+00  0.50000000000E+03  0.50000000000E+03  0.00000000000E+00 0. -1.
         11   -1    0    0    0    0 -0.00000000000E+00 -0.00000000000E+00 -0.50000000000E+03  0.50000000000E+03  0.00000000000E+00 0.  1.
        -11    1    1    2    0    0  0.29113907173E+01  0.20370126444E+01  0.11378536240E+03  0.11384082885E+03  0.00000000000E+00 0. -1.
         11    1    1    2    0    0 -0.11725644896E+02 -0.51332446843E+01 -0.49862350264E+03  0.49878776883E+03  0.00000000000E+00 0.  1.
        -15    1    1    2    0    0  0.12704467853E+02  0.70260163684E+01  0.41817164222E+02  0.44301256890E+02  0.17770000000E+01 0. -1.
         15    1    1    2    0    0 -0.38902136747E+01 -0.39297843285E+01  0.34302097602E+03  0.34307014543E+03  0.17770000000E+01 0. -1.
</event>
<event>
 6    1  0.4028964E-003  0.5062756E+03  0.7546771E-02  0.9385876E-01
        -11   -1    0    0    0    0  0.00000000000E+00  0.00000000000E+00  0.50000000000E+03  0.50000000000E+03  0.00000000000E+00 0.  1.
         11   -1    0    0    0    0 -0.00000000000E+00 -0.00000000000E+00 -0.50000000000E+03  0.50000000000E+03  0.00000000000E+00 0.  1.
        -11    1    1    2    0    0 -0.38982912929E+01 -0.58525380523E+01  0.49367436773E+03  0.49372444768E+03  0.00000000000E+00 0.  1.
         11    1    1    2    0    0 -0.11569416583E+02  0.82016390561E+01 -0.43769266850E+03  0.43792235652E+03  0.00000000000E+00 0.  1.
        -15    1    1    2    0    0 -0.23259513138E+01 -0.74999788704E+01  0.12722963766E+01  0.81508404254E+01  0.17770000000E+01 0.  1.
         15    1    1    2    0    0  0.17793659190E+02  0.51508778666E+01 -0.57253995612E+02  0.60202355375E+02  0.17770000000E+01 0. -1.
</event>
<event>
 6    1  0.4028964E-003  0.5186941E+03  0.7546771E-02  0.9358925E-01
        -11   -1    0    0    0    0  0.00000000000E+00  0.00000000000E+00  0.50000000000E+03  0.50000000000E+03  0.00000000000E+00 0.  1.
         11   -1    0    0    0    0 -0.00000000000E+00 -0.00000000000E+00 -0.50000000000E+03  0.50000000000E+03  0.00000000000E+00 0. -1.
        -11    1    1    2    0    0 -0.13004278568E+01 -0.10679324129E+02  0.46151994972E+03  0.46164532172E+03  0.00000000000E+00 0.  1.
         11    1    1    2    0    0  0.11305795871E+02 -0.46005089743E+01 -0.48115114285E+03  0.48130594009E+03  0.00000000000E+00 0. -1.
        -15    1    1    2    0    0  0.85985518870E+01  0.21650034966E+02  0.27242263057E+02  0.35888128038E+02  0.17770000000E+01 0. -1.
         15    1    1    2    0    0 -0.18603919901E+02 -0.63702018635E+01 -0.76110699293E+01  0.21160610150E+02  0.17770000000E+01 0.  1.
</event>
<event>
 6    1  0.4028964E-003  0.5045179E+03  0.7546771E-02  0.9389757E-01
        -11   -1    0    0    0    0  0.00000000000E+00  0.00000000000E+00  0.50000000000E+03  0.50000000000E+03  0.00000000000E+00 0.  1.
         11   -1    0    0    0    0 -0.00000000000E+00 -0.00000000000E+00 -0.50000000000E+03  0.50000000000E+03  0.00000000000E+00 0.  1.
        -11    1    1    2    0    0  0.25086794953E+00  0.77044132509E+01  0.36939420103E+03  0.36947462250E+03  0.00000000000E+00 0.  1.
         11    1    1    2    0    0  0.17437929010E+02 -0.31937045106E+02 -0.49414414696E+03  0.49548208262E+03  0.00000000000E+00 0.  1.
        -15    1    1    2    0    0 -0.53946540131E+01  0.14573571111E+02  0.11597820945E+03  0.11702817636E+03  0.17770000000E+01 0.  1.
         15    1    1    2    0    0 -0.12294142947E+02  0.96590607441E+01  0.87717364815E+01  0.18015118516E+02  0.17770000000E+01 0. -1.
</event>
<event>
 6    1  0.4028964E-003  0.5068818E+03  0.7546771E-02  0.9384541E-01
        -11   -1    0    0    0    0  0.00000000000E+00  0.00000000000E+00  0.50000000000E+03  0.50000000000E+03  0.00000000000E+00 0. -1.
         11   -1    0    0    0    0 -0.00000000000E+00 -0.00000000000E+00 -0.50000000000E+03  0.50000000000E+03  0.00000000000E+00 0. -1.
        -11    1    1    2    0    0 -0.21181111130E+01 -0.10351312212E+02  0.49300497034E+03  0.49311817735E+03  0.00000000000E+00 0. -1.
         11    1    1    2    0    0  0.31739450057E+02  0.30036668697E+02 -0.26671038600E+03  0.27026657980E+03  0.00000000000E+00 0. -1.
        -15    1    1    2    0    0 -0.14211886420E+02  0.27808700423E+00 -0.71377083866E+01  0.16004988535E+02  0.17770000000E+01 0.  1.
         15    1    1    2    0    0 -0.15409452523E+02 -0.19963443489E+02 -0.21915687595E+03  0.22061025431E+03  0.17770000000E+01 0. -1.
</event>
<event>
 6    1  0.4028964E-003  0.5004043E+03  0.7546771E-02  0.9398905E-01
        -11   -1    0    0    0    0  0.00000000000E+00  0.00000000000E+00  0.50000000000E+03  0.50000000000E+03  0.00000000000E+00 0. -1.
         11   -1    0    0    0    0 -0.00000000000E+00 -0.00000000000E+00 -0.50000000000E+03  0.50000000000E+03  0.00000000000E+00 0. -1.
        -11    1    1    2    0    0  0.31858674055E+01  0.64249899048E+01  0.49954420902E+03  0.49959568354E+03  0.00000000000E+00 0. -1.
         11    1    1    2    0    0  0.39908497222E+01  0.36330789794E+01 -0.38350987761E+03  0.38354784886E+03  0.00000000000E+00 0. -1.
        -15    1    1    2    0    0 -0.47705351490E+01 -0.93534007214E+01 -0.83225713285E+02  0.83904238221E+02  0.17770000000E+01 0.  1.
         15    1    1    2    0    0 -0.24061819788E+01 -0.70466816280E+00 -0.32808618121E+02  0.32952229378E+02  0.17770000000E+01 0. -1.
</event>
<event>
 6    1  0.4028964E-003  0.5002689E+03  0.7546771E-02  0.9399208E-01
        -11   -1    0    0    0    0  0.00000000000E+00  0.00000000000E+00  0.50000000000E+03  0.50000000000E+03  0.00000000000E+00 0. -1.
         11   -1    0    0    0    0 -0.00000000000E+00 -0.00000000000E+00 -0.50000000000E+03  0.50000000000E+03  0.00000000000E+00 0.  1.
        -11    1    1    2    0    0 -0.54392397534E+01 -0.19247675314E+01  0.28757377814E+03  0.28763165321E+03  0.00000000000E+00 0. -1.
         11    1    1    2    0    0  0.62156565451E+00  0.81345245283E+01 -0.49966447297E+03  0.49973107006E+03  0.00000000000E+00 0.  1.
        -15    1    1    2    0    0  0.81663795906E+01 -0.25670599799E+01  0.16917236020E+03  0.16939812495E+03  0.17770000000E+01 0. -1.
         15    1    1    2    0    0 -0.33487054917E+01 -0.36426970170E+01  0.42918334635E+02  0.43239151783E+02  0.17770000000E+01 0.  1.
</event>
<event>
 6    1  0.4028964E-003  0.4554771E+03  0.7546771E-02  0.9505344E-01
        -11   -1    0    0    0    0  0.00000000000E+00  0.00000000000E+00  0.50000000000E+03  0.50000000000E+03  0.00000000000E+00 0.  1.
         11   -1    0    0    0    0 -0.00000000000E+00 -0.00000000000E+00 -0.50000000000E+03  0.50000000000E+03  0.00000000000E+00 0. -1.
        -11    1    1    2    0    0 -0.77517162846E+01 -0.43246886102E+02  0.45417575916E+03  0.45629595930E+03  0.00000000000E+00 0.  1.
         11    1    1    2    0    0 -0.21767624387E+02 -0.78193976014E+01 -0.45598135823E+03  0.45656759796E+03  0.00000000000E+00 0. -1.
        -15    1    1    2    0    0 -0.12350899147E+02  0.41544303176E+02  0.66637947820E+01  0.43886646329E+02  0.17770000000E+01 0.  1.
         15    1    1    2    0    0  0.41870239819E+02  0.95219805276E+01 -0.48581957098E+01  0.43249796418E+02  0.17770000000E+01 0. -1.
</event>
<event>
 6    1  0.4028964E-003  0.5084370E+03  0.7546771E-02  0.9381127E-01
        -11   -1    0    0    0    0  0.00000000000E+00  0.00000000000E+00  0.50000000000E+03  0.50000000000E+03  0.00000000000E+00 0. -1.
         11   -1    0    0    0    0 -0.00000000000E+00 -0.00000000000E+00 -0.50000000000E+03  0.50000000000E+03  0.00000000000E+00 0.  1.
        -11    1    1    2    0    0  0.68149628378E+01 -0.10170410049E+02  0.49141047631E+03  0.49156295343E+03  0.00000000000E+00 0. -1.
         11    1    1    2    0    0  0.22604737828E+01  0.59681001978E+01 -0.46803210061E+03  0.46807560839E+03  0.00000000000E+00 0.  1.
        -15    1    1    2    0    0 -0.77744654486E+01  0.11666638273E+02  0.15780365164E+01  0.14219728895E+02  0.17770000000E+01 0. -1.
         15    1    1    2    0    0 -0.13009711720E+01 -0.74643284212E+01 -0.24956412214E+02  0.26141709286E+02  0.17770000000E+01 0. -1.
</event>
<event>
 6    1  0.4028964E-003  0.5149089E+03  0.7546771E-02  0.9367054E-01
        -11   -1    0    0    0    0  0.00000000000E+00  0.00000000000E+00  0.50000000000E+03  0.50000000000E+03  0.00000000000E+00 0. -1.
         11   -1    0    0    0    0 -0.00000000000E+00 -0.00000000000E+00 -0.50000000000E+03  0.50000000000E+03  0.00000000000E+00 0. -1.
        -11    1    1    2    0    0 -0.14696332437E+01 -0.68315022368E+01  0.48504073526E+03  0.48509106784E+03  0.00000000000E+00 0. -1.
         11    1    1    2    0    0  0.65223618775E+02  0.35739813526E+01 -0.28388270206E+03  0.29130101668E+03  0.00000000000E+00 0. -1.
        -15    1    1    2    0    0  0.73548647463E+01 -0.96542783797E+00  0.23532178521E+01  0.79825716161E+01  0.17770000000E+01 0.  1.
         15    1    1    2    0    0 -0.71108850277E+02  0.42229487222E+01 -0.20351125105E+03  0.21562534386E+03  0.17770000000E+01 0. -1.
</event>
<event>
 6    1  0.4028964E-003  0.5406091E+03  0.7546771E-02  0.9313264E-01
        -11   -1    0    0    0    0  0.00000000000E+00  0.00000000000E+00  0.50000000000E+03  0.50000000000E+03  0.00000000000E+00 0.  1.
         11   -1    0    0    0    0 -0.00000000000E+00 -0.00000000000E+00 -0.50000000000E+03  0.50000000000E+03  0.00000000000E+00 0.  1.
        -11    1    1    2    0    0  0.93408990868E+01  0.15095991167E+01  0.45929347963E+03  0.45939093561E+03  0.00000000000E+00 0.  1.
         11    1    1    2    0    0  0.32570341279E+01 -0.22837292715E+02 -0.39189001094E+03  0.39256837734E+03  0.00000000000E+00 0.  1.
        -15    1    1    2    0    0  0.28598316032E+01  0.25563231659E+02 -0.10447715398E+03  0.10761175996E+03  0.17770000000E+01 0.  1.
         15    1    1    2    0    0 -0.15457764818E+02 -0.42355380606E+01  0.37073685291E+02  0.40428927093E+02  0.17770000000E+01 0. -1.
</event>
<event>
 6    1  0.4028964E-003  0.5095667E+03  0.7546771E-02  0.9378654E-01
        -11   -1    0    0    0    0  0.00000000000E+00  0.00000000000E+00  0.50000000000E+03  0.50000000000E+03  0.00000000000E+00 0. -1.
         11   -1    0    0    0    0 -0.00000000000E+00 -0.00000000000E+00 -0.50000000000E+03  0.50000000000E+03  0.00000000000E+00 0.  1.
        -11    1    1    2    0    0 -0.16146031182E+02 -0.65945728557E+01  0.42560845346E+03  0.42596565398E+03  0.00000000000E+00 0. -1.
         11    1    1    2    0    0 -0.76371550742E+01  0.29494156899E+01 -0.49036498401E+03  0.49043332139E+03  0.00000000000E+00 0.  1.
        -15    1    1    2    0    0  0.15025438838E+02  0.83454892956E+01 -0.77469191583E+00  0.17296499079E+02  0.17770000000E+01 0.  1.
         15    1    1    2    0    0  0.87577474189E+01 -0.47003321298E+01  0.65531222463E+02  0.66304525550E+02  0.17770000000E+01 0. -1.
</event>
<event>
 6    1  0.4028964E-003  0.3035022E+03  0.7546771E-02  0.9994323E-01
        -11   -1    0    0    0    0  0.00000000000E+00  0.00000000000E+00  0.50000000000E+03  0.50000000000E+03  0.00000000000E+00 0. -1.
         11   -1    0    0    0    0 -0.00000000000E+00 -0.00000000000E+00 -0.50000000000E+03  0.50000000000E+03  0.00000000000E+00 0.  1.
        -11    1    1    2    0    0  0.31338795682E+01  0.47208200385E+01  0.36154189950E+03  0.36158630012E+03  0.00000000000E+00 0. -1.
         11    1    1    2    0    0 -0.44378850247E+02 -0.17953423630E+00 -0.24297591996E+03  0.24699557134E+03  0.00000000000E+00 0.  1.
        -15    1    1    2    0    0 -0.56910769697E+01  0.13189685445E+01  0.13415940162E+03  0.13429829041E+03  0.17770000000E+01 0. -1.
         15    1    1    2    0    0  0.46936047649E+02 -0.58602543466E+01 -0.25272538116E+03  0.25711983813E+03  0.17770000000E+01 0.  1.
</event>
<event>
 6    1  0.4028964E-003  0.5166864E+03  0.7546771E-02  0.9363228E-01
        -11   -1    0    0    0    0  0.00000000000E+00  0.00000000000E+00  0.50000000000E+03  0.50000000000E+03  0.00000000000E+00 0.  1.
         11   -1    0    0    0    0 -0.00000000000E+00 -0.00000000000E+00 -0.50000000000E+03  0.50000000000E+03  0.00000000000E+00 0.  1.
        -11    1    1    2    0    0  0.89191214574E+01  0.31665427506E+01  0.48322093100E+03  0.48331361027E+03  0.00000000000E+00 0.  1.
         11    1    1    2    0    0 -0.10927516729E+01  0.36577248097E+02 -0.40885827711E+03  0.41049260644E+03  0.00000000000E+00 0.  1.
        -15    1    1    2    0    0 -0.13183887418E+02 -0.55812282570E+02 -0.65213807579E+02  0.86860947503E+02  0.17770000000E+01 0.  1.
         15    1    1    2    0    0  0.53575176337E+01  0.16068491722E+02 -0.91488463133E+01  0.19332835780E+02  0.17770000000E+01 0. -1.
</event>
<event>
 6    1  0.4028964E-003  0.5045556E+03  0.7546771E-02  0.9389674E-01
        -11   -1    0    0    0    0  0.00000000000E+00  0.00000000000E+00  0.50000000000E+03  0.50000000000E+03  0.00000000000E+00 0. -1.
         11   -1    0    0    0    0 -0.00000000000E+00 -0.00000000000E+00 -0.50000000000E+03  0.50000000000E+03  0.00000000000E+00 0. -1.
        -11    1    1    2    0    0 -0.88301691001E+01 -0.19717348198E+02  0.49497317563E+03  0.49544443715E+03  0.00000000000E+00 0. -1.
         11    1    1    2    0    0  0.79590519269E+01 -0.37951862214E+01 -0.41831076621E+03  0.41840368912E+03  0.00000000000E+00 0. -1.
        -15    1    1    2    0    0  0.12304724064E+02  0.22546375970E+02 -0.38934021515E+02  0.46677200688E+02  0.17770000000E+01 0. -1.
         15    1    1    2    0    0 -0.11433606891E+02  0.96615844987E+00 -0.37728387906E+02  0.39474673040E+02  0.17770000000E+01 0.  1.
</event>
<event>
 6    1  0.4028964E-003  0.5010291E+03  0.7546771E-02  0.9397510E-01
        -11   -1    0    0    0    0  0.00000000000E+00  0.00000000000E+00  0.50000000000E+03  0.50000000000E+03  0.00000000000E+00 0.  1.
         11   -1    0    0    0    0 -0.00000000000E+00 -0.00000000000E+00 -0.50000000000E+03  0.50000000000E+03  0.00000000000E+00 0.  1.
        -11    1    1    2    0    0  0.93089282990E+01  0.79564697466E+01  0.49882060197E+03  0.49897089545E+03  0.00000000000E+00 0.  1.
         11    1    1    2    0    0 -0.20509945215E+01 -0.32362782800E+01 -0.13237532699E+03  0.13243076407E+03  0.00000000000E+00 0.  1.
        -15    1    1    2    0    0 -0.26352484626E+01  0.55788962724E+01 -0.33627405563E+03  0.33633534877E+03  0.17770000000E+01 0.  1.
         15    1    1    2    0    0 -0.46226853148E+01 -0.10299087739E+02 -0.30171219347E+02  0.32262991704E+02  0.17770000000E+01 0. -1.
</event>
<event>
 6    1  0.4028964E-003  0.4944493E+03  0.7546771E-02  0.9412316E-01
        -11   -1    0    0    0    0  0.00000000000E+00  0.00000000000E+00  0.50000000000E+03  0.50000000000E+03  0.00000000000E+00 0.  1.
         11   -1    0    0    0    0 -0.00000000000E+00 -0.00000000000E+00 -0.50000000000E+03  0.50000000000E+03  0.00000000000E+00 0. -1.
        -11    1    1    2    0    0 -0.16351532826E+01  0.13537271963E+01  0.18706788505E+02  0.18826848907E+02  0.00000000000E+00 0.  1.
         11    1    1    2    0    0 -0.89799188613E+01  0.15201796853E+01 -0.49580587855E+03  0.49588952307E+03  0.00000000000E+00 0. -1.
        -15    1    1    2    0    0 -0.88956585717E+01  0.21697365866E+02  0.35593463218E+02  0.42660998345E+02  0.17770000000E+01 0. -1.
         15    1    1    2    0    0  0.19510730716E+02 -0.24571272748E+02  0.44150562682E+03  0.44262262968E+03  0.17770000000E+01 0.  1.
</event>
<event>
 6    1  0.4028964E-003  0.5030400E+03  0.7546771E-02  0.9393033E-01
        -11   -1    0    0    0    0  0.00000000000E+00  0.00000000000E+00  0.50000000000E+03  0.50000000000E+03  0.00000000000E+00 0. -1.
         11   -1    0    0    0    0 -0.00000000000E+00 -0.00000000000E+00 -0.50000000000E+03  0.50000000000E+03  0.00000000000E+00 0.  1.
        -11    1    1    2    0    0  0.70876664555E+01 -0.10076973505E+02  0.49680725030E+03  0.49695998266E+03  0.00000000000E+00 0. -1.
         11    1    1    2    0    0 -0.73321287980E+01 -0.22071068134E+01 -0.75637896494E+02  0.76024488287E+02  0.00000000000E+00 0.  1.
        -15    1    1    2    0    0  0.20457571110E+02  0.32448768905E+02 -0.30345722925E+03  0.30587723441E+03  0.17770000000E+01 0. -1.
         15    1    1    2    0    0 -0.20213108767E+02 -0.20164688586E+02 -0.11771212456E+03  0.12113829464E+03  0.17770000000E+01 0.  1.
</event>
<event>
 6    1  0.4028964E-003  0.5013708E+03  0.7546771E-02  0.9396748E-01
        -11   -1    0    0    0    0  0.00000000000E+00  0.00000000000E+00  0.50000000000E+03  0.50000000000E+03  0.00000000000E+00 0. -1.
         11   -1    0    0    0    0 -0.00000000000E+00 -0.00000000000E+00 -0.50000000000E+03  0.50000000000E+03  0.00000000000E+00 0. -1.
        -11    1    1    2    0    0  0.42259280785E+01  0.59255509700E+01  0.49857605841E+03  0.49862917749E+03  0.00000000000E+00 0. -1.
         11    1    1    2    0    0  0.19046531665E+01  0.50351779531E+01 -0.35799311321E+03  0.35803358757E+03  0.00000000000E+00 0. -1.
        -15    1    1    2    0    0 -0.77905589625E+01 -0.18439577727E+02 -0.10001469832E+03  0.10201376595E+03  0.17770000000E+01 0.  1.
         15    1    1    2    0    0  0.16599777175E+01  0.74788488040E+01 -0.40568246884E+02  0.41323468994E+02  0.17770000000E+01 0. -1.
</event>
<event>
 6    1  0.4028964E-003  0.4806442E+03  0.7546771E-02  0.9444193E-01
        -11   -1    0    0    0    0  0.00000000000E+00  0.00000000000E+00  0.50000000000E+03  0.50000000000E+03  0.00000000000E+00 0.  1.
         11   -1    0    0    0    0 -0.00000000000E+00 -0.00000000000E+00 -0.50000000000E+03  0.50000000000E+03  0.00000000000E+00 0.  1.
        -11    1    1    2    0    0  0.86663216216E+01 -0.46549858040E+01  0.48640283347E+03  0.48650230260E+03  0.00000000000E+00 0.  1.
         11    1    1    2    0    0  0.12569255247E+02  0.46641311318E+01 -0.47490031613E+03  0.47508951847E+03  0.00000000000E+00 0.  1.
        -15    1    1    2    0    0 -0.21405318896E+01  0.94275368853E+01  0.53488781086E+01  0.11190556488E+02  0.17770000000E+01 0. -1.
         15    1    1    2    0    0 -0.19095044979E+02 -0.94366822131E+01 -0.16851395449E+02  0.27217622445E+02  0.17770000000E+01 0.  1.
</event>
<event>
 6    1  0.4028964E-003  0.5305187E+03  0.7546771E-02  0.9333997E-01
        -11   -1    0    0    0    0  0.00000000000E+00  0.00000000000E+00  0.50000000000E+03  0.50000000000E+03  0.00000000000E+00 0. -1.
         11   -1    0    0    0    0 -0.00000000000E+00 -0.00000000000E+00 -0.50000000000E+03  0.50000000000E+03  0.00000000000E+00 0.  1.
        -11    1    1    2    0    0  0.27169540889E+02 -0.28007313632E+02  0.46785692574E+03  0.46948130584E+03  0.00000000000E+00 0. -1.
         11    1    1    2    0    0 -0.49738293582E+01  0.35230239576E+01 -0.36841296317E+03  0.36846337961E+03  0.00000000000E+00 0.  1.
        -15    1    1    2    0    0  0.18065900852E+01 -0.20927159489E+02 -0.10792555052E+03  0.10996495785E+03  0.17770000000E+01 0. -1.
         15    1    1    2    0    0 -0.24002301616E+02  0.45411449164E+02  0.84815879492E+01  0.52090356700E+02  0.17770000000E+01 0.  1.
</event>
<event>
 6    1  0.4028964E-003  0.4880018E+03  0.7546771E-02  0.9427064E-01
        -11   -1    0    0    0    0  0.00000000000E+00  0.00000000000E+00  0.50000000000E+03  0.50000000000E+03  0.00000000000E+00 0.  1.
         11   -1    0    0    0    0 -0.00000000000E+00 -0.00000000000E+00 -0.50000000000E+03  0.50000000000E+03  0.00000000000E+00 0.  1.
        -11    1    1    2    0    0  0.42578373764E+01  0.52786476769E+01  0.48550355078E+03  0.48555091506E+03  0.00000000000E+00 0.  1.
         11    1    1    2    0    0  0.73541624730E+01 -0.59709912681E+00 -0.49049017474E+03  0.49054566734E+03  0.00000000000E+00 0.  1.
        -15    1    1    2    0    0 -0.14729917725E+02 -0.15031057043E+01  0.91990577163E+01  0.17521706390E+02  0.17770000000E+01 0. -1.
         15    1    1    2    0    0  0.31179178755E+01 -0.31784428458E+01 -0.42124337573E+01  0.63817112095E+01  0.17770000000E+01 0.  1.
</event>
<event>
 6    1  0.4028964E-003  0.5029732E+03  0.7546771E-02  0.9393182E-01
        -11   -1    0    0    0    0  0.00000000000E+00  0.00000000000E+00  0.50000000000E+03  0.50000000000E+03  0.00000000000E+00 0.  1.
         11   -1    0    0    0    0 -0.00000000000E+00 -0.00000000000E+00 -0.50000000000E+03  0.50000000000E+03  0.00000000000E+00 0. -1.
        -11    1    1    2    0    0  0.55475868569E+00  0.71883436064E+01  0.46465274911E+03  0.46470868003E+03  0.00000000000E+00 0.  1.
         11    1    1    2    0    0 -0.81099694934E+01 -0.56588283100E+01 -0.49692845182E+03  0.49702684049E+03  0.00000000000E+00 0. -1.
        -15    1    1    2    0    0  0.77427392332E+01 -0.46302262629E+01  0.33296686167E+02  0.34542959410E+02  0.17770000000E+01 0. -1.
         15    1    1    2    0    0 -0.18752842546E+00  0.31007109665E+01 -0.10209834523E+01  0.37215200682E+01  0.17770000000E+01 0.  1.
</event>
<event>
 6    1  0.4028964E-003  0.4787046E+03  0.7546771E-02  0.9448762E-01
        -11   -1    0    0    0    0  0.00000000000E+00  0.00000000000E+00  0.50000000000E+03  0.50000000000E+03  0.00000000000E+00 0.  1.
         11   -1    0    0    0    0 -0.00000000000E+00 -0.00000000000E+00 -0.50000000000E+03  0.50000000000E+03  0.00000000000E+00 0.  1.
        -11    1    1    2    0    0 -0.10936955735E+01  0.11191517643E+02  0.48274514708E+03  0.48287609515E+03  0.00000000000E+00 0.  1.
         11    1    1    2    0    0  0.58317172877E+01  0.52810164164E+01 -0.47465555961E+03  0.47472075826E+03  0.00000000000E+00 0.  1.
        -15    1    1    2    0    0 -0.70502185423E+01 -0.10966938043E+02 -0.22857812889E+02  0.26374545506E+02  0.17770000000E+01 0.  1.
         15    1    1    2    0    0  0.23121968280E+01 -0.55055960161E+01  0.14768225419E+02  0.16028601084E+02  0.17770000000E+01 0. -1.
</event>
<event>
 6    1  0.4028964E-003  0.5014425E+03  0.7546771E-02  0.9396588E-01
        -11   -1    0    0    0    0  0.00000000000E+00  0.00000000000E+00  0.50000000000E+03  0.50000000000E+03  0.00000000000E+00 0.  1.
         11   -1    0    0    0    0 -0.00000000000E+00 -0.00000000000E+00 -0.50000000000E+03  0.50000000000E+03  0.00000000000E+00 0. -1.
        -11    1    1    2    0    0 -0.58628792380E+01 -0.66660186193E+00  0.40343252162E+03  0.40347567115E+03  0.00000000000E+00 0.  1.
         11    1    1    2    0    0 -0.13710883008E+02  0.26877735214E+01 -0.49836169458E+03  0.49855751029E+03  0.00000000000E+00 0. -1.
        -15    1    1    2    0    0  0.18196919364E+02 -0.48900709938E+01  0.89131120763E+02  0.91118357569E+02  0.17770000000E+01 0.  1.
         15    1    1    2    0    0  0.13768428827E+01  0.28688993343E+01  0.57980521955E+01  0.68484609933E+01  0.17770000000E+01 0. -1.
</event>
<event>
 6    1  0.4028964E-003  0.5002492E+03  0.7546771E-02  0.9399252E-01
        -11   -1    0    0    0    0  0.00000000000E+00  0.00000000000E+00  0.50000000000E+03  0.50000000000E+03  0.00000000000E+00 0. -1.
         11   -1    0    0    0    0 -0.00000000000E+00 -0.00000000000E+00 -0.50000000000E+03  0.50000000000E+03  0.00000000000E+00 0.  1.
        -11    1    1    2    0    0 -0.43266360423E+01  0.75826890884E+01  0.49967455012E+03  0.49975081090E+03  0.00000000000E+00 0. -1.
         11    1    1    2    0    0  0.38414195109E+01  0.35951820614E+01 -0.33332024849E+03  0.33336177029E+03  0.00000000000E+00 0.  1.
        -15    1    1    2    0    0 -0.59831585772E+00 -0.10564432035E+02 -0.15097791681E+03  0.15135869416E+03  0.17770000000E+01 0.  1.
         15    1    1    2    0    0  0.10835323891E+01 -0.61343911515E+00 -0.15376384824E+02  0.15528724649E+02  0.17770000000E+01 0. -1.
</event>
<event>
 6    1  0.4028964E-003  0.5006397E+03  0.7546771E-02  0.9398380E-01
        -11   -1    0    0    0    0  0.00000000000E+00  0.00000000000E+00  0.50000000000E+03  0.50000000000E+03  0.00000000000E+00 0.  1.
         11   -1    0    0    0    0 -0.00000000000E+00 -0.00000000000E+00 -0.50000000000E+03  0.50000000000E+03  0.00000000000E+00 0. -1.
        -11    1    1    2    0    0  0.10700935297E+01  0.22446910818E+02  0.49885442739E+03  0.49936033946E+03  0.00000000000E+00 0.  1.
         11    1    1    2    0    0 -0.81340649610E+00  0.23226655498E+01 -0.16719387128E+03  0.16721198223E+03  0.00000000000E+00 0. -1.
        -15    1    1    2    0    0  0.33232986396E+01 -0.25267077573E+02 -0.18998456673E+03  0.19169445179E+03  0.17770000000E+01 0. -1.
         15    1    1    2    0    0 -0.35799856732E+01  0.49750120576E+00 -0.14167598938E+03  0.14173322652E+03  0.17770000000E+01 0.  1.
</event>
<event>
 6    1  0.4028964E-003  0.5172663E+03  0.7546771E-02  0.9361983E-01
        -11   -1    0    0    0    0  0.00000000000E+00  0.00000000000E+00  0.50000000000E+03  0.50000000000E+03  0.00000000000E+00 0. -1.
         11   -1    0    0    0    0 -0.00000000000E+00 -0.00000000000E+00 -0.50000000000E+03  0.50000000000E+03  0.00000000000E+00 0. -1.
        -11    1    1    2    0    0 -0.85909448782E+01  0.13495204597E+01  0.36575804006E+03  0.36586140738E+03  0.00000000000E+00 0. -1.
         11    1    1    2    0    0  0.32241006136E+01  0.23379806114E+02 -0.48215641591E+03  0.48273369424E+03  0.00000000000E+00 0. -1.
        -15    1    1    2    0    0  0.27324533905E+02 -0.36265918904E+02  0.16321209679E+02  0.48284434775E+02  0.17770000000E+01 0.  1.
         15    1    1    2    0    0 -0.21957689641E+02  0.11536592330E+02  0.10007716617E+03  0.10312046360E+03  0.17770000000E+01 0. -1.
</event>
<event>
 6    1  0.4028964E-003  0.4824853E+03  0.7546771E-02  0.9439876E-01
        -11   -1    0    0    0    0  0.00000000000E+00  0.00000000000E+00  0.50000000000E+03  0.50000000000E+03  0.00000000000E+00 0.  1.
         11   -1    0    0    0    0 -0.00000000000E+00 -0.00000000000E+00 -0.50000000000E+03  0.50000000000E+03  0.00000000000E+00 0. -1.
        -11    1    1    2    0    0 -0.34222019420E+01  0.59178050786E+01  0.47682854555E+03  0.47687754585E+03  0.00000000000E+00 0.  1.
         11    1    1    2    0    0  0.15737463151E+02  0.12939908485E+02 -0.48799523230E+03  0.48842036784E+03  0.00000000000E+00 0. -1.
        -15    1    1    2    0    0 -0.19085862072E+01 -0.92613808538E+01  0.16802533492E+02  0.19362301965E+02  0.17770000000E+01 0.  1.
         15    1    1    2    0    0 -0.10406675002E+02 -0.95963327099E+01 -0.56358467460E+01  0.15339784341E+02  0.17770000000E+01 0. -1.
</event>
<event>
 6    1  0.4028964E-003  0.5004677E+03  0.7546771E-02  0.9398764E-01
        -11   -1    0    0    0    0  0.00000000000E+00  0.00000000000E+00  0.50000000000E+03  0.50000000000E+03  0.00000000000E+00 0.  1.
         11   -1    0    0    0    0 -0.00000000000E+00 -0.00000000000E+00 -0.50000000000E+03  0.50000000000E+03  0.00000000000E+00 0.  1.
        -11    1    1    2    0    0 -0.51567510833E+01 -0.49914265328E+01  0.49948070983E+03  0.49953226714E+03  0.00000000000E+00 0.  1.
         11    1    1    2    0    0  0.45782902666E+01  0.24115785725E+01 -0.20757281249E+03  0.20763730141E+03  0.00000000000E+00 0.  1.
        -15    1    1    2    0    0 -0.81309115049E+01  0.31977370728E+01 -0.23983794577E+03  0.24000361499E+03  0.17770000000E+01 0.  1.
         15    1    1    2    0    0  0.87093723216E+01 -0.61788911249E+00 -0.52069951562E+02  0.52826816465E+02  0.17770000000E+01 0. -1.
</event>
<event>
 6    1  0.4028964E-003  0.5019406E+03  0.7546771E-02  0.9395478E-01
        -11   -1    0    0    0    0  0.00000000000E+00  0.00000000000E+00  0.50000000000E+03  0.50000000000E+03  0.00000000000E+00 0.  1.
         11   -1    0    0    0    0 -0.00000000000E+00 -0.00000000000E+00 -0.50000000000E+03  0.50000000000E+03  0.00000000000E+00 0. -1.
        -11    1    1    2    0    0  0.67888569521E+00 -0.32205817229E+01  0.64726905251E+02  0.64810533834E+02  0.00000000000E+00 0.  1.
         11    1    1    2    0    0  0.28124773081E+01 -0.36483978634E+02 -0.49671335524E+03  0.49805938200E+03  0.00000000000E+00 0. -1.
        -15    1    1    2    0    0  0.95676575314E+01  0.23849445843E+02  0.70535883877E+02  0.75091975477E+02  0.17770000000E+01 0. -1.
         15    1    1    2    0    0 -0.13059020535E+02  0.15855114513E+02  0.36145056611E+03  0.36203810869E+03  0.17770000000E+01 0.  1.
</event>
<event>
 6    1  0.4028964E-003  0.5007536E+03  0.7546771E-02  0.9398125E-01
        -11   -1    0    0    0    0  0.00000000000E+00  0.00000000000E+00  0.50000000000E+03  0.50000000000E+03  0.00000000000E+00 0.  1.
         11   -1    0    0    0    0 -0.00000000000E+00 -0.00000000000E+00 -0.50000000000E+03  0.50000000000E+03  0.00000000000E+00 0. -1.
        -11    1    1    2    0    0 -0.53526542597E+01  0.84743462084E+01  0.49914579912E+03  0.49924642636E+03  0.00000000000E+00 0.  1.
         11    1    1    2    0    0  0.22874724761E+00  0.31530781130E+01 -0.21738383090E+03  0.21740681720E+03  0.00000000000E+00 0. -1.
        -15    1    1    2    0    0 -0.28994019113E+01 -0.14169037871E+02 -0.74798005812E+02  0.76204117790E+02  0.17770000000E+01 0.  1.
         15    1    1    2    0    0  0.80233089234E+01  0.25416135501E+01 -0.20696396241E+03  0.20714263866E+03  0.17770000000E+01 0. -1.
</event>
<event>
 6    1  0.4028964E-003  0.5036930E+03  0.7546771E-02  0.9391584E-01
        -11   -1    0    0    0    0  0.00000000000E+00  0.00000000000E+00  0.50000000000E+03  0.50000000000E+03  0.00000000000E+00 0.  1.
         11   -1    0    0    0    0 -0.00000000000E+00 -0.00000000000E+00 -0.50000000000E+03  0.50000000000E+03  0.00000000000E+00 0. -1.
        -11    1    1    2    0    0  0.78598874745E+01 -0.14781804293E+01  0.49624256189E+03  0.49630700487E+03  0.00000000000E+00 0.  1.
         11    1    1    2    0    0 -0.46919316964E+01  0.76092396262E+01 -0.48418441763E+03  0.48426693572E+03  0.00000000000E+00 0. -1.
        -15    1    1    2    0    0 -0.15014400352E+00  0.13485626472E+01  0.20791348860E+01  0.30531451504E+01  0.17770000000E+01 0.  1.
         15    1    1    2    0    0 -0.30178117745E+01 -0.74796218441E+01 -0.14137279145E+02  0.16372914263E+02  0.17770000000E+01 0. -1.
</event>
<event>
 6    1  0.4028964E-003  0.5007360E+03  0.7546771E-02  0.9398164E-01
        -11   -1    0    0    0    0  0.00000000000E+00  0.00000000000E+00  0.50000000000E+03  0.50000000000E+03  0.00000000000E+00 0. -1.
         11   -1    0    0    0    0 -0.00000000000E+00 -0.00000000000E+00 -0.50000000000E+03  0.50000000000E+03  0.00000000000E+00 0.  1.
        -11    1    1    2    0    0 -0.11421124272E+02  0.32666297608E+00  0.49913325679E+03  0.49926401514E+03  0.00000000000E+00 0. -1.
         11    1    1    2    0    0 -0.26574058300E+00 -0.55812174030E+01 -0.28449375454E+03  0.28454861971E+03  0.00000000000E+00 0.  1.
        -15    1    1    2    0    0  0.32540819823E+01  0.32978669278E+01 -0.18904529602E+03  0.18911040863E+03  0.17770000000E+01 0.  1.
         15    1    1    2    0    0  0.84327828728E+01  0.19566874991E+01 -0.25594206228E+02  0.27076956520E+02  0.17770000000E+01 0. -1.
</event>
<event>
 6    1  0.4028964E-003  0.5051697E+03  0.7546771E-02  0.9388316E-01
        -11   -1    0    0    0    0  0.00000000000E+00  0.00000000000E+00  0.50000000000E+03  0.50000000000E+03  0.00000000000E+00 0. -1.
         11   -1    0    0    0    0 -0.00000000000E+00 -0.00000000000E+00 -0.50000000000E+03  0.50000000000E+03  0.00000000000E+00 0. -1.
        -11    1    1    2    0    0  0.32104627677E+02 -0.20759223009E+02  0.49335113898E+03  0.49483027271E+03  0.00000000000E+00 0. -1.
         11    1    1    2    0    0 -0.59430548194E+01  0.31907569132E+02 -0.23588801735E+03  0.23811041472E+03  0.00000000000E+00 0. -1.
        -15    1    1    2    0    0  0.78160574580E+01 -0.17944076973E+02 -0.23943811602E+02  0.30976515228E+02  0.17770000000E+01 0.  1.
         15    1    1    2    0    0 -0.33977630315E+02  0.67957308498E+01 -0.23351931002E+03  0.23608279735E+03  0.17770000000E+01 0. -1.
</event>
<event>
 6    1  0.4028964E-003  0.4847099E+03  0.7546771E-02  0.9434688E-01
        -11   -1    0    0    0    0  0.00000000000E+00  0.00000000000E+00  0.50000000000E+03  0.50000000000E+03  0.00000000000E+00 0.  1.
         11   -1    0    0    0    0 -0.00000000000E+00 -0.00000000000E+00 -0.50000000000E+03  0.50000000000E+03  0.00000000000E+00 0.  1.
        -11    1    1    2    0    0 -0.13375204977E+01 -0.11168948408E+01  0.32474326965E+02  0.32521044371E+02  0.00000000000E+00 0.  1.
         11    1    1    2    0    0 -0.12736829168E+02  0.17812636307E+02 -0.49819409900E+03  0.49867512181E+03  0.00000000000E+00 0.  1.
        -15    1    1    2    0    0  0.91477703906E+01  0.14575321018E+02  0.26801584629E+03  0.26857359005E+03  0.17770000000E+01 0. -1.
         15    1    1    2    0    0  0.49265792754E+01 -0.31271062484E+02  0.19770392575E+03  0.20023024377E+03  0.17770000000E+01 0.  1.
</event>
<event>
 6    1  0.4028964E-003  0.5015974E+03  0.7546771E-02  0.9396242E-01
        -11   -1    0    0    0    0  0.00000000000E+00  0.00000000000E+00  0.50000000000E+03  0.50000000000E+03  0.00000000000E+00 0.  1.
         11   -1    0    0    0    0 -0.00000000000E+00 -0.00000000000E+00 -0.50000000000E+03  0.50000000000E+03  0.00000000000E+00 0.  1.
        -11    1    1    2    0    0 -0.77809174862E+01 -0.17426713777E+01  0.49833881415E+03  0.49840260159E+03  0.00000000000E+00 0.  1.
         11    1    1    2    0    0  0.27312941016E+01 -0.92766858142E+01 -0.45084747157E+03  0.45095117195E+03  0.00000000000E+00 0.  1.
        -15    1    1    2    0    0  0.29440581939E+01  0.10345865348E+02 -0.46306080995E+02  0.47572211159E+02  0.17770000000E+01 0.  1.
         15    1    1    2    0    0  0.21055651907E+01  0.67349184433E+00 -0.11852615893E+01  0.30740153011E+01  0.17770000000E+01 0. -1.
</event>
<event>
 6    1  0.4028964E-003  0.5244887E+03  0.7546771E-02  0.9346622E-01
        -11   -1    0    0    0    0  0.00000000000E+00  0.00000000000E+00  0.50000000000E+03  0.50000000000E+03  0.00000000000E+00 0.  1.
         11   -1    0    0    0    0 -0.00000000000E+00 -0.00000000000E+00 -0.50000000000E+03  0.50000000000E+03  0.00000000000E+00 0. -1.
        -11    1    1    2    0    0  0.29484376622E+02 -0.11868094877E+01  0.33961602813E+03  0.34089556105E+03  0.00000000000E+00 0.  1.
         11    1    1    2    0    0  0.80625099458E+01  0.11237498547E+02 -0.47531009031E+03  0.47551126947E+03  0.00000000000E+00 0. -1.
        -15    1    1    2    0    0  0.81189788853E+01  0.20920420185E+02 -0.12289728838E+02  0.25647162860E+02  0.17770000000E+01 0. -1.
         15    1    1    2    0    0 -0.45665865454E+02 -0.30971109244E+02  0.14798379101E+03  0.15794600662E+03  0.17770000000E+01 0.  1.
</event>
<event>
 6    1  0.4028964E-003  0.5021698E+03  0.7546771E-02  0.9394968E-01
        -11   -1    0    0    0    0  0.00000000000E+00  0.00000000000E+00  0.50000000000E+03  0.50000000000E+03  0.00000000000E+00 0.  1.
         11   -1    0    0    0    0 -0.00000000000E+00 -0.00000000000E+00 -0.50000000000E+03  0.50000000000E+03  0.00000000000E+00 0. -1.
        -11    1    1    2    0    0  0.28750329805E+02 -0.23212614322E+02  0.49645693401E+03  0.49783018616E+03  0.00000000000E+00 0.  1.
         11    1    1    2    0    0 -0.36034874377E+01 -0.32127411325E+01 -0.22851515856E+03  0.22856614911E+03  0.00000000000E+00 0. -1.
        -15    1    1    2    0    0 -0.23781837425E+02  0.13631448146E+02 -0.69415368621E+02  0.74652818431E+02  0.17770000000E+01 0.  1.
         15    1    1    2    0    0 -0.13650049423E+01  0.12793907309E+02 -0.19852640683E+03  0.19895084629E+03  0.17770000000E+01 0. -1.
</event>
<event>
 6    1  0.4028964E-003  0.5122707E+03  0.7546771E-02  0.9372764E-01
        -11   -1    0    0    0    0  0.00000000000E+00  0.00000000000E+00  0.50000000000E+03  0.50000000000E+03  0.00000000000E+00 0. -1.
         11   -1    0    0    0    0 -0.00000000000E+00 -0.00000000000E+00 -0.50000000000E+03  0.50000000000E+03  0.00000000000E+00 0. -1.
        -11    1    1    2    0    0  0.11569765428E+02 -0.53063272043E+01  0.42706764719E+03  0.42725729000E+03  0.00000000000E+00 0. -1.
         11    1    1    2    0    0 -0.21214276323E+02 -0.46170189736E+02 -0.48507540122E+03  0.48772930690E+03  0.00000000000E+00 0. -1.
        -15    1    1    2    0    0 -0.61901258270E+01  0.42705669587E+01  0.22616243466E+02  0.23899949737E+02  0.17770000000E+01 0.  1.
         15    1    1    2    0    0  0.15834636721E+02  0.47205949981E+02  0.35391510556E+02  0.61113453365E+02  0.17770000000E+01 0. -1.
</event>
<event>
 6    1  0.4028964E-003  0.5004304E+03  0.7546771E-02  0.9398847E-01
        -11   -1    0    0    0    0  0.00000000000E+00  0.00000000000E+00  0.50000000000E+03  0.50000000000E+03  0.00000000000E+00 0.  1.
         11   -1    0    0    0    0 -0.00000000000E+00 -0.00000000000E+00 -0.50000000000E+03  0.50000000000E+03  0.00000000000E+00 0. -1.
        -11    1    1    2    0    0 -0.19559072164E+01  0.81638071865E+01  0.49949904610E+03  0.49956958512E+03  0.00000000000E+00 0.  1.
         11    1    1    2    0    0 -0.55834615314E+01 -0.64520544633E+00 -0.39355032770E+03  0.39359046199E+03  0.00000000000E+00 0. -1.
        -15    1    1    2    0    0  0.50661873209E+01 -0.81495760279E+01 -0.60223948300E+02  0.61009536314E+02  0.17770000000E+01 0.  1.
         15    1    1    2    0    0  0.24731814269E+01  0.63097428774E+00 -0.45724770094E+02  0.45830416582E+02  0.17770000000E+01 0. -1.
</event>
<event>
 6    1  0.4028964E-003  0.5026969E+03  0.7546771E-02  0.9393795E-01
        -11   -1    0    0    0    0  0.00000000000E+00  0.00000000000E+00  0.50000000000E+03  0.50000000000E+03  0.00000000000E+00 0.  1.
         11   -1    0    0    0    0 -0.00000000000E+00 -0.00000000000E+00 -0.50000000000E+03  0.50000000000E+03  0.00000000000E+00 0.  1.
        -11    1    1    2    0    0  0.87973243373E+01 -0.10161954624E+00  0.37062088109E+03  0.37072529013E+03  0.00000000000E+00 0.  1.
         11    1    1    2    0    0 -0.20323714055E+02 -0.27595545387E+02 -0.49612076051E+03  0.49730310323E+03  0.00000000000E+00 0.  1.
        -15    1    1    2    0    0 -0.30434232262E+01 -0.88757434115E+00  0.47131160046E+02  0.47271071380E+02  0.17770000000E+01 0.  1.
         15    1    1    2    0    0  0.14569812944E+02  0.28584739274E+02  0.78368719369E+02  0.84700535258E+02  0.17770000000E+01 0. -1.
</event>
<event>
 6    1  0.4028964E-003  0.5061175E+03  0.7546771E-02  0.9386224E-01
        -11   -1    0    0    0    0  0.00000000000E+00  0.00000000000E+00  0.50000000000E+03  0.50000000000E+03  0.00000000000E+00 0. -1.
         11   -1    0    0    0    0 -0.00000000000E+00 -0.00000000000E+00 -0.50000000000E+03  0.50000000000E+03  0.00000000000E+00 0.  1.
        -11    1    1    2    0    0  0.35835805847E+02 -0.51934075764E+01  0.49255326945E+03  0.49388247560E+03  0.00000000000E+00 0. -1.
         11    1    1    2    0    0 -0.43229572061E+01  0.79738192495E+01 -0.44158150375E+03  0.44167464746E+03  0.00000000000E+00 0.  1.
        -15    1    1    2    0    0 -0.33616118628E+02 -0.63569173288E+01 -0.48240532650E+02  0.59167225294E+02  0.17770000000E+01 0.  1.
         15    1    1    2    0    0  0.21032699877E+01  0.35765056556E+01 -0.27312330492E+01  0.52756516484E+01  0.17770000000E+01 0.  1.
</event>
<event>
 6    1  0.4028964E-003  0.5021949E+03  0.7546771E-02  0.9394912E-01
        -11   -1    0    0    0    0  0.00000000000E+00  0.00000000000E+00  0.50000000000E+03  0.50000000000E+03  0.00000000000E+00 0. -1.
         11   -1    0    0    0    0 -0.00000000000E+00 -0.00000000000E+00 -0.50000000000E+03  0.50000000000E+03  0.00000000000E+00 0. -1.
        -11    1    1    2    0    0 -0.72080847065E+01 -0.38275814073E+01  0.49773820180E+03  0.49780510684E+03  0.00000000000E+00 0. -1.
         11    1    1    2    0    0 -0.56285604832E+01 -0.89243968458E+01 -0.38030531231E+03  0.38045164755E+03  0.00000000000E+00 0. -1.
        -15    1    1    2    0    0  0.20816978024E+02  0.73500814218E+01 -0.86807275211E+02  0.89588118797E+02  0.17770000000E+01 0. -1.
         15    1    1    2    0    0 -0.79803328341E+01  0.54018968313E+01 -0.30625614277E+02  0.32155126813E+02  0.17770000000E+01 0.  1.
</event>
<event>
 6    1  0.4028964E-003  0.4391003E+03  0.7546771E-02  0.9547442E-01
        -11   -1    0    0    0    0  0.00000000000E+00  0.00000000000E+00  0.50000000000E+03  0.50000000000E+03  0.00000000000E+00 0. -1.
         11   -1    0    0    0    0 -0.00000000000E+00 -0.00000000000E+00 -0.50000000000E+03  0.50000000000E+03  0.00000000000E+00 0. -1.
        -11    1    1    2    0    0 -0.69059381611E+01 -0.24042461878E+02  0.42818943790E+03  0.42891948742E+03  0.00000000000E+00 0. -1.
         11    1    1    2    0    0 -0.27752670414E+01 -0.84051600937E+01 -0.45012016979E+03  0.45020719239E+03  0.00000000000E+00 0. -1.
        -15    1    1    2    0    0  0.48940366532E+02  0.73128458184E+01  0.46692862163E+02  0.68058932523E+02  0.17770000000E+01 0. -1.
         15    1    1    2    0    0 -0.39259161330E+02  0.25134776153E+02 -0.24762130273E+02  0.52814387673E+02  0.17770000000E+01 0.  1.
</event>
<event>
 6    1  0.4028964E-003  0.5676865E+03  0.7546771E-02  0.9259919E-01
        -11   -1    0    0    0    0  0.00000000000E+00  0.00000000000E+00  0.50000000000E+03  0.50000000000E+03  0.00000000000E+00 0. -1.
         11   -1    0    0    0    0 -0.00000000000E+00 -0.00000000000E+00 -0.50000000000E+03  0.50000000000E+03  0.00000000000E+00 0.  1.
        -11    1    1    2    0    0 -0.27677853254E+02 -0.22885146681E+01  0.33497621051E+03  0.33612551595E+03  0.00000000000E+00 0. -1.
         11    1    1    2    0    0 -0.40074238355E+02 -0.43997607922E+02 -0.42819762680E+03  0.43231347617E+03  0.00000000000E+00 0.  1.
        -15    1    1    2    0    0  0.29563751327E+02  0.12815142164E+02  0.15112055557E+03  0.15452774284E+03  0.17770000000E+01 0. -1.
         15    1    1    2    0    0  0.38188340282E+02  0.33470980426E+02 -0.57899139284E+02  0.77033265041E+02  0.17770000000E+01 0.  1.
</event>
<event>
 6    1  0.4028964E-003  0.5461117E+03  0.7546771E-02  0.9302159E-01
        -11   -1    0    0    0    0  0.00000000000E+00  0.00000000000E+00  0.50000000000E+03  0.50000000000E+03  0.00000000000E+00 0. -1.
         11   -1    0    0    0    0 -0.00000000000E+00 -0.00000000000E+00 -0.50000000000E+03  0.50000000000E+03  0.00000000000E+00 0.  1.
        -11    1    1    2    0    0 -0.15336659359E+02  0.45184936131E+01  0.34663767105E+03  0.34700620297E+03  0.00000000000E+00 0. -1.
         11    1    1    2    0    0  0.13481851063E+02 -0.33178969621E+00 -0.45368795348E+03  0.45388834478E+03  0.00000000000E+00 0.  1.
        -15    1    1    2    0    0 -0.60428083555E+01  0.79631919952E+01 -0.45113994586E+02  0.46242385277E+02  0.17770000000E+01 0.  1.
         15    1    1    2    0    0  0.78976166510E+01 -0.12149895912E+02  0.15216427701E+03  0.15286306698E+03  0.17770000000E+01 0. -1.
</event>
<event>
 6    1  0.4028964E-003  0.5097149E+03  0.7546771E-02  0.9378330E-01
        -11   -1    0    0    0    0  0.00000000000E+00  0.00000000000E+00  0.50000000000E+03  0.50000000000E+03  0.00000000000E+00 0. -1.
         11   -1    0    0    0    0 -0.00000000000E+00 -0.00000000000E+00 -0.50000000000E+03  0.50000000000E+03  0.00000000000E+00 0. -1.
        -11    1    1    2    0    0  0.15347173921E+02  0.68289678664E+01  0.48999722194E+03  0.49028506816E+03  0.00000000000E+00 0. -1.
         11    1    1    2    0    0 -0.32511326338E+01  0.59194507310E+01 -0.43394197350E+03  0.43399452315E+03  0.00000000000E+00 0. -1.
        -15    1    1    2    0    0 -0.10920688354E+01 -0.12216789366E+02 -0.61896336808E+02  0.63124930067E+02  0.17770000000E+01 0. -1.
         15    1    1    2    0    0 -0.11003972452E+02 -0.53162923151E+00  0.58410883725E+01  0.12595478623E+02  0.17770000000E+01 0.  1.
</event>
<event>
 6    1  0.4028964E-003  0.5104403E+03  0.7546771E-02  0.9376747E-01
        -11   -1    0    0    0    0  0.00000000000E+00  0.00000000000E+00  0.50000000000E+03  0.50000000000E+03  0.00000000000E+00 0. -1.
         11   -1    0    0    0    0 -0.00000000000E+00 -0.00000000000E+00 -0.50000000000E+03  0.50000000000E+03  0.00000000000E+00 0.  1.
        -11    1    1    2    0    0 -0.13470684155E+02  0.49781216653E+01  0.48934902223E+03  0.48955970686E+03  0.00000000000E+00 0. -1.
         11    1    1    2    0    0  0.11156563251E+02 -0.16050053346E+00 -0.44618512499E+03  0.44632461329E+03  0.00000000000E+00 0.  1.
        -15    1    1    2    0    0 -0.85307690469E+01 -0.14689259153E+02 -0.46004695146E+02  0.49072783286E+02  0.17770000000E+01 0.  1.
         15    1    1    2    0    0  0.10844889952E+02  0.98716380209E+01  0.28407979049E+01  0.15042896563E+02  0.17770000000E+01 0. -1.
</event>
<event>
 6    1  0.4028964E-003  0.5000612E+03  0.7546771E-02  0.9399673E-01
        -11   -1    0    0    0    0  0.00000000000E+00  0.00000000000E+00  0.50000000000E+03  0.50000000000E+03  0.00000000000E+00 0.  1.
         11   -1    0    0    0    0 -0.00000000000E+00 -0.00000000000E+00 -0.50000000000E+03  0.50000000000E+03  0.00000000000E+00 0.  1.
        -11    1    1    2    0    0 -0.13570254896E+01  0.97240350718E+00  0.73280217228E+02  0.73299231400E+02  0.00000000000E+00 0.  1.
         11    1    1    2    0    0 -0.71475267028E+01  0.30923494794E+01 -0.49987812650E+03  0.49993878737E+03  0.00000000000E+00 0.  1.
        -15    1    1    2    0    0  0.80700722957E+01 -0.10835107155E+01  0.29821968552E+03  0.29833611686E+03  0.17770000000E+01 0. -1.
         15    1    1    2    0    0  0.43447989667E+00 -0.29812422710E+01  0.12837822375E+03  0.12842586437E+03  0.17770000000E+01 0.  1.
</event>
<event>
 6    1  0.4028964E-003  0.5036062E+03  0.7546771E-02  0.9391777E-01
        -11   -1    0    0    0    0  0.00000000000E+00  0.00000000000E+00  0.50000000000E+03  0.50000000000E+03  0.00000000000E+00 0.  1.
         11   -1    0    0    0    0 -0.00000000000E+00 -0.00000000000E+00 -0.50000000000E+03  0.50000000000E+03  0.00000000000E+00 0. -1.
        -11    1    1    2    0    0 -0.23042684652E+02 -0.44008765318E+01  0.49583917699E+03  0.49639381792E+03  0.00000000000E+00 0.  1.
         11    1    1    2    0    0  0.49131512443E+01 -0.10231902687E+01 -0.36944598043E+03  0.36948006499E+03  0.00000000000E+00 0. -1.
        -15    1    1    2    0    0  0.20682716487E+02  0.60825138103E+01 -0.26614014995E+02  0.34296286369E+02  0.17770000000E+01 0.  1.
         15    1    1    2    0    0 -0.25531830791E+01 -0.65844700982E+00 -0.99779181573E+02  0.99829830715E+02  0.17770000000E+01 0. -1.
</event>
<event>
 6    1  0.4028964E-003  0.5043252E+03  0.7546771E-02  0.9390183E-01
        -11   -1    0    0    0    0  0.00000000000E+00  0.00000000000E+00  0.50000000000E+03  0.50000000000E+03  0.00000000000E+00 0. -1.
         11   -1    0    0    0    0 -0.00000000000E+00 -0.00000000000E+00 -0.50000000000E+03  0.50000000000E+03  0.00000000000E+00 0.  1.
        -11    1    1    2    0    0 -0.49086797837E+01  0.50233604064E+01  0.49562506979E+03  0.49567483201E+03  0.00000000000E+00 0. -1.
         11    1    1    2    0    0  0.43533773320E+01  0.55272142182E+01 -0.47825018771E+03  0.47830193815E+03  0.00000000000E+00 0.  1.
        -15    1    1    2    0    0  0.61413451177E+01 -0.11409247783E+01 -0.12129758829E+02  0.13758873771E+02  0.17770000000E+01 0. -1.
         15    1    1    2    0    0 -0.55860426660E+01 -0.94096498464E+01 -0.52451232427E+01  0.12264356067E+02  0.17770000000E+01 0.  1.
</event>
<event>
 6    1  0.4028964E-003  0.5034633E+03  0.7546771E-02  0.9392093E-01
        -11   -1    0    0    0    0  0.00000000000E+00  0.00000000000E+00  0.50000000000E+03  0.50000000000E+03  0.00000000000E+00 0.  1.
         11   -1    0    0    0    0 -0.00000000000E+00 -0.00000000000E+00 -0.50000000000E+03  0.50000000000E+03  0.00000000000E+00 0. -1.
        -11    1    1    2    0    0 -0.19917450133E+01 -0.85126968777E+01  0.49645969353E+03  0.49653666567E+03  0.00000000000E+00 0.  1.
         11    1    1    2    0    0  0.28121639686E+01 -0.96083612161E+01 -0.34681952215E+03  0.34696398922E+03  0.00000000000E+00 0. -1.
        -15    1    1    2    0    0 -0.13389222180E+01  0.58065815237E+01  0.12285846047E+00  0.62194794717E+01  0.17770000000E+01 0.  1.
         15    1    1    2    0    0  0.51850326265E+00  0.12314476570E+02 -0.14976302984E+03  0.15027986563E+03  0.17770000000E+01 0.  1.
</event>
<event>
 6    1  0.4028964E-003  0.5075048E+03  0.7546771E-02  0.9383172E-01
        -11   -1    0    0    0    0  0.00000000000E+00  0.00000000000E+00  0.50000000000E+03  0.50000000000E+03  0.00000000000E+00 0. -1.
         11   -1    0    0    0    0 -0.00000000000E+00 -0.00000000000E+00 -0.50000000000E+03  0.50000000000E+03  0.00000000000E+00 0.  1.
        -11    1    1    2    0    0 -0.57207706483E+01  0.16291964438E+02  0.47492424891E+03  0.47523804301E+03  0.00000000000E+00 0. -1.
         11    1    1    2    0    0 -0.45857787852E+01 -0.89006259378E+01 -0.49239340589E+03  0.49249519457E+03  0.00000000000E+00 0.  1.
        -15    1    1    2    0    0 -0.18106659571E+00 -0.11441119290E+02  0.17380206906E+02  0.20884475498E+02  0.17770000000E+01 0. -1.
         15    1    1    2    0    0  0.10487616029E+02  0.40497807907E+01  0.88950072632E-01  0.11382286921E+02  0.17770000000E+01 0.  1.
</event>
<event>
 6    1  0.4028964E-003  0.5165238E+03  0.7546771E-02  0.9363577E-01
        -11   -1    0    0    0    0  0.00000000000E+00  0.00000000000E+00  0.50000000000E+03  0.50000000000E+03  0.00000000000E+00 0. -1.
         11   -1    0    0    0    0 -0.00000000000E+00 -0.00000000000E+00 -0.50000000000E+03  0.50000000000E+03  0.00000000000E+00 0. -1.
        -11    1    1    2    0    0 -0.22340948090E+02 -0.18610733937E+02  0.45065580508E+03  0.45159288306E+03  0.00000000000E+00 0. -1.
         11    1    1    2    0    0  0.88527012983E+01 -0.60559034422E+01 -0.48335716279E+03  0.48347615361E+03  0.00000000000E+00 0. -1.
        -15    1    1    2    0    0  0.16236282751E+02 -0.10782562233E+02  0.61327428347E+01  0.20509724268E+02  0.17770000000E+01 0.  1.
         15    1    1    2    0    0 -0.27480359590E+01  0.35449199612E+02  0.26568614873E+02  0.44421239064E+02  0.17770000000E+01 0. -1.
</event>
<event>
 6    1  0.4028964E-003  0.5044876E+03  0.7546771E-02  0.9389824E-01
        -11   -1    0    0    0    0  0.00000000000E+00  0.00000000000E+00  0.50000000000E+03  0.50000000000E+03  0.00000000000E+00 0. -1.
         11   -1    0    0    0    0 -0.00000000000E+00 -0.00000000000E+00 -0.50000000000E+03  0.50000000000E+03  0.00000000000E+00 0.  1.
        -11    1    1    2    0    0  0.79503680222E+01  0.21864170303E+01  0.49544382831E+03  0.49551243757E+03  0.00000000000E+00 0. -1.
         11    1    1    2    0    0  0.60669504276E+01  0.41447398210E+01 -0.45421627123E+03  0.45427569581E+03  0.00000000000E+00 0.  1.
        -15    1    1    2    0    0 -0.11899020807E+00 -0.63776707407E+01  0.49137836918E-01  0.66218567089E+01  0.17770000000E+01 0. -1.
         15    1    1    2    0    0 -0.13898328242E+02  0.46513889413E-01 -0.41276694918E+02  0.43590009909E+02  0.17770000000E+01 0.  1.
</event>
<event>
 6    1  0.4028964E-003  0.5013736E+03  0.7546771E-02  0.9396742E-01
        -11   -1    0    0    0    0  0.00000000000E+00  0.00000000000E+00  0.50000000000E+03  0.50000000000E+03  0.00000000000E+00 0. -1.
         11   -1    0    0    0    0 -0.00000000000E+00 -0.00000000000E+00 -0.50000000000E+03  0.50000000000E+03  0.00000000000E+00 0. -1.
        -11    1    1    2    0    0  0.44445991119E+01 -0.73356308934E+01  0.49855267085E+03  0.49862644490E+03  0.00000000000E+00 0. -1.
         11    1    1    2    0    0 -0.47104460459E+00  0.88845971906E+01 -0.43671510452E+03  0.43680572394E+03  0.00000000000E+00 0. -1.
        -15    1    1    2    0    0 -0.80487740205E+01  0.55234961081E+01 -0.39258897710E+02  0.40493339587E+02  0.17770000000E+01 0.  1.
         15    1    1    2    0    0  0.40752195132E+01 -0.70724624053E+01 -0.22578668619E+02  0.24074491566E+02  0.17770000000E+01 0. -1.
</event>
<event>
 6    1  0.4028964E-003  0.5064263E+03  0.7546771E-02  0.9385544E-01
        -11   -1    0    0    0    0  0.00000000000E+00  0.00000000000E+00  0.50000000000E+03  0.50000000000E+03  0.00000000000E+00 0.  1.
         11   -1    0    0    0    0 -0.00000000000E+00 -0.00000000000E+00 -0.50000000000E+03  0.50000000000E+03  0.00000000000E+00 0. -1.
        -11    1    1    2    0    0  0.17219812195E+02  0.10597179388E+02  0.49315934385E+03  0.49357366276E+03  0.00000000000E+00 0.  1.
         11    1    1    2    0    0 -0.60169034218E+01  0.32949094210E+01 -0.47568964646E+03  0.47573910845E+03  0.00000000000E+00 0. -1.
        -15    1    1    2    0    0  0.29742778410E+01 -0.76468019493E+01 -0.18101886090E+01  0.85880393879E+01  0.17770000000E+01 0.  1.
         15    1    1    2    0    0 -0.14177186614E+02 -0.62452868594E+01 -0.15659508780E+02  0.22099189408E+02  0.17770000000E+01 0. -1.
</event>
<event>
 6    1  0.4028964E-003  0.4883401E+03  0.7546771E-02  0.9426284E-01
        -11   -1    0    0    0    0  0.00000000000E+00  0.00000000000E+00  0.50000000000E+03  0.50000000000E+03  0.00000000000E+00 0.  1.
         11   -1    0    0    0    0 -0.00000000000E+00 -0.00000000000E+00 -0.50000000000E+03  0.50000000000E+03  0.00000000000E+00 0. -1.
        -11    1    1    2    0    0 -0.73042418236E+01 -0.22745337985E+00  0.49197028791E+03  0.49202456023E+03  0.00000000000E+00 0.  1.
         11    1    1    2    0    0 -0.43051419466E+01  0.67583437516E+01 -0.48470720799E+03  0.48477343876E+03  0.00000000000E+00 0. -1.
        -15    1    1    2    0    0  0.91279135010E+01 -0.18148418913E+01 -0.12389393470E+02  0.15597027138E+02  0.17770000000E+01 0. -1.
         15    1    1    2    0    0  0.24814702692E+01 -0.47160484805E+01  0.51263135510E+01  0.76049738718E+01  0.17770000000E+01 0.  1.
</event>
<event>
 6    1  0.4028964E-003  0.5318514E+03  0.7546771E-02  0.9331231E-01
        -11   -1    0    0    0    0  0.00000000000E+00  0.00000000000E+00  0.50000000000E+03  0.50000000000E+03  0.00000000000E+00 0. -1.
         11   -1    0    0    0    0 -0.00000000000E+00 -0.00000000000E+00 -0.50000000000E+03  0.50000000000E+03  0.00000000000E+00 0.  1.
        -11    1    1    2    0    0  0.78741294388E+01  0.34252050366E+01  0.46806986349E+03  0.46814862069E+03  0.00000000000E+00 0. -1.
         11    1    1    2    0    0 -0.42790480022E+01  0.79938033723E+01 -0.32172935109E+03  0.32185709018E+03  0.00000000000E+00 0.  1.
        -15    1    1    2    0    0 -0.98063597791E+01  0.13973641494E+02  0.28463293153E+02  0.33237691479E+02  0.17770000000E+01 0. -1.
         15    1    1    2    0    0  0.62112783426E+01 -0.25392649903E+02 -0.17480380556E+03  0.17675659765E+03  0.17770000000E+01 0.  1.
</event>
<event>
 6    1  0.4028964E-003  0.5066581E+03  0.7546771E-02  0.9385034E-01
        -11   -1    0    0    0    0  0.00000000000E+00  0.00000000000E+00  0.50000000000E+03  0.50000000000E+03  0.00000000000E+00 0.  1.
         11   -1    0    0    0    0 -0.00000000000E+00 -0.00000000000E+00 -0.50000000000E+03  0.50000000000E+03  0.00000000000E+00 0.  1.
        -11    1    1    2    0    0 -0.59323837000E+01  0.17193363108E+02  0.49300648562E+03  0.49334186907E+03  0.00000000000E+00 0.  1.
         11    1    1    2    0    0  0.10449515304E+02  0.88116775680E+01 -0.42346974559E+03  0.42369029191E+03  0.00000000000E+00 0.  1.
        -15    1    1    2    0    0  0.10183035428E+02 -0.25661176034E+02 -0.30305251760E+02  0.41033598176E+02  0.17770000000E+01 0.  1.
         15    1    1    2    0    0 -0.14700167032E+02 -0.34386464216E+00 -0.39231488278E+02  0.41934240845E+02  0.17770000000E+01 0. -1.
</event>
<event>
 6    1  0.4028964E-003  0.5006175E+03  0.7546771E-02  0.9398429E-01
        -11   -1    0    0    0    0  0.00000000000E+00  0.00000000000E+00  0.50000000000E+03  0.50000000000E+03  0.00000000000E+00 0. -1.
         11   -1    0    0    0    0 -0.00000000000E+00 -0.00000000000E+00 -0.50000000000E+03  0.50000000000E+03  0.00000000000E+00 0. -1.
        -11    1    1    2    0    0  0.98879505167E+01  0.60558982775E+01  0.40862191702E+03  0.40878639476E+03  0.00000000000E+00 0. -1.
         11    1    1    2    0    0  0.12200480110E+01 -0.92928968271E+01 -0.49929455151E+03  0.49938251432E+03  0.00000000000E+00 0. -1.
        -15    1    1    2    0    0 -0.11672591755E+02  0.21306883404E+01  0.82825448600E+02  0.83689915138E+02  0.17770000000E+01 0.  1.
         15    1    1    2    0    0  0.56459322754E+00  0.11063102092E+01  0.78471858833E+01  0.81411757799E+01  0.17770000000E+01 0.  1.
</event>
<event>
 6    1  0.4028964E-003  0.5008346E+03  0.7546771E-02  0.9397944E-01
        -11   -1    0    0    0    0  0.00000000000E+00  0.00000000000E+00  0.50000000000E+03  0.50000000000E+03  0.00000000000E+00 0.  1.
         11   -1    0    0    0    0 -0.00000000000E+00 -0.00000000000E+00 -0.50000000000E+03  0.50000000000E+03  0.00000000000E+00 0.  1.
        -11    1    1    2    0    0 -0.87228484253E+01 -0.33383780866E+01  0.49907800694E+03  0.49916539330E+03  0.00000000000E+00 0.  1.
         11    1    1    2    0    0 -0.32303600270E+01 -0.71501071746E+01 -0.69301001267E+02  0.69743731153E+02  0.00000000000E+00 0.  1.
        -15    1    1    2    0    0  0.56474780226E+01  0.53071317162E+01 -0.40215553157E+03  0.40223412207E+03  0.17770000000E+01 0.  1.
         15    1    1    2    0    0  0.63057304298E+01  0.51813535450E+01 -0.27621474100E+02  0.28856753477E+02  0.17770000000E+01 0. -1.
</event>
<event>
 6    1  0.4028964E-003  0.5041631E+03  0.7546771E-02  0.9390542E-01
        -11   -1    0    0    0    0  0.00000000000E+00  0.00000000000E+00  0.50000000000E+03  0.50000000000E+03  0.00000000000E+00 0.  1.
         11   -1    0    0    0    0 -0.00000000000E+00 -0.00000000000E+00 -0.50000000000E+03  0.50000000000E+03  0.00000000000E+00 0. -1.
        -11    1    1    2    0    0 -0.74097104986E+01  0.76034935724E-01  0.49578153871E+03  0.49583691242E+03  0.00000000000E+00 0.  1.
         11    1    1    2    0    0  0.57352974412E+01  0.21270094321E+02 -0.33640889873E+03  0.33712943760E+03  0.00000000000E+00 0. -1.
        -15    1    1    2    0    0  0.17822976593E+01 -0.70604498991E-01  0.26237776870E+01  0.36364142080E+01  0.17770000000E+01 0.  1.
         15    1    1    2    0    0 -0.10788460189E+00 -0.21275524757E+02 -0.16199641767E+03  0.16339723577E+03  0.17770000000E+01 0. -1.
</event>
<event>
 6    1  0.4028964E-003  0.5037544E+03  0.7546771E-02  0.9391448E-01
        -11   -1    0    0    0    0  0.00000000000E+00  0.00000000000E+00  0.50000000000E+03  0.50000000000E+03  0.00000000000E+00 0.  1.
         11   -1    0    0    0    0 -0.00000000000E+00 -0.00000000000E+00 -0.50000000000E+03  0.50000000000E+03  0.00000000000E+00 0. -1.
        -11    1    1    2    0    0  0.10812840275E+01 -0.11431298038E+02  0.49611278491E+03  0.49624564391E+03  0.00000000000E+00 0.  1.
         11    1    1    2    0    0 -0.71946850835E+01 -0.48892314069E+01 -0.46247898793E+03  0.46256078774E+03  0.00000000000E+00 0. -1.
        -15    1    1    2    0    0  0.42816113791E+01  0.86692866531E+01 -0.31284443155E+02  0.32792725407E+02  0.17770000000E+01 0.  1.
         15    1    1    2    0    0  0.18317896769E+01  0.76512427922E+01 -0.23493538263E+01  0.84008429391E+01  0.17770000000E+01 0. -1.
</event>
<event>
 6    1  0.4028964E-003  0.5109735E+03  0.7546771E-02  0.9375585E-01
        -11   -1    0    0    0    0  0.00000000000E+00  0.00000000000E+00  0.50000000000E+03  0.50000000000E+03  0.00000000000E+00 0.  1.
         11   -1    0    0    0    0 -0.00000000000E+00 -0.00000000000E+00 -0.50000000000E+03  0.50000000000E+03  0.00000000000E+00 0.  1.
        -11    1    1    2    0    0  0.12662563108E+02 -0.56668879612E+01  0.48882964724E+03  0.48902645956E+03  0.00000000000E+00 0.  1.
         11    1    1    2    0    0 -0.19884012030E+01  0.10693235717E+02 -0.10463076241E+03  0.10519456009E+03  0.00000000000E+00 0.  1.
        -15    1    1    2    0    0 -0.87051326198E+01  0.33050419506E+01  0.86499565839E+01  0.12832852922E+02  0.17770000000E+01 0. -1.
         15    1    1    2    0    0 -0.19690292855E+01 -0.83313897064E+01 -0.39284884141E+03  0.39294612743E+03  0.17770000000E+01 0.  1.
</event>
<event>
 6    1  0.4028964E-003  0.5089588E+03  0.7546771E-02  0.9379984E-01
        -11   -1    0    0    0    0  0.00000000000E+00  0.00000000000E+00  0.50000000000E+03  0.50000000000E+03  0.00000000000E+00 0.  1.
         11   -1    0    0    0    0 -0.00000000000E+00 -0.00000000000E+00 -0.50000000000E+03  0.50000000000E+03  0.00000000000E+00 0. -1.
        -11    1    1    2    0    0 -0.14086558204E+02  0.44005737147E+01  0.47538595614E+03  0.47561497397E+03  0.00000000000E+00 0.  1.
         11    1    1    2    0    0 -0.12627421648E+01 -0.76721493429E+01 -0.49097968429E+03  0.49104124753E+03  0.00000000000E+00 0. -1.
        -15    1    1    2    0    0  0.96229072752E-01  0.88234603353E+01 -0.21247496970E+01  0.92485135345E+01  0.17770000000E+01 0.  1.
         15    1    1    2    0    0  0.15253071296E+02 -0.55518847071E+01  0.17718477845E+02  0.24095264969E+02  0.17770000000E+01 0.  1.
</event>
<event>
 6    1  0.4028964E-003  0.5202482E+03  0.7546771E-02  0.9355609E-01
        -11   -1    0    0    0    0  0.00000000000E+00  0.00000000000E+00  0.50000000000E+03  0.50000000000E+03  0.00000000000E+00 0.  1.
         11   -1    0    0    0    0 -0.00000000000E+00 -0.00000000000E+00 -0.50000000000E+03  0.50000000000E+03  0.00000000000E+00 0. -1.
        -11    1    1    2    0    0 -0.76330088290E+01  0.75991784791E+01  0.45038659028E+03  0.45051536161E+03  0.00000000000E+00 0.  1.
         11    1    1    2    0    0  0.27267331620E+01 -0.11984392236E+02 -0.47959430738E+03  0.47975176957E+03  0.00000000000E+00 0. -1.
        -15    1    1    2    0    0 -0.74199868091E+01 -0.11023261497E+02  0.43360087891E+02  0.45385277890E+02  0.17770000000E+01 0.  1.
         15    1    1    2    0    0  0.12326262476E+02  0.15408475254E+02 -0.14152370796E+02  0.24347590937E+02  0.17770000000E+01 0. -1.
</event>
<event>
 6    1  0.4028964E-003  0.5005250E+03  0.7546771E-02  0.9398636E-01
        -11   -1    0    0    0    0  0.00000000000E+00  0.00000000000E+00  0.50000000000E+03  0.50000000000E+03  0.00000000000E+00 0. -1.
         11   -1    0    0    0    0 -0.00000000000E+00 -0.00000000000E+00 -0.50000000000E+03  0.50000000000E+03  0.00000000000E+00 0.  1.
        -11    1    1    2    0    0  0.59100420155E+01  0.81111288284E+01  0.49937417254E+03  0.49947500759E+03  0.00000000000E+00 0. -1.
         11    1    1    2    0    0 -0.21728474393E+01  0.55566158637E+00 -0.16634663458E+03  0.16636175301E+03  0.00000000000E+00 0.  1.
        -15    1    1    2    0    0  0.92620450878E+01  0.24026709060E+01 -0.15675874444E+03  0.15706056155E+03  0.17770000000E+01 0. -1.
         15    1    1    2    0    0 -0.12999239664E+02 -0.11069461321E+02 -0.17626879352E+03  0.17710267786E+03  0.17770000000E+01 0.  1.
</event>
<event>
 6    1  0.4028964E-003  0.5038747E+03  0.7546771E-02  0.9391181E-01
        -11   -1    0    0    0    0  0.00000000000E+00  0.00000000000E+00  0.50000000000E+03  0.50000000000E+03  0.00000000000E+00 0. -1.
         11   -1    0    0    0    0 -0.00000000000E+00 -0.00000000000E+00 -0.50000000000E+03  0.50000000000E+03  0.00000000000E+00 0.  1.
        -11    1    1    2    0    0  0.13077869019E+02  0.18424315554E+02  0.49561055405E+03  0.49612529400E+03  0.00000000000E+00 0. -1.
         11    1    1    2    0    0  0.34273259698E+01 -0.59830483132E+01 -0.23375889127E+03  0.23386056247E+03  0.00000000000E+00 0.  1.
        -15    1    1    2    0    0 -0.32400741556E+02 -0.24664931391E+02 -0.11981726884E+03  0.12656027234E+03  0.17770000000E+01 0. -1.
         15    1    1    2    0    0  0.15895546567E+02  0.12223664151E+02 -0.14203439395E+03  0.14345387119E+03  0.17770000000E+01 0.  1.
</event>
<event>
 6    1  0.4028964E-003  0.5000964E+03  0.7546771E-02  0.9399594E-01
        -11   -1    0    0    0    0  0.00000000000E+00  0.00000000000E+00  0.50000000000E+03  0.50000000000E+03  0.00000000000E+00 0.  1.
         11   -1    0    0    0    0 -0.00000000000E+00 -0.00000000000E+00 -0.50000000000E+03  0.50000000000E+03  0.00000000000E+00 0.  1.
        -11    1    1    2    0    0  0.48809954588E+00  0.28170811766E+00  0.21565381571E+02  0.21572743982E+02  0.00000000000E+00 0.  1.
         11    1    1    2    0    0 -0.15425824847E+02 -0.13726750361E+01 -0.49966366608E+03  0.49990361022E+03  0.00000000000E+00 0.  1.
        -15    1    1    2    0    0  0.45718587320E+01 -0.37126573898E+00  0.33340149019E+03  0.33343777699E+03  0.17770000000E+01 0.  1.
         15    1    1    2    0    0  0.10365866569E+02  0.14622326574E+01  0.14469679432E+03  0.14508586881E+03  0.17770000000E+01 0. -1.
</event>
<event>
 6    1  0.4028964E-003  0.5046337E+03  0.7546771E-02  0.9389501E-01
        -11   -1    0    0    0    0  0.00000000000E+00  0.00000000000E+00  0.50000000000E+03  0.50000000000E+03  0.00000000000E+00 0.  1.
         11   -1    0    0    0    0 -0.00000000000E+00 -0.00000000000E+00 -0.50000000000E+03  0.50000000000E+03  0.00000000000E+00 0. -1.
        -11    1    1    2    0    0 -0.69383866269E+01  0.40130371152E+01  0.49530148621E+03  0.49536633709E+03  0.00000000000E+00 0.  1.
         11    1    1    2    0    0 -0.18532666288E+00  0.90131108306E+01 -0.47625073427E+03  0.47633604987E+03  0.00000000000E+00 0. -1.
        -15    1    1    2    0    0  0.34186414065E+01 -0.61387093648E+01 -0.18937161603E+02  0.20276702895E+02  0.17770000000E+01 0. -1.
         15    1    1    2    0    0  0.37050718833E+01 -0.68874385810E+01 -0.11359033869E+00  0.80209101499E+01  0.17770000000E+01 0.  1.
</event>
<event>
 6    1  0.4028964E-003  0.5121257E+03  0.7546771E-02  0.9373079E-01
        -11   -1    0    0    0    0  0.00000000000E+00  0.00000000000E+00  0.50000000000E+03  0.50000000000E+03  0.00000000000E+00 0.  1.
         11   -1    0    0    0    0 -0.00000000000E+00 -0.00000000000E+00 -0.50000000000E+03  0.50000000000E+03  0.00000000000E+00 0.  1.
        -11    1    1    2    0    0  0.29990337420E+01 -0.78311424336E+01  0.47781129535E+03  0.47788487626E+03  0.00000000000E+00 0.  1.
         11    1    1    2    0    0 -0.99260391184E+01  0.96546144070E+01 -0.48767773991E+03  0.48787428281E+03  0.00000000000E+00 0.  1.
        -15    1    1    2    0    0  0.19339593090E+01  0.88262447626E+01  0.17731581507E+02  0.19980227901E+02  0.17770000000E+01 0. -1.
         15    1    1    2    0    0  0.49930460675E+01 -0.10649716736E+02 -0.78651369495E+01  0.14260613024E+02  0.17770000000E+01 0.  1.
</event>
<event>
 6    1  0.4028964E-003  0.4880632E+03  0.7546771E-02  0.9426923E-01
        -11   -1    0    0    0    0  0.00000000000E+00  0.00000000000E+00  0.50000000000E+03  0.50000000000E+03  0.00000000000E+00 0.  1.
         11   -1    0    0    0    0 -0.00000000000E+00 -0.00000000000E+00 -0.50000000000E+03  0.50000000000E+03  0.00000000000E+00 0. -1.
        -11    1    1    2    0    0  0.19944113750E+01  0.13583188092E+02  0.49054807288E+03  0.49074014761E+03  0.00000000000E+00 0.  1.
         11    1    1    2    0    0 -0.47598165074E+01  0.65624403125E+01 -0.48554317961E+03  0.48561085319E+03  0.00000000000E+00 0. -1.
        -15    1    1    2    0    0  0.45802422077E+00 -0.11350146340E+02 -0.78908212589E+01  0.13944834071E+02  0.17770000000E+01 0.  1.
         15    1    1    2    0    0  0.23073809116E+01 -0.87954820652E+01  0.28859279875E+01  0.97041651253E+01  0.17770000000E+01 0. -1.
</event>
<event>
 6    1  0.4028964E-003  0.5160514E+03  0.7546771E-02  0.9364593E-01
        -11   -1    0    0    0    0  0.00000000000E+00  0.00000000000E+00  0.50000000000E+03  0.50000000000E+03  0.00000000000E+00 0. -1.
         11   -1    0    0    0    0 -0.00000000000E+00 -0.00000000000E+00 -0.50000000000E+03  0.50000000000E+03  0.00000000000E+00 0. -1.
        -11    1    1    2    0    0 -0.71786240723E+01  0.49142521288E+01  0.48387037687E+03  0.48394857591E+03  0.00000000000E+00 0. -1.
         11    1    1    2    0    0 -0.98433425817E+01  0.57784543299E+01 -0.46958407961E+03  0.46972277968E+03  0.00000000000E+00 0. -1.
        -15    1    1    2    0    0  0.16828254616E+02 -0.55919573426E+01  0.10684748677E+02  0.20779358114E+02  0.17770000000E+01 0. -1.
         15    1    1    2    0    0  0.19371203790E+00 -0.51007491160E+01 -0.24971045937E+02  0.25549286293E+02  0.17770000000E+01 0. -1.
</event>
<event>
 6    1  0.4028964E-003  0.5016403E+03  0.7546771E-02  0.9396147E-01
        -11   -1    0    0    0    0  0.00000000000E+00  0.00000000000E+00  0.50000000000E+03  0.50000000000E+03  0.00000000000E+00 0. -1.
         11   -1    0    0    0    0 -0.00000000000E+00 -0.00000000000E+00 -0.50000000000E+03  0.50000000000E+03  0.00000000000E+00 0.  1.
        -11    1    1    2    0    0 -0.96824634225E+01  0.60716285022E+01  0.49822859827E+03  0.49835966019E+03  0.00000000000E+00 0. -1.
         11    1    1    2    0    0 -0.51988944564E+01 -0.31693484153E+01 -0.31068776243E+03  0.31074741994E+03  0.00000000000E+00 0.  1.
        -15    1    1    2    0    0  0.13907026342E+02  0.13174409524E+02 -0.92333633636E+02  0.94316637331E+02  0.17770000000E+01 0. -1.
         15    1    1    2    0    0  0.97433153697E+00 -0.16076689611E+02 -0.95207202198E+02  0.96576282545E+02  0.17770000000E+01 0.  1.
</event>
<event>
 6    1  0.4028964E-003  0.5067817E+03  0.7546771E-02  0.9384762E-01
        -11   -1    0    0    0    0  0.00000000000E+00  0.00000000000E+00  0.50000000000E+03  0.50000000000E+03  0.00000000000E+00 0. -1.
         11   -1    0    0    0    0 -0.00000000000E+00 -0.00000000000E+00 -0.50000000000E+03  0.50000000000E+03  0.00000000000E+00 0.  1.
        -11    1    1    2    0    0 -0.43005209545E+01 -0.80227429223E+01  0.46325394855E+03  0.46334337130E+03  0.00000000000E+00 0. -1.
         11    1    1    2    0    0 -0.18427317268E+00 -0.10365388499E+02 -0.49310930169E+03  0.49321826675E+03  0.00000000000E+00 0.  1.
        -15    1    1    2    0    0 -0.34217586059E+00 -0.53862428736E+01  0.11225259905E+01  0.57919332017E+01  0.17770000000E+01 0. -1.
         15    1    1    2    0    0  0.48269699878E+01  0.23774374295E+02  0.28732827156E+02  0.37646428752E+02  0.17770000000E+01 0. -1.
</event>
<event>
 6    1  0.4028964E-003  0.5050830E+03  0.7546771E-02  0.9388507E-01
        -11   -1    0    0    0    0  0.00000000000E+00  0.00000000000E+00  0.50000000000E+03  0.50000000000E+03  0.00000000000E+00 0. -1.
         11   -1    0    0    0    0 -0.00000000000E+00 -0.00000000000E+00 -0.50000000000E+03  0.50000000000E+03  0.00000000000E+00 0. -1.
        -11    1    1    2    0    0  0.87199977844E+01  0.25752809742E+01  0.48310698988E+03  0.48319254351E+03  0.00000000000E+00 0. -1.
         11    1    1    2    0    0 -0.44510896072E+01  0.53423418369E+01 -0.49486819143E+03  0.49491704325E+03  0.00000000000E+00 0. -1.
        -15    1    1    2    0    0 -0.52427917393E+01  0.37062542586E+01  0.43752299415E+01  0.79701663654E+01  0.17770000000E+01 0. -1.
         15    1    1    2    0    0  0.97388356210E+00 -0.11623877070E+02  0.73859716058E+01  0.13920246869E+02  0.17770000000E+01 0. -1.
</event>
<event>
 6    1  0.4028964E-003  0.4863318E+03  0.7546771E-02  0.9430924E-01
        -11   -1    0    0    0    0  0.00000000000E+00  0.00000000000E+00  0.50000000000E+03  0.50000000000E+03  0.00000000000E+00 0. -1.
         11   -1    0    0    0    0 -0.00000000000E+00 -0.00000000000E+00 -0.50000000000E+03  0.50000000000E+03  0.00000000000E+00 0. -1.
        -11    1    1    2    0    0 -0.26651631303E+01  0.90590299307E+01  0.48717359977E+03  0.48726510795E+03  0.00000000000E+00 0. -1.
         11    1    1    2    0    0 -0.14531001646E+02  0.74843173563E+01 -0.48541754332E+03  0.48569265630E+03  0.00000000000E+00 0. -1.
        -15    1    1    2    0    0  0.12759484783E+02 -0.17734211501E+02 -0.24974017914E+01  0.22061311253E+02  0.17770000000E+01 0. -1.
         15    1    1    2    0    0  0.44366799933E+01  0.11908642144E+01  0.74134534449E+00  0.49809244985E+01  0.17770000000E+01 0.  1.
</event>
<event>
 6    1  0.4028964E-003  0.5185133E+03  0.7546771E-02  0.9359312E-01
        -11   -1    0    0    0    0  0.00000000000E+00  0.00000000000E+00  0.50000000000E+03  0.50000000000E+03  0.00000000000E+00 0.  1.
         11   -1    0    0    0    0 -0.00000000000E+00 -0.00000000000E+00 -0.50000000000E+03  0.50000000000E+03  0.00000000000E+00 0. -1.
        -11    1    1    2    0    0 -0.63724192047E+01 -0.92754262825E+01  0.38113976620E+03  0.38130586494E+03  0.00000000000E+00 0.  1.
         11    1    1    2    0    0  0.14447310120E+02  0.79537900035E+01 -0.48120415187E+03  0.48148668032E+03  0.00000000000E+00 0. -1.
        -15    1    1    2    0    0  0.77862717909E+01  0.88416853375E+01  0.11406406692E+03  0.11468465686E+03  0.17770000000E+01 0. -1.
         15    1    1    2    0    0 -0.15861162707E+02 -0.75200490586E+01 -0.13999681253E+02  0.22522797882E+02  0.17770000000E+01 0. -1.
</event>
<event>
 6    1  0.4028964E-003  0.5008208E+03  0.7546771E-02  0.9397975E-01
        -11   -1    0    0    0    0  0.00000000000E+00  0.00000000000E+00  0.50000000000E+03  0.50000000000E+03  0.00000000000E+00 0. -1.
         11   -1    0    0    0    0 -0.00000000000E+00 -0.00000000000E+00 -0.50000000000E+03  0.50000000000E+03  0.00000000000E+00 0. -1.
        -11    1    1    2    0    0 -0.39310037926E+01  0.13245036815E+02  0.49898800696E+03  0.49917924124E+03  0.00000000000E+00 0. -1.
         11    1    1    2    0    0  0.73186106185E+01 -0.18804993431E+01 -0.36516407520E+03  0.36524224859E+03  0.00000000000E+00 0. -1.
        -15    1    1    2    0    0 -0.43952976889E+01  0.29443097446E+01 -0.17712265595E+02  0.18570667278E+02  0.17770000000E+01 0.  1.
         15    1    1    2    0    0  0.10076908630E+01 -0.14308847217E+02 -0.11611166617E+03  0.11700784289E+03  0.17770000000E+01 0. -1.
</event>
<event>
 6    1  0.4028964E-003  0.5108765E+03  0.7546771E-02  0.9375796E-01
        -11   -1    0    0    0    0  0.00000000000E+00  0.00000000000E+00  0.50000000000E+03  0.50000000000E+03  0.00000000000E+00 0. -1.
         11   -1    0    0    0    0 -0.00000000000E+00 -0.00000000000E+00 -0.50000000000E+03  0.50000000000E+03  0.00000000000E+00 0. -1.
        -11    1    1    2    0    0 -0.22585984649E+02  0.23978423269E+02  0.48801306113E+03  0.48912354198E+03  0.00000000000E+00 0. -1.
         11    1    1    2    0    0 -0.62540800155E+01  0.19732966758E+01 -0.45845790010E+03  0.45850480213E+03  0.00000000000E+00 0. -1.
        -15    1    1    2    0    0  0.23809636151E+02 -0.19054594939E+02 -0.12093737884E+02  0.32854110655E+02  0.17770000000E+01 0.  1.
         15    1    1    2    0    0  0.50304285140E+01 -0.68971250053E+01 -0.17461423149E+02  0.19517545229E+02  0.17770000000E+01 0. -1.
</event>
<event>
 6    1  0.4028964E-003  0.5194192E+03  0.7546771E-02  0.9357376E-01
        -11   -1    0    0    0    0  0.00000000000E+00  0.00000000000E+00  0.50000000000E+03  0.50000000000E+03  0.00000000000E+00 0.  1.
         11   -1    0    0    0    0 -0.00000000000E+00 -0.00000000000E+00 -0.50000000000E+03  0.50000000000E+03  0.00000000000E+00 0.  1.
        -11    1    1    2    0    0 -0.26668148446E+01  0.40176337712E+01  0.34520574320E+03  0.34523942188E+03  0.00000000000E+00 0.  1.
         11    1    1    2    0    0  0.10755250427E+02  0.67271689881E+01 -0.48041334145E+03  0.48058080367E+03  0.00000000000E+00 0.  1.
        -15    1    1    2    0    0  0.23542382315E+02  0.14105744546E+02 -0.53074490968E+01  0.28009686524E+02  0.17770000000E+01 0. -1.
         15    1    1    2    0    0 -0.31630817897E+02 -0.24850547305E+02  0.14051504735E+03  0.14617008792E+03  0.17770000000E+01 0.  1.
</event>
<event>
 6    1  0.4028964E-003  0.5009787E+03  0.7546771E-02  0.9397622E-01
        -11   -1    0    0    0    0  0.00000000000E+00  0.00000000000E+00  0.50000000000E+03  0.50000000000E+03  0.00000000000E+00 0.  1.
         11   -1    0    0    0    0 -0.00000000000E+00 -0.00000000000E+00 -0.50000000000E+03  0.50000000000E+03  0.00000000000E+00 0. -1.
        -11    1    1    2    0    0 -0.80947882987E+01 -0.11697520074E+02  0.36506010775E+03  0.36533715913E+03  0.00000000000E+00 0.  1.
         11    1    1    2    0    0  0.20703162248E+02  0.17187738290E+02 -0.49829529480E+03  0.49902128220E+03  0.00000000000E+00 0. -1.
        -15    1    1    2    0    0  0.27865515199E+01  0.54545734280E+01  0.28889525220E+02  0.29585125267E+02  0.17770000000E+01 0.  1.
         15    1    1    2    0    0 -0.15394925469E+02 -0.10944791644E+02  0.10434566183E+03  0.10605643340E+03  0.17770000000E+01 0. -1.
</event>
<event>
 6    1  0.4028964E-003  0.5001100E+03  0.7546771E-02  0.9399564E-01
        -11   -1    0    0    0    0  0.00000000000E+00  0.00000000000E+00  0.50000000000E+03  0.50000000000E+03  0.00000000000E+00 0.  1.
         11   -1    0    0    0    0 -0.00000000000E+00 -0.00000000000E+00 -0.50000000000E+03  0.50000000000E+03  0.00000000000E+00 0.  1.
        -11    1    1    2    0    0  0.56335207069E+01  0.41340708225E+01  0.49984111300E+03  0.49988995323E+03  0.00000000000E+00 0.  1.
         11    1    1    2    0    0  0.27598326703E+01  0.15203572122E+01 -0.16706279363E+03  0.16709250486E+03  0.00000000000E+00 0.  1.
        -15    1    1    2    0    0 -0.17612026012E+01  0.13032714657E+01 -0.66273018572E+02  0.66333031521E+02  0.17770000000E+01 0. -1.
         15    1    1    2    0    0 -0.66321507760E+01 -0.69576995004E+01 -0.26650530079E+03  0.26668451039E+03  0.17770000000E+01 0.  1.
</event>
<event>
 6    1  0.4028964E-003  0.5103155E+03  0.7546771E-02  0.9377019E-01
        -11   -1    0    0    0    0  0.00000000000E+00  0.00000000000E+00  0.50000000000E+03  0.50000000000E+03  0.00000000000E+00 0.  1.
         11   -1    0    0    0    0 -0.00000000000E+00 -0.00000000000E+00 -0.50000000000E+03  0.50000000000E+03  0.00000000000E+00 0. -1.
        -11    1    1    2    0    0  0.35340020040E+01 -0.76532744022E+01  0.48961192469E+03  0.48968448881E+03  0.00000000000E+00 0.  1.
         11    1    1    2    0    0  0.35906707403E+00 -0.13723290995E+02 -0.18523396320E+03  0.18574196824E+03  0.00000000000E+00 0. -1.
        -15    1    1    2    0    0  0.10806665519E+02  0.11792303968E+02 -0.30639792106E+03  0.30682028325E+03  0.17770000000E+01 0. -1.
         15    1    1    2    0    0 -0.14699734597E+02  0.95842614285E+01  0.20199595673E+01  0.17753259701E+02  0.17770000000E+01 0.  1.
</event>
<event>
 6    1  0.4028964E-003  0.5017074E+03  0.7546771E-02  0.9395997E-01
        -11   -1    0    0    0    0  0.00000000000E+00  0.00000000000E+00  0.50000000000E+03  0.50000000000E+03  0.00000000000E+00 0. -1.
         11   -1    0    0    0    0 -0.00000000000E+00 -0.00000000000E+00 -0.50000000000E+03  0.50000000000E+03  0.00000000000E+00 0. -1.
        -11    1    1    2    0    0 -0.13876488027E+02 -0.13883934658E+02  0.49790579484E+03  0.49829258584E+03  0.00000000000E+00 0. -1.
         11    1    1    2    0    0  0.12344429073E+01 -0.21283570431E+01 -0.10920666077E+03  0.10923437421E+03  0.00000000000E+00 0. -1.
        -15    1    1    2    0    0 -0.27179524541E+01 -0.37194450677E+01 -0.26364793414E+01  0.55973466457E+01  0.17770000000E+01 0. -1.
         15    1    1    2    0    0  0.15359997574E+02  0.19731736769E+02 -0.38606265473E+03  0.38687569331E+03  0.17770000000E+01 0.  1.
</event>
<event>
 6    1  0.4028964E-003  0.5031332E+03  0.7546771E-02  0.9392826E-01
        -11   -1    0    0    0    0  0.00000000000E+00  0.00000000000E+00  0.50000000000E+03  0.50000000000E+03  0.00000000000E+00 0. -1.
         11   -1    0    0    0    0 -0.00000000000E+00 -0.00000000000E+00 -0.50000000000E+03  0.50000000000E+03  0.00000000000E+00 0.  1.
        -11    1    1    2    0    0  0.36393592801E+00 -0.63582889311E+01  0.43836757193E+03  0.43841383236E+03  0.00000000000E+00 0. -1.
         11    1    1    2    0    0 -0.33086333121E+01 -0.58284158390E+01 -0.49682162557E+03  0.49686682836E+03  0.00000000000E+00 0.  1.
        -15    1    1    2    0    0  0.37133457474E+01  0.58170754261E+01  0.13805293018E+01  0.72588493101E+01  0.17770000000E+01 0. -1.
         15    1    1    2    0    0 -0.76864836331E+00  0.63696293439E+01  0.57073524340E+02  0.57460489972E+02  0.17770000000E+01 0. -1.
</event>
<event>
 6    1  0.4028964E-003  0.5050325E+03  0.7546771E-02  0.9388619E-01
        -11   -1    0    0    0    0  0.00000000000E+00  0.00000000000E+00  0.50000000000E+03  0.50000000000E+03  0.00000000000E+00 0.  1.
         11   -1    0    0    0    0 -0.00000000000E+00 -0.00000000000E+00 -0.50000000000E+03  0.50000000000E+03  0.00000000000E+00 0.  1.
        -11    1    1    2    0    0 -0.58709099039E+01 -0.43666235932E+01  0.49491346681E+03  0.49496754905E+03  0.00000000000E+00 0.  1.
         11    1    1    2    0    0  0.82538690094E+01  0.57171115194E+01 -0.24166511826E+03  0.24187360563E+03  0.00000000000E+00 0.  1.
        -15    1    1    2    0    0  0.13839233957E+01  0.25430985531E+02 -0.21366895616E+03  0.21518882597E+03  0.17770000000E+01 0.  1.
         15    1    1    2    0    0 -0.37668825012E+01 -0.26781473457E+02 -0.39579392398E+02  0.47970019345E+02  0.17770000000E+01 0. -1.
</event>
<event>
 6    1  0.4028964E-003  0.5030415E+03  0.7546771E-02  0.9393030E-01
        -11   -1    0    0    0    0  0.00000000000E+00  0.00000000000E+00  0.50000000000E+03  0.50000000000E+03  0.00000000000E+00 0. -1.
         11   -1    0    0    0    0 -0.00000000000E+00 -0.00000000000E+00 -0.50000000000E+03  0.50000000000E+03  0.00000000000E+00 0. -1.
        -11    1    1    2    0    0  0.64847230064E+01 -0.31689066156E+01  0.38996354780E+03  0.39003033499E+03  0.00000000000E+00 0. -1.
         11    1    1    2    0    0 -0.15198845150E+02  0.32535615737E+00 -0.49672591029E+03  0.49695848992E+03  0.00000000000E+00 0. -1.
        -15    1    1    2    0    0  0.18780497271E+02 -0.90998265607E+01  0.52696731109E+02  0.56706411628E+02  0.17770000000E+01 0.  1.
         15    1    1    2    0    0 -0.10066375128E+02  0.11943377019E+02  0.54065631382E+02  0.56304763462E+02  0.17770000000E+01 0. -1.
</event>
<event>
 6    1  0.4028964E-003  0.5009760E+03  0.7546771E-02  0.9397629E-01
        -11   -1    0    0    0    0  0.00000000000E+00  0.00000000000E+00  0.50000000000E+03  0.50000000000E+03  0.00000000000E+00 0. -1.
         11   -1    0    0    0    0 -0.00000000000E+00 -0.00000000000E+00 -0.50000000000E+03  0.50000000000E+03  0.00000000000E+00 0. -1.
        -11    1    1    2    0    0 -0.77479178079E+00  0.68718296381E+01  0.39511923338E+03  0.39517974509E+03  0.00000000000E+00 0. -1.
         11    1    1    2    0    0 -0.53540857959E+01  0.70446170438E+01 -0.49894558982E+03  0.49902404197E+03  0.00000000000E+00 0. -1.
        -15    1    1    2    0    0  0.26167221929E+01  0.20140627944E+01  0.14626814182E+02  0.15099837949E+02  0.17770000000E+01 0. -1.
         15    1    1    2    0    0  0.35121553838E+01 -0.15930509476E+02  0.89199542262E+02  0.90696374990E+02  0.17770000000E+01 0.  1.
</event>
<event>
 6    1  0.4028964E-003  0.5013559E+03  0.7546771E-02  0.9396781E-01
        -11   -1    0    0    0    0  0.00000000000E+00  0.00000000000E+00  0.50000000000E+03  0.50000000000E+03  0.00000000000E+00 0. -1.
         11   -1    0    0    0    0 -0.00000000000E+00 -0.00000000000E+00 -0.50000000000E+03  0.50000000000E+03  0.00000000000E+00 0.  1.
        -11    1    1    2    0    0  0.65785563551E+01  0.13869507467E+02  0.49840778716E+03  0.49864412455E+03  0.00000000000E+00 0. -1.
         11    1    1    2    0    0 -0.51445561160E+00 -0.34416764726E+01 -0.69447977753E+02  0.69535109229E+02  0.00000000000E+00 0.  1.
        -15    1    1    2    0    0 -0.11157458851E+02  0.13738630888E+02 -0.29865226577E+03  0.29918150419E+03  0.17770000000E+01 0.  1.
         15    1    1    2    0    0  0.50933581077E+01 -0.24166461882E+02 -0.13030754364E+03  0.13263926204E+03  0.17770000000E+01 0. -1.
</event>
<event>
 6    1  0.4028964E-003  0.5606863E+03  0.7546771E-02  0.9273403E-01
        -11   -1    0    0    0    0  0.00000000000E+00  0.00000000000E+00  0.50000000000E+03  0.50000000000E+03  0.00000000000E+00 0.  1.
         11   -1    0    0    0    0 -0.00000000000E+00 -0.00000000000E+00 -0.50000000000E+03  0.50000000000E+03  0.00000000000E+00 0. -1.
        -11    1    1    2    0    0  0.20882203230E+01  0.50718831154E+01  0.40328755839E+03  0.40332485594E+03  0.00000000000E+00 0.  1.
         11    1    1    2    0    0 -0.11247684382E+01 -0.14917829061E+02 -0.43905887695E+03  0.43931367399E+03  0.00000000000E+00 0. -1.
        -15    1    1    2    0    0 -0.41508720051E+02  0.57925534864E+02 -0.19185413509E+02  0.73821265568E+02  0.17770000000E+01 0. -1.
         15    1    1    2    0    0  0.40545268166E+02 -0.48079588918E+02  0.54956732063E+02  0.83540204508E+02  0.17770000000E+01 0.  1.
</event>
<event>
 6    1  0.4028964E-003  0.5009926E+03  0.7546771E-02  0.9397591E-01
        -11   -1    0    0    0    0  0.00000000000E+00  0.00000000000E+00  0.50000000000E+03  0.50000000000E+03  0.00000000000E+00 0. -1.
         11   -1    0    0    0    0 -0.00000000000E+00 -0.00000000000E+00 -0.50000000000E+03  0.50000000000E+03  0.00000000000E+00 0. -1.
        -11    1    1    2    0    0 -0.24293546325E+01 -0.16319042799E+02  0.49873454277E+03  0.49900737176E+03  0.00000000000E+00 0. -1.
         11    1    1    2    0    0 -0.27300896726E+01 -0.64439075185E+01 -0.31545743722E+03  0.31553505674E+03  0.00000000000E+00 0. -1.
        -15    1    1    2    0    0  0.30611017445E+01 -0.19367411902E-01 -0.57178108546E+02  0.57287560123E+02  0.17770000000E+01 0. -1.
         15    1    1    2    0    0  0.20983425606E+01  0.22782317729E+02 -0.12609899701E+03  0.12817001138E+03  0.17770000000E+01 0.  1.
</event>
<event>
 6    1  0.4028964E-003  0.5157052E+03  0.7546771E-02  0.9365338E-01
        -11   -1    0    0    0    0  0.00000000000E+00  0.00000000000E+00  0.50000000000E+03  0.50000000000E+03  0.00000000000E+00 0.  1.
         11   -1    0    0    0    0 -0.00000000000E+00 -0.00000000000E+00 -0.50000000000E+03  0.50000000000E+03  0.00000000000E+00 0. -1.
        -11    1    1    2    0    0  0.10091773920E+02 -0.58314247878E+01  0.48415452625E+03  0.48429480144E+03  0.00000000000E+00 0.  1.
         11    1    1    2    0    0  0.12185647648E+02 -0.77986878543E+01 -0.46167034713E+03  0.46189697873E+03  0.00000000000E+00 0. -1.
        -15    1    1    2    0    0 -0.15654592285E+02  0.10951947571E+02 -0.34638766403E+02  0.39598147458E+02  0.17770000000E+01 0. -1.
         15    1    1    2    0    0 -0.66228292826E+01  0.26781650714E+01  0.12154587284E+02  0.14210072375E+02  0.17770000000E+01 0.  1.
</event>
<event>
 6    1  0.4028964E-003  0.5109346E+03  0.7546771E-02  0.9375670E-01
        -11   -1    0    0    0    0  0.00000000000E+00  0.00000000000E+00  0.50000000000E+03  0.50000000000E+03  0.00000000000E+00 0. -1.
         11   -1    0    0    0    0 -0.00000000000E+00 -0.00000000000E+00 -0.50000000000E+03  0.50000000000E+03  0.00000000000E+00 0. -1.
        -11    1    1    2    0    0  0.24536521597E+02  0.16492657738E+01  0.48844672927E+03  0.48906540289E+03  0.00000000000E+00 0. -1.
         11    1    1    2    0    0  0.30522743201E+01 -0.16000928164E+02 -0.45891007237E+03  0.45919908602E+03  0.00000000000E+00 0. -1.
        -15    1    1    2    0    0 -0.33013489961E+02  0.88970104229E+01 -0.21282269663E+02  0.40313025747E+02  0.17770000000E+01 0.  1.
         15    1    1    2    0    0  0.54246940441E+01  0.54546519672E+01 -0.82543872383E+01  0.11422485335E+02  0.17770000000E+01 0. -1.
</event>
<event>
 6    1  0.4028964E-003  0.4504063E+03  0.7546771E-02  0.9518175E-01
        -11   -1    0    0    0    0  0.00000000000E+00  0.00000000000E+00  0.50000000000E+03  0.50000000000E+03  0.00000000000E+00 0.  1.
         11   -1    0    0    0    0 -0.00000000000E+00 -0.00000000000E+00 -0.50000000000E+03  0.50000000000E+03  0.00000000000E+00 0.  1.
        -11    1    1    2    0    0  0.69659979553E+01  0.13087122585E+02  0.48273443081E+03  0.48296203639E+03  0.00000000000E+00 0.  1.
         11    1    1    2    0    0  0.53437154448E+01  0.96037189736E+00 -0.12018171410E+03  0.12030428925E+03  0.00000000000E+00 0.  1.
        -15    1    1    2    0    0  0.55564414075E+01  0.71162572808E+02 -0.19936280472E+03  0.21176324385E+03  0.17770000000E+01 0.  1.
         15    1    1    2    0    0 -0.17866154808E+02 -0.85210067291E+02 -0.16318991199E+03  0.18497043050E+03  0.17770000000E+01 0. -1.
</event>
<event>
 6    1  0.4028964E-003  0.5095485E+03  0.7546771E-02  0.9378694E-01
        -11   -1    0    0    0    0  0.00000000000E+00  0.00000000000E+00  0.50000000000E+03  0.50000000000E+03  0.00000000000E+00 0.  1.
         11   -1    0    0    0    0 -0.00000000000E+00 -0.00000000000E+00 -0.50000000000E+03  0.50000000000E+03  0.00000000000E+00 0.  1.
        -11    1    1    2    0    0  0.47319795501E+00  0.85488543116E+01  0.49037676160E+03  0.49045150131E+03  0.00000000000E+00 0.  1.
         11    1    1    2    0    0 -0.14703153984E+00 -0.66830377972E+01 -0.45241923941E+03  0.45246862079E+03  0.00000000000E+00 0.  1.
        -15    1    1    2    0    0 -0.64693989140E+00 -0.97099062480E+01  0.65409349498E+01  0.11859273569E+02  0.17770000000E+01 0.  1.
         15    1    1    2    0    0  0.32077347622E+00  0.78440897336E+01 -0.44498457132E+02  0.45220604325E+02  0.17770000000E+01 0.  1.
</event>
<event>
 6    1  0.4028964E-003  0.5001286E+03  0.7546771E-02  0.9399522E-01
        -11   -1    0    0    0    0  0.00000000000E+00  0.00000000000E+00  0.50000000000E+03  0.50000000000E+03  0.00000000000E+00 0.  1.
         11   -1    0    0    0    0 -0.00000000000E+00 -0.00000000000E+00 -0.50000000000E+03  0.50000000000E+03  0.00000000000E+00 0. -1.
        -11    1    1    2    0    0 -0.22794745460E+01  0.81458800917E+00  0.85239539448E+02  0.85273903646E+02  0.00000000000E+00 0.  1.
         11    1    1    2    0    0  0.66848041989E+01 -0.42299987558E+01 -0.49980883262E+03  0.49987143213E+03  0.00000000000E+00 0. -1.
        -15    1    1    2    0    0  0.28846429843E+01  0.30191243129E+01  0.49382105658E+02  0.49590184160E+02  0.17770000000E+01 0.  1.
         15    1    1    2    0    0 -0.72899726373E+01  0.39628643374E+00  0.36518718751E+03  0.36526448006E+03  0.17770000000E+01 0. -1.
</event>
<event>
 6    1  0.4028964E-003  0.5050302E+03  0.7546771E-02  0.9388624E-01
        -11   -1    0    0    0    0  0.00000000000E+00  0.00000000000E+00  0.50000000000E+03  0.50000000000E+03  0.00000000000E+00 0. -1.
         11   -1    0    0    0    0 -0.00000000000E+00 -0.00000000000E+00 -0.50000000000E+03  0.50000000000E+03  0.00000000000E+00 0. -1.
        -11    1    1    2    0    0 -0.50081527617E+01 -0.21429332606E+02  0.49448030318E+03  0.49496976486E+03  0.00000000000E+00 0. -1.
         11    1    1    2    0    0 -0.38760975170E+01  0.20857844229E+01 -0.25785296667E+03  0.25789053307E+03  0.00000000000E+00 0. -1.
        -15    1    1    2    0    0  0.15080756343E+02  0.11728200055E+02 -0.12742776002E+02  0.23032932024E+02  0.17770000000E+01 0.  1.
         15    1    1    2    0    0 -0.61965060644E+01  0.76153481284E+01 -0.22388456051E+03  0.22410677004E+03  0.17770000000E+01 0. -1.
</event>
<event>
 6    1  0.4028964E-003  0.5073442E+03  0.7546771E-02  0.9383525E-01
        -11   -1    0    0    0    0  0.00000000000E+00  0.00000000000E+00  0.50000000000E+03  0.50000000000E+03  0.00000000000E+00 0.  1.
         11   -1    0    0    0    0 -0.00000000000E+00 -0.00000000000E+00 -0.50000000000E+03  0.50000000000E+03  0.00000000000E+00 0. -1.
        -11    1    1    2    0    0 -0.31334682738E+01 -0.30268201099E+02  0.49171508890E+03  0.49265577361E+03  0.00000000000E+00 0.  1.
         11    1    1    2    0    0 -0.71425473273E+01 -0.91530686890E+01 -0.13877717331E+03  0.13926197787E+03  0.00000000000E+00 0. -1.
        -15    1    1    2    0    0  0.83259736093E+01  0.27927850042E+02 -0.21071247910E+02  0.36006136449E+02  0.17770000000E+01 0.  1.
         15    1    1    2    0    0  0.19500419919E+01  0.11493419746E+02 -0.33186666768E+03  0.33207611207E+03  0.17770000000E+01 0. -1.
</event>
<event>
 6    1  0.4028964E-003  0.4965406E+03  0.7546771E-02  0.9407584E-01
        -11   -1    0    0    0    0  0.00000000000E+00  0.00000000000E+00  0.50000000000E+03  0.50000000000E+03  0.00000000000E+00 0.  1.
         11   -1    0    0    0    0 -0.00000000000E+00 -0.00000000000E+00 -0.50000000000E+03  0.50000000000E+03  0.00000000000E+00 0.  1.
        -11    1    1    2    0    0 -0.18385125668E+00  0.14647762548E+02  0.97064736653E+01  0.17572887639E+02  0.00000000000E+00 0.  1.
         11    1    1    2    0    0 -0.43492256182E+01 -0.16215198367E+02 -0.49045103328E+03  0.49073828511E+03  0.00000000000E+00 0.  1.
        -15    1    1    2    0    0 -0.21148661532E+02 -0.44919420492E+02  0.25236793047E+03  0.25721148940E+03  0.17770000000E+01 0.  1.
         15    1    1    2    0    0  0.25681738407E+02  0.46486856312E+02  0.22837662915E+03  0.23447733785E+03  0.17770000000E+01 0. -1.
</event>
<event>
 6    1  0.4028964E-003  0.5112527E+03  0.7546771E-02  0.9374977E-01
        -11   -1    0    0    0    0  0.00000000000E+00  0.00000000000E+00  0.50000000000E+03  0.50000000000E+03  0.00000000000E+00 0. -1.
         11   -1    0    0    0    0 -0.00000000000E+00 -0.00000000000E+00 -0.50000000000E+03  0.50000000000E+03  0.00000000000E+00 0. -1.
        -11    1    1    2    0    0  0.60541225356E+01  0.82906732466E+01  0.48863948152E+03  0.48874730747E+03  0.00000000000E+00 0. -1.
         11    1    1    2    0    0 -0.45509565336E+01 -0.69787359545E+01 -0.48214379708E+03  0.48221577641E+03  0.00000000000E+00 0. -1.
        -15    1    1    2    0    0 -0.26371749649E+01 -0.85571932588E+01  0.83575790480E+01  0.12376877829E+02  0.17770000000E+01 0.  1.
         15    1    1    2    0    0  0.11340089630E+01  0.72452559667E+01 -0.14853263489E+02  0.16660038284E+02  0.17770000000E+01 0.  1.
</event>
<event>
 6    1  0.4028964E-003  0.5004511E+03  0.7546771E-02  0.9398801E-01
        -11   -1    0    0    0    0  0.00000000000E+00  0.00000000000E+00  0.50000000000E+03  0.50000000000E+03  0.00000000000E+00 0.  1.
         11   -1    0    0    0    0 -0.00000000000E+00 -0.00000000000E+00 -0.50000000000E+03  0.50000000000E+03  0.00000000000E+00 0.  1.
        -11    1    1    2    0    0 -0.91196344987E+00 -0.17543821125E+00  0.19543704304E+02  0.19565756663E+02  0.00000000000E+00 0.  1.
         11    1    1    2    0    0  0.17380787507E+02  0.42276779374E+01 -0.49922858552E+03  0.49954894218E+03  0.00000000000E+00 0.  1.
        -15    1    1    2    0    0 -0.11058188345E+02  0.10683088282E+01  0.55379492459E+02  0.56510801863E+02  0.17770000000E+01 0. -1.
         15    1    1    2    0    0 -0.54106357130E+01 -0.51205485544E+01  0.42430538875E+03  0.42437449929E+03  0.17770000000E+01 0.  1.
</event>
<event>
 6    1  0.4028964E-003  0.5124991E+03  0.7546771E-02  0.9372268E-01
        -11   -1    0    0    0    0  0.00000000000E+00  0.00000000000E+00  0.50000000000E+03  0.50000000000E+03  0.00000000000E+00 0. -1.
         11   -1    0    0    0    0 -0.00000000000E+00 -0.00000000000E+00 -0.50000000000E+03  0.50000000000E+03  0.00000000000E+00 0.  1.
        -11    1    1    2    0    0  0.20432799732E+02 -0.34683092826E+02  0.48583611717E+03  0.48750092203E+03  0.00000000000E+00 0. -1.
         11    1    1    2    0    0  0.12610326775E+01  0.10801737320E+02 -0.37393725707E+03  0.37409536212E+03  0.00000000000E+00 0.  1.
        -15    1    1    2    0    0 -0.35168204973E+00  0.18866781290E+02  0.48798495455E+01  0.19571657495E+02  0.17770000000E+01 0. -1.
         15    1    1    2    0    0 -0.21342150360E+02  0.50145742161E+01 -0.11677870965E+03  0.11883205835E+03  0.17770000000E+01 0.  1.
</event>
<event>
 6    1  0.4028964E-003  0.5028973E+03  0.7546771E-02  0.9393350E-01
        -11   -1    0    0    0    0  0.00000000000E+00  0.00000000000E+00  0.50000000000E+03  0.50000000000E+03  0.00000000000E+00 0.  1.
         11   -1    0    0    0    0 -0.00000000000E+00 -0.00000000000E+00 -0.50000000000E+03  0.50000000000E+03  0.00000000000E+00 0. -1.
        -11    1    1    2    0    0 -0.73844239298E+01 -0.64822154543E+00  0.49704743981E+03  0.49710271306E+03  0.00000000000E+00 0.  1.
         11    1    1    2    0    0  0.79641529619E+01 -0.94615127961E+01 -0.47434570851E+03  0.47450690104E+03  0.00000000000E+00 0. -1.
        -15    1    1    2    0    0  0.12828197140E+00  0.28993653531E+01  0.99638772835E+00  0.35458839829E+01  0.17770000000E+01 0.  1.
         15    1    1    2    0    0 -0.70801100346E+00  0.72103689884E+01 -0.23698119035E+02  0.24844501913E+02  0.17770000000E+01 0. -1.
</event>
<event>
 6    1  0.4028964E-003  0.5024528E+03  0.7546771E-02  0.9394338E-01
        -11   -1    0    0    0    0  0.00000000000E+00  0.00000000000E+00  0.50000000000E+03  0.50000000000E+03  0.00000000000E+00 0. -1.
         11   -1    0    0    0    0 -0.00000000000E+00 -0.00000000000E+00 -0.50000000000E+03  0.50000000000E+03  0.00000000000E+00 0.  1.
        -11    1    1    2    0    0 -0.49509852503E+01 -0.81273111273E+01  0.44108473951E+03  0.44118738975E+03  0.00000000000E+00 0. -1.
         11    1    1    2    0    0  0.20502540917E+01 -0.83117998819E+01 -0.49747356108E+03  0.49754721739E+03  0.00000000000E+00 0.  1.
        -15    1    1    2    0    0  0.17234223774E+01  0.76657490285E+01  0.48831025702E+02  0.49491016286E+02  0.17770000000E+01 0.  1.
         15    1    1    2    0    0  0.11773087811E+01  0.87733619807E+01  0.75577958641E+01  0.11774376575E+02  0.17770000000E+01 0. -1.
</event>
<event>
 6    1  0.4028964E-003  0.5077713E+03  0.7546771E-02  0.9382587E-01
        -11   -1    0    0    0    0  0.00000000000E+00  0.00000000000E+00  0.50000000000E+03  0.50000000000E+03  0.00000000000E+00 0.  1.
         11   -1    0    0    0    0 -0.00000000000E+00 -0.00000000000E+00 -0.50000000000E+03  0.50000000000E+03  0.00000000000E+00 0.  1.
        -11    1    1    2    0    0  0.13509664171E+02  0.12151925955E+02  0.25340108053E+03  0.25405174265E+03  0.00000000000E+00 0.  1.
         11    1    1    2    0    0 -0.13636941849E+00  0.10314362841E+02 -0.49212056586E+03  0.49222866233E+03  0.00000000000E+00 0.  1.
        -15    1    1    2    0    0  0.13463735557E+02 -0.47241656222E+02  0.14582704209E+03  0.15388869417E+03  0.17770000000E+01 0. -1.
         15    1    1    2    0    0 -0.26837030309E+02  0.24775367426E+02  0.92892443239E+02  0.99830900862E+02  0.17770000000E+01 0.  1.
</event>
<event>
 6    1  0.4028964E-003  0.5331373E+03  0.7546771E-02  0.9328570E-01
        -11   -1    0    0    0    0  0.00000000000E+00  0.00000000000E+00  0.50000000000E+03  0.50000000000E+03  0.00000000000E+00 0. -1.
         11   -1    0    0    0    0 -0.00000000000E+00 -0.00000000000E+00 -0.50000000000E+03  0.50000000000E+03  0.00000000000E+00 0. -1.
        -11    1    1    2    0    0 -0.21494672458E+02  0.33537052936E+02  0.46516021832E+03  0.46686270313E+03  0.00000000000E+00 0. -1.
         11    1    1    2    0    0  0.20845971894E+02 -0.19338663563E+02 -0.29268559021E+03  0.29406358695E+03  0.00000000000E+00 0. -1.
        -15    1    1    2    0    0  0.50198845323E+02 -0.44223145639E+02 -0.11400822371E+02  0.67887754137E+02  0.17770000000E+01 0.  1.
         15    1    1    2    0    0 -0.49550144759E+02  0.30024756267E+02 -0.16107380574E+03  0.17118595579E+03  0.17770000000E+01 0. -1.
</event>
<event>
 6    1  0.4028964E-003  0.5045123E+03  0.7546771E-02  0.9389769E-01
        -11   -1    0    0    0    0  0.00000000000E+00  0.00000000000E+00  0.50000000000E+03  0.50000000000E+03  0.00000000000E+00 0.  1.
         11   -1    0    0    0    0 -0.00000000000E+00 -0.00000000000E+00 -0.50000000000E+03  0.50000000000E+03  0.00000000000E+00 0.  1.
        -11    1    1    2    0    0 -0.17248327290E+00  0.74157497579E+01  0.45853968229E+03  0.45859967655E+03  0.00000000000E+00 0.  1.
         11    1    1    2    0    0 -0.73954258652E+01  0.52221490383E+01 -0.49540498016E+03  0.49548769665E+03  0.00000000000E+00 0.  1.
        -15    1    1    2    0    0  0.98792084846E+01 -0.10003412935E+02  0.70290370400E+01  0.15818726919E+02  0.17770000000E+01 0. -1.
         15    1    1    2    0    0 -0.23112993466E+01 -0.26344858608E+01  0.29836260834E+02  0.30093899880E+02  0.17770000000E+01 0. -1.
</event>
<event>
 6    1  0.4028964E-003  0.5004819E+03  0.7546771E-02  0.9398732E-01
        -11   -1    0    0    0    0  0.00000000000E+00  0.00000000000E+00  0.50000000000E+03  0.50000000000E+03  0.00000000000E+00 0. -1.
         11   -1    0    0    0    0 -0.00000000000E+00 -0.00000000000E+00 -0.50000000000E+03  0.50000000000E+03  0.00000000000E+00 0.  1.
        -11    1    1    2    0    0 -0.49127214888E+01  0.48671718506E+01  0.49947024398E+03  0.49951811661E+03  0.00000000000E+00 0. -1.
         11    1    1    2    0    0 -0.11606315613E+01  0.84402265100E+01 -0.30368905541E+03  0.30380853652E+03  0.00000000000E+00 0.  1.
        -15    1    1    2    0    0 -0.55831346600E+00  0.52741209515E+00 -0.70407052019E+01  0.73019953564E+01  0.17770000000E+01 0.  1.
         15    1    1    2    0    0  0.66316665161E+01 -0.13834810456E+02 -0.18874048337E+03  0.18937135151E+03  0.17770000000E+01 0.  1.
</event>
<event>
 6    1  0.4028964E-003  0.5044685E+03  0.7546771E-02  0.9389866E-01
        -11   -1    0    0    0    0  0.00000000000E+00  0.00000000000E+00  0.50000000000E+03  0.50000000000E+03  0.00000000000E+00 0. -1.
         11   -1    0    0    0    0 -0.00000000000E+00 -0.00000000000E+00 -0.50000000000E+03  0.50000000000E+03  0.00000000000E+00 0.  1.
        -11    1    1    2    0    0  0.81757520162E+01 -0.68508526469E+01  0.16084418446E+03  0.16119748379E+03  0.00000000000E+00 0. -1.
         11    1    1    2    0    0  0.55927719946E+01 -0.10469048847E+02 -0.49538933757E+03  0.49553150844E+03  0.00000000000E+00 0.  1.
        -15    1    1    2    0    0 -0.57117145176E+01 -0.15938881943E+01  0.31430712570E+03  0.31436808229E+03  0.17770000000E+01 0. -1.
         15    1    1    2    0    0 -0.80568094932E+01  0.18913789688E+02  0.20238027400E+02  0.28902925486E+02  0.17770000000E+01 0.  1.
</event>
<event>
 6    1  0.4028964E-003  0.5081521E+03  0.7546771E-02  0.9381751E-01
        -11   -1    0    0    0    0  0.00000000000E+00  0.00000000000E+00  0.50000000000E+03  0.50000000000E+03  0.00000000000E+00 0. -1.
         11   -1    0    0    0    0 -0.00000000000E+00 -0.00000000000E+00 -0.50000000000E+03  0.50000000000E+03  0.00000000000E+00 0. -1.
        -11    1    1    2    0    0  0.13024841072E+02  0.21506277357E+01  0.49167066372E+03  0.49184785579E+03  0.00000000000E+00 0. -1.
         11    1    1    2    0    0 -0.10475614047E+02 -0.79644602055E+01 -0.48015224453E+03  0.48033254006E+03  0.00000000000E+00 0. -1.
        -15    1    1    2    0    0 -0.29951488599E+01  0.11172179498E+02 -0.16533035794E+02  0.20255555115E+02  0.17770000000E+01 0.  1.
         15    1    1    2    0    0  0.44592183445E+00 -0.53583470287E+01  0.50146166049E+01  0.75640490385E+01  0.17770000000E+01 0. -1.
</event>
<event>
 6    1  0.4028964E-003  0.5004141E+03  0.7546771E-02  0.9398884E-01
        -11   -1    0    0    0    0  0.00000000000E+00  0.00000000000E+00  0.50000000000E+03  0.50000000000E+03  0.00000000000E+00 0.  1.
         11   -1    0    0    0    0 -0.00000000000E+00 -0.00000000000E+00 -0.50000000000E+03  0.50000000000E+03  0.00000000000E+00 0. -1.
        -11    1    1    2    0    0  0.68456455169E+01  0.83335665935E+00  0.49953832652E+03  0.49958592555E+03  0.00000000000E+00 0.  1.
         11    1    1    2    0    0 -0.55445006058E+01  0.67752449873E+01 -0.17808645337E+03  0.17830151515E+03  0.00000000000E+00 0. -1.
        -15    1    1    2    0    0 -0.84447072142E+01  0.16306823684E+01 -0.12934527366E+03  0.12964308602E+03  0.17770000000E+01 0. -1.
         15    1    1    2    0    0  0.71435623031E+01 -0.92392840150E+01 -0.19210659949E+03  0.19246947329E+03  0.17770000000E+01 0.  1.
</event>
<event>
 6    1  0.4028964E-003  0.5116883E+03  0.7546771E-02  0.9374030E-01
        -11   -1    0    0    0    0  0.00000000000E+00  0.00000000000E+00  0.50000000000E+03  0.50000000000E+03  0.00000000000E+00 0. -1.
         11   -1    0    0    0    0 -0.00000000000E+00 -0.00000000000E+00 -0.50000000000E+03  0.50000000000E+03  0.00000000000E+00 0.  1.
        -11    1    1    2    0    0  0.58877787736E+01 -0.71782684113E+01  0.48822348540E+03  0.48831174999E+03  0.00000000000E+00 0. -1.
         11    1    1    2    0    0 -0.26253817021E+02 -0.12000384462E+02 -0.40154747767E+03  0.40258371671E+03  0.00000000000E+00 0.  1.
        -15    1    1    2    0    0 -0.11049151691E+02  0.54598672796E+01  0.32337595470E+01  0.12865023653E+02  0.17770000000E+01 0.  1.
         15    1    1    2    0    0  0.31415189939E+02  0.13718785594E+02 -0.89909767275E+02  0.96239509649E+02  0.17770000000E+01 0. -1.
</event>
<event>
 6    1  0.4028964E-003  0.4786800E+03  0.7546771E-02  0.9448821E-01
        -11   -1    0    0    0    0  0.00000000000E+00  0.00000000000E+00  0.50000000000E+03  0.50000000000E+03  0.00000000000E+00 0.  1.
         11   -1    0    0    0    0 -0.00000000000E+00 -0.00000000000E+00 -0.50000000000E+03  0.50000000000E+03  0.00000000000E+00 0.  1.
        -11    1    1    2    0    0 -0.18147156813E+02 -0.18138482286E+02  0.48082173582E+03  0.48150583120E+03  0.00000000000E+00 0.  1.
         11    1    1    2    0    0  0.83645336837E+01 -0.64830712029E+01 -0.47611464722E+03  0.47623224685E+03  0.00000000000E+00 0.  1.
        -15    1    1    2    0    0  0.80569472964E+01  0.20809202655E+02 -0.17673856303E+02  0.28521224386E+02  0.17770000000E+01 0. -1.
         15    1    1    2    0    0  0.17256758327E+01  0.38123508339E+01  0.12966767708E+02  0.13740697572E+02  0.17770000000E+01 0.  1.
</event>
<event>
 6    1  0.4028964E-003  0.4504010E+03  0.7546771E-02  0.9518188E-01
        -11   -1    0    0    0    0  0.00000000000E+00  0.00000000000E+00  0.50000000000E+03  0.50000000000E+03  0.00000000000E+00 0. -1.
         11   -1    0    0    0    0 -0.00000000000E+00 -0.00000000000E+00 -0.50000000000E+03  0.50000000000E+03  0.00000000000E+00 0. -1.
        -11    1    1    2    0    0  0.81773057783E+01  0.54108944346E+02  0.45503289802E+03  0.45831166740E+03  0.00000000000E+00 0. -1.
         11    1    1    2    0    0  0.70832200158E+01 -0.30030545971E+01 -0.44406785873E+03  0.44413449934E+03  0.00000000000E+00 0. -1.
        -15    1    1    2    0    0 -0.32668978439E+01  0.98380829458E+01 -0.30624092052E+02  0.32379827680E+02  0.17770000000E+01 0. -1.
         15    1    1    2    0    0 -0.11993627950E+02 -0.60943972694E+02  0.19659052762E+02  0.65174005583E+02  0.17770000000E+01 0.  1.
</event>
<event>
 6    1  0.4028964E-003  0.4386416E+03  0.7546771E-02  0.9548649E-01
        -11   -1    0    0    0    0  0.00000000000E+00  0.00000000000E+00  0.50000000000E+03  0.50000000000E+03  0.00000000000E+00 0. -1.
         11   -1    0    0    0    0 -0.00000000000E+00 -0.00000000000E+00 -0.50000000000E+03  0.50000000000E+03  0.00000000000E+00 0. -1.
        -11    1    1    2    0    0 -0.72792550982E+00  0.88418933186E+00  0.28404827092E+02  0.28427906508E+02  0.00000000000E+00 0. -1.
         11    1    1    2    0    0  0.81358531130E+02 -0.25917016535E+02 -0.46577102581E+03  0.47353305145E+03  0.00000000000E+00 0. -1.
        -15    1    1    2    0    0 -0.78114448701E+02  0.30634267642E+02  0.27781056795E+02  0.88404017417E+02  0.17770000000E+01 0.  1.
         15    1    1    2    0    0 -0.25161569192E+01 -0.56014404389E+01  0.40958514193E+03  0.40963502462E+03  0.17770000000E+01 0. -1.
</event>
<event>
 6    1  0.4028964E-003  0.5054016E+03  0.7546771E-02  0.9387804E-01
        -11   -1    0    0    0    0  0.00000000000E+00  0.00000000000E+00  0.50000000000E+03  0.50000000000E+03  0.00000000000E+00 0. -1.
         11   -1    0    0    0    0 -0.00000000000E+00 -0.00000000000E+00 -0.50000000000E+03  0.50000000000E+03  0.00000000000E+00 0.  1.
        -11    1    1    2    0    0  0.12683015687E+01  0.85525724209E+01  0.18000438812E+03  0.18021191644E+03  0.00000000000E+00 0. -1.
         11    1    1    2    0    0 -0.21466770159E+02 -0.12287685549E+02 -0.49397949810E+03  0.49459837644E+03  0.00000000000E+00 0.  1.
        -15    1    1    2    0    0 -0.87180599401E+01  0.64401964187E+00  0.28118112129E+03  0.28132259069E+03  0.17770000000E+01 0. -1.
         15    1    1    2    0    0  0.28916528531E+02  0.30910934859E+01  0.32793988687E+02  0.43867116433E+02  0.17770000000E+01 0.  1.
</event>
<event>
 6    1  0.4028964E-003  0.5091038E+03  0.7546771E-02  0.9379667E-01
        -11   -1    0    0    0    0  0.00000000000E+00  0.00000000000E+00  0.50000000000E+03  0.50000000000E+03  0.00000000000E+00 0. -1.
         11   -1    0    0    0    0 -0.00000000000E+00 -0.00000000000E+00 -0.50000000000E+03  0.50000000000E+03  0.00000000000E+00 0.  1.
        -11    1    1    2    0    0 -0.51282409663E+01  0.13736352403E+02  0.46144381788E+03  0.46167670863E+03  0.00000000000E+00 0. -1.
         11    1    1    2    0    0 -0.25425114510E+02 -0.80377069196E+01 -0.49017142091E+03  0.49089618359E+03  0.00000000000E+00 0.  1.
        -15    1    1    2    0    0  0.57512828449E+01 -0.49591327618E+01  0.19313394227E+02  0.20828710418E+02  0.17770000000E+01 0. -1.
         15    1    1    2    0    0  0.24802072632E+02 -0.73951272139E+00  0.94142088089E+01  0.26598397365E+02  0.17770000000E+01 0.  1.
</event>
<event>
 6    1  0.4028964E-003  0.5047223E+03  0.7546771E-02  0.9389305E-01
        -11   -1    0    0    0    0  0.00000000000E+00  0.00000000000E+00  0.50000000000E+03  0.50000000000E+03  0.00000000000E+00 0. -1.
         11   -1    0    0    0    0 -0.00000000000E+00 -0.00000000000E+00 -0.50000000000E+03  0.50000000000E+03  0.00000000000E+00 0. -1.
        -11    1    1    2    0    0 -0.49869106593E+01  0.52567683698E+01  0.49522473256E+03  0.49527773888E+03  0.00000000000E+00 0. -1.
         11    1    1    2    0    0  0.52989326314E+01 -0.63028043860E+01 -0.48106674618E+03  0.48113721360E+03  0.00000000000E+00 0. -1.
        -15    1    1    2    0    0 -0.44298289061E+01  0.13918216179E+01 -0.17363687211E+02  0.18061448284E+02  0.17770000000E+01 0. -1.
         15    1    1    2    0    0  0.41178069340E+01 -0.34578560160E+00  0.32057008334E+01  0.55235992307E+01  0.17770000000E+01 0.  1.
</event>
<event>
 6    1  0.4028964E-003  0.5092979E+03  0.7546771E-02  0.9379242E-01
        -11   -1    0    0    0    0  0.00000000000E+00  0.00000000000E+00  0.50000000000E+03  0.50000000000E+03  0.00000000000E+00 0. -1.
         11   -1    0    0    0    0 -0.00000000000E+00 -0.00000000000E+00 -0.50000000000E+03  0.50000000000E+03  0.00000000000E+00 0.  1.
        -11    1    1    2    0    0  0.26809536011E+02  0.30857206368E+01  0.33306403457E+03  0.33415553866E+03  0.00000000000E+00 0. -1.
         11    1    1    2    0    0 -0.40506934697E+00 -0.69078071204E+01 -0.49065332334E+03  0.49070211492E+03  0.00000000000E+00 0.  1.
        -15    1    1    2    0    0  0.48393160251E+01 -0.29644685893E+02  0.52758895437E+02  0.60736193147E+02  0.17770000000E+01 0.  1.
         15    1    1    2    0    0 -0.31243782689E+02  0.33466772377E+02  0.10483039334E+03  0.11440615327E+03  0.17770000000E+01 0. -1.
</event>
<event>
 6    1  0.4028964E-003  0.5027621E+03  0.7546771E-02  0.9393650E-01
        -11   -1    0    0    0    0  0.00000000000E+00  0.00000000000E+00  0.50000000000E+03  0.50000000000E+03  0.00000000000E+00 0. -1.
         11   -1    0    0    0    0 -0.00000000000E+00 -0.00000000000E+00 -0.50000000000E+03  0.50000000000E+03  0.00000000000E+00 0.  1.
        -11    1    1    2    0    0 -0.80177622750E+01 -0.36144611001E+01  0.49716007978E+03  0.49723786437E+03  0.00000000000E+00 0. -1.
         11    1    1    2    0    0  0.34927966114E-01 -0.76482535763E+01 -0.45997725231E+03  0.46004083475E+03  0.00000000000E+00 0.  1.
        -15    1    1    2    0    0 -0.24900738878E+01  0.22702412610E+00 -0.69006422913E+00  0.31441891738E+01  0.17770000000E+01 0. -1.
         15    1    1    2    0    0  0.10472908197E+02  0.11035690550E+02 -0.36492763245E+02  0.39577111697E+02  0.17770000000E+01 0.  1.
</event>
<event>
 6    1  0.4028964E-003  0.5111256E+03  0.7546771E-02  0.9375254E-01
        -11   -1    0    0    0    0  0.00000000000E+00  0.00000000000E+00  0.50000000000E+03  0.50000000000E+03  0.00000000000E+00 0.  1.
         11   -1    0    0    0    0 -0.00000000000E+00 -0.00000000000E+00 -0.50000000000E+03  0.50000000000E+03  0.00000000000E+00 0.  1.
        -11    1    1    2    0    0 -0.91371698087E+01 -0.12973792334E+02  0.15970136042E+03  0.16048779293E+03  0.00000000000E+00 0.  1.
         11    1    1    2    0    0  0.27840773863E+02  0.50279891725E+01 -0.48805508067E+03  0.48887437152E+03  0.00000000000E+00 0.  1.
        -15    1    1    2    0    0 -0.69374389255E+02  0.47061472951E+00  0.15414427928E+03  0.16904627747E+03  0.17770000000E+01 0.  1.
         15    1    1    2    0    0  0.50670785202E+02  0.74751884320E+01  0.17420944096E+03  0.18159155808E+03  0.17770000000E+01 0. -1.
</event>
<event>
 6    1  0.5365168E-003  0.5004648E+03  0.7546771E-02  0.9398770E-01
        -11   -1    0    0    0    0  0.00000000000E+00  0.00000000000E+00  0.50000000000E+03  0.50000000000E+03  0.00000000000E+00 0. -1.
         11   -1    0    0    0    0 -0.00000000000E+00 -0.00000000000E+00 -0.50000000000E+03  0.50000000000E+03  0.00000000000E+00 0. -1.
        -11    1    1    2    0    0  0.41980122882E+01 -0.52989039328E+01  0.49948949501E+03  0.49953524131E+03  0.00000000000E+00 0. -1.
         11    1    1    2    0    0  0.55250231405E+01 -0.33079284266E+00 -0.40841620956E+03  0.40845371284E+03  0.00000000000E+00 0. -1.
        -15    1    1    2    0    0 -0.95138421895E+01  0.39605367392E+01 -0.79269113030E+02  0.79955919443E+02  0.17770000000E+01 0. -1.
         15    1    1    2    0    0 -0.20919323923E+00  0.16691600363E+01 -0.11804172422E+02  0.12055126404E+02  0.17770000000E+01 0. -1.
</event>
<event>
 6    1  0.4028964E-003  0.5072781E+03  0.7546771E-02  0.9383670E-01
        -11   -1    0    0    0    0  0.00000000000E+00  0.00000000000E+00  0.50000000000E+03  0.50000000000E+03  0.00000000000E+00 0.  1.
         11   -1    0    0    0    0 -0.00000000000E+00 -0.00000000000E+00 -0.50000000000E+03  0.50000000000E+03  0.00000000000E+00 0. -1.
        -11    1    1    2    0    0 -0.22477277394E+02  0.89455106806E+01  0.38179350337E+03  0.38255918415E+03  0.00000000000E+00 0.  1.
         11    1    1    2    0    0 -0.71778790997E+01 -0.31483670639E+01 -0.49265957723E+03  0.49272192279E+03  0.00000000000E+00 0. -1.
        -15    1    1    2    0    0  0.79177798768E+00  0.28721589384E+01 -0.43782286125E+01  0.55859488122E+01  0.17770000000E+01 0. -1.
         15    1    1    2    0    0  0.28863378507E+02 -0.86693025551E+01  0.11524430247E+03  0.11913294425E+03  0.17770000000E+01 0.  1.
</event>
<event>
 6    1  0.4028964E-003  0.5020287E+03  0.7546771E-02  0.9395282E-01
        -11   -1    0    0    0    0  0.00000000000E+00  0.00000000000E+00  0.50000000000E+03  0.50000000000E+03  0.00000000000E+00 0. -1.
         11   -1    0    0    0    0 -0.00000000000E+00 -0.00000000000E+00 -0.50000000000E+03  0.50000000000E+03  0.00000000000E+00 0.  1.
        -11    1    1    2    0    0 -0.83994639336E+01 -0.97363484486E+01  0.37245354071E+03  0.37267544521E+03  0.00000000000E+00 0. -1.
         11    1    1    2    0    0 -0.11156430460E+02  0.15041673079E+02 -0.49761899972E+03  0.49797127101E+03  0.00000000000E+00 0.  1.
        -15    1    1    2    0    0  0.19054701444E+02  0.66132493779E+01  0.87116031881E+02  0.89438120811E+02  0.17770000000E+01 0. -1.
         15    1    1    2    0    0  0.50119294980E+00 -0.11918574009E+02  0.38049427130E+02  0.39915162967E+02  0.17770000000E+01 0.  1.
</event>
<event>
 6    1  0.4028964E-003  0.5137281E+03  0.7546771E-02  0.9369605E-01
        -11   -1    0    0    0    0  0.00000000000E+00  0.00000000000E+00  0.50000000000E+03  0.50000000000E+03  0.00000000000E+00 0. -1.
         11   -1    0    0    0    0 -0.00000000000E+00 -0.00000000000E+00 -0.50000000000E+03  0.50000000000E+03  0.00000000000E+00 0.  1.
        -11    1    1    2    0    0  0.96792668516E+01 -0.67642636592E+01  0.30417638790E+03  0.30440551642E+03  0.00000000000E+00 0. -1.
         11    1    1    2    0    0  0.32275101204E+02  0.37723452733E+02 -0.48373092337E+03  0.48627188616E+03  0.00000000000E+00 0.  1.
        -15    1    1    2    0    0 -0.21195386260E+02  0.19489068542E+02  0.89577991844E+01  0.30207086695E+02  0.17770000000E+01 0. -1.
         15    1    1    2    0    0 -0.20758981795E+02 -0.50448257615E+02  0.17059673629E+03  0.17911551073E+03  0.17770000000E+01 0.  1.
</event>
<event>
 6    1  0.4028964E-003  0.5177257E+03  0.7546771E-02  0.9360998E-01
        -11   -1    0    0    0    0  0.00000000000E+00  0.00000000000E+00  0.50000000000E+03  0.50000000000E+03  0.00000000000E+00 0. -1.
         11   -1    0    0    0    0 -0.00000000000E+00 -0.00000000000E+00 -0.50000000000E+03  0.50000000000E+03  0.00000000000E+00 0.  1.
        -11    1    1    2    0    0  0.92171042285E+01 -0.24256247247E+01  0.45846160415E+03  0.45856066244E+03  0.00000000000E+00 0. -1.
         11    1    1    2    0    0  0.63631523288E+01 -0.66947694542E+01 -0.48218584901E+03  0.48227430227E+03  0.00000000000E+00 0.  1.
        -15    1    1    2    0    0 -0.19560140187E+02  0.13628407455E+02 -0.92252986540E+01  0.25624137803E+02  0.17770000000E+01 0.  1.
         15    1    1    2    0    0  0.39798836297E+01 -0.45080132756E+01  0.32949543514E+02  0.33540897486E+02  0.17770000000E+01 0. -1.
</event>
<event>
 6    1  0.4028964E-003  0.5001136E+03  0.7546771E-02  0.9399556E-01
        -11   -1    0    0    0    0  0.00000000000E+00  0.00000000000E+00  0.50000000000E+03  0.50000000000E+03  0.00000000000E+00 0.  1.
         11   -1    0    0    0    0 -0.00000000000E+00 -0.00000000000E+00 -0.50000000000E+03  0.50000000000E+03  0.00000000000E+00 0.  1.
        -11    1    1    2    0    0  0.24634441204E+01  0.62939705258E+01  0.49984068812E+03  0.49988638321E+03  0.00000000000E+00 0.  1.
         11    1    1    2    0    0  0.35202827305E+01 -0.70895461750E+01 -0.25958558769E+03  0.25970624057E+03  0.00000000000E+00 0.  1.
        -15    1    1    2    0    0 -0.19006829011E+01 -0.17692078645E+01 -0.12217414475E+03  0.12221465570E+03  0.17770000000E+01 0.  1.
         15    1    1    2    0    0 -0.40830439497E+01  0.25647835136E+01 -0.11808095567E+03  0.11819272052E+03  0.17770000000E+01 0.  1.
</event>
<event>
 6    1  0.4028964E-003  0.5207841E+03  0.7546771E-02  0.9354468E-01
        -11   -1    0    0    0    0  0.00000000000E+00  0.00000000000E+00  0.50000000000E+03  0.50000000000E+03  0.00000000000E+00 0.  1.
         11   -1    0    0    0    0 -0.00000000000E+00 -0.00000000000E+00 -0.50000000000E+03  0.50000000000E+03  0.00000000000E+00 0. -1.
        -11    1    1    2    0    0  0.77774402861E+01 -0.49933543261E+00  0.45390476171E+03  0.45397166279E+03  0.00000000000E+00 0.  1.
         11    1    1    2    0    0  0.71497656924E+01  0.30269322672E+01 -0.47915304367E+03  0.47921594373E+03  0.00000000000E+00 0. -1.
        -15    1    1    2    0    0 -0.66979334676E+01 -0.56286406020E+01 -0.19355521467E+02  0.21315202275E+02  0.17770000000E+01 0. -1.
         15    1    1    2    0    0 -0.82292725108E+01  0.31010437674E+01  0.44603803430E+02  0.45497191209E+02  0.17770000000E+01 0.  1.
</event>
<event>
 6    1  0.4028964E-003  0.5135707E+03  0.7546771E-02  0.9369946E-01
        -11   -1    0    0    0    0  0.00000000000E+00  0.00000000000E+00  0.50000000000E+03  0.50000000000E+03  0.00000000000E+00 0. -1.
         11   -1    0    0    0    0 -0.00000000000E+00 -0.00000000000E+00 -0.50000000000E+03  0.50000000000E+03  0.00000000000E+00 0.  1.
        -11    1    1    2    0    0  0.65902507928E+01 -0.45985593871E+00  0.48638442052E+03  0.48642928304E+03  0.00000000000E+00 0. -1.
         11    1    1    2    0    0 -0.17748553304E+02  0.21811543004E+02 -0.44083807532E+03  0.44173404126E+03  0.00000000000E+00 0.  1.
        -15    1    1    2    0    0  0.12897685300E+02 -0.90168548771E+01 -0.54264695663E+02  0.56528478507E+02  0.17770000000E+01 0. -1.
         15    1    1    2    0    0 -0.17393827892E+01 -0.12334832189E+02  0.87183504581E+01  0.15308197194E+02  0.17770000000E+01 0.  1.
</event>
<event>
 6    1  0.4028964E-003  0.5011050E+03  0.7546771E-02  0.9397341E-01
        -11   -1    0    0    0    0  0.00000000000E+00  0.00000000000E+00  0.50000000000E+03  0.50000000000E+03  0.00000000000E+00 0. -1.
         11   -1    0    0    0    0 -0.00000000000E+00 -0.00000000000E+00 -0.50000000000E+03  0.50000000000E+03  0.00000000000E+00 0.  1.
        -11    1    1    2    0    0 -0.11259212870E+02 -0.59380945571E+01  0.49873257794E+03  0.49889499410E+03  0.00000000000E+00 0. -1.
         11    1    1    2    0    0  0.63524837386E+01  0.22542749889E+01 -0.39723191588E+03  0.39728910229E+03  0.00000000000E+00 0.  1.
        -15    1    1    2    0    0  0.78699753418E+01  0.59330122991E+01 -0.97689280655E+02  0.98201275098E+02  0.17770000000E+01 0.  1.
         15    1    1    2    0    0 -0.29632462107E+01 -0.22491927309E+01 -0.38113814078E+01  0.56146285079E+01  0.17770000000E+01 0. -1.
</event>
<event>
 6    1  0.4028964E-003  0.5082040E+03  0.7546771E-02  0.9381637E-01
        -11   -1    0    0    0    0  0.00000000000E+00  0.00000000000E+00  0.50000000000E+03  0.50000000000E+03  0.00000000000E+00 0.  1.
         11   -1    0    0    0    0 -0.00000000000E+00 -0.00000000000E+00 -0.50000000000E+03  0.50000000000E+03  0.00000000000E+00 0.  1.
        -11    1    1    2    0    0 -0.32063699564E+01 -0.76411425653E+01  0.47594749543E+03  0.47601962804E+03  0.00000000000E+00 0.  1.
         11    1    1    2    0    0  0.12782651044E+02 -0.84814881914E+01 -0.49155663964E+03  0.49179595544E+03  0.00000000000E+00 0.  1.
        -15    1    1    2    0    0 -0.44930742035E+01  0.29527058866E+01  0.16971360275E+02  0.17891086788E+02  0.17770000000E+01 0. -1.
         15    1    1    2    0    0 -0.50832068842E+01  0.13169924870E+02 -0.13622160688E+01  0.14293329736E+02  0.17770000000E+01 0.  1.
</event>
<event>
 6    1  0.4028964E-003  0.5013051E+03  0.7546771E-02  0.9396894E-01
        -11   -1    0    0    0    0  0.00000000000E+00  0.00000000000E+00  0.50000000000E+03  0.50000000000E+03  0.00000000000E+00 0.  1.
         11   -1    0    0    0    0 -0.00000000000E+00 -0.00000000000E+00 -0.50000000000E+03  0.50000000000E+03  0.00000000000E+00 0. -1.
        -11    1    1    2    0    0 -0.36730566357E+00  0.32256559050E+02  0.49765049639E+03  0.49869493387E+03  0.00000000000E+00 0.  1.
         11    1    1    2    0    0  0.75900497381E+01 -0.12016846949E+02 -0.31593324727E+03  0.31625279476E+03  0.00000000000E+00 0. -1.
        -15    1    1    2    0    0  0.89461443871E+00 -0.20558378182E+02 -0.68906879530E+02  0.71935825734E+02  0.17770000000E+01 0. -1.
         15    1    1    2    0    0 -0.81173585132E+01  0.31866608144E+00 -0.11281036959E+03  0.11311644563E+03  0.17770000000E+01 0.  1.
</event>
<event>
 6    1  0.4028964E-003  0.5108438E+03  0.7546771E-02  0.9375867E-01
        -11   -1    0    0    0    0  0.00000000000E+00  0.00000000000E+00  0.50000000000E+03  0.50000000000E+03  0.00000000000E+00 0. -1.
         11   -1    0    0    0    0 -0.00000000000E+00 -0.00000000000E+00 -0.50000000000E+03  0.50000000000E+03  0.00000000000E+00 0.  1.
        -11    1    1    2    0    0 -0.16268832166E+02 -0.11415394235E+02  0.46025892618E+03  0.46068781756E+03  0.00000000000E+00 0. -1.
         11    1    1    2    0    0  0.74352251721E+01  0.79138675674E+01 -0.48903561021E+03  0.48915615086E+03  0.00000000000E+00 0.  1.
        -15    1    1    2    0    0 -0.29170067426E+01 -0.52898410934E+01 -0.81972325137E+01  0.10336522482E+02  0.17770000000E+01 0.  1.
         15    1    1    2    0    0  0.11750613737E+02  0.87913677610E+01  0.36973916547E+02  0.39819509089E+02  0.17770000000E+01 0. -1.
</event>
<event>
 6    1  0.4028964E-003  0.5097547E+03  0.7546771E-02  0.9378244E-01
        -11   -1    0    0    0    0  0.00000000000E+00  0.00000000000E+00  0.50000000000E+03  0.50000000000E+03  0.00000000000E+00 0.  1.
         11   -1    0    0    0    0 -0.00000000000E+00 -0.00000000000E+00 -0.50000000000E+03  0.50000000000E+03  0.00000000000E+00 0. -1.
        -11    1    1    2    0    0  0.14238981293E+02 -0.20583359527E+01  0.49003418317E+03  0.49024533247E+03  0.00000000000E+00 0.  1.
         11    1    1    2    0    0  0.24191138650E+01  0.15778368403E+02 -0.39947955450E+03  0.39979835353E+03  0.00000000000E+00 0. -1.
        -15    1    1    2    0    0 -0.94763348994E+01  0.68252936460E+01  0.43375177684E+01  0.12584011517E+02  0.17770000000E+01 0.  1.
         15    1    1    2    0    0 -0.71817602591E+01 -0.20545326097E+02 -0.94892146437E+02  0.97372302475E+02  0.17770000000E+01 0. -1.
</event>
<event>
 6    1  0.4028964E-003  0.5375079E+03  0.7546771E-02  0.9319585E-01
        -11   -1    0    0    0    0  0.00000000000E+00  0.00000000000E+00  0.50000000000E+03  0.50000000000E+03  0.00000000000E+00 0. -1.
         11   -1    0    0    0    0 -0.00000000000E+00 -0.00000000000E+00 -0.50000000000E+03  0.50000000000E+03  0.00000000000E+00 0. -1.
        -11    1    1    2    0    0  0.55444386394E+01  0.40484351888E+01  0.46244117164E+03  0.46249212734E+03  0.00000000000E+00 0. -1.
         11    1    1    2    0    0  0.30874199459E+01 -0.63818935767E+01 -0.33593238187E+03  0.33600718134E+03  0.00000000000E+00 0. -1.
        -15    1    1    2    0    0 -0.33185644446E+02 -0.38935403235E+02 -0.14205336182E+03  0.15099525805E+03  0.17770000000E+01 0. -1.
         15    1    1    2    0    0  0.24553785861E+02  0.41268861623E+02  0.15544572044E+02  0.50505433260E+02  0.17770000000E+01 0.  1.
</event>
<event>
 6    1  0.4028964E-003  0.5502027E+03  0.7546771E-02  0.9293992E-01
        -11   -1    0    0    0    0  0.00000000000E+00  0.00000000000E+00  0.50000000000E+03  0.50000000000E+03  0.00000000000E+00 0.  1.
         11   -1    0    0    0    0 -0.00000000000E+00 -0.00000000000E+00 -0.50000000000E+03  0.50000000000E+03  0.00000000000E+00 0. -1.
        -11    1    1    2    0    0  0.28914716651E+02 -0.18876368257E+02  0.40020639687E+03  0.40169333852E+03  0.00000000000E+00 0.  1.
         11    1    1    2    0    0 -0.99943146928E+01  0.68866625448E+01 -0.44963349189E+03  0.44979727597E+03  0.00000000000E+00 0. -1.
        -15    1    1    2    0    0 -0.76252256292E+02 -0.96734314183E+00  0.47120395270E+02  0.89659532242E+02  0.17770000000E+01 0.  1.
         15    1    1    2    0    0  0.57331854334E+02  0.12957048854E+02  0.23066997465E+01  0.58849853264E+02  0.17770000000E+01 0. -1.
</event>
<event>
 6    1  0.4028964E-003  0.5014504E+03  0.7546771E-02  0.9396570E-01
        -11   -1    0    0    0    0  0.00000000000E+00  0.00000000000E+00  0.50000000000E+03  0.50000000000E+03  0.00000000000E+00 0.  1.
         11   -1    0    0    0    0 -0.00000000000E+00 -0.00000000000E+00 -0.50000000000E+03  0.50000000000E+03  0.00000000000E+00 0.  1.
        -11    1    1    2    0    0  0.16137014063E+01 -0.65668485958E+01  0.49850375453E+03  0.49854961720E+03  0.00000000000E+00 0.  1.
         11    1    1    2    0    0 -0.69650517637E+01  0.14580420825E+02 -0.14555477454E+03  0.14644894335E+03  0.00000000000E+00 0.  1.
        -15    1    1    2    0    0 -0.91614005503E+01  0.69392238108E+01 -0.50132998184E+02  0.51464155711E+02  0.17770000000E+01 0. -1.
         15    1    1    2    0    0  0.14512750908E+02 -0.14952796040E+02 -0.30281598181E+03  0.30353728373E+03  0.17770000000E+01 0.  1.
</event>
<event>
 6    1  0.4028964E-003  0.5064692E+03  0.7546771E-02  0.9385450E-01
        -11   -1    0    0    0    0  0.00000000000E+00  0.00000000000E+00  0.50000000000E+03  0.50000000000E+03  0.00000000000E+00 0.  1.
         11   -1    0    0    0    0 -0.00000000000E+00 -0.00000000000E+00 -0.50000000000E+03  0.50000000000E+03  0.00000000000E+00 0.  1.
        -11    1    1    2    0    0  0.91550865463E+01  0.11536777474E+02  0.47295187111E+03  0.47318113364E+03  0.00000000000E+00 0.  1.
         11    1    1    2    0    0 -0.71583353526E+01  0.26391942462E+01 -0.49347186101E+03  0.49353083462E+03  0.00000000000E+00 0.  1.
        -15    1    1    2    0    0  0.74746781845E+01 -0.19943625336E+01  0.50575594031E+00  0.79537295622E+01  0.17770000000E+01 0.  1.
         15    1    1    2    0    0 -0.94714293782E+01 -0.12181609186E+02  0.20014233961E+02  0.25334302179E+02  0.17770000000E+01 0. -1.
</event>
<event>
 6    1  0.4028964E-003  0.5087521E+03  0.7546771E-02  0.9380436E-01
        -11   -1    0    0    0    0  0.00000000000E+00  0.00000000000E+00  0.50000000000E+03  0.50000000000E+03  0.00000000000E+00 0. -1.
         11   -1    0    0    0    0 -0.00000000000E+00 -0.00000000000E+00 -0.50000000000E+03  0.50000000000E+03  0.00000000000E+00 0. -1.
        -11    1    1    2    0    0  0.34735308314E+00  0.73427519665E+01  0.49119285798E+03  0.49124786044E+03  0.00000000000E+00 0. -1.
         11    1    1    2    0    0  0.27385240079E+02  0.21156352875E+02 -0.30121623142E+03  0.30319756053E+03  0.00000000000E+00 0. -1.
        -15    1    1    2    0    0 -0.38221306288E+02 -0.40732507581E+02 -0.10401384907E+03  0.11807643268E+03  0.17770000000E+01 0.  1.
         15    1    1    2    0    0  0.10488713126E+02  0.12233402740E+02 -0.85962777490E+02  0.87478146347E+02  0.17770000000E+01 0. -1.
</event>
<event>
 6    1  0.4028964E-003  0.5025080E+03  0.7546771E-02  0.9394215E-01
        -11   -1    0    0    0    0  0.00000000000E+00  0.00000000000E+00  0.50000000000E+03  0.50000000000E+03  0.00000000000E+00 0.  1.
         11   -1    0    0    0    0 -0.00000000000E+00 -0.00000000000E+00 -0.50000000000E+03  0.50000000000E+03  0.00000000000E+00 0.  1.
        -11    1    1    2    0    0 -0.18041425802E+02  0.13134108578E-01  0.49716477529E+03  0.49749201703E+03  0.00000000000E+00 0.  1.
         11    1    1    2    0    0 -0.44086802822E+01  0.34967217604E+01 -0.25836429556E+03  0.25842556519E+03  0.00000000000E+00 0.  1.
        -15    1    1    2    0    0  0.17096291399E+02 -0.46601107145E+01 -0.23751734891E+03  0.23818406449E+03  0.17770000000E+01 0. -1.
         15    1    1    2    0    0  0.53538146848E+01  0.11502548455E+01 -0.12831308146E+01  0.58983532936E+01  0.17770000000E+01 0.  1.
</event>
<event>
 6    1  0.4028964E-003  0.5278830E+03  0.7546771E-02  0.9339494E-01
        -11   -1    0    0    0    0  0.00000000000E+00  0.00000000000E+00  0.50000000000E+03  0.50000000000E+03  0.00000000000E+00 0.  1.
         11   -1    0    0    0    0 -0.00000000000E+00 -0.00000000000E+00 -0.50000000000E+03  0.50000000000E+03  0.00000000000E+00 0. -1.
        -11    1    1    2    0    0 -0.11490561925E+00  0.84298932186E+01  0.45172632260E+03  0.45180498761E+03  0.00000000000E+00 0.  1.
         11    1    1    2    0    0  0.50680492984E+01  0.16091746372E+02 -0.47181550552E+03  0.47211704129E+03  0.00000000000E+00 0. -1.
        -15    1    1    2    0    0  0.76699831698E+00  0.44189070581E+01 -0.23181269785E+02  0.23677922710E+02  0.17770000000E+01 0.  1.
         15    1    1    2    0    0 -0.57201419961E+01 -0.28940546649E+02  0.43270452706E+02  0.52400048389E+02  0.17770000000E+01 0. -1.
</event>
<event>
 6    1  0.4028964E-003  0.5045797E+03  0.7546771E-02  0.9389620E-01
        -11   -1    0    0    0    0  0.00000000000E+00  0.00000000000E+00  0.50000000000E+03  0.50000000000E+03  0.00000000000E+00 0.  1.
         11   -1    0    0    0    0 -0.00000000000E+00 -0.00000000000E+00 -0.50000000000E+03  0.50000000000E+03  0.00000000000E+00 0.  1.
        -11    1    1    2    0    0  0.21783457338E+01 -0.74023322726E+01  0.49536016547E+03  0.49542025922E+03  0.00000000000E+00 0.  1.
         11    1    1    2    0    0  0.10625742821E+02  0.26805585674E+00 -0.45586557651E+03  0.45598947587E+03  0.00000000000E+00 0.  1.
        -15    1    1    2    0    0 -0.30302862260E+01  0.25214657760E+01  0.26326368151E+01  0.50625023330E+01  0.17770000000E+01 0. -1.
         15    1    1    2    0    0 -0.97738023286E+01  0.46128106399E+01 -0.42127225777E+02  0.43527762573E+02  0.17770000000E+01 0.  1.
</event>
<event>
 6    1  0.4058937E-003  0.5400016E+03  0.7546771E-02  0.9314499E-01
        -11   -1    0    0    0    0  0.00000000000E+00  0.00000000000E+00  0.50000000000E+03  0.50000000000E+03  0.00000000000E+00 0. -1.
         11   -1    0    0    0    0 -0.00000000000E+00 -0.00000000000E+00 -0.50000000000E+03  0.50000000000E+03  0.00000000000E+00 0.  1.
        -11    1    1    2    0    0  0.44520579224E+01 -0.58320535898E+01  0.45993984754E+03  0.45999836633E+03  0.00000000000E+00 0. -1.
         11    1    1    2    0    0 -0.62079419290E+01 -0.39435704352E+00 -0.45181664462E+03  0.45185946313E+03  0.00000000000E+00 0.  1.
        -15    1    1    2    0    0  0.19388710550E+01  0.48310622163E+01  0.39793508197E+02  0.40171873329E+02  0.17770000000E+01 0. -1.
         15    1    1    2    0    0 -0.18298704832E+00  0.13953484170E+01 -0.47916711117E+02  0.47970297213E+02  0.17770000000E+01 0.  1.
</event>
<event>
 6    1  0.4028964E-003  0.5008845E+03  0.7546771E-02  0.9397833E-01
        -11   -1    0    0    0    0  0.00000000000E+00  0.00000000000E+00  0.50000000000E+03  0.50000000000E+03  0.00000000000E+00 0. -1.
         11   -1    0    0    0    0 -0.00000000000E+00 -0.00000000000E+00 -0.50000000000E+03  0.50000000000E+03  0.00000000000E+00 0.  1.
        -11    1    1    2    0    0  0.10063151294E+02 -0.11110476495E+02  0.49889033627E+03  0.49911549497E+03  0.00000000000E+00 0. -1.
         11    1    1    2    0    0 -0.11366465541E+02  0.57351284687E+01 -0.44215879392E+03  0.44234204783E+03  0.00000000000E+00 0.  1.
        -15    1    1    2    0    0  0.40827505609E+01  0.15819555198E+01 -0.49557847489E+02  0.49782621588E+02  0.17770000000E+01 0. -1.
         15    1    1    2    0    0 -0.27794363137E+01  0.37933925065E+01 -0.71736948556E+01  0.87598356042E+01  0.17770000000E+01 0.  1.
</event>
<event>
 6    1  0.4028964E-003  0.5129759E+03  0.7546771E-02  0.9371234E-01
        -11   -1    0    0    0    0  0.00000000000E+00  0.00000000000E+00  0.50000000000E+03  0.50000000000E+03  0.00000000000E+00 0.  1.
         11   -1    0    0    0    0 -0.00000000000E+00 -0.00000000000E+00 -0.50000000000E+03  0.50000000000E+03  0.00000000000E+00 0.  1.
        -11    1    1    2    0    0 -0.17341464659E+02  0.21290857967E+02  0.38589148214E+03  0.38686724211E+03  0.00000000000E+00 0.  1.
         11    1    1    2    0    0 -0.21979765021E+02  0.10158296590E+02 -0.48642181889E+03  0.48702411332E+03  0.00000000000E+00 0.  1.
        -15    1    1    2    0    0  0.45052053630E+02 -0.10155877277E+02  0.90913049937E+02  0.10198612532E+03  0.17770000000E+01 0.  1.
         15    1    1    2    0    0 -0.57308239500E+01 -0.21293277281E+02  0.96172868068E+01  0.24122519251E+02  0.17770000000E+01 0. -1.
</event>
<event>
 6    1  0.4028964E-003  0.5138690E+03  0.7546771E-02  0.9369300E-01
        -11   -1    0    0    0    0  0.00000000000E+00  0.00000000000E+00  0.50000000000E+03  0.50000000000E+03  0.00000000000E+00 0. -1.
         11   -1    0    0    0    0 -0.00000000000E+00 -0.00000000000E+00 -0.50000000000E+03  0.50000000000E+03  0.00000000000E+00 0. -1.
        -11    1    1    2    0    0  0.91407062267E+01  0.12378475307E+02  0.46209643902E+03  0.46235256906E+03  0.00000000000E+00 0. -1.
         11    1    1    2    0    0  0.65006894033E+00 -0.76897748686E+01 -0.48606969529E+03  0.48613095346E+03  0.00000000000E+00 0. -1.
        -15    1    1    2    0    0 -0.35240298977E+01  0.76738163382E+01 -0.10926564517E+02  0.13923138477E+02  0.17770000000E+01 0. -1.
         15    1    1    2    0    0 -0.62667452694E+01 -0.12362516777E+02  0.34899820795E+02  0.37593339009E+02  0.17770000000E+01 0.  1.
</event>
<event>
 6    1  0.4028964E-003  0.4685523E+03  0.7546771E-02  0.9473063E-01
        -11   -1    0    0    0    0  0.00000000000E+00  0.00000000000E+00  0.50000000000E+03  0.50000000000E+03  0.00000000000E+00 0.  1.
         11   -1    0    0    0    0 -0.00000000000E+00 -0.00000000000E+00 -0.50000000000E+03  0.50000000000E+03  0.00000000000E+00 0. -1.
        -11    1    1    2    0    0  0.12249629276E+02 -0.36876212727E+01  0.47275551299E+03  0.47292856441E+03  0.00000000000E+00 0.  1.
         11    1    1    2    0    0  0.82577647834E+01  0.10158954560E+00 -0.46437136235E+03  0.46444479023E+03  0.00000000000E+00 0. -1.
        -15    1    1    2    0    0  0.87473045232E-01  0.11774477596E+02 -0.29593130110E+02  0.31899170098E+02  0.17770000000E+01 0.  1.
         15    1    1    2    0    0 -0.20594867104E+02 -0.81884458691E+01  0.21208979469E+02  0.30727475261E+02  0.17770000000E+01 0. -1.
</event>
<event>
 6    1  0.4028964E-003  0.5015632E+03  0.7546771E-02  0.9396319E-01
        -11   -1    0    0    0    0  0.00000000000E+00  0.00000000000E+00  0.50000000000E+03  0.50000000000E+03  0.00000000000E+00 0. -1.
         11   -1    0    0    0    0 -0.00000000000E+00 -0.00000000000E+00 -0.50000000000E+03  0.50000000000E+03  0.00000000000E+00 0.  1.
        -11    1    1    2    0    0 -0.28192024364E+01  0.11326331587E+02  0.49830011979E+03  0.49843679948E+03  0.00000000000E+00 0. -1.
         11    1    1    2    0    0  0.79218939640E+01 -0.14700182887E+01 -0.39742003996E+03  0.39750170505E+03  0.00000000000E+00 0.  1.
        -15    1    1    2    0    0  0.12720412864E+01 -0.68602917453E+01 -0.74903021994E+01  0.10389612500E+02  0.17770000000E+01 0. -1.
         15    1    1    2    0    0 -0.63747328140E+01 -0.29960215531E+01 -0.93389777636E+02  0.93671882972E+02  0.17770000000E+01 0.  1.
</event>
<event>
 6    1  0.4028964E-003  0.5018972E+03  0.7546771E-02  0.9395575E-01
        -11   -1    0    0    0    0  0.00000000000E+00  0.00000000000E+00  0.50000000000E+03  0.50000000000E+03  0.00000000000E+00 0.  1.
         11   -1    0    0    0    0 -0.00000000000E+00 -0.00000000000E+00 -0.50000000000E+03  0.50000000000E+03  0.00000000000E+00 0.  1.
        -11    1    1    2    0    0  0.53869175953E+01 -0.66073751521E+01  0.45319209924E+03  0.45327227480E+03  0.00000000000E+00 0.  1.
         11    1    1    2    0    0 -0.37019239113E+01  0.14664521845E+02 -0.49787316395E+03  0.49810284061E+03  0.00000000000E+00 0.  1.
        -15    1    1    2    0    0 -0.14106281588E+01 -0.19346205223E+01  0.41292250501E+02  0.41399762183E+02  0.17770000000E+01 0.  1.
         15    1    1    2    0    0 -0.27436552530E+00 -0.61225261708E+01  0.33888142083E+01  0.72251224136E+01  0.17770000000E+01 0. -1.
</event>
<event>
 6    1  0.4028964E-003  0.5021827E+03  0.7546771E-02  0.9394939E-01
        -11   -1    0    0    0    0  0.00000000000E+00  0.00000000000E+00  0.50000000000E+03  0.50000000000E+03  0.00000000000E+00 0. -1.
         11   -1    0    0    0    0 -0.00000000000E+00 -0.00000000000E+00 -0.50000000000E+03  0.50000000000E+03  0.00000000000E+00 0.  1.
        -11    1    1    2    0    0  0.55414024543E+00 -0.75228374594E+01  0.45621783376E+03  0.45628019023E+03  0.00000000000E+00 0. -1.
         11    1    1    2    0    0  0.44188541400E+01 -0.71367269517E+01 -0.49774655219E+03  0.49781732529E+03  0.00000000000E+00 0.  1.
        -15    1    1    2    0    0 -0.65077279203E+01  0.13881449517E+02  0.40271632825E+02  0.43127801970E+02  0.17770000000E+01 0.  1.
         15    1    1    2    0    0  0.15347335348E+01  0.77811489439E+00  0.12570855985E+01  0.27746825068E+01  0.17770000000E+01 0. -1.
</event>
<event>
 6    1  0.4028964E-003  0.5008767E+03  0.7546771E-02  0.9397850E-01
        -11   -1    0    0    0    0  0.00000000000E+00  0.00000000000E+00  0.50000000000E+03  0.50000000000E+03  0.00000000000E+00 0. -1.
         11   -1    0    0    0    0 -0.00000000000E+00 -0.00000000000E+00 -0.50000000000E+03  0.50000000000E+03  0.00000000000E+00 0.  1.
        -11    1    1    2    0    0 -0.21736365771E+01 -0.73254635631E+01  0.30849299790E+03  0.30858761619E+03  0.00000000000E+00 0. -1.
         11    1    1    2    0    0 -0.12835130625E+02 -0.31155457057E+01 -0.49894849909E+03  0.49912328332E+03  0.00000000000E+00 0.  1.
        -15    1    1    2    0    0 -0.32986047347E+01  0.39376223718E+01  0.75017406375E+02  0.75214058868E+02  0.17770000000E+01 0.  1.
         15    1    1    2    0    0  0.18307371937E+02  0.65033868970E+01  0.11543809482E+03  0.11707504163E+03  0.17770000000E+01 0. -1.
</event>
<event>
 6    1  0.4028964E-003  0.5009074E+03  0.7546771E-02  0.9397782E-01
        -11   -1    0    0    0    0  0.00000000000E+00  0.00000000000E+00  0.50000000000E+03  0.50000000000E+03  0.00000000000E+00 0. -1.
         11   -1    0    0    0    0 -0.00000000000E+00 -0.00000000000E+00 -0.50000000000E+03  0.50000000000E+03  0.00000000000E+00 0. -1.
        -11    1    1    2    0    0  0.27058281891E+01  0.84659407556E+00  0.55155293354E+02  0.55228114332E+02  0.00000000000E+00 0. -1.
         11    1    1    2    0    0  0.17151193232E+01  0.21313492240E+02 -0.49863434306E+03  0.49909259127E+03  0.00000000000E+00 0. -1.
        -15    1    1    2    0    0  0.14557160596E+02 -0.17494852096E+01  0.21361959646E+03  0.21412954337E+03  0.17770000000E+01 0. -1.
         15    1    1    2    0    0 -0.18978108108E+02 -0.20410601106E+02  0.22985945324E+03  0.23154975102E+03  0.17770000000E+01 0.  1.
</event>
<event>
 6    1  0.4028964E-003  0.5097976E+03  0.7546771E-02  0.9378150E-01
        -11   -1    0    0    0    0  0.00000000000E+00  0.00000000000E+00  0.50000000000E+03  0.50000000000E+03  0.00000000000E+00 0. -1.
         11   -1    0    0    0    0 -0.00000000000E+00 -0.00000000000E+00 -0.50000000000E+03  0.50000000000E+03  0.00000000000E+00 0. -1.
        -11    1    1    2    0    0 -0.14496053546E+01  0.61396604147E+01  0.37035513302E+03  0.37040885700E+03  0.00000000000E+00 0. -1.
         11    1    1    2    0    0  0.26950240258E+01 -0.26857638361E+02 -0.48945867489E+03  0.49020239730E+03  0.00000000000E+00 0. -1.
        -15    1    1    2    0    0 -0.17915450563E+02  0.36351087510E+02  0.39763308294E+02  0.56803550483E+02  0.17770000000E+01 0. -1.
         15    1    1    2    0    0  0.16670031892E+02 -0.15633109563E+02  0.79340233573E+02  0.82585195225E+02  0.17770000000E+01 0.  1.
</event>
<event>
 6    1  0.4028964E-003  0.5007029E+03  0.7546771E-02  0.9398238E-01
        -11   -1    0    0    0    0  0.00000000000E+00  0.00000000000E+00  0.50000000000E+03  0.50000000000E+03  0.00000000000E+00 0.  1.
         11   -1    0    0    0    0 -0.00000000000E+00 -0.00000000000E+00 -0.50000000000E+03  0.50000000000E+03  0.00000000000E+00 0.  1.
        -11    1    1    2    0    0 -0.74523610260E+01 -0.15552489650E+01  0.49923905534E+03  0.49929709679E+03  0.00000000000E+00 0.  1.
         11    1    1    2    0    0  0.62280406715E+00 -0.39264738434E+01 -0.12753990968E+03  0.12760185595E+03  0.00000000000E+00 0.  1.
        -15    1    1    2    0    0  0.18946488442E+00  0.58291048848E+01 -0.35482356676E+03  0.35487594398E+03  0.17770000000E+01 0.  1.
         15    1    1    2    0    0  0.66400920744E+01 -0.34738207626E+00 -0.16875578905E+02  0.18225103277E+02  0.17770000000E+01 0.  1.
</event>
<event>
 6    1  0.4028964E-003  0.4525784E+03  0.7546771E-02  0.9512657E-01
        -11   -1    0    0    0    0  0.00000000000E+00  0.00000000000E+00  0.50000000000E+03  0.50000000000E+03  0.00000000000E+00 0. -1.
         11   -1    0    0    0    0 -0.00000000000E+00 -0.00000000000E+00 -0.50000000000E+03  0.50000000000E+03  0.00000000000E+00 0. -1.
        -11    1    1    2    0    0 -0.32776093626E+01 -0.88014126000E+01  0.46117769114E+03  0.46127331419E+03  0.00000000000E+00 0. -1.
         11    1    1    2    0    0  0.40874694856E+02  0.23615728959E+02 -0.44246715892E+03  0.44497823549E+03  0.00000000000E+00 0. -1.
        -15    1    1    2    0    0 -0.57273327274E+02 -0.10363015105E+02 -0.34841139506E+02  0.67857857542E+02  0.17770000000E+01 0.  1.
         15    1    1    2    0    0  0.19676241780E+02 -0.44513012534E+01  0.16130607295E+02  0.25890592773E+02  0.17770000000E+01 0. -1.
</event>
<event>
 6    1  0.4028964E-003  0.5071090E+03  0.7546771E-02  0.9384042E-01
        -11   -1    0    0    0    0  0.00000000000E+00  0.00000000000E+00  0.50000000000E+03  0.50000000000E+03  0.00000000000E+00 0. -1.
         11   -1    0    0    0    0 -0.00000000000E+00 -0.00000000000E+00 -0.50000000000E+03  0.50000000000E+03  0.00000000000E+00 0.  1.
        -11    1    1    2    0    0 -0.99225813599E+01  0.48726823699E+01  0.19408125825E+03  0.19439582161E+03  0.00000000000E+00 0. -1.
         11    1    1    2    0    0 -0.30886528749E+02  0.26124504340E+02 -0.49122816972E+03  0.49289104487E+03  0.00000000000E+00 0.  1.
        -15    1    1    2    0    0  0.26577259188E+02  0.26043991019E+02  0.14157023179E+03  0.14638964592E+03  0.17770000000E+01 0.  1.
         15    1    1    2    0    0  0.14231850921E+02 -0.57041177729E+02  0.15557667968E+03  0.16632348759E+03  0.17770000000E+01 0. -1.
</event>
<event>
 6    1  0.4028964E-003  0.5045918E+03  0.7546771E-02  0.9389594E-01
        -11   -1    0    0    0    0  0.00000000000E+00  0.00000000000E+00  0.50000000000E+03  0.50000000000E+03  0.00000000000E+00 0. -1.
         11   -1    0    0    0    0 -0.00000000000E+00 -0.00000000000E+00 -0.50000000000E+03  0.50000000000E+03  0.00000000000E+00 0. -1.
        -11    1    1    2    0    0 -0.32726932122E+01  0.10337912603E+02  0.40191900180E+03  0.40206525213E+03  0.00000000000E+00 0. -1.
         11    1    1    2    0    0 -0.57683581593E+01 -0.48137115734E+01 -0.49535126531E+03  0.49540823754E+03  0.00000000000E+00 0. -1.
        -15    1    1    2    0    0 -0.40913997970E+01 -0.22631990317E+01  0.87504392495E+02  0.87647236448E+02  0.17770000000E+01 0. -1.
         15    1    1    2    0    0  0.13132451169E+02 -0.32610019978E+01  0.59278710133E+01  0.14879273889E+02  0.17770000000E+01 0.  1.
</event>
<event>
 6    1  0.4028964E-003  0.5121681E+03  0.7546771E-02  0.9372987E-01
        -11   -1    0    0    0    0  0.00000000000E+00  0.00000000000E+00  0.50000000000E+03  0.50000000000E+03  0.00000000000E+00 0. -1.
         11   -1    0    0    0    0 -0.00000000000E+00 -0.00000000000E+00 -0.50000000000E+03  0.50000000000E+03  0.00000000000E+00 0. -1.
        -11    1    1    2    0    0 -0.60717681530E+01 -0.39829934489E+01  0.48777788645E+03  0.48783193532E+03  0.00000000000E+00 0. -1.
         11    1    1    2    0    0  0.89024817605E+01  0.33553003187E+01 -0.48472053599E+03  0.48481389236E+03  0.00000000000E+00 0. -1.
        -15    1    1    2    0    0  0.45315957071E+01 -0.33567427099E+01  0.10073591049E+02  0.11680669797E+02  0.17770000000E+01 0.  1.
         15    1    1    2    0    0 -0.73623093146E+01  0.39844358400E+01 -0.13130941512E+02  0.15673502525E+02  0.17770000000E+01 0. -1.
</event>
<event>
 6    1  0.4028964E-003  0.5115575E+03  0.7546771E-02  0.9374314E-01
        -11   -1    0    0    0    0  0.00000000000E+00  0.00000000000E+00  0.50000000000E+03  0.50000000000E+03  0.00000000000E+00 0.  1.
         11   -1    0    0    0    0 -0.00000000000E+00 -0.00000000000E+00 -0.50000000000E+03  0.50000000000E+03  0.00000000000E+00 0. -1.
        -11    1    1    2    0    0  0.83957908258E+01 -0.59188194876E+01  0.48833448645E+03  0.48844251697E+03  0.00000000000E+00 0.  1.
         11    1    1    2    0    0  0.87423843001E+01  0.86327902533E+00 -0.45477592765E+03  0.45486076870E+03  0.00000000000E+00 0. -1.
        -15    1    1    2    0    0 -0.21409553449E+02  0.20056805462E+02 -0.17337333280E+02  0.34123090108E+02  0.17770000000E+01 0. -1.
         15    1    1    2    0    0  0.42713783232E+01 -0.15001265000E+02 -0.16221225517E+02  0.22573624225E+02  0.17770000000E+01 0.  1.
</event>
<event>
 6    1  0.4028964E-003  0.5223930E+03  0.7546771E-02  0.9351052E-01
        -11   -1    0    0    0    0  0.00000000000E+00  0.00000000000E+00  0.50000000000E+03  0.50000000000E+03  0.00000000000E+00 0.  1.
         11   -1    0    0    0    0 -0.00000000000E+00 -0.00000000000E+00 -0.50000000000E+03  0.50000000000E+03  0.00000000000E+00 0.  1.
        -11    1    1    2    0    0 -0.40938003745E+01  0.96241040642E+01  0.47749249976E+03  0.47760702455E+03  0.00000000000E+00 0.  1.
         11    1    1    2    0    0  0.24138106142E+02 -0.19196668727E+01 -0.44503902036E+03  0.44569727723E+03  0.00000000000E+00 0.  1.
        -15    1    1    2    0    0 -0.40900114944E+02  0.95131274813E+01 -0.15894024746E+02  0.44934360444E+02  0.17770000000E+01 0. -1.
         15    1    1    2    0    0  0.20855809176E+02 -0.17217564673E+02 -0.16559454648E+02  0.31761337770E+02  0.17770000000E+01 0.  1.
</event>
<event>
 6    1  0.4028964E-003  0.5005179E+03  0.7546771E-02  0.9398652E-01
        -11   -1    0    0    0    0  0.00000000000E+00  0.00000000000E+00  0.50000000000E+03  0.50000000000E+03  0.00000000000E+00 0. -1.
         11   -1    0    0    0    0 -0.00000000000E+00 -0.00000000000E+00 -0.50000000000E+03  0.50000000000E+03  0.00000000000E+00 0. -1.
        -11    1    1    2    0    0 -0.46255307843E+00 -0.31287503445E+01  0.10889050229E+03  0.10893642422E+03  0.00000000000E+00 0. -1.
         11    1    1    2    0    0 -0.82172122624E+01 -0.12566679505E+02 -0.49925634355E+03  0.49948207233E+03  0.00000000000E+00 0. -1.
        -15    1    1    2    0    0  0.22505759608E+01 -0.67019136677E+01  0.11159968499E+03  0.11183750783E+03  0.17770000000E+01 0. -1.
         15    1    1    2    0    0  0.64291893800E+01  0.22397343517E+02  0.27876615627E+03  0.27974399562E+03  0.17770000000E+01 0.  1.
</event>
<event>
 6    1  0.4028964E-003  0.4837833E+03  0.7546771E-02  0.9436845E-01
        -11   -1    0    0    0    0  0.00000000000E+00  0.00000000000E+00  0.50000000000E+03  0.50000000000E+03  0.00000000000E+00 0.  1.
         11   -1    0    0    0    0 -0.00000000000E+00 -0.00000000000E+00 -0.50000000000E+03  0.50000000000E+03  0.00000000000E+00 0. -1.
        -11    1    1    2    0    0  0.18157256637E+01 -0.77981407685E+01  0.48098796574E+03  0.48105460298E+03  0.00000000000E+00 0.  1.
         11    1    1    2    0    0 -0.56310972556E+01 -0.76324194524E+01 -0.48656620887E+03  0.48665864700E+03  0.00000000000E+00 0. -1.
        -15    1    1    2    0    0 -0.15286238264E+01 -0.23507145972E+00  0.13603620815E+02  0.13806092049E+02  0.17770000000E+01 0. -1.
         15    1    1    2    0    0  0.53439954183E+01  0.15665631681E+02 -0.80253776867E+01  0.18480657970E+02  0.17770000000E+01 0.  1.
</event>
<event>
 6    1  0.4028964E-003  0.5032212E+03  0.7546771E-02  0.9392631E-01
        -11   -1    0    0    0    0  0.00000000000E+00  0.00000000000E+00  0.50000000000E+03  0.50000000000E+03  0.00000000000E+00 0. -1.
         11   -1    0    0    0    0 -0.00000000000E+00 -0.00000000000E+00 -0.50000000000E+03  0.50000000000E+03  0.00000000000E+00 0. -1.
        -11    1    1    2    0    0 -0.50295784980E+01  0.74668861565E+01  0.46457621531E+03  0.46466343828E+03  0.00000000000E+00 0. -1.
         11    1    1    2    0    0 -0.77076717187E+01  0.35244217493E+01 -0.49670651151E+03  0.49677881228E+03  0.00000000000E+00 0. -1.
        -15    1    1    2    0    0  0.10278301997E+02 -0.10559110949E+02  0.14806268777E+02  0.20964771405E+02  0.17770000000E+01 0. -1.
         15    1    1    2    0    0  0.24589482200E+01 -0.43219695699E+00  0.17324027428E+02  0.17592978028E+02  0.17770000000E+01 0.  1.
</event>
<event>
 6    1  0.4028964E-003  0.5043406E+03  0.7546771E-02  0.9390149E-01
        -11   -1    0    0    0    0  0.00000000000E+00  0.00000000000E+00  0.50000000000E+03  0.50000000000E+03  0.00000000000E+00 0. -1.
         11   -1    0    0    0    0 -0.00000000000E+00 -0.00000000000E+00 -0.50000000000E+03  0.50000000000E+03  0.00000000000E+00 0.  1.
        -11    1    1    2    0    0 -0.65935262449E+01 -0.52514477738E+01  0.49558776376E+03  0.49565944345E+03  0.00000000000E+00 0. -1.
         11    1    1    2    0    0 -0.74006038484E+01 -0.21968991561E+01 -0.48007360963E+03  0.48013567454E+03  0.00000000000E+00 0.  1.
        -15    1    1    2    0    0 -0.52675421273E+00  0.22964485217E+01 -0.15422420539E+01  0.33297725698E+01  0.17770000000E+01 0. -1.
         15    1    1    2    0    0  0.14520884306E+02  0.51518984081E+01 -0.13971912075E+02  0.20875109443E+02  0.17770000000E+01 0.  1.
</event>
<event>
 6    1  0.4028964E-003  0.5050575E+03  0.7546771E-02  0.9388564E-01
        -11   -1    0    0    0    0  0.00000000000E+00  0.00000000000E+00  0.50000000000E+03  0.50000000000E+03  0.00000000000E+00 0.  1.
         11   -1    0    0    0    0 -0.00000000000E+00 -0.00000000000E+00 -0.50000000000E+03  0.50000000000E+03  0.00000000000E+00 0.  1.
        -11    1    1    2    0    0  0.70140086716E+01  0.11033303397E+02  0.43110091229E+03  0.43129911509E+03  0.00000000000E+00 0.  1.
         11    1    1    2    0    0  0.70300271570E+01  0.73069819898E+01 -0.49483866701E+03  0.49494254175E+03  0.00000000000E+00 0.  1.
        -15    1    1    2    0    0 -0.20535722781E+02 -0.15772554387E+02  0.60554984072E+02  0.65882874915E+02  0.17770000000E+01 0.  1.
         15    1    1    2    0    0  0.64916869521E+01 -0.25677310004E+01  0.31827706480E+01  0.78754682383E+01  0.17770000000E+01 0. -1.
</event>
<event>
 6    1  0.4028964E-003  0.5016098E+03  0.7546771E-02  0.9396215E-01
        -11   -1    0    0    0    0  0.00000000000E+00  0.00000000000E+00  0.50000000000E+03  0.50000000000E+03  0.00000000000E+00 0. -1.
         11   -1    0    0    0    0 -0.00000000000E+00 -0.00000000000E+00 -0.50000000000E+03  0.50000000000E+03  0.00000000000E+00 0. -1.
        -11    1    1    2    0    0  0.13327290778E+01  0.37913430486E+01  0.27268927944E+03  0.27271889112E+03  0.00000000000E+00 0. -1.
         11    1    1    2    0    0 -0.11208485274E+02  0.16395027204E+01 -0.49826148779E+03  0.49839023698E+03  0.00000000000E+00 0. -1.
        -15    1    1    2    0    0 -0.57279696822E+01 -0.50189226211E+01  0.97552228122E+01  0.12502852557E+02  0.17770000000E+01 0.  1.
         15    1    1    2    0    0  0.15603725878E+02 -0.41192314783E+00  0.21581698553E+03  0.21638801934E+03  0.17770000000E+01 0. -1.
</event>
<event>
 6    1  0.4028964E-003  0.4849771E+03  0.7546771E-02  0.9434066E-01
        -11   -1    0    0    0    0  0.00000000000E+00  0.00000000000E+00  0.50000000000E+03  0.50000000000E+03  0.00000000000E+00 0. -1.
         11   -1    0    0    0    0 -0.00000000000E+00 -0.00000000000E+00 -0.50000000000E+03  0.50000000000E+03  0.00000000000E+00 0.  1.
        -11    1    1    2    0    0  0.74938186387E+01 -0.51011892875E+01  0.48838749188E+03  0.48847161809E+03  0.00000000000E+00 0. -1.
         11    1    1    2    0    0  0.93897630182E+01 -0.19862338286E+01 -0.48158369109E+03  0.48167931686E+03  0.00000000000E+00 0.  1.
        -15    1    1    2    0    0  0.58362142878E+00  0.86088431529E+01  0.34486357216E+01  0.94606348489E+01  0.17770000000E+01 0.  1.
         15    1    1    2    0    0 -0.17467203086E+02 -0.15214200369E+01 -0.10252436516E+02  0.20388430202E+02  0.17770000000E+01 0. -1.
</event>
<event>
 6    1  0.4028964E-003  0.5063550E+03  0.7546771E-02  0.9385701E-01
        -11   -1    0    0    0    0  0.00000000000E+00  0.00000000000E+00  0.50000000000E+03  0.50000000000E+03  0.00000000000E+00 0. -1.
         11   -1    0    0    0    0 -0.00000000000E+00 -0.00000000000E+00 -0.50000000000E+03  0.50000000000E+03  0.00000000000E+00 0.  1.
        -11    1    1    2    0    0  0.76600656285E+01  0.11016426628E+02  0.49346257773E+03  0.49364496744E+03  0.00000000000E+00 0. -1.
         11    1    1    2    0    0 -0.97994095789E+01 -0.50335987771E+01 -0.48155211281E+03  0.48167811129E+03  0.00000000000E+00 0.  1.
        -15    1    1    2    0    0  0.43876095563E+01 -0.78407332058E+01 -0.16550350899E+02  0.18915603578E+02  0.17770000000E+01 0.  1.
         15    1    1    2    0    0 -0.22482656060E+01  0.18579053546E+01  0.46398859820E+01  0.57613176850E+01  0.17770000000E+01 0. -1.
</event>
<event>
 6    1  0.4028964E-003  0.5100315E+03  0.7546771E-02  0.9377639E-01
        -11   -1    0    0    0    0  0.00000000000E+00  0.00000000000E+00  0.50000000000E+03  0.50000000000E+03  0.00000000000E+00 0.  1.
         11   -1    0    0    0    0 -0.00000000000E+00 -0.00000000000E+00 -0.50000000000E+03  0.50000000000E+03  0.00000000000E+00 0.  1.
        -11    1    1    2    0    0 -0.30539514144E+01 -0.11858347667E+02  0.48981545325E+03  0.48996849416E+03  0.00000000000E+00 0.  1.
         11    1    1    2    0    0  0.16250991974E+02  0.30458774698E+01 -0.44355519520E+03  0.44386324842E+03  0.00000000000E+00 0.  1.
        -15    1    1    2    0    0  0.81506286217E+01  0.26883299612E+01  0.51305197860E+01  0.10155778020E+02  0.17770000000E+01 0. -1.
         15    1    1    2    0    0 -0.21347669181E+02  0.61241402357E+01 -0.51390777836E+02  0.56012479401E+02  0.17770000000E+01 0.  1.
</event>
<event>
 6    1  0.4028964E-003  0.5003066E+03  0.7546771E-02  0.9399124E-01
        -11   -1    0    0    0    0  0.00000000000E+00  0.00000000000E+00  0.50000000000E+03  0.50000000000E+03  0.00000000000E+00 0. -1.
         11   -1    0    0    0    0 -0.00000000000E+00 -0.00000000000E+00 -0.50000000000E+03  0.50000000000E+03  0.00000000000E+00 0.  1.
        -11    1    1    2    0    0  0.49424102618E+01  0.92951352274E+01  0.49958253884E+03  0.49969344609E+03  0.00000000000E+00 0. -1.
         11    1    1    2    0    0 -0.46064276434E+01 -0.34815896321E+01 -0.42631671371E+03  0.42635581506E+03  0.00000000000E+00 0.  1.
        -15    1    1    2    0    0 -0.20038365290E+01 -0.49144456731E+00 -0.45150026366E+02  0.45232062615E+02  0.17770000000E+01 0.  1.
         15    1    1    2    0    0  0.16678539107E+01 -0.53221010280E+01 -0.28115798755E+02  0.28718676235E+02  0.17770000000E+01 0. -1.
</event>
<event>
 6    1  0.4028964E-003  0.4749181E+03  0.7546771E-02  0.9457750E-01
        -11   -1    0    0    0    0  0.00000000000E+00  0.00000000000E+00  0.50000000000E+03  0.50000000000E+03  0.00000000000E+00 0.  1.
         11   -1    0    0    0    0 -0.00000000000E+00 -0.00000000000E+00 -0.50000000000E+03  0.50000000000E+03  0.00000000000E+00 0.  1.
        -11    1    1    2    0    0  0.23286149353E+02  0.39258661432E+01  0.47334109569E+03  0.47392979443E+03  0.00000000000E+00 0.  1.
         11    1    1    2    0    0  0.10416415739E+02  0.77952755547E+01 -0.47640379458E+03  0.47658141333E+03  0.00000000000E+00 0.  1.
        -15    1    1    2    0    0 -0.38926467903E+02 -0.30242743639E+01  0.28304169097E+01  0.39186542686E+02  0.17770000000E+01 0. -1.
         15    1    1    2    0    0  0.52239028109E+01 -0.86968673340E+01  0.23228198085E+00  0.10302249556E+02  0.17770000000E+01 0.  1.
</event>
<event>
 6    1  0.4028964E-003  0.5067981E+03  0.7546771E-02  0.9384726E-01
        -11   -1    0    0    0    0  0.00000000000E+00  0.00000000000E+00  0.50000000000E+03  0.50000000000E+03  0.00000000000E+00 0.  1.
         11   -1    0    0    0    0 -0.00000000000E+00 -0.00000000000E+00 -0.50000000000E+03  0.50000000000E+03  0.00000000000E+00 0.  1.
        -11    1    1    2    0    0 -0.37675032280E+01  0.59807800981E+01  0.46156443442E+03  0.46161855566E+03  0.00000000000E+00 0.  1.
         11    1    1    2    0    0  0.20621214886E+02 -0.55667229515E+01 -0.49273920040E+03  0.49320192875E+03  0.00000000000E+00 0.  1.
        -15    1    1    2    0    0  0.26006173641E+01 -0.86680782318E+01  0.17966132526E+02  0.20195010222E+02  0.17770000000E+01 0. -1.
         15    1    1    2    0    0 -0.19454329022E+02  0.82540210852E+01  0.13208633457E+02  0.24984505370E+02  0.17770000000E+01 0.  1.
</event>
<event>
 6    1  0.4028964E-003  0.5015152E+03  0.7546771E-02  0.9396426E-01
        -11   -1    0    0    0    0  0.00000000000E+00  0.00000000000E+00  0.50000000000E+03  0.50000000000E+03  0.00000000000E+00 0.  1.
         11   -1    0    0    0    0 -0.00000000000E+00 -0.00000000000E+00 -0.50000000000E+03  0.50000000000E+03  0.00000000000E+00 0. -1.
        -11    1    1    2    0    0 -0.37526809738E+01  0.63202506397E+01  0.49843055557E+03  0.49848475093E+03  0.00000000000E+00 0.  1.
         11    1    1    2    0    0  0.28974880414E+01  0.80069627435E+01 -0.43948647982E+03  0.43956896254E+03  0.00000000000E+00 0. -1.
        -15    1    1    2    0    0  0.32612143098E+00 -0.60283449320E+01 -0.46193996001E+02  0.46620706701E+02  0.17770000000E+01 0. -1.
         15    1    1    2    0    0  0.52907150136E+00 -0.82988684512E+01 -0.12750079754E+02  0.15325579825E+02  0.17770000000E+01 0.  1.
</event>
<event>
 6    1  0.4028964E-003  0.5036353E+03  0.7546771E-02  0.9391712E-01
        -11   -1    0    0    0    0  0.00000000000E+00  0.00000000000E+00  0.50000000000E+03  0.50000000000E+03  0.00000000000E+00 0. -1.
         11   -1    0    0    0    0 -0.00000000000E+00 -0.00000000000E+00 -0.50000000000E+03  0.50000000000E+03  0.00000000000E+00 0.  1.
        -11    1    1    2    0    0  0.13407815804E+00  0.20816871820E+02  0.49592794808E+03  0.49636467422E+03  0.00000000000E+00 0. -1.
         11    1    1    2    0    0 -0.15662125679E+02 -0.67846973999E+01 -0.22478694452E+03  0.22543403630E+03  0.00000000000E+00 0.  1.
        -15    1    1    2    0    0  0.20126385516E+01 -0.96382662664E+01 -0.41587057986E+01  0.10835102837E+02  0.17770000000E+01 0.  1.
         15    1    1    2    0    0  0.13515408969E+02 -0.43939081534E+01 -0.26698229777E+03  0.26736618664E+03  0.17770000000E+01 0. -1.
</event>
<event>
 6    1  0.4028964E-003  0.4637019E+03  0.7546771E-02  0.9484906E-01
        -11   -1    0    0    0    0  0.00000000000E+00  0.00000000000E+00  0.50000000000E+03  0.50000000000E+03  0.00000000000E+00 0.  1.
         11   -1    0    0    0    0 -0.00000000000E+00 -0.00000000000E+00 -0.50000000000E+03  0.50000000000E+03  0.00000000000E+00 0.  1.
        -11    1    1    2    0    0 -0.68654128657E+01  0.27378239668E+01  0.46369116779E+03  0.46375007134E+03  0.00000000000E+00 0.  1.
         11    1    1    2    0    0  0.14420031085E+02  0.13394136634E+02 -0.46340718195E+03  0.46382492007E+03  0.00000000000E+00 0.  1.
        -15    1    1    2    0    0 -0.34751955541E+01 -0.58938831251E+01  0.34850234745E+02  0.35559969533E+02  0.17770000000E+01 0. -1.
         15    1    1    2    0    0 -0.40794226655E+01 -0.10238077476E+02 -0.35134220587E+02  0.36865039060E+02  0.17770000000E+01 0.  1.
</event>
<event>
 6    1  0.4028964E-003  0.5049947E+03  0.7546771E-02  0.9388703E-01
        -11   -1    0    0    0    0  0.00000000000E+00  0.00000000000E+00  0.50000000000E+03  0.50000000000E+03  0.00000000000E+00 0.  1.
         11   -1    0    0    0    0 -0.00000000000E+00 -0.00000000000E+00 -0.50000000000E+03  0.50000000000E+03  0.00000000000E+00 0. -1.
        -11    1    1    2    0    0  0.87966041525E+01  0.12086591378E+02  0.49477954578E+03  0.49500531801E+03  0.00000000000E+00 0.  1.
         11    1    1    2    0    0 -0.69363438321E+01 -0.70211689038E-01 -0.40977611866E+03  0.40983482675E+03  0.00000000000E+00 0. -1.
        -15    1    1    2    0    0  0.39910054798E+01  0.36008471158E+01 -0.75834258014E+02  0.76045293360E+02  0.17770000000E+01 0.  1.
         15    1    1    2    0    0 -0.58512658003E+01 -0.15617226805E+02 -0.91691691131E+01  0.19114561877E+02  0.17770000000E+01 0. -1.
</event>
<event>
 6    1  0.4028964E-003  0.5035869E+03  0.7546771E-02  0.9391819E-01
        -11   -1    0    0    0    0  0.00000000000E+00  0.00000000000E+00  0.50000000000E+03  0.50000000000E+03  0.00000000000E+00 0.  1.
         11   -1    0    0    0    0 -0.00000000000E+00 -0.00000000000E+00 -0.50000000000E+03  0.50000000000E+03  0.00000000000E+00 0.  1.
        -11    1    1    2    0    0  0.27093877568E+02 -0.17128118205E+02  0.26934041950E+03  0.27124105923E+03  0.00000000000E+00 0.  1.
         11    1    1    2    0    0 -0.15030351304E+02 -0.80049903303E+01 -0.49612092509E+03  0.49641309778E+03  0.00000000000E+00 0.  1.
        -15    1    1    2    0    0  0.77691081488E+01  0.21693930523E+02  0.59199457020E+02  0.63550917408E+02  0.17770000000E+01 0. -1.
         15    1    1    2    0    0 -0.19832634413E+02  0.34391780131E+01  0.16758104857E+03  0.16879492558E+03  0.17770000000E+01 0.  1.
</event>
<event>
 6    1  0.4028964E-003  0.5001786E+03  0.7546771E-02  0.9399410E-01
        -11   -1    0    0    0    0  0.00000000000E+00  0.00000000000E+00  0.50000000000E+03  0.50000000000E+03  0.00000000000E+00 0.  1.
         11   -1    0    0    0    0 -0.00000000000E+00 -0.00000000000E+00 -0.50000000000E+03  0.50000000000E+03  0.00000000000E+00 0. -1.
        -11    1    1    2    0    0 -0.10370289587E+01 -0.13213662440E+01  0.11657697473E+03  0.11658907528E+03  0.00000000000E+00 0.  1.
         11    1    1    2    0    0 -0.35376132719E+00  0.10526740080E+02 -0.49971038369E+03  0.49982137307E+03  0.00000000000E+00 0. -1.
        -15    1    1    2    0    0  0.11803239536E+01  0.43859828829E+01  0.82916190361E+02  0.83059510976E+02  0.17770000000E+01 0.  1.
         15    1    1    2    0    0  0.21046633226E+00 -0.13591356719E+02  0.30021721860E+03  0.30053004068E+03  0.17770000000E+01 0.  1.
</event>
<event>
 6    1  0.4028964E-003  0.5004657E+03  0.7546771E-02  0.9398768E-01
        -11   -1    0    0    0    0  0.00000000000E+00  0.00000000000E+00  0.50000000000E+03  0.50000000000E+03  0.00000000000E+00 0.  1.
         11   -1    0    0    0    0 -0.00000000000E+00 -0.00000000000E+00 -0.50000000000E+03  0.50000000000E+03  0.00000000000E+00 0.  1.
        -11    1    1    2    0    0 -0.78434456770E+01 -0.88850427288E+01  0.49939372941E+03  0.49953434376E+03  0.00000000000E+00 0.  1.
         11    1    1    2    0    0 -0.78534959653E+01  0.51768194735E+01 -0.21770458074E+03  0.21790768993E+03  0.00000000000E+00 0.  1.
        -15    1    1    2    0    0  0.12192134487E+02  0.13701159136E+01 -0.26388465987E+03  0.26417569306E+03  0.17770000000E+01 0.  1.
         15    1    1    2    0    0  0.35048071547E+01  0.23381073416E+01 -0.17804488804E+02  0.18382273246E+02  0.17770000000E+01 0. -1.
</event>
<event>
 6    1  0.4028964E-003  0.5193535E+03  0.7546771E-02  0.9357517E-01
        -11   -1    0    0    0    0  0.00000000000E+00  0.00000000000E+00  0.50000000000E+03  0.50000000000E+03  0.00000000000E+00 0. -1.
         11   -1    0    0    0    0 -0.00000000000E+00 -0.00000000000E+00 -0.50000000000E+03  0.50000000000E+03  0.00000000000E+00 0. -1.
        -11    1    1    2    0    0  0.72126569616E+01 -0.40380974456E+02  0.47889292109E+03  0.48064651813E+03  0.00000000000E+00 0. -1.
         11    1    1    2    0    0  0.20287763530E+02  0.25428741958E+02 -0.27810665618E+03  0.28000272584E+03  0.00000000000E+00 0. -1.
        -15    1    1    2    0    0 -0.38389907034E+02  0.35555400323E+02 -0.18433043007E+02  0.55505911917E+02  0.17770000000E+01 0. -1.
         15    1    1    2    0    0  0.10889486543E+02 -0.20603167825E+02 -0.18235322190E+03  0.18384484411E+03  0.17770000000E+01 0.  1.
</event>
<event>
 6    1  0.4028964E-003  0.5019621E+03  0.7546771E-02  0.9395430E-01
        -11   -1    0    0    0    0  0.00000000000E+00  0.00000000000E+00  0.50000000000E+03  0.50000000000E+03  0.00000000000E+00 0. -1.
         11   -1    0    0    0    0 -0.00000000000E+00 -0.00000000000E+00 -0.50000000000E+03  0.50000000000E+03  0.00000000000E+00 0. -1.
        -11    1    1    2    0    0  0.49210250656E+01  0.13780638283E+01  0.34598385843E+03  0.34602159736E+03  0.00000000000E+00 0. -1.
         11    1    1    2    0    0 -0.60440798974E+01 -0.20052572517E+02 -0.49759736251E+03  0.49803792199E+03  0.00000000000E+00 0. -1.
        -15    1    1    2    0    0 -0.47813461580E+00  0.17508747858E+02  0.15220071133E+03  0.15321553160E+03  0.17770000000E+01 0. -1.
         15    1    1    2    0    0  0.16011894476E+01  0.11657608311E+01 -0.58720724941E+00  0.27249490484E+01  0.17770000000E+01 0.  1.
</event>
<event>
 6    1  0.4028964E-003  0.5154849E+03  0.7546771E-02  0.9365812E-01
        -11   -1    0    0    0    0  0.00000000000E+00  0.00000000000E+00  0.50000000000E+03  0.50000000000E+03  0.00000000000E+00 0.  1.
         11   -1    0    0    0    0 -0.00000000000E+00 -0.00000000000E+00 -0.50000000000E+03  0.50000000000E+03  0.00000000000E+00 0. -1.
        -11    1    1    2    0    0 -0.16088924167E+02  0.81679411388E-01  0.48424790621E+03  0.48451511310E+03  0.00000000000E+00 0.  1.
         11    1    1    2    0    0 -0.33410090691E+01 -0.85980435127E+01 -0.38270256975E+03  0.38281372179E+03  0.00000000000E+00 0. -1.
        -15    1    1    2    0    0 -0.68306673951E+01 -0.28603708230E+02 -0.73582600790E+02  0.79261510266E+02  0.17770000000E+01 0. -1.
         15    1    1    2    0    0  0.26260600632E+02  0.37120072331E+02 -0.27962735672E+02  0.53409654845E+02  0.17770000000E+01 0.  1.
</event>
<event>
 6    1  0.4028964E-003  0.5062080E+03  0.7546771E-02  0.9386025E-01
        -11   -1    0    0    0    0  0.00000000000E+00  0.00000000000E+00  0.50000000000E+03  0.50000000000E+03  0.00000000000E+00 0. -1.
         11   -1    0    0    0    0 -0.00000000000E+00 -0.00000000000E+00 -0.50000000000E+03  0.50000000000E+03  0.00000000000E+00 0.  1.
        -11    1    1    2    0    0 -0.94078197512E+01 -0.59893211090E+01  0.49366605636E+03  0.49379201517E+03  0.00000000000E+00 0. -1.
         11    1    1    2    0    0 -0.52622914058E+01  0.51451714051E+01 -0.36468615087E+03  0.36476040511E+03  0.00000000000E+00 0.  1.
        -15    1    1    2    0    0  0.12269760705E+01 -0.22056024452E+02 -0.98596521453E+02  0.10105644688E+03  0.17770000000E+01 0.  1.
         15    1    1    2    0    0  0.13443135087E+02  0.22900174156E+02 -0.30383384037E+02  0.40391132837E+02  0.17770000000E+01 0. -1.
</event>
<event>
 6    1  0.4028964E-003  0.5020700E+03  0.7546771E-02  0.9395190E-01
        -11   -1    0    0    0    0  0.00000000000E+00  0.00000000000E+00  0.50000000000E+03  0.50000000000E+03  0.00000000000E+00 0. -1.
         11   -1    0    0    0    0 -0.00000000000E+00 -0.00000000000E+00 -0.50000000000E+03  0.50000000000E+03  0.00000000000E+00 0.  1.
        -11    1    1    2    0    0  0.57230999813E+01  0.98609084392E+01  0.49779941324E+03  0.49792996216E+03  0.00000000000E+00 0. -1.
         11    1    1    2    0    0 -0.37491581623E+01 -0.10519573128E+02 -0.16742788005E+03  0.16779991842E+03  0.00000000000E+00 0.  1.
        -15    1    1    2    0    0  0.49750312139E+01  0.12825440727E+02 -0.25145836245E+02  0.28717828520E+02  0.17770000000E+01 0. -1.
         15    1    1    2    0    0 -0.69489730329E+01 -0.12166776038E+02 -0.30522569695E+03  0.30555229090E+03  0.17770000000E+01 0.  1.
</event>
<event>
 6    1  0.4028964E-003  0.5168746E+03  0.7546771E-02  0.9362824E-01
        -11   -1    0    0    0    0  0.00000000000E+00  0.00000000000E+00  0.50000000000E+03  0.50000000000E+03  0.00000000000E+00 0. -1.
         11   -1    0    0    0    0 -0.00000000000E+00 -0.00000000000E+00 -0.50000000000E+03  0.50000000000E+03  0.00000000000E+00 0.  1.
        -11    1    1    2    0    0  0.15975721205E+02  0.23253492777E+02  0.43569305973E+03  0.43660553236E+03  0.00000000000E+00 0. -1.
         11    1    1    2    0    0  0.18466797104E+02  0.28796020564E+00 -0.48277226327E+03  0.48312541198E+03  0.00000000000E+00 0.  1.
        -15    1    1    2    0    0 -0.19853741087E+02 -0.10642794883E+02  0.54776672158E+02  0.59254380933E+02  0.17770000000E+01 0. -1.
         15    1    1    2    0    0 -0.14588777222E+02 -0.12898658099E+02 -0.76974686157E+01  0.21014674722E+02  0.17770000000E+01 0.  1.
</event>
<event>
 6    1  0.4028964E-003  0.4791671E+03  0.7546771E-02  0.9447671E-01
        -11   -1    0    0    0    0  0.00000000000E+00  0.00000000000E+00  0.50000000000E+03  0.50000000000E+03  0.00000000000E+00 0. -1.
         11   -1    0    0    0    0 -0.00000000000E+00 -0.00000000000E+00 -0.50000000000E+03  0.50000000000E+03  0.00000000000E+00 0. -1.
        -11    1    1    2    0    0  0.10940789444E+02  0.10843470572E+01  0.48093244295E+03  0.48105809562E+03  0.00000000000E+00 0. -1.
         11    1    1    2    0    0 -0.44243107873E+01  0.15586044449E+02 -0.47717565978E+03  0.47745063577E+03  0.00000000000E+00 0. -1.
        -15    1    1    2    0    0  0.12394632761E+02  0.29806807584E+01  0.32535051597E+01  0.13276083906E+02  0.17770000000E+01 0.  1.
         15    1    1    2    0    0 -0.18911111418E+02 -0.19651072265E+02 -0.70102883269E+01  0.28215184700E+02  0.17770000000E+01 0. -1.
</event>
<event>
 6    1  0.4028964E-003  0.5001995E+03  0.7546771E-02  0.9399363E-01
        -11   -1    0    0    0    0  0.00000000000E+00  0.00000000000E+00  0.50000000000E+03  0.50000000000E+03  0.00000000000E+00 0. -1.
         11   -1    0    0    0    0 -0.00000000000E+00 -0.00000000000E+00 -0.50000000000E+03  0.50000000000E+03  0.00000000000E+00 0. -1.
        -11    1    1    2    0    0 -0.56838280423E+01 -0.83145609129E+00  0.25539192917E+03  0.25545652214E+03  0.00000000000E+00 0. -1.
         11    1    1    2    0    0 -0.99155279122E+00 -0.71593986951E+01 -0.49974822022E+03  0.49980048397E+03  0.00000000000E+00 0. -1.
        -15    1    1    2    0    0 -0.75398317487E+00  0.32108081713E+01  0.12100943865E+03  0.12106741821E+03  0.17770000000E+01 0. -1.
         15    1    1    2    0    0  0.74293640084E+01  0.47800466151E+01  0.12334685240E+03  0.12367557569E+03  0.17770000000E+01 0.  1.
</event>
<event>
 6    1  0.4028964E-003  0.4544173E+03  0.7546771E-02  0.9508011E-01
        -11   -1    0    0    0    0  0.00000000000E+00  0.00000000000E+00  0.50000000000E+03  0.50000000000E+03  0.00000000000E+00 0.  1.
         11   -1    0    0    0    0 -0.00000000000E+00 -0.00000000000E+00 -0.50000000000E+03  0.50000000000E+03  0.00000000000E+00 0. -1.
        -11    1    1    2    0    0  0.16746093708E+01 -0.62024236602E+01  0.44885854344E+03  0.44890451813E+03  0.00000000000E+00 0.  1.
         11    1    1    2    0    0 -0.31985560949E+02  0.82791807529E+01 -0.45931099569E+03  0.46049778686E+03  0.00000000000E+00 0. -1.
        -15    1    1    2    0    0  0.26176451541E+02 -0.49129942000E+01 -0.35456881376E+02  0.44381215544E+02  0.17770000000E+01 0. -1.
         15    1    1    2    0    0  0.41345000372E+01  0.28362371073E+01  0.45909333626E+02  0.46216479468E+02  0.17770000000E+01 0.  1.
</event>
<event>
 6    1  0.4028964E-003  0.5016698E+03  0.7546771E-02  0.9396081E-01
        -11   -1    0    0    0    0  0.00000000000E+00  0.00000000000E+00  0.50000000000E+03  0.50000000000E+03  0.00000000000E+00 0. -1.
         11   -1    0    0    0    0 -0.00000000000E+00 -0.00000000000E+00 -0.50000000000E+03  0.50000000000E+03  0.00000000000E+00 0.  1.
        -11    1    1    2    0    0 -0.10410248193E+02 -0.38622176914E+01  0.49820647627E+03  0.49833019474E+03  0.00000000000E+00 0. -1.
         11    1    1    2    0    0  0.48652427160E+00  0.84783346292E+01 -0.46149315557E+03  0.46157128539E+03  0.00000000000E+00 0.  1.
        -15    1    1    2    0    0  0.59782228814E+01 -0.76723111712E+01 -0.16810100337E+02  0.19502325756E+02  0.17770000000E+01 0. -1.
         15    1    1    2    0    0  0.39455010403E+01  0.30561942334E+01 -0.19903220370E+02  0.20596194109E+02  0.17770000000E+01 0.  1.
</event>
<event>
 6    1  0.4028964E-003  0.5046886E+03  0.7546771E-02  0.9389379E-01
        -11   -1    0    0    0    0  0.00000000000E+00  0.00000000000E+00  0.50000000000E+03  0.50000000000E+03  0.00000000000E+00 0.  1.
         11   -1    0    0    0    0 -0.00000000000E+00 -0.00000000000E+00 -0.50000000000E+03  0.50000000000E+03  0.00000000000E+00 0. -1.
        -11    1    1    2    0    0 -0.37708427456E+02 -0.78776711006E+01  0.49381106004E+03  0.49531136291E+03  0.00000000000E+00 0.  1.
         11    1    1    2    0    0  0.65088831562E+01 -0.44098719246E+00 -0.41055890894E+03  0.41061073749E+03  0.00000000000E+00 0. -1.
        -15    1    1    2    0    0  0.29355934944E+02  0.12867631617E+02 -0.82838983543E+02  0.88841441813E+02  0.17770000000E+01 0.  1.
         15    1    1    2    0    0  0.18436093558E+01 -0.45489733237E+01 -0.41316755568E+00  0.52364577900E+01  0.17770000000E+01 0. -1.
</event>
<event>
 6    1  0.4028964E-003  0.5242388E+03  0.7546771E-02  0.9347149E-01
        -11   -1    0    0    0    0  0.00000000000E+00  0.00000000000E+00  0.50000000000E+03  0.50000000000E+03  0.00000000000E+00 0.  1.
         11   -1    0    0    0    0 -0.00000000000E+00 -0.00000000000E+00 -0.50000000000E+03  0.50000000000E+03  0.00000000000E+00 0. -1.
        -11    1    1    2    0    0  0.72629875641E+01  0.28527582955E+01  0.47569719187E+03  0.47576118755E+03  0.00000000000E+00 0.  1.
         11    1    1    2    0    0 -0.73116227272E+01 -0.13810518961E+01 -0.46663282158E+03  0.46669214404E+03  0.00000000000E+00 0. -1.
        -15    1    1    2    0    0 -0.12632137316E+01 -0.78987007656E+01  0.23184286678E+02  0.24589714527E+02  0.17770000000E+01 0.  1.
         15    1    1    2    0    0  0.13118488948E+01  0.64269943663E+01 -0.32248656972E+02  0.32956953888E+02  0.17770000000E+01 0. -1.
</event>
<event>
 6    1  0.4028964E-003  0.5031721E+03  0.7546771E-02  0.9392740E-01
        -11   -1    0    0    0    0  0.00000000000E+00  0.00000000000E+00  0.50000000000E+03  0.50000000000E+03  0.00000000000E+00 0.  1.
         11   -1    0    0    0    0 -0.00000000000E+00 -0.00000000000E+00 -0.50000000000E+03  0.50000000000E+03  0.00000000000E+00 0. -1.
        -11    1    1    2    0    0  0.14097067283E+01 -0.79844714082E+01  0.43300568510E+03  0.43308158860E+03  0.00000000000E+00 0.  1.
         11    1    1    2    0    0  0.56480272522E+01 -0.97639777076E+01 -0.49669985021E+03  0.49682791454E+03  0.00000000000E+00 0. -1.
        -15    1    1    2    0    0 -0.80969047610E+01  0.13539642397E+02  0.17377908644E+02  0.23537867804E+02  0.17770000000E+01 0.  1.
         15    1    1    2    0    0  0.10391707805E+01  0.42088067192E+01  0.46316256465E+02  0.46552629054E+02  0.17770000000E+01 0. -1.
</event>
<event>
 6    1  0.4028964E-003  0.5021676E+03  0.7546771E-02  0.9394972E-01
        -11   -1    0    0    0    0  0.00000000000E+00  0.00000000000E+00  0.50000000000E+03  0.50000000000E+03  0.00000000000E+00 0.  1.
         11   -1    0    0    0    0 -0.00000000000E+00 -0.00000000000E+00 -0.50000000000E+03  0.50000000000E+03  0.00000000000E+00 0.  1.
        -11    1    1    2    0    0  0.78689271933E+01 -0.11963111248E+01  0.43684600892E+03  0.43691851264E+03  0.00000000000E+00 0.  1.
         11    1    1    2    0    0 -0.12552697485E+02 -0.32707622149E+01 -0.49766332337E+03  0.49783235283E+03  0.00000000000E+00 0.  1.
        -15    1    1    2    0    0  0.32239360782E+01  0.85439764332E+01  0.81322865665E+01  0.12356581685E+02  0.17770000000E+01 0. -1.
         15    1    1    2    0    0  0.14598342140E+01 -0.40769030935E+01  0.52685027877E+02  0.52892552842E+02  0.17770000000E+01 0.  1.
</event>
<event>
 6    1  0.4028964E-003  0.5033464E+03  0.7546771E-02  0.9392353E-01
        -11   -1    0    0    0    0  0.00000000000E+00  0.00000000000E+00  0.50000000000E+03  0.50000000000E+03  0.00000000000E+00 0. -1.
         11   -1    0    0    0    0 -0.00000000000E+00 -0.00000000000E+00 -0.50000000000E+03  0.50000000000E+03  0.00000000000E+00 0. -1.
        -11    1    1    2    0    0 -0.55538830478E+01  0.24490869570E+01  0.39751403578E+03  0.39756037565E+03  0.00000000000E+00 0. -1.
         11    1    1    2    0    0  0.19173986345E+01  0.10372066471E+02 -0.49654162589E+03  0.49665364432E+03  0.00000000000E+00 0. -1.
        -15    1    1    2    0    0 -0.17836807047E+01  0.42148970341E+00 -0.23009139150E+01  0.34367287165E+01  0.17770000000E+01 0. -1.
         15    1    1    2    0    0  0.54201651180E+01 -0.13242643131E+02  0.10132850402E+03  0.10234925131E+03  0.17770000000E+01 0.  1.
</event>
<event>
 6    1  0.4028964E-003  0.5135495E+03  0.7546771E-02  0.9369992E-01
        -11   -1    0    0    0    0  0.00000000000E+00  0.00000000000E+00  0.50000000000E+03  0.50000000000E+03  0.00000000000E+00 0.  1.
         11   -1    0    0    0    0 -0.00000000000E+00 -0.00000000000E+00 -0.50000000000E+03  0.50000000000E+03  0.00000000000E+00 0.  1.
        -11    1    1    2    0    0  0.42119598437E+01  0.69542672527E+01  0.48638252333E+03  0.48645047172E+03  0.00000000000E+00 0.  1.
         11    1    1    2    0    0  0.70681274821E+01 -0.55781778467E+01 -0.27310021854E+03  0.27324861182E+03  0.00000000000E+00 0.  1.
        -15    1    1    2    0    0 -0.44469274147E+02  0.38458384618E+02 -0.11439873460E+03  0.12863433406E+03  0.17770000000E+01 0.  1.
         15    1    1    2    0    0  0.33189186821E+02 -0.39834474024E+02 -0.98883570187E+02  0.11166658240E+03  0.17770000000E+01 0. -1.
</event>
<event>
 6    1  0.4028964E-003  0.5095397E+03  0.7546771E-02  0.9378713E-01
        -11   -1    0    0    0    0  0.00000000000E+00  0.00000000000E+00  0.50000000000E+03  0.50000000000E+03  0.00000000000E+00 0. -1.
         11   -1    0    0    0    0 -0.00000000000E+00 -0.00000000000E+00 -0.50000000000E+03  0.50000000000E+03  0.00000000000E+00 0.  1.
        -11    1    1    2    0    0 -0.36898162927E+01  0.71156919342E+01  0.46124451987E+03  0.46131416077E+03  0.00000000000E+00 0. -1.
         11    1    1    2    0    0  0.66182744077E+01 -0.76916300664E+01 -0.49035529217E+03  0.49046026882E+03  0.00000000000E+00 0.  1.
        -15    1    1    2    0    0 -0.13538043911E+02 -0.32559819170E+01  0.33240092450E+02  0.36082426834E+02  0.17770000000E+01 0.  1.
         15    1    1    2    0    0  0.10609585796E+02  0.38319200492E+01 -0.41293201464E+01  0.12143143575E+02  0.17770000000E+01 0. -1.
</event>
<event>
 6    1  0.4028964E-003  0.5009990E+03  0.7546771E-02  0.9397577E-01
        -11   -1    0    0    0    0  0.00000000000E+00  0.00000000000E+00  0.50000000000E+03  0.50000000000E+03  0.00000000000E+00 0. -1.
         11   -1    0    0    0    0 -0.00000000000E+00 -0.00000000000E+00 -0.50000000000E+03  0.50000000000E+03  0.00000000000E+00 0.  1.
        -11    1    1    2    0    0 -0.59479547767E+01 -0.78828146672E+01  0.31895414376E+03  0.31910697698E+03  0.00000000000E+00 0. -1.
         11    1    1    2    0    0 -0.14106751454E+01  0.95303758234E+01 -0.49890797279E+03  0.49900098535E+03  0.00000000000E+00 0.  1.
        -15    1    1    2    0    0  0.28018628414E+01 -0.31170603206E+01  0.46276138049E+01  0.64914589232E+01  0.17770000000E+01 0. -1.
         15    1    1    2    0    0  0.45567670807E+01  0.14694991644E+01  0.17532621522E+03  0.17540057875E+03  0.17770000000E+01 0.  1.
</event>
<event>
 6    1  0.4028964E-003  0.5002936E+03  0.7546771E-02  0.9399153E-01
        -11   -1    0    0    0    0  0.00000000000E+00  0.00000000000E+00  0.50000000000E+03  0.50000000000E+03  0.00000000000E+00 0. -1.
         11   -1    0    0    0    0 -0.00000000000E+00 -0.00000000000E+00 -0.50000000000E+03  0.50000000000E+03  0.00000000000E+00 0. -1.
        -11    1    1    2    0    0 -0.95522365844E+00 -0.19605559877E+01  0.11783535921E+03  0.11785553916E+03  0.00000000000E+00 0. -1.
         11    1    1    2    0    0  0.79601219954E+01  0.63907539785E+00 -0.49964260442E+03  0.49970641792E+03  0.00000000000E+00 0. -1.
        -15    1    1    2    0    0 -0.71321482349E+01 -0.42238927245E+01  0.34995334833E+03  0.35005601344E+03  0.17770000000E+01 0. -1.
         15    1    1    2    0    0  0.12724989789E+00  0.55453733144E+01  0.31853896882E+02  0.32382029481E+02  0.17770000000E+01 0.  1.
</event>
<event>
 6    1  0.4028964E-003  0.5078922E+03  0.7546771E-02  0.9382322E-01
        -11   -1    0    0    0    0  0.00000000000E+00  0.00000000000E+00  0.50000000000E+03  0.50000000000E+03  0.00000000000E+00 0. -1.
         11   -1    0    0    0    0 -0.00000000000E+00 -0.00000000000E+00 -0.50000000000E+03  0.50000000000E+03  0.00000000000E+00 0.  1.
        -11    1    1    2    0    0  0.33466754075E+02  0.14199718675E+02  0.32616286142E+03  0.32818267445E+03  0.00000000000E+00 0. -1.
         11    1    1    2    0    0  0.35961393058E+01 -0.14007412439E+02 -0.49189529775E+03  0.49210783754E+03  0.00000000000E+00 0.  1.
        -15    1    1    2    0    0 -0.10942463709E+01 -0.99020810826E+01  0.29953239095E+00  0.10124032474E+02  0.17770000000E+01 0.  1.
         15    1    1    2    0    0 -0.35968647010E+02  0.97097748466E+01  0.16543290393E+03  0.16958545553E+03  0.17770000000E+01 0. -1.
</event>
<event>
 6    1  0.4028964E-003  0.5202354E+03  0.7546771E-02  0.9355636E-01
        -11   -1    0    0    0    0  0.00000000000E+00  0.00000000000E+00  0.50000000000E+03  0.50000000000E+03  0.00000000000E+00 0.  1.
         11   -1    0    0    0    0 -0.00000000000E+00 -0.00000000000E+00 -0.50000000000E+03  0.50000000000E+03  0.00000000000E+00 0.  1.
        -11    1    1    2    0    0 -0.80122608783E+01 -0.21902114015E+02  0.44228477550E+03  0.44289922281E+03  0.00000000000E+00 0.  1.
         11    1    1    2    0    0 -0.67876270995E+01 -0.11314330970E+01 -0.47971522697E+03  0.47976457874E+03  0.00000000000E+00 0.  1.
        -15    1    1    2    0    0  0.44883385461E+01  0.10264464915E+02  0.53266064726E+02  0.54460405831E+02  0.17770000000E+01 0.  1.
         15    1    1    2    0    0  0.10311549432E+02  0.12769082197E+02 -0.15835613258E+02  0.22875792622E+02  0.17770000000E+01 0. -1.
</event>
<event>
 6    1  0.4028964E-003  0.5007559E+03  0.7546771E-02  0.9398120E-01
        -11   -1    0    0    0    0  0.00000000000E+00  0.00000000000E+00  0.50000000000E+03  0.50000000000E+03  0.00000000000E+00 0. -1.
         11   -1    0    0    0    0 -0.00000000000E+00 -0.00000000000E+00 -0.50000000000E+03  0.50000000000E+03  0.00000000000E+00 0.  1.
        -11    1    1    2    0    0 -0.28753444868E+01  0.18005970785E+01  0.17223978930E+03  0.17227319807E+03  0.00000000000E+00 0. -1.
         11    1    1    2    0    0  0.10319401111E+02 -0.43918793003E+01 -0.49911807499E+03  0.49924405998E+03  0.00000000000E+00 0.  1.
        -15    1    1    2    0    0  0.52439374588E+01 -0.10513507227E+02  0.19167957600E+03  0.19204752094E+03  0.17770000000E+01 0. -1.
         15    1    1    2    0    0 -0.12687994083E+02  0.13104789448E+02  0.13519870969E+03  0.13643522101E+03  0.17770000000E+01 0.  1.
</event>
<event>
 6    1  0.4028964E-003  0.5013589E+03  0.7546771E-02  0.9396774E-01
        -11   -1    0    0    0    0  0.00000000000E+00  0.00000000000E+00  0.50000000000E+03  0.50000000000E+03  0.00000000000E+00 0.  1.
         11   -1    0    0    0    0 -0.00000000000E+00 -0.00000000000E+00 -0.50000000000E+03  0.50000000000E+03  0.00000000000E+00 0. -1.
        -11    1    1    2    0    0  0.16095856920E+02  0.20861280144E+01  0.22879572851E+03  0.22937069107E+03  0.00000000000E+00 0.  1.
         11    1    1    2    0    0  0.65448528063E+01 -0.27787158574E+01 -0.49859036636E+03  0.49864106308E+03  0.00000000000E+00 0. -1.
        -15    1    1    2    0    0 -0.11479174846E+02  0.61101181866E+01  0.45807102253E+02  0.47650323663E+02  0.17770000000E+01 0.  1.
         15    1    1    2    0    0 -0.11161534880E+02 -0.54175303436E+01  0.22398753560E+03  0.22433792218E+03  0.17770000000E+01 0.  1.
</event>
<event>
 6    1  0.4028964E-003  0.5018709E+03  0.7546771E-02  0.9395633E-01
        -11   -1    0    0    0    0  0.00000000000E+00  0.00000000000E+00  0.50000000000E+03  0.50000000000E+03  0.00000000000E+00 0.  1.
         11   -1    0    0    0    0 -0.00000000000E+00 -0.00000000000E+00 -0.50000000000E+03  0.50000000000E+03  0.00000000000E+00 0.  1.
        -11    1    1    2    0    0  0.61577313748E+01  0.82483055431E+01  0.45656284109E+03  0.45667885878E+03  0.00000000000E+00 0.  1.
         11    1    1    2    0    0  0.62643019147E+01 -0.42798112053E+01 -0.49807129589E+03  0.49812907368E+03  0.00000000000E+00 0.  1.
        -15    1    1    2    0    0 -0.86941555875E+01 -0.24400627869E+01  0.39108960276E+02  0.40177241700E+02  0.17770000000E+01 0.  1.
         15    1    1    2    0    0 -0.37278777020E+01 -0.15284315509E+01  0.23994945242E+01  0.50148258333E+01  0.17770000000E+01 0. -1.
</event>
<event>
 6    1  0.4028964E-003  0.5011476E+03  0.7546771E-02  0.9397246E-01
        -11   -1    0    0    0    0  0.00000000000E+00  0.00000000000E+00  0.50000000000E+03  0.50000000000E+03  0.00000000000E+00 0.  1.
         11   -1    0    0    0    0 -0.00000000000E+00 -0.00000000000E+00 -0.50000000000E+03  0.50000000000E+03  0.00000000000E+00 0.  1.
        -11    1    1    2    0    0  0.99712612822E+01  0.70312080941E+01  0.49870320224E+03  0.49885243095E+03  0.00000000000E+00 0.  1.
         11    1    1    2    0    0 -0.63014831438E+01  0.13026534310E+02 -0.30615742907E+03  0.30649921805E+03  0.00000000000E+00 0.  1.
        -15    1    1    2    0    0  0.81489970370E+01 -0.82265071146E+01 -0.79557046156E+02  0.80414941982E+02  0.17770000000E+01 0. -1.
         15    1    1    2    0    0 -0.11818775175E+02 -0.11831235289E+02 -0.11298872701E+03  0.11423340902E+03  0.17770000000E+01 0.  1.
</event>
<event>
 6    1  0.4028964E-003  0.4797468E+03  0.7546771E-02  0.9446304E-01
        -11   -1    0    0    0    0  0.00000000000E+00  0.00000000000E+00  0.50000000000E+03  0.50000000000E+03  0.00000000000E+00 0.  1.
         11   -1    0    0    0    0 -0.00000000000E+00 -0.00000000000E+00 -0.50000000000E+03  0.50000000000E+03  0.00000000000E+00 0. -1.
        -11    1    1    2    0    0  0.14221315044E+01 -0.14894804025E+02  0.47844942101E+03  0.47868332550E+03  0.00000000000E+00 0.  1.
         11    1    1    2    0    0 -0.11052340992E+02  0.10017299716E+01 -0.48083409981E+03  0.48096214949E+03  0.00000000000E+00 0. -1.
        -15    1    1    2    0    0 -0.31916656814E+01  0.19193635561E+02  0.12409065193E+02  0.23145734031E+02  0.17770000000E+01 0. -1.
         15    1    1    2    0    0  0.12821875169E+02 -0.53005615077E+01 -0.10024386396E+02  0.17208790973E+02  0.17770000000E+01 0.  1.
</event>
<event>
 6    1  0.4028964E-003  0.5213169E+03  0.7546771E-02  0.9353335E-01
        -11   -1    0    0    0    0  0.00000000000E+00  0.00000000000E+00  0.50000000000E+03  0.50000000000E+03  0.00000000000E+00 0.  1.
         11   -1    0    0    0    0 -0.00000000000E+00 -0.00000000000E+00 -0.50000000000E+03  0.50000000000E+03  0.00000000000E+00 0. -1.
        -11    1    1    2    0    0  0.13678421373E+02 -0.21517395037E+01  0.47848277711E+03  0.47868308638E+03  0.00000000000E+00 0.  1.
         11    1    1    2    0    0 -0.88809410465E+01 -0.86549095667E+00 -0.44082271052E+03  0.44091300990E+03  0.00000000000E+00 0. -1.
        -15    1    1    2    0    0 -0.45408352880E+01  0.47820849990E+01 -0.58759356614E+02  0.59154942657E+02  0.17770000000E+01 0. -1.
         15    1    1    2    0    0 -0.25664503880E+00 -0.17648545387E+01  0.21099290021E+02  0.21248961072E+02  0.17770000000E+01 0.  1.
</event>
<event>
 6    1  0.4028964E-003  0.5133744E+03  0.7546771E-02  0.9370371E-01
        -11   -1    0    0    0    0  0.00000000000E+00  0.00000000000E+00  0.50000000000E+03  0.50000000000E+03  0.00000000000E+00 0. -1.
         11   -1    0    0    0    0 -0.00000000000E+00 -0.00000000000E+00 -0.50000000000E+03  0.50000000000E+03  0.00000000000E+00 0. -1.
        -11    1    1    2    0    0 -0.26167633153E+02 -0.57696695381E+01  0.48588728621E+03  0.48662561483E+03  0.00000000000E+00 0. -1.
         11    1    1    2    0    0  0.33724716818E+01  0.14984349230E+02 -0.25507448480E+03  0.25553648875E+03  0.00000000000E+00 0. -1.
        -15    1    1    2    0    0  0.38185469253E+02 -0.53237602496E+02 -0.16135019416E+03  0.17415342450E+03  0.17770000000E+01 0.  1.
         15    1    1    2    0    0 -0.15390307782E+02  0.44022922804E+02 -0.69462607247E+02  0.83684471919E+02  0.17770000000E+01 0. -1.
</event>
<event>
 6    1  0.4028964E-003  0.5220368E+03  0.7546771E-02  0.9351807E-01
        -11   -1    0    0    0    0  0.00000000000E+00  0.00000000000E+00  0.50000000000E+03  0.50000000000E+03  0.00000000000E+00 0.  1.
         11   -1    0    0    0    0 -0.00000000000E+00 -0.00000000000E+00 -0.50000000000E+03  0.50000000000E+03  0.00000000000E+00 0. -1.
        -11    1    1    2    0    0 -0.65492377139E+01 -0.38328634922E+00  0.46676941524E+03  0.46681551648E+03  0.00000000000E+00 0.  1.
         11    1    1    2    0    0 -0.59222128587E+01 -0.72746861081E+01 -0.47787113029E+03  0.47796318982E+03  0.00000000000E+00 0. -1.
        -15    1    1    2    0    0 -0.33360237098E+01 -0.15258423250E+02  0.20456192164E+02  0.25798489512E+02  0.17770000000E+01 0.  1.
         15    1    1    2    0    0  0.15807474282E+02  0.22916395707E+02 -0.93544771137E+01  0.29422804191E+02  0.17770000000E+01 0. -1.
</event>
<event>
 6    1  0.4028964E-003  0.5093834E+03  0.7546771E-02  0.9379055E-01
        -11   -1    0    0    0    0  0.00000000000E+00  0.00000000000E+00  0.50000000000E+03  0.50000000000E+03  0.00000000000E+00 0. -1.
         11   -1    0    0    0    0 -0.00000000000E+00 -0.00000000000E+00 -0.50000000000E+03  0.50000000000E+03  0.00000000000E+00 0. -1.
        -11    1    1    2    0    0 -0.16471114807E+02  0.60722378202E+00  0.46967117837E+03  0.46996029847E+03  0.00000000000E+00 0. -1.
         11    1    1    2    0    0 -0.11068960363E+02  0.31483875830E+01 -0.49048160963E+03  0.49061659533E+03  0.00000000000E+00 0. -1.
        -15    1    1    2    0    0  0.16418531278E+02 -0.73169541467E+01  0.20882590944E+02  0.27610619711E+02  0.17770000000E+01 0. -1.
         15    1    1    2    0    0  0.11121543892E+02  0.35613427817E+01 -0.72159682916E-01  0.11812486486E+02  0.17770000000E+01 0.  1.
</event>
<event>
 6    1  0.4028964E-003  0.5036516E+03  0.7546771E-02  0.9391676E-01
        -11   -1    0    0    0    0  0.00000000000E+00  0.00000000000E+00  0.50000000000E+03  0.50000000000E+03  0.00000000000E+00 0. -1.
         11   -1    0    0    0    0 -0.00000000000E+00 -0.00000000000E+00 -0.50000000000E+03  0.50000000000E+03  0.00000000000E+00 0. -1.
        -11    1    1    2    0    0 -0.14350698862E+01  0.27901718021E+02  0.49556151734E+03  0.49634844894E+03  0.00000000000E+00 0. -1.
         11    1    1    2    0    0  0.48003553916E+01 -0.19706011719E+01 -0.28627281601E+03  0.28631984190E+03  0.00000000000E+00 0. -1.
        -15    1    1    2    0    0 -0.25052443090E+02 -0.30252557047E+01 -0.67980845651E+02  0.72535027272E+02  0.17770000000E+01 0.  1.
         15    1    1    2    0    0  0.21687157584E+02 -0.22905861144E+02 -0.14130785569E+03  0.14479668189E+03  0.17770000000E+01 0. -1.
</event>
<event>
 6    1  0.4028964E-003  0.5013063E+03  0.7546771E-02  0.9396892E-01
        -11   -1    0    0    0    0  0.00000000000E+00  0.00000000000E+00  0.50000000000E+03  0.50000000000E+03  0.00000000000E+00 0. -1.
         11   -1    0    0    0    0 -0.00000000000E+00 -0.00000000000E+00 -0.50000000000E+03  0.50000000000E+03  0.00000000000E+00 0.  1.
        -11    1    1    2    0    0  0.66246709662E+01  0.76573751699E+01  0.49859094356E+03  0.49869374436E+03  0.00000000000E+00 0. -1.
         11    1    1    2    0    0  0.51645294823E+01 -0.99726090504E+01 -0.10429502367E+03  0.10489793734E+03  0.00000000000E+00 0.  1.
        -15    1    1    2    0    0  0.32642766533E+01  0.72763820940E+01 -0.17922087538E+02  0.19696705033E+02  0.17770000000E+01 0. -1.
         15    1    1    2    0    0 -0.15053477102E+02 -0.49611482135E+01 -0.37637383235E+03  0.37671161327E+03  0.17770000000E+01 0.  1.
</event>
<event>
 6    1  0.4028964E-003  0.5038976E+03  0.7546771E-02  0.9391130E-01
        -11   -1    0    0    0    0  0.00000000000E+00  0.00000000000E+00  0.50000000000E+03  0.50000000000E+03  0.00000000000E+00 0.  1.
         11   -1    0    0    0    0 -0.00000000000E+00 -0.00000000000E+00 -0.50000000000E+03  0.50000000000E+03  0.00000000000E+00 0.  1.
        -11    1    1    2    0    0 -0.89996104749E+01  0.69829785696E+01  0.49597159560E+03  0.49610238724E+03  0.00000000000E+00 0.  1.
         11    1    1    2    0    0 -0.60255586681E+01  0.11895170930E+02 -0.41911299998E+03  0.41932506388E+03  0.00000000000E+00 0.  1.
        -15    1    1    2    0    0 -0.40892715181E+01 -0.74733596822E+01 -0.68071671008E+01  0.11048461405E+02  0.17770000000E+01 0. -1.
         15    1    1    2    0    0  0.19114440661E+02 -0.11404789817E+02 -0.70051428524E+02  0.73524087480E+02  0.17770000000E+01 0.  1.
</event>
<event>
 6    1  0.4028964E-003  0.5040480E+03  0.7546771E-02  0.9390797E-01
        -11   -1    0    0    0    0  0.00000000000E+00  0.00000000000E+00  0.50000000000E+03  0.50000000000E+03  0.00000000000E+00 0.  1.
         11   -1    0    0    0    0 -0.00000000000E+00 -0.00000000000E+00 -0.50000000000E+03  0.50000000000E+03  0.00000000000E+00 0.  1.
        -11    1    1    2    0    0  0.80855778811E+01 -0.87889236170E+01  0.35943823265E+03  0.35963657328E+03  0.00000000000E+00 0.  1.
         11    1    1    2    0    0  0.40928151424E+01 -0.90636750552E+01 -0.49585232029E+03  0.49595203889E+03  0.00000000000E+00 0.  1.
        -15    1    1    2    0    0  0.55332429037E+01 -0.41434494292E+01  0.88339848567E+02  0.88627713070E+02  0.17770000000E+01 0.  1.
         15    1    1    2    0    0 -0.17711635927E+02  0.21996048101E+02  0.48074239069E+02  0.55783674766E+02  0.17770000000E+01 0. -1.
</event>
<event>
 6    1  0.4028964E-003  0.5023297E+03  0.7546771E-02  0.9394612E-01
        -11   -1    0    0    0    0  0.00000000000E+00  0.00000000000E+00  0.50000000000E+03  0.50000000000E+03  0.00000000000E+00 0.  1.
         11   -1    0    0    0    0 -0.00000000000E+00 -0.00000000000E+00 -0.50000000000E+03  0.50000000000E+03  0.00000000000E+00 0. -1.
        -11    1    1    2    0    0 -0.12874424860E+02 -0.10198563147E+01  0.49750271470E+03  0.49767031462E+03  0.00000000000E+00 0.  1.
         11    1    1    2    0    0  0.27540896749E+01  0.72534496291E+01 -0.40682371529E+03  0.40689769336E+03  0.00000000000E+00 0. -1.
        -15    1    1    2    0    0  0.45257264922E+01  0.60234321677E+01 -0.63422363694E+01  0.10007278677E+02  0.17770000000E+01 0.  1.
         15    1    1    2    0    0  0.55946086930E+01 -0.12257025482E+02 -0.84336763041E+02  0.85424713341E+02  0.17770000000E+01 0. -1.
</event>
<event>
 6    1  0.4028964E-003  0.5006942E+03  0.7546771E-02  0.9398258E-01
        -11   -1    0    0    0    0  0.00000000000E+00  0.00000000000E+00  0.50000000000E+03  0.50000000000E+03  0.00000000000E+00 0. -1.
         11   -1    0    0    0    0 -0.00000000000E+00 -0.00000000000E+00 -0.50000000000E+03  0.50000000000E+03  0.00000000000E+00 0. -1.
        -11    1    1    2    0    0  0.30480351838E+01 -0.11474650419E+01  0.19772374339E+03  0.19775056484E+03  0.00000000000E+00 0. -1.
         11    1    1    2    0    0 -0.43749836738E+01  0.56929229795E+01 -0.49925420628E+03  0.49930583048E+03  0.00000000000E+00 0. -1.
        -15    1    1    2    0    0 -0.79826966203E+01  0.42538455801E+01  0.38228551630E+02  0.39324274135E+02  0.17770000000E+01 0.  1.
         15    1    1    2    0    0  0.93096451103E+01 -0.87993035177E+01  0.26330191127E+03  0.26361933055E+03  0.17770000000E+01 0. -1.
</event>
<event>
 6    1  0.4028964E-003  0.5145265E+03  0.7546771E-02  0.9367880E-01
        -11   -1    0    0    0    0  0.00000000000E+00  0.00000000000E+00  0.50000000000E+03  0.50000000000E+03  0.00000000000E+00 0. -1.
         11   -1    0    0    0    0 -0.00000000000E+00 -0.00000000000E+00 -0.50000000000E+03  0.50000000000E+03  0.00000000000E+00 0. -1.
        -11    1    1    2    0    0 -0.50095367091E+01  0.48491390746E+01  0.48542341798E+03  0.48547348469E+03  0.00000000000E+00 0. -1.
         11    1    1    2    0    0  0.43442833464E+01 -0.13265378074E+02 -0.47507207198E+03  0.47527709458E+03  0.00000000000E+00 0. -1.
        -15    1    1    2    0    0 -0.60379937945E+01 -0.19634161830E+01  0.11975102037E+02  0.13670156179E+02  0.17770000000E+01 0.  1.
         15    1    1    2    0    0  0.67032471572E+01  0.10379655182E+02 -0.22326448040E+02  0.25579264556E+02  0.17770000000E+01 0. -1.
</event>
<event>
 6    1  0.4028964E-003  0.4810678E+03  0.7546771E-02  0.9443198E-01
        -11   -1    0    0    0    0  0.00000000000E+00  0.00000000000E+00  0.50000000000E+03  0.50000000000E+03  0.00000000000E+00 0.  1.
         11   -1    0    0    0    0 -0.00000000000E+00 -0.00000000000E+00 -0.50000000000E+03  0.50000000000E+03  0.00000000000E+00 0.  1.
        -11    1    1    2    0    0  0.15941176807E+02  0.58729577255E+01  0.48343116951E+03  0.48372958189E+03  0.00000000000E+00 0.  1.
         11    1    1    2    0    0 -0.96003361359E+01  0.18877126307E+01 -0.47837155477E+03  0.47847160243E+03  0.00000000000E+00 0.  1.
        -15    1    1    2    0    0  0.50631974240E+01 -0.48274413427E+01  0.13754078976E+02  0.15532951283E+02  0.17770000000E+01 0.  1.
         15    1    1    2    0    0 -0.11404038095E+02 -0.29332290135E+01 -0.18813693709E+02  0.22265864396E+02  0.17770000000E+01 0. -1.
</event>
<event>
 6    1  0.4028964E-003  0.5022320E+03  0.7546771E-02  0.9394829E-01
        -11   -1    0    0    0    0  0.00000000000E+00  0.00000000000E+00  0.50000000000E+03  0.50000000000E+03  0.00000000000E+00 0.  1.
         11   -1    0    0    0    0 -0.00000000000E+00 -0.00000000000E+00 -0.50000000000E+03  0.50000000000E+03  0.00000000000E+00 0.  1.
        -11    1    1    2    0    0  0.64602436830E+01  0.62592645151E+01  0.45137823170E+03  0.45146785178E+03  0.00000000000E+00 0.  1.
         11    1    1    2    0    0  0.38866912546E+01 -0.10313645650E+02 -0.49764596142E+03  0.49776799875E+03  0.00000000000E+00 0.  1.
        -15    1    1    2    0    0 -0.86448132467E+01 -0.20540826245E+01  0.41884148074E+02  0.42853140380E+02  0.17770000000E+01 0.  1.
         15    1    1    2    0    0 -0.17021216909E+01  0.61084637596E+01  0.43835816502E+01  0.79110090909E+01  0.17770000000E+01 0. -1.
</event>
<event>
 6    1  0.4028964E-003  0.5028223E+03  0.7546771E-02  0.9393517E-01
        -11   -1    0    0    0    0  0.00000000000E+00  0.00000000000E+00  0.50000000000E+03  0.50000000000E+03  0.00000000000E+00 0.  1.
         11   -1    0    0    0    0 -0.00000000000E+00 -0.00000000000E+00 -0.50000000000E+03  0.50000000000E+03  0.00000000000E+00 0. -1.
        -11    1    1    2    0    0  0.54725743294E+01  0.48354437098E+01  0.49712403890E+03  0.49717767512E+03  0.00000000000E+00 0.  1.
         11    1    1    2    0    0 -0.10712779666E+02 -0.66470957258E+01 -0.42779406822E+03  0.42797980365E+03  0.00000000000E+00 0. -1.
        -15    1    1    2    0    0 -0.51940056496E+01 -0.99832310212E+01 -0.19856719581E+02  0.22893004124E+02  0.17770000000E+01 0. -1.
         15    1    1    2    0    0  0.10434210986E+02  0.11794883037E+02 -0.49473251093E+02  0.51949517106E+02  0.17770000000E+01 0.  1.
</event>
<event>
 6    1  0.4028964E-003  0.5115159E+03  0.7546771E-02  0.9374404E-01
        -11   -1    0    0    0    0  0.00000000000E+00  0.00000000000E+00  0.50000000000E+03  0.50000000000E+03  0.00000000000E+00 0. -1.
         11   -1    0    0    0    0 -0.00000000000E+00 -0.00000000000E+00 -0.50000000000E+03  0.50000000000E+03  0.00000000000E+00 0. -1.
        -11    1    1    2    0    0  0.34150947674E+01 -0.11605655369E+02  0.48334107946E+03  0.48349245413E+03  0.00000000000E+00 0. -1.
         11    1    1    2    0    0 -0.18857686665E+01  0.14441518718E+02 -0.48826692586E+03  0.48848408825E+03  0.00000000000E+00 0. -1.
        -15    1    1    2    0    0 -0.33219939784E+01  0.67664022557E+01  0.13063207956E+02  0.15186341711E+02  0.17770000000E+01 0. -1.
         15    1    1    2    0    0  0.17926678774E+01 -0.96022656050E+01 -0.81373615528E+01  0.12837115911E+02  0.17770000000E+01 0.  1.
</event>
<event>
 6    1  0.4028964E-003  0.5011622E+03  0.7546771E-02  0.9397213E-01
        -11   -1    0    0    0    0  0.00000000000E+00  0.00000000000E+00  0.50000000000E+03  0.50000000000E+03  0.00000000000E+00 0.  1.
         11   -1    0    0    0    0 -0.00000000000E+00 -0.00000000000E+00 -0.50000000000E+03  0.50000000000E+03  0.00000000000E+00 0.  1.
        -11    1    1    2    0    0  0.65844590621E+01 -0.93816206538E+00  0.39599628658E+03  0.39605213576E+03  0.00000000000E+00 0.  1.
         11    1    1    2    0    0  0.11294157320E+02  0.10086816394E+02 -0.49860792319E+03  0.49883781224E+03  0.00000000000E+00 0.  1.
        -15    1    1    2    0    0 -0.23021826490E+01  0.53097840794E+00  0.31924852090E+02  0.32061439347E+02  0.17770000000E+01 0. -1.
         15    1    1    2    0    0 -0.15576433733E+02 -0.96796327369E+01  0.70686784511E+02  0.73048612658E+02  0.17770000000E+01 0.  1.
</event>
<event>
 6    1  0.4028964E-003  0.5047923E+03  0.7546771E-02  0.9389150E-01
        -11   -1    0    0    0    0  0.00000000000E+00  0.00000000000E+00  0.50000000000E+03  0.50000000000E+03  0.00000000000E+00 0.  1.
         11   -1    0    0    0    0 -0.00000000000E+00 -0.00000000000E+00 -0.50000000000E+03  0.50000000000E+03  0.00000000000E+00 0.  1.
        -11    1    1    2    0    0  0.55726384885E+01 -0.62271909055E+01  0.49513721381E+03  0.49520772682E+03  0.00000000000E+00 0.  1.
         11    1    1    2    0    0 -0.52933258355E+01  0.43798454895E+01 -0.46462877116E+03  0.46467956415E+03  0.00000000000E+00 0.  1.
        -15    1    1    2    0    0 -0.59579025021E+01  0.17514565130E+01  0.22333942408E+01  0.68344700582E+01  0.17770000000E+01 0.  1.
         15    1    1    2    0    0  0.56785898490E+01  0.95888902975E-01 -0.32741836890E+02  0.33278238975E+02  0.17770000000E+01 0. -1.
</event>
<event>
 6    1  0.4028964E-003  0.5027092E+03  0.7546771E-02  0.9393768E-01
        -11   -1    0    0    0    0  0.00000000000E+00  0.00000000000E+00  0.50000000000E+03  0.50000000000E+03  0.00000000000E+00 0. -1.
         11   -1    0    0    0    0 -0.00000000000E+00 -0.00000000000E+00 -0.50000000000E+03  0.50000000000E+03  0.00000000000E+00 0.  1.
        -11    1    1    2    0    0 -0.65855850417E+01  0.28607896658E+01  0.23322573574E+03  0.23333623349E+03  0.00000000000E+00 0. -1.
         11    1    1    2    0    0 -0.13241440352E+02  0.14518819856E+02 -0.49690237717E+03  0.49729076435E+03  0.00000000000E+00 0.  1.
        -15    1    1    2    0    0 -0.35767133117E+01 -0.21289993312E+02  0.20370372160E+03  0.20485219212E+03  0.17770000000E+01 0.  1.
         15    1    1    2    0    0  0.23403738705E+02  0.39103837903E+01  0.59972919821E+02  0.64520810036E+02  0.17770000000E+01 0. -1.
</event>
<event>
 6    1  0.4028964E-003  0.5070677E+03  0.7546771E-02  0.9384133E-01
        -11   -1    0    0    0    0  0.00000000000E+00  0.00000000000E+00  0.50000000000E+03  0.50000000000E+03  0.00000000000E+00 0.  1.
         11   -1    0    0    0    0 -0.00000000000E+00 -0.00000000000E+00 -0.50000000000E+03  0.50000000000E+03  0.00000000000E+00 0.  1.
        -11    1    1    2    0    0  0.60744640163E+01 -0.71161386537E+01  0.49284346146E+03  0.49293226315E+03  0.00000000000E+00 0.  1.
         11    1    1    2    0    0 -0.33512540736E+02 -0.30081490383E+00 -0.42099488930E+03  0.42232674281E+03  0.00000000000E+00 0.  1.
        -15    1    1    2    0    0  0.56630297719E+01  0.73938313478E+01  0.16860937637E+00  0.94828690974E+01  0.17770000000E+01 0.  1.
         15    1    1    2    0    0  0.21775046948E+02  0.23122209805E-01 -0.72017181544E+02  0.75258124949E+02  0.17770000000E+01 0. -1.
</event>
<event>
 6    1  0.4028964E-003  0.5034055E+03  0.7546771E-02  0.9392222E-01
        -11   -1    0    0    0    0  0.00000000000E+00  0.00000000000E+00  0.50000000000E+03  0.50000000000E+03  0.00000000000E+00 0.  1.
         11   -1    0    0    0    0 -0.00000000000E+00 -0.00000000000E+00 -0.50000000000E+03  0.50000000000E+03  0.00000000000E+00 0. -1.
        -11    1    1    2    0    0 -0.52967300316E+01  0.10661446124E+00  0.39015743269E+03  0.39019339948E+03  0.00000000000E+00 0.  1.
         11    1    1    2    0    0 -0.42686395378E+01  0.55567095826E+01 -0.49654510304E+03  0.49659454051E+03  0.00000000000E+00 0. -1.
        -15    1    1    2    0    0  0.30137921853E+01 -0.10621246564E+02  0.64258274574E+01  0.12897395451E+02  0.17770000000E+01 0. -1.
         15    1    1    2    0    0  0.65515773841E+01  0.49579225202E+01  0.99961842896E+02  0.10031466456E+03  0.17770000000E+01 0.  1.
</event>
<event>
 6    1  0.4028964E-003  0.5102170E+03  0.7546771E-02  0.9377234E-01
        -11   -1    0    0    0    0  0.00000000000E+00  0.00000000000E+00  0.50000000000E+03  0.50000000000E+03  0.00000000000E+00 0.  1.
         11   -1    0    0    0    0 -0.00000000000E+00 -0.00000000000E+00 -0.50000000000E+03  0.50000000000E+03  0.00000000000E+00 0. -1.
        -11    1    1    2    0    0 -0.22314245191E+01  0.10212939898E+02  0.48967140292E+03  0.48978297871E+03  0.00000000000E+00 0.  1.
         11    1    1    2    0    0 -0.84431263693E+01 -0.45882287131E+01 -0.41998386717E+03  0.42009378347E+03  0.00000000000E+00 0. -1.
        -15    1    1    2    0    0  0.84401821117E+01 -0.45545550491E+00 -0.78796033361E+02  0.79268005628E+02  0.17770000000E+01 0.  1.
         15    1    1    2    0    0  0.22343687767E+01 -0.51692556802E+01  0.91084976134E+01  0.10855232190E+02  0.17770000000E+01 0. -1.
</event>
<event>
 6    1  0.4028964E-003  0.5016158E+03  0.7546771E-02  0.9396202E-01
        -11   -1    0    0    0    0  0.00000000000E+00  0.00000000000E+00  0.50000000000E+03  0.50000000000E+03  0.00000000000E+00 0. -1.
         11   -1    0    0    0    0 -0.00000000000E+00 -0.00000000000E+00 -0.50000000000E+03  0.50000000000E+03  0.00000000000E+00 0.  1.
        -11    1    1    2    0    0  0.25983174292E+01 -0.10299494477E+02  0.49827100616E+03  0.49838421567E+03  0.00000000000E+00 0. -1.
         11    1    1    2    0    0  0.94043056820E+01  0.19192400657E+01 -0.44208928690E+03  0.44219346675E+03  0.00000000000E+00 0.  1.
        -15    1    1    2    0    0  0.85939112459E+00 -0.11003949725E+00 -0.19431463831E+02  0.19531773535E+02  0.17770000000E+01 0.  1.
         15    1    1    2    0    0 -0.12862014236E+02  0.84902939086E+01 -0.36750255438E+02  0.39890544050E+02  0.17770000000E+01 0.  1.
</event>
<event>
 6    1  0.4028964E-003  0.5051730E+03  0.7546771E-02  0.9388309E-01
        -11   -1    0    0    0    0  0.00000000000E+00  0.00000000000E+00  0.50000000000E+03  0.50000000000E+03  0.00000000000E+00 0.  1.
         11   -1    0    0    0    0 -0.00000000000E+00 -0.00000000000E+00 -0.50000000000E+03  0.50000000000E+03  0.00000000000E+00 0.  1.
        -11    1    1    2    0    0 -0.17800533339E+02  0.60355279519E+01  0.43824441530E+03  0.43864730038E+03  0.00000000000E+00 0.  1.
         11    1    1    2    0    0 -0.50550972596E+01 -0.68264298657E+01 -0.49475410506E+03  0.49482701889E+03  0.00000000000E+00 0.  1.
        -15    1    1    2    0    0  0.20379380433E+02  0.56410944011E+01  0.56955358927E+02  0.60780027413E+02  0.17770000000E+01 0.  1.
         15    1    1    2    0    0  0.24762501655E+01 -0.48501924873E+01 -0.44566917423E+00  0.57456533187E+01  0.17770000000E+01 0. -1.
</event>
<event>
 6    1  0.4028964E-003  0.5035421E+03  0.7546771E-02  0.9391919E-01
        -11   -1    0    0    0    0  0.00000000000E+00  0.00000000000E+00  0.50000000000E+03  0.50000000000E+03  0.00000000000E+00 0.  1.
         11   -1    0    0    0    0 -0.00000000000E+00 -0.00000000000E+00 -0.50000000000E+03  0.50000000000E+03  0.00000000000E+00 0. -1.
        -11    1    1    2    0    0  0.17361427884E+02 -0.47109910050E+01  0.49613190495E+03  0.49645793349E+03  0.00000000000E+00 0.  1.
         11    1    1    2    0    0 -0.54338940268E+01  0.10969465547E+02 -0.12764922488E+03  0.12823486652E+03  0.00000000000E+00 0. -1.
        -15    1    1    2    0    0 -0.21144472977E+02  0.24464798647E+02 -0.10520048960E+03  0.11007232100E+03  0.17770000000E+01 0.  1.
         15    1    1    2    0    0  0.92169391204E+01 -0.30723273189E+02 -0.26328219048E+03  0.26523487899E+03  0.17770000000E+01 0. -1.
</event>
<event>
 6    1  0.4028964E-003  0.5006429E+03  0.7546771E-02  0.9398372E-01
        -11   -1    0    0    0    0  0.00000000000E+00  0.00000000000E+00  0.50000000000E+03  0.50000000000E+03  0.00000000000E+00 0.  1.
         11   -1    0    0    0    0 -0.00000000000E+00 -0.00000000000E+00 -0.50000000000E+03  0.50000000000E+03  0.00000000000E+00 0.  1.
        -11    1    1    2    0    0 -0.14068922052E+02 -0.97482078300E+01  0.49906367316E+03  0.49935709867E+03  0.00000000000E+00 0.  1.
         11    1    1    2    0    0 -0.38866613779E+01 -0.22126314085E+01 -0.16807716115E+03  0.16813665268E+03  0.00000000000E+00 0.  1.
        -15    1    1    2    0    0  0.88429743249E+01  0.41045858615E+01 -0.38110970854E+02  0.39378289050E+02  0.17770000000E+01 0. -1.
         15    1    1    2    0    0  0.91126091048E+01  0.78562533770E+01 -0.29287554116E+03  0.29312795960E+03  0.17770000000E+01 0.  1.
</event>
<event>
 6    1  0.4028964E-003  0.5008552E+03  0.7546771E-02  0.9397898E-01
        -11   -1    0    0    0    0  0.00000000000E+00  0.00000000000E+00  0.50000000000E+03  0.50000000000E+03  0.00000000000E+00 0.  1.
         11   -1    0    0    0    0 -0.00000000000E+00 -0.00000000000E+00 -0.50000000000E+03  0.50000000000E+03  0.00000000000E+00 0.  1.
        -11    1    1    2    0    0  0.48114602611E+01  0.10631955688E+02  0.49900836144E+03  0.49914480206E+03  0.00000000000E+00 0.  1.
         11    1    1    2    0    0  0.34605541045E+01  0.80510944829E+01 -0.15711348733E+03  0.15735769272E+03  0.00000000000E+00 0.  1.
        -15    1    1    2    0    0 -0.19856932675E+01 -0.12824708589E+02 -0.31359610456E+03  0.31386954400E+03  0.17770000000E+01 0.  1.
         15    1    1    2    0    0 -0.62863210981E+01 -0.58583415819E+01 -0.28298769557E+02  0.29627961227E+02  0.17770000000E+01 0. -1.
</event>
<event>
 6    1  0.4028964E-003  0.5003079E+03  0.7546771E-02  0.9399121E-01
        -11   -1    0    0    0    0  0.00000000000E+00  0.00000000000E+00  0.50000000000E+03  0.50000000000E+03  0.00000000000E+00 0. -1.
         11   -1    0    0    0    0 -0.00000000000E+00 -0.00000000000E+00 -0.50000000000E+03  0.50000000000E+03  0.00000000000E+00 0.  1.
        -11    1    1    2    0    0 -0.32970152522E+00 -0.11617981827E+02  0.49955689915E+03  0.49969208688E+03  0.00000000000E+00 0. -1.
         11    1    1    2    0    0 -0.70111207255E+01  0.96637915158E+01 -0.27793648881E+03  0.27819280453E+03  0.00000000000E+00 0.  1.
        -15    1    1    2    0    0  0.93540354280E+01 -0.11637170313E+01 -0.18788047403E+03  0.18812517765E+03  0.17770000000E+01 0. -1.
         15    1    1    2    0    0 -0.20132131773E+01  0.31179073429E+01 -0.33739936317E+02  0.33989930938E+02  0.17770000000E+01 0.  1.
</event>
<event>
 6    1  0.4028964E-003  0.5014639E+03  0.7546771E-02  0.9396540E-01
        -11   -1    0    0    0    0  0.00000000000E+00  0.00000000000E+00  0.50000000000E+03  0.50000000000E+03  0.00000000000E+00 0. -1.
         11   -1    0    0    0    0 -0.00000000000E+00 -0.00000000000E+00 -0.50000000000E+03  0.50000000000E+03  0.00000000000E+00 0. -1.
        -11    1    1    2    0    0 -0.67488964820E+01 -0.63465120655E+01  0.49845002765E+03  0.49853611292E+03  0.00000000000E+00 0. -1.
         11    1    1    2    0    0  0.70587306221E+01 -0.14207248106E+01 -0.45839585634E+03  0.45845240238E+03  0.00000000000E+00 0. -1.
        -15    1    1    2    0    0 -0.34670979622E+00  0.71071715962E+01 -0.78181776549E+01  0.10719782023E+02  0.17770000000E+01 0. -1.
         15    1    1    2    0    0  0.36875656100E-01  0.66006527997E+00 -0.32235993651E+02  0.32291702675E+02  0.17770000000E+01 0.  1.
</event>
<event>
 6    1  0.4028964E-003  0.5044302E+03  0.7546771E-02  0.9389951E-01
        -11   -1    0    0    0    0  0.00000000000E+00  0.00000000000E+00  0.50000000000E+03  0.50000000000E+03  0.00000000000E+00 0. -1.
         11   -1    0    0    0    0 -0.00000000000E+00 -0.00000000000E+00 -0.50000000000E+03  0.50000000000E+03  0.00000000000E+00 0. -1.
        -11    1    1    2    0    0  0.20390197437E+01 -0.68810402186E+01  0.49551780139E+03  0.49556977088E+03  0.00000000000E+00 0. -1.
         11    1    1    2    0    0 -0.65572086372E+01  0.44939767303E+01 -0.42781012191E+03  0.42788397168E+03  0.00000000000E+00 0. -1.
        -15    1    1    2    0    0 -0.28975844688E+01 -0.21746631089E+01  0.31589877915E+01  0.51246549404E+01  0.17770000000E+01 0. -1.
         15    1    1    2    0    0  0.74157733623E+01  0.45617265972E+01 -0.70866667269E+02  0.71421602495E+02  0.17770000000E+01 0.  1.
</event>
<event>
 6    1  0.4028964E-003  0.4838070E+03  0.7546771E-02  0.9436790E-01
        -11   -1    0    0    0    0  0.00000000000E+00  0.00000000000E+00  0.50000000000E+03  0.50000000000E+03  0.00000000000E+00 0.  1.
         11   -1    0    0    0    0 -0.00000000000E+00 -0.00000000000E+00 -0.50000000000E+03  0.50000000000E+03  0.00000000000E+00 0.  1.
        -11    1    1    2    0    0 -0.78214899234E+00 -0.71125732003E+01  0.48809665618E+03  0.48814910246E+03  0.00000000000E+00 0.  1.
         11    1    1    2    0    0 -0.11095822314E+02 -0.30949023720E+01 -0.47949144212E+03  0.47962979345E+03  0.00000000000E+00 0.  1.
        -15    1    1    2    0    0  0.15232229794E+02  0.53756500719E+01  0.52394211272E+01  0.17074182292E+02  0.17770000000E+01 0.  1.
         15    1    1    2    0    0 -0.33542584875E+01  0.48318255004E+01 -0.13844635188E+02  0.15146921805E+02  0.17770000000E+01 0. -1.
</event>
<event>
 6    1  0.4028964E-003  0.5341983E+03  0.7546771E-02  0.9326381E-01
        -11   -1    0    0    0    0  0.00000000000E+00  0.00000000000E+00  0.50000000000E+03  0.50000000000E+03  0.00000000000E+00 0.  1.
         11   -1    0    0    0    0 -0.00000000000E+00 -0.00000000000E+00 -0.50000000000E+03  0.50000000000E+03  0.00000000000E+00 0. -1.
        -11    1    1    2    0    0 -0.55758057966E+01  0.51581539697E+01  0.33566441738E+03  0.33575034961E+03  0.00000000000E+00 0.  1.
         11    1    1    2    0    0  0.84129683500E+01 -0.37368742902E+01 -0.46571072679E+03  0.46580169956E+03  0.00000000000E+00 0. -1.
        -15    1    1    2    0    0 -0.74438282327E+00  0.73963817902E+02  0.56509667441E+02  0.93100487151E+02  0.17770000000E+01 0. -1.
         15    1    1    2    0    0 -0.20927797301E+01 -0.75385097582E+02  0.73536641963E+02  0.10534746368E+03  0.17770000000E+01 0.  1.
</event>
<event>
 6    1  0.4028964E-003  0.5007973E+03  0.7546771E-02  0.9398027E-01
        -11   -1    0    0    0    0  0.00000000000E+00  0.00000000000E+00  0.50000000000E+03  0.50000000000E+03  0.00000000000E+00 0. -1.
         11   -1    0    0    0    0 -0.00000000000E+00 -0.00000000000E+00 -0.50000000000E+03  0.50000000000E+03  0.00000000000E+00 0.  1.
        -11    1    1    2    0    0  0.75446378657E+01  0.16715846557E+02  0.49886567531E+03  0.49920266735E+03  0.00000000000E+00 0. -1.
         11    1    1    2    0    0 -0.21570094027E+01 -0.30084165941E+01 -0.13103910252E+03  0.13109137900E+03  0.00000000000E+00 0.  1.
        -15    1    1    2    0    0  0.12505209868E+02 -0.87563646526E+01 -0.94294140948E+02  0.95538457921E+02  0.17770000000E+01 0. -1.
         15    1    1    2    0    0 -0.17892838331E+02 -0.49510653103E+01 -0.27353243184E+03  0.27416749572E+03  0.17770000000E+01 0.  1.
</event>
<event>
 6    1  0.4028964E-003  0.5117535E+03  0.7546771E-02  0.9373888E-01
        -11   -1    0    0    0    0  0.00000000000E+00  0.00000000000E+00  0.50000000000E+03  0.50000000000E+03  0.00000000000E+00 0.  1.
         11   -1    0    0    0    0 -0.00000000000E+00 -0.00000000000E+00 -0.50000000000E+03  0.50000000000E+03  0.00000000000E+00 0.  1.
        -11    1    1    2    0    0  0.12125086657E+01 -0.19745374829E+02  0.46028121672E+03  0.46070614113E+03  0.00000000000E+00 0.  1.
         11    1    1    2    0    0  0.12960343604E+02 -0.62123944285E+01 -0.48803487349E+03  0.48824645631E+03  0.00000000000E+00 0.  1.
        -15    1    1    2    0    0 -0.23841743818E+02  0.19029240274E+02  0.17310252981E+02  0.35118988040E+02  0.17770000000E+01 0. -1.
         15    1    1    2    0    0  0.96688915477E+01  0.69285289832E+01  0.10443403791E+02  0.15928414528E+02  0.17770000000E+01 0.  1.
</event>
<event>
 6    1  0.4028964E-003  0.5010054E+03  0.7546771E-02  0.9397563E-01
        -11   -1    0    0    0    0  0.00000000000E+00  0.00000000000E+00  0.50000000000E+03  0.50000000000E+03  0.00000000000E+00 0.  1.
         11   -1    0    0    0    0 -0.00000000000E+00 -0.00000000000E+00 -0.50000000000E+03  0.50000000000E+03  0.00000000000E+00 0.  1.
        -11    1    1    2    0    0 -0.53352915097E+01  0.21494941391E+02  0.49850288469E+03  0.49899461308E+03  0.00000000000E+00 0.  1.
         11    1    1    2    0    0 -0.58051221484E+01  0.10565473258E+01 -0.63819215683E+02  0.64091403681E+02  0.00000000000E+00 0.  1.
        -15    1    1    2    0    0 -0.20743276594E+01  0.81225809216E+01 -0.15514204587E+03  0.15537854190E+03  0.17770000000E+01 0.  1.
         15    1    1    2    0    0  0.13214741317E+02 -0.30674069639E+02 -0.27954162313E+03  0.28153544134E+03  0.17770000000E+01 0. -1.
</event>
<event>
 6    1  0.5632879E-003  0.4997086E+03  0.7546771E-02  0.9400462E-01
        -11   -1    0    0    0    0  0.00000000000E+00  0.00000000000E+00  0.50000000000E+03  0.50000000000E+03  0.00000000000E+00 0.  1.
         11   -1    0    0    0    0 -0.00000000000E+00 -0.00000000000E+00 -0.50000000000E+03  0.50000000000E+03  0.00000000000E+00 0. -1.
        -11    1    1    2    0    0 -0.55665486755E+01  0.38156816351E+01  0.49949265688E+03  0.49953824695E+03  0.00000000000E+00 0.  1.
         11    1    1    2    0    0  0.73138024674E+00 -0.52991068727E-01 -0.10520514155E+01  0.12823951418E+01  0.00000000000E+00 0. -1.
        -15    1    1    2    0    0 -0.81972617328E+01  0.34054326259E+01 -0.87760876087E+02  0.88226533264E+02  0.17770000000E+01 0.  1.
         15    1    1    2    0    0  0.13032430162E+02 -0.71681231923E+01 -0.41067972938E+03  0.41095282464E+03  0.17770000000E+01 0. -1.
</event>
<event>
 6    1  0.4028964E-003  0.5034570E+03  0.7546771E-02  0.9392107E-01
        -11   -1    0    0    0    0  0.00000000000E+00  0.00000000000E+00  0.50000000000E+03  0.50000000000E+03  0.00000000000E+00 0. -1.
         11   -1    0    0    0    0 -0.00000000000E+00 -0.00000000000E+00 -0.50000000000E+03  0.50000000000E+03  0.00000000000E+00 0.  1.
        -11    1    1    2    0    0  0.56240375122E+01 -0.99903624698E+01  0.49641058605E+03  0.49654295593E+03  0.00000000000E+00 0. -1.
         11    1    1    2    0    0 -0.39073309318E+01 -0.85129623540E+01 -0.42993624082E+03  0.43003826450E+03  0.00000000000E+00 0.  1.
        -15    1    1    2    0    0 -0.10775653350E+02  0.41715439888E+01 -0.41969358571E+02  0.43567204090E+02  0.17770000000E+01 0.  1.
         15    1    1    2    0    0  0.90589467695E+01  0.14331780835E+02 -0.24504986659E+02  0.29851575480E+02  0.17770000000E+01 0. -1.
</event>
<event>
 6    1  0.4028964E-003  0.4880715E+03  0.7546771E-02  0.9426904E-01
        -11   -1    0    0    0    0  0.00000000000E+00  0.00000000000E+00  0.50000000000E+03  0.50000000000E+03  0.00000000000E+00 0. -1.
         11   -1    0    0    0    0 -0.00000000000E+00 -0.00000000000E+00 -0.50000000000E+03  0.50000000000E+03  0.00000000000E+00 0. -1.
        -11    1    1    2    0    0  0.48574897469E+01  0.67074344993E+01  0.48488401605E+03  0.48495473387E+03  0.00000000000E+00 0. -1.
         11    1    1    2    0    0  0.75601027634E+01  0.59292384608E+01 -0.49127591819E+03  0.49136985949E+03  0.00000000000E+00 0. -1.
        -15    1    1    2    0    0 -0.67279383993E+01 -0.10755861199E+02  0.10183358797E+02  0.16364969619E+02  0.17770000000E+01 0. -1.
         15    1    1    2    0    0 -0.56896541110E+01 -0.18808117610E+01 -0.37914566566E+01  0.73104370158E+01  0.17770000000E+01 0.  1.
</event>
<event>
 6    1  0.4028964E-003  0.5051072E+03  0.7546771E-02  0.9388454E-01
        -11   -1    0    0    0    0  0.00000000000E+00  0.00000000000E+00  0.50000000000E+03  0.50000000000E+03  0.00000000000E+00 0.  1.
         11   -1    0    0    0    0 -0.00000000000E+00 -0.00000000000E+00 -0.50000000000E+03  0.50000000000E+03  0.00000000000E+00 0. -1.
        -11    1    1    2    0    0  0.60641201920E+01  0.40664237023E+01  0.47889391774E+03  0.47894957334E+03  0.00000000000E+00 0.  1.
         11    1    1    2    0    0  0.14153859024E+01 -0.11312550369E+02 -0.49476148871E+03  0.49489282458E+03  0.00000000000E+00 0. -1.
        -15    1    1    2    0    0 -0.90158997649E+00 -0.57499086550E+01  0.53622901703E+01  0.81108691826E+01  0.17770000000E+01 0. -1.
         15    1    1    2    0    0 -0.65779161179E+01  0.12996035322E+02  0.10505280799E+02  0.18046732896E+02  0.17770000000E+01 0.  1.
</event>
<event>
 6    1  0.4028964E-003  0.5012821E+03  0.7546771E-02  0.9396946E-01
        -11   -1    0    0    0    0  0.00000000000E+00  0.00000000000E+00  0.50000000000E+03  0.50000000000E+03  0.00000000000E+00 0.  1.
         11   -1    0    0    0    0 -0.00000000000E+00 -0.00000000000E+00 -0.50000000000E+03  0.50000000000E+03  0.00000000000E+00 0. -1.
        -11    1    1    2    0    0  0.14703101555E+02  0.80215487599E+00  0.49850048620E+03  0.49871791565E+03  0.00000000000E+00 0.  1.
         11    1    1    2    0    0 -0.17129837218E+01 -0.53548383081E+01 -0.36012723148E+03  0.36017111413E+03  0.00000000000E+00 0. -1.
        -15    1    1    2    0    0  0.12451621813E+00  0.12231019175E+02 -0.61347206555E+02  0.62579955381E+02  0.17770000000E+01 0.  1.
         15    1    1    2    0    0 -0.13114634051E+02 -0.76783357426E+01 -0.77026048168E+02  0.78531014838E+02  0.17770000000E+01 0. -1.
</event>
<event>
 6    1  0.4028964E-003  0.5179824E+03  0.7546771E-02  0.9360448E-01
        -11   -1    0    0    0    0  0.00000000000E+00  0.00000000000E+00  0.50000000000E+03  0.50000000000E+03  0.00000000000E+00 0. -1.
         11   -1    0    0    0    0 -0.00000000000E+00 -0.00000000000E+00 -0.50000000000E+03  0.50000000000E+03  0.00000000000E+00 0.  1.
        -11    1    1    2    0    0 -0.60387335015E+01  0.11804118949E+02  0.48183519374E+03  0.48201759040E+03  0.00000000000E+00 0. -1.
         11    1    1    2    0    0 -0.31636466909E+01 -0.84666326882E+01 -0.47367802797E+03  0.47376425225E+03  0.00000000000E+00 0.  1.
        -15    1    1    2    0    0  0.12652021539E+02 -0.16772703519E+02 -0.17499289253E+02  0.27400366525E+02  0.17770000000E+01 0.  1.
         15    1    1    2    0    0 -0.34496413466E+01  0.13435217258E+02  0.93421234811E+01  0.16817790828E+02  0.17770000000E+01 0. -1.
</event>
<event>
 6    1  0.4028964E-003  0.5016141E+03  0.7546771E-02  0.9396205E-01
        -11   -1    0    0    0    0  0.00000000000E+00  0.00000000000E+00  0.50000000000E+03  0.50000000000E+03  0.00000000000E+00 0. -1.
         11   -1    0    0    0    0 -0.00000000000E+00 -0.00000000000E+00 -0.50000000000E+03  0.50000000000E+03  0.00000000000E+00 0. -1.
        -11    1    1    2    0    0 -0.63827992256E+01  0.19912305431E+01  0.46877295425E+03  0.46882063496E+03  0.00000000000E+00 0. -1.
         11    1    1    2    0    0  0.84959750165E+01  0.30968930146E+00 -0.49831337399E+03  0.49838589084E+03  0.00000000000E+00 0. -1.
        -15    1    1    2    0    0 -0.36747315860E+01 -0.91888032013E+00  0.12443877567E+01  0.43651143354E+01  0.17770000000E+01 0. -1.
         15    1    1    2    0    0  0.15615557951E+01 -0.13820395244E+01  0.28296031977E+02  0.28428359861E+02  0.17770000000E+01 0.  1.
</event>
<event>
 6    1  0.4028964E-003  0.5083562E+03  0.7546771E-02  0.9381304E-01
        -11   -1    0    0    0    0  0.00000000000E+00  0.00000000000E+00  0.50000000000E+03  0.50000000000E+03  0.00000000000E+00 0. -1.
         11   -1    0    0    0    0 -0.00000000000E+00 -0.00000000000E+00 -0.50000000000E+03  0.50000000000E+03  0.00000000000E+00 0.  1.
        -11    1    1    2    0    0 -0.11783381079E+02 -0.90271756821E+01  0.41806763159E+03  0.41833106812E+03  0.00000000000E+00 0. -1.
         11    1    1    2    0    0 -0.10813125661E+02  0.11371612579E+02 -0.49139329154E+03  0.49164377778E+03  0.00000000000E+00 0.  1.
        -15    1    1    2    0    0 -0.47522679631E+01 -0.52855842452E+01 -0.37059316432E+01  0.82105486998E+01  0.17770000000E+01 0.  1.
         15    1    1    2    0    0  0.27348774703E+02  0.29411473484E+01  0.77031591588E+02  0.81814605402E+02  0.17770000000E+01 0. -1.
</event>
<event>
 6    1  0.4028964E-003  0.5000606E+03  0.7546771E-02  0.9399674E-01
        -11   -1    0    0    0    0  0.00000000000E+00  0.00000000000E+00  0.50000000000E+03  0.50000000000E+03  0.00000000000E+00 0. -1.
         11   -1    0    0    0    0 -0.00000000000E+00 -0.00000000000E+00 -0.50000000000E+03  0.50000000000E+03  0.00000000000E+00 0.  1.
        -11    1    1    2    0    0  0.74280394412E+00 -0.97375570219E+00  0.34737649862E+02  0.34759232958E+02  0.00000000000E+00 0. -1.
         11    1    1    2    0    0 -0.66823116533E+01  0.66094572548E+01 -0.49985107995E+03  0.49993943668E+03  0.00000000000E+00 0.  1.
        -15    1    1    2    0    0  0.47544648626E+01 -0.66690825476E+01  0.43908446830E+03  0.43916444487E+03  0.17770000000E+01 0. -1.
         15    1    1    2    0    0  0.11850428465E+01  0.10333809951E+01  0.26028961788E+02  0.26136885499E+02  0.17770000000E+01 0. -1.
</event>
<event>
 6    1  0.4028964E-003  0.5043438E+03  0.7546771E-02  0.9390142E-01
        -11   -1    0    0    0    0  0.00000000000E+00  0.00000000000E+00  0.50000000000E+03  0.50000000000E+03  0.00000000000E+00 0.  1.
         11   -1    0    0    0    0 -0.00000000000E+00 -0.00000000000E+00 -0.50000000000E+03  0.50000000000E+03  0.00000000000E+00 0.  1.
        -11    1    1    2    0    0  0.12132697740E+02 -0.60682058243E+01  0.49547055055E+03  0.49565622355E+03  0.00000000000E+00 0.  1.
         11    1    1    2    0    0  0.10780022253E+01  0.25824192572E+01 -0.19070962612E+03  0.19073015617E+03  0.00000000000E+00 0.  1.
        -15    1    1    2    0    0 -0.10616385802E+02  0.16662747307E+02 -0.18794985954E+02  0.27326983392E+02  0.17770000000E+01 0. -1.
         15    1    1    2    0    0 -0.25943141636E+01 -0.13176960740E+02 -0.28596593848E+03  0.28628663688E+03  0.17770000000E+01 0.  1.
</event>
<event>
 6    1  0.4028964E-003  0.5040750E+03  0.7546771E-02  0.9390738E-01
        -11   -1    0    0    0    0  0.00000000000E+00  0.00000000000E+00  0.50000000000E+03  0.50000000000E+03  0.00000000000E+00 0.  1.
         11   -1    0    0    0    0 -0.00000000000E+00 -0.00000000000E+00 -0.50000000000E+03  0.50000000000E+03  0.00000000000E+00 0.  1.
        -11    1    1    2    0    0  0.29927979863E+01  0.71896876620E+01  0.49586388873E+03  0.49592503929E+03  0.00000000000E+00 0.  1.
         11    1    1    2    0    0 -0.27949092381E+01  0.34135596253E+01 -0.21358815306E+03  0.21363371231E+03  0.00000000000E+00 0.  1.
        -15    1    1    2    0    0 -0.17553769054E+01  0.70225978603E+01 -0.26669104069E+03  0.26679517826E+03  0.17770000000E+01 0.  1.
         15    1    1    2    0    0  0.15574881572E+01 -0.17625845148E+02 -0.15584694979E+02  0.23646070141E+02  0.17770000000E+01 0. -1.
</event>
<event>
 6    1  0.4028964E-003  0.5212679E+03  0.7546771E-02  0.9353440E-01
        -11   -1    0    0    0    0  0.00000000000E+00  0.00000000000E+00  0.50000000000E+03  0.50000000000E+03  0.00000000000E+00 0. -1.
         11   -1    0    0    0    0 -0.00000000000E+00 -0.00000000000E+00 -0.50000000000E+03  0.50000000000E+03  0.00000000000E+00 0.  1.
        -11    1    1    2    0    0  0.68544485309E+01  0.60610719749E+01  0.40368220262E+03  0.40378588481E+03  0.00000000000E+00 0. -1.
         11    1    1    2    0    0  0.13302673655E+02  0.10845813233E+02 -0.47842431557E+03  0.47873209473E+03  0.00000000000E+00 0.  1.
        -15    1    1    2    0    0 -0.11295857038E+02 -0.14405530834E+02 -0.17129235289E+02  0.25133327186E+02  0.17770000000E+01 0.  1.
         15    1    1    2    0    0 -0.88612651474E+01 -0.25013543735E+01  0.91871348239E+02  0.92348693277E+02  0.17770000000E+01 0. -1.
</event>
<event>
 6    1  0.4028964E-003  0.5138759E+03  0.7546771E-02  0.9369286E-01
        -11   -1    0    0    0    0  0.00000000000E+00  0.00000000000E+00  0.50000000000E+03  0.50000000000E+03  0.00000000000E+00 0.  1.
         11   -1    0    0    0    0 -0.00000000000E+00 -0.00000000000E+00 -0.50000000000E+03  0.50000000000E+03  0.00000000000E+00 0. -1.
        -11    1    1    2    0    0  0.42903985413E+01  0.58537820892E+01  0.48606995403E+03  0.48612413486E+03  0.00000000000E+00 0.  1.
         11    1    1    2    0    0  0.16482192437E+01 -0.35707088762E+01 -0.21332278527E+03  0.21335903380E+03  0.00000000000E+00 0. -1.
        -15    1    1    2    0    0 -0.91485289370E+01 -0.54992493425E+01  0.11752406681E+02  0.15975422274E+02  0.17770000000E+01 0. -1.
         15    1    1    2    0    0  0.32099111520E+01  0.32161761294E+01 -0.28449957544E+03  0.28454140906E+03  0.17770000000E+01 0.  1.
</event>
<event>
 6    1  0.4028964E-003  0.5033826E+03  0.7546771E-02  0.9392273E-01
        -11   -1    0    0    0    0  0.00000000000E+00  0.00000000000E+00  0.50000000000E+03  0.50000000000E+03  0.00000000000E+00 0. -1.
         11   -1    0    0    0    0 -0.00000000000E+00 -0.00000000000E+00 -0.50000000000E+03  0.50000000000E+03  0.00000000000E+00 0.  1.
        -11    1    1    2    0    0  0.18223200940E+02 -0.13283820814E+02  0.28094043211E+03  0.28184405501E+03  0.00000000000E+00 0. -1.
         11    1    1    2    0    0 -0.89346289737E+01  0.10742421742E+02 -0.49642082285E+03  0.49661741872E+03  0.00000000000E+00 0.  1.
        -15    1    1    2    0    0 -0.14584154432E+02  0.58567339006E+01  0.21436524241E+03  0.21494793271E+03  0.17770000000E+01 0. -1.
         15    1    1    2    0    0  0.52955824660E+01 -0.33153348291E+01  0.11151483288E+01  0.65905935604E+01  0.17770000000E+01 0.  1.
</event>
<event>
 6    1  0.4028964E-003  0.5009634E+03  0.7546771E-02  0.9397657E-01
        -11   -1    0    0    0    0  0.00000000000E+00  0.00000000000E+00  0.50000000000E+03  0.50000000000E+03  0.00000000000E+00 0.  1.
         11   -1    0    0    0    0 -0.00000000000E+00 -0.00000000000E+00 -0.50000000000E+03  0.50000000000E+03  0.00000000000E+00 0. -1.
        -11    1    1    2    0    0  0.56408019565E+01  0.19678615839E+02  0.49861656190E+03  0.49903661425E+03  0.00000000000E+00 0.  1.
         11    1    1    2    0    0 -0.42705988234E+01  0.92172311536E+00 -0.66587451845E+02  0.66730625136E+02  0.00000000000E+00 0. -1.
        -15    1    1    2    0    0 -0.60852296293E+01 -0.18433455625E+02 -0.86875378656E+02  0.89035450533E+02  0.17770000000E+01 0.  1.
         15    1    1    2    0    0  0.47150264962E+01 -0.21668833301E+01 -0.34515373140E+03  0.34519731008E+03  0.17770000000E+01 0. -1.
</event>
<event>
 6    1  0.4028964E-003  0.5087579E+03  0.7546771E-02  0.9380424E-01
        -11   -1    0    0    0    0  0.00000000000E+00  0.00000000000E+00  0.50000000000E+03  0.50000000000E+03  0.00000000000E+00 0. -1.
         11   -1    0    0    0    0 -0.00000000000E+00 -0.00000000000E+00 -0.50000000000E+03  0.50000000000E+03  0.00000000000E+00 0.  1.
        -11    1    1    2    0    0  0.81650272914E+01 -0.10352488943E+00  0.18522532586E+03  0.18540523112E+03  0.00000000000E+00 0. -1.
         11    1    1    2    0    0 -0.44075672391E+01 -0.11727796787E+02 -0.49108230047E+03  0.49124209276E+03  0.00000000000E+00 0.  1.
        -15    1    1    2    0    0  0.34573800505E+01 -0.16613187230E+02  0.28892107245E+03  0.28942442070E+03  0.17770000000E+01 0. -1.
         15    1    1    2    0    0 -0.72148401029E+01  0.28444508906E+02  0.16935902161E+02  0.33928255417E+02  0.17770000000E+01 0.  1.
</event>
<event>
 6    1  0.4028964E-003  0.5021158E+03  0.7546771E-02  0.9395088E-01
        -11   -1    0    0    0    0  0.00000000000E+00  0.00000000000E+00  0.50000000000E+03  0.50000000000E+03  0.00000000000E+00 0. -1.
         11   -1    0    0    0    0 -0.00000000000E+00 -0.00000000000E+00 -0.50000000000E+03  0.50000000000E+03  0.00000000000E+00 0. -1.
        -11    1    1    2    0    0  0.48485387224E+01 -0.37576462071E+01  0.40442212874E+03  0.40446864705E+03  0.00000000000E+00 0. -1.
         11    1    1    2    0    0  0.20601333535E+00  0.83403056886E+01 -0.49781431769E+03  0.49788422152E+03  0.00000000000E+00 0. -1.
        -15    1    1    2    0    0  0.70985091063E+01 -0.18141554929E+01  0.74883636638E+02  0.75262186766E+02  0.17770000000E+01 0. -1.
         15    1    1    2    0    0 -0.12153061164E+02 -0.27685039886E+01  0.18508552308E+02  0.22384944663E+02  0.17770000000E+01 0.  1.
</event>
<event>
 6    1  0.4028964E-003  0.5008546E+03  0.7546771E-02  0.9397900E-01
        -11   -1    0    0    0    0  0.00000000000E+00  0.00000000000E+00  0.50000000000E+03  0.50000000000E+03  0.00000000000E+00 0.  1.
         11   -1    0    0    0    0 -0.00000000000E+00 -0.00000000000E+00 -0.50000000000E+03  0.50000000000E+03  0.00000000000E+00 0.  1.
        -11    1    1    2    0    0 -0.18102472112E+01 -0.60088843190E+01  0.33114888076E+03  0.33120834065E+03  0.00000000000E+00 0.  1.
         11    1    1    2    0    0  0.54505804407E+01  0.66274293746E+01 -0.49907163616E+03  0.49914539933E+03  0.00000000000E+00 0.  1.
        -15    1    1    2    0    0  0.24673800864E+01 -0.38433203902E+01  0.68870176801E+01  0.84526810918E+01  0.17770000000E+01 0. -1.
         15    1    1    2    0    0 -0.61077133160E+01  0.32247753347E+01  0.16103573772E+03  0.16119357894E+03  0.17770000000E+01 0.  1.
</event>
<event>
 6    1  0.4028964E-003  0.5003365E+03  0.7546771E-02  0.9399057E-01
        -11   -1    0    0    0    0  0.00000000000E+00  0.00000000000E+00  0.50000000000E+03  0.50000000000E+03  0.00000000000E+00 0. -1.
         11   -1    0    0    0    0 -0.00000000000E+00 -0.00000000000E+00 -0.50000000000E+03  0.50000000000E+03  0.00000000000E+00 0. -1.
        -11    1    1    2    0    0 -0.76750904409E+00  0.12775717347E+01  0.10712251539E+03  0.10713288274E+03  0.00000000000E+00 0. -1.
         11    1    1    2    0    0  0.15782001816E+02  0.18533498799E+02 -0.49907020447E+03  0.49966351793E+03  0.00000000000E+00 0. -1.
        -15    1    1    2    0    0 -0.36406835420E+01 -0.18562140013E+02  0.19760296325E+03  0.19851422225E+03  0.17770000000E+01 0. -1.
         15    1    1    2    0    0 -0.11373809230E+02 -0.12489305210E+01  0.19434472583E+03  0.19468937709E+03  0.17770000000E+01 0.  1.
</event>
<event>
 6    1  0.4028964E-003  0.5113311E+03  0.7546771E-02  0.9374807E-01
        -11   -1    0    0    0    0  0.00000000000E+00  0.00000000000E+00  0.50000000000E+03  0.50000000000E+03  0.00000000000E+00 0.  1.
         11   -1    0    0    0    0 -0.00000000000E+00 -0.00000000000E+00 -0.50000000000E+03  0.50000000000E+03  0.00000000000E+00 0. -1.
        -11    1    1    2    0    0 -0.78628683753E+01  0.12209669119E+02  0.44547322624E+03  0.44570987875E+03  0.00000000000E+00 0.  1.
         11    1    1    2    0    0  0.17338780521E+02  0.19397441368E+02 -0.48797585926E+03  0.48866894035E+03  0.00000000000E+00 0. -1.
        -15    1    1    2    0    0 -0.12538362438E+02 -0.66418531295E+00 -0.30242722205E+00  0.12684670511E+02  0.17770000000E+01 0.  1.
         15    1    1    2    0    0  0.30624502921E+01 -0.30942925174E+02  0.42805060249E+02  0.52936510388E+02  0.17770000000E+01 0. -1.
</event>
<event>
 6    1  0.4028964E-003  0.5045830E+03  0.7546771E-02  0.9389613E-01
        -11   -1    0    0    0    0  0.00000000000E+00  0.00000000000E+00  0.50000000000E+03  0.50000000000E+03  0.00000000000E+00 0. -1.
         11   -1    0    0    0    0 -0.00000000000E+00 -0.00000000000E+00 -0.50000000000E+03  0.50000000000E+03  0.00000000000E+00 0. -1.
        -11    1    1    2    0    0  0.40093700532E+01 -0.75135344138E+01  0.48826860035E+03  0.48834286555E+03  0.00000000000E+00 0. -1.
         11    1    1    2    0    0 -0.75128243194E+01  0.34009817484E+01 -0.49534840572E+03  0.49541704882E+03  0.00000000000E+00 0. -1.
        -15    1    1    2    0    0  0.69308978805E+01  0.12825244077E+01 -0.48795634617E+00  0.72854680482E+01  0.17770000000E+01 0.  1.
         15    1    1    2    0    0 -0.34274436143E+01  0.28300282576E+01  0.75677617165E+01  0.89546175835E+01  0.17770000000E+01 0. -1.
</event>
<event>
 6    1  0.4028964E-003  0.5115797E+03  0.7546771E-02  0.9374266E-01
        -11   -1    0    0    0    0  0.00000000000E+00  0.00000000000E+00  0.50000000000E+03  0.50000000000E+03  0.00000000000E+00 0. -1.
         11   -1    0    0    0    0 -0.00000000000E+00 -0.00000000000E+00 -0.50000000000E+03  0.50000000000E+03  0.00000000000E+00 0.  1.
        -11    1    1    2    0    0 -0.24701360368E+01  0.32417676385E+02  0.48733706398E+03  0.48842033254E+03  0.00000000000E+00 0. -1.
         11    1    1    2    0    0 -0.81440075232E+01 -0.17747144433E+02 -0.44351455379E+03  0.44394419178E+03  0.00000000000E+00 0.  1.
        -15    1    1    2    0    0  0.61817926521E+01  0.16913726790E+02 -0.84401582511E+01  0.19967040708E+02  0.17770000000E+01 0. -1.
         15    1    1    2    0    0  0.44323509080E+01 -0.31584258741E+02 -0.35382351940E+02  0.47668434971E+02  0.17770000000E+01 0.  1.
</event>
<event>
 6    1  0.4028964E-003  0.2461356E+03  0.7546771E-02  0.1026731E+00
        -11   -1    0    0    0    0  0.00000000000E+00  0.00000000000E+00  0.50000000000E+03  0.50000000000E+03  0.00000000000E+00 0. -1.
         11   -1    0    0    0    0 -0.00000000000E+00 -0.00000000000E+00 -0.50000000000E+03  0.50000000000E+03  0.00000000000E+00 0. -1.
        -11    1    1    2    0    0 -0.16750116591E+01  0.10518143138E+02  0.29359695963E+03  0.29379008102E+03  0.00000000000E+00 0. -1.
         11    1    1    2    0    0 -0.41521573196E+01  0.25617337924E+01 -0.25356898393E+03  0.25361591531E+03  0.00000000000E+00 0. -1.
        -15    1    1    2    0    0 -0.15034054556E+03  0.42580862231E+02 -0.17802554813E+03  0.23687900495E+03  0.17770000000E+01 0. -1.
         15    1    1    2    0    0  0.15616771454E+03 -0.55660739161E+02  0.13799757243E+03  0.21571499872E+03  0.17770000000E+01 0.  1.
</event>
<event>
 6    1  0.4028964E-003  0.5030165E+03  0.7546771E-02  0.9393085E-01
        -11   -1    0    0    0    0  0.00000000000E+00  0.00000000000E+00  0.50000000000E+03  0.50000000000E+03  0.00000000000E+00 0. -1.
         11   -1    0    0    0    0 -0.00000000000E+00 -0.00000000000E+00 -0.50000000000E+03  0.50000000000E+03  0.00000000000E+00 0.  1.
        -11    1    1    2    0    0  0.10669978773E+02  0.37272938018E+01  0.49685493765E+03  0.49698347079E+03  0.00000000000E+00 0. -1.
         11    1    1    2    0    0 -0.34580755546E+01  0.55925237992E+01 -0.40613608768E+03  0.40618931095E+03  0.00000000000E+00 0.  1.
        -15    1    1    2    0    0 -0.28517143832E+01 -0.61993090713E+01 -0.90902565843E+02  0.91175643205E+02  0.17770000000E+01 0. -1.
         15    1    1    2    0    0 -0.43601888353E+01 -0.31205085298E+01  0.18371587578E+00  0.56515750624E+01  0.17770000000E+01 0.  1.
</event>
<event>
 6    1  0.4028964E-003  0.4710837E+03  0.7546771E-02  0.9466943E-01
        -11   -1    0    0    0    0  0.00000000000E+00  0.00000000000E+00  0.50000000000E+03  0.50000000000E+03  0.00000000000E+00 0.  1.
         11   -1    0    0    0    0 -0.00000000000E+00 -0.00000000000E+00 -0.50000000000E+03  0.50000000000E+03  0.00000000000E+00 0. -1.
        -11    1    1    2    0    0 -0.73588185422E+01  0.45714025053E+01  0.46647138735E+03  0.46655182472E+03  0.00000000000E+00 0.  1.
         11    1    1    2    0    0 -0.26571233269E+01  0.96935769494E+01 -0.47571594039E+03  0.47582211139E+03  0.00000000000E+00 0. -1.
        -15    1    1    2    0    0  0.19439231433E+02  0.46169028229E+01 -0.15285559493E+02  0.25219150826E+02  0.17770000000E+01 0. -1.
         15    1    1    2    0    0 -0.94232895639E+01 -0.18881882278E+02  0.24530112532E+02  0.32406913065E+02  0.17770000000E+01 0.  1.
</event>
<event>
 6    1  0.4028964E-003  0.5041395E+03  0.7546771E-02  0.9390595E-01
        -11   -1    0    0    0    0  0.00000000000E+00  0.00000000000E+00  0.50000000000E+03  0.50000000000E+03  0.00000000000E+00 0.  1.
         11   -1    0    0    0    0 -0.00000000000E+00 -0.00000000000E+00 -0.50000000000E+03  0.50000000000E+03  0.00000000000E+00 0. -1.
        -11    1    1    2    0    0 -0.53762391060E+01 -0.52750894137E+01  0.39817647745E+03  0.39824770899E+03  0.00000000000E+00 0.  1.
         11    1    1    2    0    0  0.86338835488E+01  0.43792841151E+01 -0.49576601896E+03  0.49586053243E+03  0.00000000000E+00 0. -1.
        -15    1    1    2    0    0 -0.16112057521E+02 -0.15214378439E+01  0.14629628008E+02  0.21888282603E+02  0.17770000000E+01 0.  1.
         15    1    1    2    0    0  0.12854413078E+02  0.24172431426E+01  0.82959913494E+02  0.84003475975E+02  0.17770000000E+01 0. -1.
</event>
<event>
 6    1  0.4028964E-003  0.5096223E+03  0.7546771E-02  0.9378533E-01
        -11   -1    0    0    0    0  0.00000000000E+00  0.00000000000E+00  0.50000000000E+03  0.50000000000E+03  0.00000000000E+00 0. -1.
         11   -1    0    0    0    0 -0.00000000000E+00 -0.00000000000E+00 -0.50000000000E+03  0.50000000000E+03  0.00000000000E+00 0.  1.
        -11    1    1    2    0    0 -0.53073100669E+01 -0.37536224184E+01  0.47092120682E+03  0.47096607124E+03  0.00000000000E+00 0. -1.
         11    1    1    2    0    0 -0.62259589650E+01 -0.42391094238E+01 -0.49031984777E+03  0.49037769702E+03  0.00000000000E+00 0.  1.
        -15    1    1    2    0    0 -0.13094899141E+01  0.64170794565E+01  0.23897696126E+02  0.24842529697E+02  0.17770000000E+01 0. -1.
         15    1    1    2    0    0  0.12842758946E+02  0.15756523857E+01 -0.44990551724E+01  0.13813702047E+02  0.17770000000E+01 0.  1.
</event>
<event>
 6    1  0.4028964E-003  0.5052525E+03  0.7546771E-02  0.9388133E-01
        -11   -1    0    0    0    0  0.00000000000E+00  0.00000000000E+00  0.50000000000E+03  0.50000000000E+03  0.00000000000E+00 0. -1.
         11   -1    0    0    0    0 -0.00000000000E+00 -0.00000000000E+00 -0.50000000000E+03  0.50000000000E+03  0.00000000000E+00 0.  1.
        -11    1    1    2    0    0  0.96972547520E+01 -0.24375777296E+01  0.48716255051E+03  0.48726515282E+03  0.00000000000E+00 0. -1.
         11    1    1    2    0    0 -0.16680177430E+02 -0.99362019210E-01 -0.49446621308E+03  0.49474748516E+03  0.00000000000E+00 0.  1.
        -15    1    1    2    0    0 -0.25629794444E+01  0.42334069233E+01  0.61058112868E+01  0.80578693388E+01  0.17770000000E+01 0.  1.
         15    1    1    2    0    0  0.95459021220E+01 -0.16964671745E+01  0.11978512924E+01  0.99294926817E+01  0.17770000000E+01 0. -1.
</event>
<event>
 6    1  0.4028964E-003  0.5014740E+03  0.7546771E-02  0.9396517E-01
        -11   -1    0    0    0    0  0.00000000000E+00  0.00000000000E+00  0.50000000000E+03  0.50000000000E+03  0.00000000000E+00 0. -1.
         11   -1    0    0    0    0 -0.00000000000E+00 -0.00000000000E+00 -0.50000000000E+03  0.50000000000E+03  0.00000000000E+00 0. -1.
        -11    1    1    2    0    0 -0.10679567417E+02  0.24792722624E+01  0.49840539824E+03  0.49852596818E+03  0.00000000000E+00 0. -1.
         11    1    1    2    0    0 -0.49449729205E+01 -0.88742035151E+01 -0.38476079330E+03  0.38489488475E+03  0.00000000000E+00 0. -1.
        -15    1    1    2    0    0  0.18868834038E+01  0.74835072562E+01 -0.76703973996E+02  0.77111740776E+02  0.17770000000E+01 0. -1.
         15    1    1    2    0    0  0.13737656934E+02 -0.10885760036E+01 -0.36940630948E+02  0.39467406294E+02  0.17770000000E+01 0.  1.
</event>
<event>
 6    1  0.4028964E-003  0.5001305E+03  0.7546771E-02  0.9399518E-01
        -11   -1    0    0    0    0  0.00000000000E+00  0.00000000000E+00  0.50000000000E+03  0.50000000000E+03  0.00000000000E+00 0. -1.
         11   -1    0    0    0    0 -0.00000000000E+00 -0.00000000000E+00 -0.50000000000E+03  0.50000000000E+03  0.00000000000E+00 0.  1.
        -11    1    1    2    0    0  0.12779113715E+02  0.11993184515E+02  0.49956213544E+03  0.49986945234E+03  0.00000000000E+00 0. -1.
         11    1    1    2    0    0 -0.29962387020E+01 -0.73138230735E+01 -0.17279549934E+03  0.17297616612E+03  0.00000000000E+00 0.  1.
        -15    1    1    2    0    0 -0.45503931673E+01 -0.17102561507E+01 -0.41870214133E+02  0.42188903928E+02  0.17770000000E+01 0. -1.
         15    1    1    2    0    0 -0.52324818454E+01 -0.29691052904E+01 -0.28489642196E+03  0.28496547761E+03  0.17770000000E+01 0.  1.
</event>
<event>
 6    1  0.4028964E-003  0.5167596E+03  0.7546771E-02  0.9363070E-01
        -11   -1    0    0    0    0  0.00000000000E+00  0.00000000000E+00  0.50000000000E+03  0.50000000000E+03  0.00000000000E+00 0. -1.
         11   -1    0    0    0    0 -0.00000000000E+00 -0.00000000000E+00 -0.50000000000E+03  0.50000000000E+03  0.00000000000E+00 0. -1.
        -11    1    1    2    0    0 -0.10542760973E+01 -0.80300759828E+01  0.48317254495E+03  0.48324041823E+03  0.00000000000E+00 0. -1.
         11    1    1    2    0    0  0.48739553235E+01  0.92222069764E+01 -0.44330294246E+03  0.44342564578E+03  0.00000000000E+00 0. -1.
        -15    1    1    2    0    0  0.60078104838E+01  0.12731203804E+02  0.12077832095E+02  0.18633547548E+02  0.17770000000E+01 0.  1.
         15    1    1    2    0    0 -0.98274897100E+01 -0.13923334797E+02 -0.51947434586E+02  0.54700388435E+02  0.17770000000E+01 0. -1.
</event>
<event>
 6    1  0.4028964E-003  0.5006394E+03  0.7546771E-02  0.9398380E-01
        -11   -1    0    0    0    0  0.00000000000E+00  0.00000000000E+00  0.50000000000E+03  0.50000000000E+03  0.00000000000E+00 0.  1.
         11   -1    0    0    0    0 -0.00000000000E+00 -0.00000000000E+00 -0.50000000000E+03  0.50000000000E+03  0.00000000000E+00 0. -1.
        -11    1    1    2    0    0  0.46676457719E+01  0.10101803457E+02  0.49923659049E+03  0.49936059780E+03  0.00000000000E+00 0.  1.
         11    1    1    2    0    0 -0.25423877923E+01  0.50520143057E+01 -0.19022888918E+03  0.19031294455E+03  0.00000000000E+00 0. -1.
        -15    1    1    2    0    0  0.24311611232E+01  0.22184697815E+01 -0.86127903603E+01  0.93898902746E+01  0.17770000000E+01 0.  1.
         15    1    1    2    0    0 -0.45564191027E+01 -0.17372287544E+02 -0.30039491095E+03  0.30093656738E+03  0.17770000000E+01 0. -1.
</event>
<event>
 6    1  0.4028964E-003  0.5129039E+03  0.7546771E-02  0.9371390E-01
        -11   -1    0    0    0    0  0.00000000000E+00  0.00000000000E+00  0.50000000000E+03  0.50000000000E+03  0.00000000000E+00 0. -1.
         11   -1    0    0    0    0 -0.00000000000E+00 -0.00000000000E+00 -0.50000000000E+03  0.50000000000E+03  0.00000000000E+00 0.  1.
        -11    1    1    2    0    0  0.10822806024E+02  0.16857179110E+01  0.48697292335E+03  0.48709609201E+03  0.00000000000E+00 0. -1.
         11    1    1    2    0    0  0.11717418148E+01 -0.16739870074E+02 -0.42560790973E+03  0.42593859775E+03  0.00000000000E+00 0.  1.
        -15    1    1    2    0    0 -0.70777209850E+01 -0.28128431483E+01  0.10293857070E+02  0.12927777972E+02  0.17770000000E+01 0.  1.
         15    1    1    2    0    0 -0.49168268543E+01  0.17866995312E+02 -0.71658870688E+02  0.74037532273E+02  0.17770000000E+01 0.  1.
</event>
<event>
 6    1  0.4028964E-003  0.5074592E+03  0.7546771E-02  0.9383272E-01
        -11   -1    0    0    0    0  0.00000000000E+00  0.00000000000E+00  0.50000000000E+03  0.50000000000E+03  0.00000000000E+00 0. -1.
         11   -1    0    0    0    0 -0.00000000000E+00 -0.00000000000E+00 -0.50000000000E+03  0.50000000000E+03  0.00000000000E+00 0. -1.
        -11    1    1    2    0    0  0.82754350943E+01  0.46838780141E+00  0.45107486501E+03  0.45115101248E+03  0.00000000000E+00 0. -1.
         11    1    1    2    0    0 -0.90251411477E+01  0.10025134506E+02 -0.49235608271E+03  0.49254082945E+03  0.00000000000E+00 0. -1.
        -15    1    1    2    0    0 -0.10203547091E+02 -0.39278062017E+01  0.41959442271E+02  0.43396918778E+02  0.17770000000E+01 0. -1.
         15    1    1    2    0    0  0.10953253144E+02 -0.65657161059E+01 -0.67822457200E+00  0.12911239290E+02  0.17770000000E+01 0.  1.
</event>
<event>
 6    1  0.4028964E-003  0.5025000E+03  0.7546771E-02  0.9394233E-01
        -11   -1    0    0    0    0  0.00000000000E+00  0.00000000000E+00  0.50000000000E+03  0.50000000000E+03  0.00000000000E+00 0. -1.
         11   -1    0    0    0    0 -0.00000000000E+00 -0.00000000000E+00 -0.50000000000E+03  0.50000000000E+03  0.00000000000E+00 0.  1.
        -11    1    1    2    0    0  0.58157725439E+01 -0.64099374410E+01  0.49742466127E+03  0.49749995391E+03  0.00000000000E+00 0. -1.
         11    1    1    2    0    0 -0.61977181951E+01  0.73009268616E+01 -0.46362537102E+03  0.46372427141E+03  0.00000000000E+00 0.  1.
        -15    1    1    2    0    0 -0.51569161549E+01  0.65667828939E+01 -0.22352009782E+02  0.23926689953E+02  0.17770000000E+01 0. -1.
         15    1    1    2    0    0  0.55388618061E+01 -0.74577723144E+01 -0.11447280463E+02  0.14849084719E+02  0.17770000000E+01 0.  1.
</event>
<event>
 6    1  0.4128899E-003  0.5105520E+03  0.7546771E-02  0.9376504E-01
        -11   -1    0    0    0    0  0.00000000000E+00  0.00000000000E+00  0.50000000000E+03  0.50000000000E+03  0.00000000000E+00 0. -1.
         11   -1    0    0    0    0 -0.00000000000E+00 -0.00000000000E+00 -0.50000000000E+03  0.50000000000E+03  0.00000000000E+00 0.  1.
        -11    1    1    2    0    0  0.76071998217E+01 -0.27136731786E+01  0.46854439029E+03  0.46861399807E+03  0.00000000000E+00 0. -1.
         11    1    1    2    0    0 -0.29168247498E+01 -0.12737183462E+02 -0.48927358731E+03  0.48944804315E+03  0.00000000000E+00 0.  1.
        -15    1    1    2    0    0 -0.30233969245E+01  0.17644323181E+01  0.26570520294E+02  0.26858972953E+02  0.17770000000E+01 0. -1.
         15    1    1    2    0    0 -0.16669781474E+01  0.13686424323E+02 -0.58413232786E+01  0.15078985826E+02  0.17770000000E+01 0.  1.
</event>
<event>
 6    1  0.4028964E-003  0.5151540E+03  0.7546771E-02  0.9366526E-01
        -11   -1    0    0    0    0  0.00000000000E+00  0.00000000000E+00  0.50000000000E+03  0.50000000000E+03  0.00000000000E+00 0.  1.
         11   -1    0    0    0    0 -0.00000000000E+00 -0.00000000000E+00 -0.50000000000E+03  0.50000000000E+03  0.00000000000E+00 0. -1.
        -11    1    1    2    0    0  0.11787074353E+02  0.13095022231E+02  0.48452574112E+03  0.48484596372E+03  0.00000000000E+00 0.  1.
         11    1    1    2    0    0  0.15352405234E+02 -0.35656617900E+01 -0.46351213891E+03  0.46378002674E+03  0.00000000000E+00 0. -1.
        -15    1    1    2    0    0 -0.13501383229E+02 -0.56753046548E+00  0.95765306572E+01  0.16657644142E+02  0.17770000000E+01 0. -1.
         15    1    1    2    0    0 -0.13638096358E+02 -0.89618299752E+01 -0.30590132864E+02  0.34716365397E+02  0.17770000000E+01 0.  1.
</event>
<event>
 6    1  0.4028964E-003  0.5144493E+03  0.7546771E-02  0.9368046E-01
        -11   -1    0    0    0    0  0.00000000000E+00  0.00000000000E+00  0.50000000000E+03  0.50000000000E+03  0.00000000000E+00 0.  1.
         11   -1    0    0    0    0 -0.00000000000E+00 -0.00000000000E+00 -0.50000000000E+03  0.50000000000E+03  0.00000000000E+00 0. -1.
        -11    1    1    2    0    0 -0.31847214884E+02 -0.32576388663E+02  0.31278298787E+03  0.31608331765E+03  0.00000000000E+00 0.  1.
         11    1    1    2    0    0  0.13409060040E+01 -0.11659641849E+02 -0.48540880182E+03  0.48555066694E+03  0.00000000000E+00 0. -1.
        -15    1    1    2    0    0  0.97280657550E+01  0.96932217153E+01 -0.61076818569E+01  0.15134573573E+02  0.17770000000E+01 0. -1.
         15    1    1    2    0    0  0.20778243125E+02  0.34542808796E+02  0.17873349581E+03  0.18323144184E+03  0.17770000000E+01 0. -1.
</event>
<event>
 6    1  0.4028964E-003  0.5223315E+03  0.7546771E-02  0.9351183E-01
        -11   -1    0    0    0    0  0.00000000000E+00  0.00000000000E+00  0.50000000000E+03  0.50000000000E+03  0.00000000000E+00 0.  1.
         11   -1    0    0    0    0 -0.00000000000E+00 -0.00000000000E+00 -0.50000000000E+03  0.50000000000E+03  0.00000000000E+00 0. -1.
        -11    1    1    2    0    0 -0.22616983482E+02 -0.11137101518E+02  0.46493544047E+03  0.46561843475E+03  0.00000000000E+00 0.  1.
         11    1    1    2    0    0  0.60419389064E+01  0.40483612686E+01 -0.47761315076E+03  0.47766852108E+03  0.00000000000E+00 0. -1.
        -15    1    1    2    0    0  0.20637811319E+02  0.17000300706E+02  0.27461877411E+02  0.38369804796E+02  0.17770000000E+01 0.  1.
         15    1    1    2    0    0 -0.40627667438E+01 -0.99115604566E+01 -0.14784167120E+02  0.18343239374E+02  0.17770000000E+01 0. -1.
</event>
<event>
 6    1  0.4028964E-003  0.5001337E+03  0.7546771E-02  0.9399511E-01
        -11   -1    0    0    0    0  0.00000000000E+00  0.00000000000E+00  0.50000000000E+03  0.50000000000E+03  0.00000000000E+00 0. -1.
         11   -1    0    0    0    0 -0.00000000000E+00 -0.00000000000E+00 -0.50000000000E+03  0.50000000000E+03  0.00000000000E+00 0.  1.
        -11    1    1    2    0    0 -0.15880751626E+00 -0.24033168988E+01  0.22420624505E+02  0.22549624279E+02  0.00000000000E+00 0. -1.
         11    1    1    2    0    0 -0.62598699869E+01 -0.81670798161E+01 -0.49976036634E+03  0.49986629305E+03  0.00000000000E+00 0.  1.
        -15    1    1    2    0    0  0.28053501500E+00  0.67437677574E+01  0.31013179841E+03  0.31021032738E+03  0.17770000000E+01 0.  1.
         15    1    1    2    0    0  0.61381424882E+01  0.38266289574E+01  0.16720794343E+03  0.16737375528E+03  0.17770000000E+01 0. -1.
</event>
<event>
 6    1  0.4028964E-003  0.5161383E+03  0.7546771E-02  0.9364406E-01
        -11   -1    0    0    0    0  0.00000000000E+00  0.00000000000E+00  0.50000000000E+03  0.50000000000E+03  0.00000000000E+00 0. -1.
         11   -1    0    0    0    0 -0.00000000000E+00 -0.00000000000E+00 -0.50000000000E+03  0.50000000000E+03  0.00000000000E+00 0.  1.
        -11    1    1    2    0    0  0.41381267522E+01  0.45709114513E+01  0.44688995800E+03  0.44693249142E+03  0.00000000000E+00 0. -1.
         11    1    1    2    0    0 -0.33883692395E+02 -0.12213607568E+01 -0.48267228257E+03  0.48386168344E+03  0.00000000000E+00 0.  1.
        -15    1    1    2    0    0  0.16838826097E+02 -0.97802018920E+01  0.46963993681E+02  0.50872122472E+02  0.17770000000E+01 0.  1.
         15    1    1    2    0    0  0.12906739546E+02  0.64306511974E+01 -0.11181669109E+02  0.18333702670E+02  0.17770000000E+01 0. -1.
</event>
<event>
 6    1  0.4028964E-003  0.5144726E+03  0.7546771E-02  0.9367996E-01
        -11   -1    0    0    0    0  0.00000000000E+00  0.00000000000E+00  0.50000000000E+03  0.50000000000E+03  0.00000000000E+00 0.  1.
         11   -1    0    0    0    0 -0.00000000000E+00 -0.00000000000E+00 -0.50000000000E+03  0.50000000000E+03  0.00000000000E+00 0.  1.
        -11    1    1    2    0    0 -0.40910081553E+01 -0.62842618498E+01  0.43574021548E+03  0.43580473114E+03  0.00000000000E+00 0.  1.
         11    1    1    2    0    0 -0.19443794402E+02  0.11002101648E+02 -0.48501316006E+03  0.48552741716E+03  0.00000000000E+00 0.  1.
        -15    1    1    2    0    0  0.22978539628E+02 -0.32897141419E+01 -0.54373295299E+01  0.23907274708E+02  0.17770000000E+01 0. -1.
         15    1    1    2    0    0  0.55626292957E+00 -0.14281256560E+01  0.54710274103E+02  0.54760576995E+02  0.17770000000E+01 0.  1.
</event>
<event>
 6    1  0.4028964E-003  0.5075297E+03  0.7546771E-02  0.9383117E-01
        -11   -1    0    0    0    0  0.00000000000E+00  0.00000000000E+00  0.50000000000E+03  0.50000000000E+03  0.00000000000E+00 0. -1.
         11   -1    0    0    0    0 -0.00000000000E+00 -0.00000000000E+00 -0.50000000000E+03  0.50000000000E+03  0.00000000000E+00 0.  1.
        -11    1    1    2    0    0 -0.44438486853E+02 -0.27980308867E+02  0.48966245504E+03  0.49247030029E+03  0.00000000000E+00 0. -1.
         11    1    1    2    0    0  0.67494596445E+01  0.58217986483E+01 -0.38504447446E+03  0.38514762866E+03  0.00000000000E+00 0.  1.
        -15    1    1    2    0    0  0.44691322985E+02  0.24199681931E+02 -0.67499212029E+02  0.84511776157E+02  0.17770000000E+01 0.  1.
         15    1    1    2    0    0 -0.70022957765E+01 -0.20411717120E+01 -0.37118768545E+02  0.37870294894E+02  0.17770000000E+01 0. -1.
</event>
<event>
 6    1  0.4028964E-003  0.5245378E+03  0.7546771E-02  0.9346519E-01
        -11   -1    0    0    0    0  0.00000000000E+00  0.00000000000E+00  0.50000000000E+03  0.50000000000E+03  0.00000000000E+00 0.  1.
         11   -1    0    0    0    0 -0.00000000000E+00 -0.00000000000E+00 -0.50000000000E+03  0.50000000000E+03  0.00000000000E+00 0.  1.
        -11    1    1    2    0    0  0.13453900697E+02  0.47337264707E+02  0.47290849192E+03  0.47546216022E+03  0.00000000000E+00 0.  1.
         11    1    1    2    0    0  0.24897079524E+01  0.76124998780E+01 -0.27479689479E+03  0.27491359040E+03  0.00000000000E+00 0.  1.
        -15    1    1    2    0    0 -0.24411942658E+02 -0.36405591739E+02  0.61873946252E+01  0.44302952898E+02  0.17770000000E+01 0.  1.
         15    1    1    2    0    0  0.84683340081E+01 -0.18544172845E+02 -0.20429899176E+03  0.20532129648E+03  0.17770000000E+01 0. -1.
</event>
<event>
 6    1  0.4028964E-003  0.5056880E+03  0.7546771E-02  0.9387172E-01
        -11   -1    0    0    0    0  0.00000000000E+00  0.00000000000E+00  0.50000000000E+03  0.50000000000E+03  0.00000000000E+00 0. -1.
         11   -1    0    0    0    0 -0.00000000000E+00 -0.00000000000E+00 -0.50000000000E+03  0.50000000000E+03  0.00000000000E+00 0.  1.
        -11    1    1    2    0    0  0.49182443749E+01  0.12752696045E+02  0.45578640542E+03  0.45599130228E+03  0.00000000000E+00 0. -1.
         11    1    1    2    0    0 -0.11245055598E+02  0.52090449376E+01 -0.49415661533E+03  0.49431199247E+03  0.00000000000E+00 0.  1.
        -15    1    1    2    0    0 -0.22366715274E+01 -0.18357085680E+02  0.36181534729E+02  0.40672428973E+02  0.17770000000E+01 0.  1.
         15    1    1    2    0    0  0.85634827506E+01  0.39534469799E+00  0.21886751793E+01  0.90242762752E+01  0.17770000000E+01 0. -1.
</event>
<event>
 6    1  0.4028964E-003  0.3987231E+03  0.7546771E-02  0.9660181E-01
        -11   -1    0    0    0    0  0.00000000000E+00  0.00000000000E+00  0.50000000000E+03  0.50000000000E+03  0.00000000000E+00 0. -1.
         11   -1    0    0    0    0 -0.00000000000E+00 -0.00000000000E+00 -0.50000000000E+03  0.50000000000E+03  0.00000000000E+00 0.  1.
        -11    1    1    2    0    0 -0.14695142430E+02  0.12199810344E+03  0.38304865685E+03  0.40227572381E+03  0.00000000000E+00 0. -1.
         11    1    1    2    0    0 -0.14306806102E+02  0.66684188521E+01 -0.40602414292E+03  0.40633084691E+03  0.00000000000E+00 0.  1.
        -15    1    1    2    0    0  0.21474739111E+02  0.18473266074E+02 -0.23548718847E+02  0.36879884323E+02  0.17770000000E+01 0.  1.
         15    1    1    2    0    0  0.75272094209E+01 -0.14713978837E+03  0.46524204920E+02  0.15451354496E+03  0.17770000000E+01 0. -1.
</event>
<event>
 6    1  0.4028964E-003  0.5069023E+03  0.7546771E-02  0.9384496E-01
        -11   -1    0    0    0    0  0.00000000000E+00  0.00000000000E+00  0.50000000000E+03  0.50000000000E+03  0.00000000000E+00 0. -1.
         11   -1    0    0    0    0 -0.00000000000E+00 -0.00000000000E+00 -0.50000000000E+03  0.50000000000E+03  0.00000000000E+00 0. -1.
        -11    1    1    2    0    0  0.53698590040E+01  0.50137289941E+01  0.49304301431E+03  0.49309774571E+03  0.00000000000E+00 0. -1.
         11    1    1    2    0    0  0.42519116775E+01  0.72999806902E+00 -0.27333030155E+03  0.27336434550E+03  0.00000000000E+00 0. -1.
        -15    1    1    2    0    0 -0.22526998103E+02 -0.38085348233E+02 -0.12120785506E+03  0.12904441581E+03  0.17770000000E+01 0. -1.
         15    1    1    2    0    0  0.12905227421E+02  0.32341621170E+02 -0.98504857703E+02  0.10449349298E+03  0.17770000000E+01 0.  1.
</event>
<event>
 6    1  0.4028964E-003  0.5061976E+03  0.7546771E-02  0.9386048E-01
        -11   -1    0    0    0    0  0.00000000000E+00  0.00000000000E+00  0.50000000000E+03  0.50000000000E+03  0.00000000000E+00 0. -1.
         11   -1    0    0    0    0 -0.00000000000E+00 -0.00000000000E+00 -0.50000000000E+03  0.50000000000E+03  0.00000000000E+00 0.  1.
        -11    1    1    2    0    0 -0.53339009041E+01 -0.55458228536E+01  0.87258041173E+02  0.87596646051E+02  0.00000000000E+00 0. -1.
         11    1    1    2    0    0  0.60503333008E+01 -0.90332649567E+01 -0.49368268867E+03  0.49380239317E+03  0.00000000000E+00 0.  1.
        -15    1    1    2    0    0 -0.46008858929E+02 -0.93458723769E+01  0.15323466167E+03  0.16027532466E+03  0.17770000000E+01 0.  1.
         15    1    1    2    0    0  0.45292426532E+02  0.23924960187E+02  0.25318998583E+03  0.25832563611E+03  0.17770000000E+01 0. -1.
</event>
<event>
 6    1  0.7490583E-003  0.5000717E+03  0.7546771E-02  0.9399649E-01
        -11   -1    0    0    0    0  0.00000000000E+00  0.00000000000E+00  0.50000000000E+03  0.50000000000E+03  0.00000000000E+00 0.  1.
         11   -1    0    0    0    0 -0.00000000000E+00 -0.00000000000E+00 -0.50000000000E+03  0.50000000000E+03  0.00000000000E+00 0. -1.
        -11    1    1    2    0    0 -0.47498207137E+01  0.51952725412E+01  0.49987871174E+03  0.49992827296E+03  0.00000000000E+00 0.  1.
         11    1    1    2    0    0  0.88669434407E+00 -0.87047206535E+00 -0.87425650421E+02  0.87434480040E+02  0.00000000000E+00 0. -1.
        -15    1    1    2    0    0  0.92645265704E+00  0.33555006094E+01 -0.13730130787E+03  0.13735692400E+03  0.17770000000E+01 0. -1.
         15    1    1    2    0    0  0.29366737126E+01 -0.76803010852E+01 -0.27515175345E+03  0.27528032300E+03  0.17770000000E+01 0.  1.
</event>
<event>
 6    1  0.4028964E-003  0.5017288E+03  0.7546771E-02  0.9395950E-01
        -11   -1    0    0    0    0  0.00000000000E+00  0.00000000000E+00  0.50000000000E+03  0.50000000000E+03  0.00000000000E+00 0.  1.
         11   -1    0    0    0    0 -0.00000000000E+00 -0.00000000000E+00 -0.50000000000E+03  0.50000000000E+03  0.00000000000E+00 0. -1.
        -11    1    1    2    0    0 -0.12060049305E+02 -0.32253259188E+01  0.10394035294E+03  0.10468736546E+03  0.00000000000E+00 0.  1.
         11    1    1    2    0    0  0.58832394409E+01 -0.52035785183E+01 -0.49820926647E+03  0.49827117410E+03  0.00000000000E+00 0. -1.
        -15    1    1    2    0    0 -0.35976258393E+01  0.16100728108E+01  0.23186637188E+01  0.49060347100E+01  0.17770000000E+01 0. -1.
         15    1    1    2    0    0  0.97744357037E+01  0.68188316262E+01  0.39195024981E+03  0.39213542573E+03  0.17770000000E+01 0.  1.
</event>
<event>
 6    1  0.4028964E-003  0.5004850E+03  0.7546771E-02  0.9398725E-01
        -11   -1    0    0    0    0  0.00000000000E+00  0.00000000000E+00  0.50000000000E+03  0.50000000000E+03  0.00000000000E+00 0. -1.
         11   -1    0    0    0    0 -0.00000000000E+00 -0.00000000000E+00 -0.50000000000E+03  0.50000000000E+03  0.00000000000E+00 0.  1.
        -11    1    1    2    0    0  0.58276205032E+01  0.49053548079E+01  0.49945693319E+03  0.49951501657E+03  0.00000000000E+00 0. -1.
         11    1    1    2    0    0 -0.11401601547E+01 -0.56030109338E+01 -0.32934761675E+03  0.32939724703E+03  0.00000000000E+00 0.  1.
        -15    1    1    2    0    0  0.38005374986E+01  0.55538121043E+01 -0.10431281287E+03  0.10454477305E+03  0.17770000000E+01 0. -1.
         15    1    1    2    0    0 -0.84879978471E+01 -0.48561559785E+01 -0.65796503576E+02  0.66542963341E+02  0.17770000000E+01 0. -1.
</event>
<event>
 6    1  0.4028964E-003  0.5004903E+03  0.7546771E-02  0.9398713E-01
        -11   -1    0    0    0    0  0.00000000000E+00  0.00000000000E+00  0.50000000000E+03  0.50000000000E+03  0.00000000000E+00 0. -1.
         11   -1    0    0    0    0 -0.00000000000E+00 -0.00000000000E+00 -0.50000000000E+03  0.50000000000E+03  0.00000000000E+00 0. -1.
        -11    1    1    2    0    0 -0.30467352537E+01  0.49059789791E+01  0.35508196947E+03  0.35512892908E+03  0.00000000000E+00 0. -1.
         11    1    1    2    0    0  0.18403233998E+01  0.78168010017E+01 -0.49944509986E+03  0.49950965650E+03  0.00000000000E+00 0. -1.
        -15    1    1    2    0    0  0.27122952033E+01 -0.94897961739E+01  0.54824040270E+02  0.55733705217E+02  0.17770000000E+01 0. -1.
         15    1    1    2    0    0 -0.15058833494E+01 -0.32329838069E+01  0.89539090118E+02  0.89627709203E+02  0.17770000000E+01 0. -1.
</event>
<event>
 6    1  0.4028964E-003  0.5037615E+03  0.7546771E-02  0.9391432E-01
        -11   -1    0    0    0    0  0.00000000000E+00  0.00000000000E+00  0.50000000000E+03  0.50000000000E+03  0.00000000000E+00 0. -1.
         11   -1    0    0    0    0 -0.00000000000E+00 -0.00000000000E+00 -0.50000000000E+03  0.50000000000E+03  0.00000000000E+00 0.  1.
        -11    1    1    2    0    0  0.89304886761E+00  0.90208086599E+01  0.49615573862E+03  0.49623854092E+03  0.00000000000E+00 0. -1.
         11    1    1    2    0    0  0.12594921794E+01  0.74911371863E+01 -0.43110424625E+03  0.43117116624E+03  0.00000000000E+00 0.  1.
        -15    1    1    2    0    0  0.36750957773E+01 -0.13084155915E+02 -0.64083642820E+02  0.65532987656E+02  0.17770000000E+01 0. -1.
         15    1    1    2    0    0 -0.58276368243E+01 -0.34277899309E+01 -0.96784954996E+00  0.70573051880E+01  0.17770000000E+01 0.  1.
</event>
<event>
 6    1  0.4028964E-003  0.5003071E+03  0.7546771E-02  0.9399123E-01
        -11   -1    0    0    0    0  0.00000000000E+00  0.00000000000E+00  0.50000000000E+03  0.50000000000E+03  0.00000000000E+00 0. -1.
         11   -1    0    0    0    0 -0.00000000000E+00 -0.00000000000E+00 -0.50000000000E+03  0.50000000000E+03  0.00000000000E+00 0. -1.
        -11    1    1    2    0    0 -0.28053041678E+00  0.29518025974E+01  0.19139930305E+03  0.19142226893E+03  0.00000000000E+00 0. -1.
         11    1    1    2    0    0  0.11175776962E+02  0.90091722451E+01 -0.49948665294E+03  0.49969288533E+03  0.00000000000E+00 0. -1.
        -15    1    1    2    0    0 -0.10284240878E+02 -0.64728921531E+01  0.10517200671E+03  0.10588660287E+03  0.17770000000E+01 0.  1.
         15    1    1    2    0    0 -0.61100566689E+00 -0.54880826894E+01  0.20291534318E+03  0.20299824287E+03  0.17770000000E+01 0. -1.
</event>
<event>
 6    1  0.4028964E-003  0.5006031E+03  0.7546771E-02  0.9398461E-01
        -11   -1    0    0    0    0  0.00000000000E+00  0.00000000000E+00  0.50000000000E+03  0.50000000000E+03  0.00000000000E+00 0.  1.
         11   -1    0    0    0    0 -0.00000000000E+00 -0.00000000000E+00 -0.50000000000E+03  0.50000000000E+03  0.00000000000E+00 0. -1.
        -11    1    1    2    0    0  0.69938829048E+01  0.84383128127E+01  0.11486790944E+03  0.11538958419E+03  0.00000000000E+00 0.  1.
         11    1    1    2    0    0 -0.15313914054E+01 -0.80831444797E+01 -0.49932913179E+03  0.49939690051E+03  0.00000000000E+00 0. -1.
        -15    1    1    2    0    0  0.54240204318E+01  0.79892834992E-01  0.27725036134E+02  0.28306567050E+02  0.17770000000E+01 0. -1.
         15    1    1    2    0    0 -0.10886511931E+02 -0.43506116808E+00  0.35673618622E+03  0.35690694825E+03  0.17770000000E+01 0.  1.
</event>
<event>
 6    1  0.4028964E-003  0.5002805E+03  0.7546771E-02  0.9399182E-01
        -11   -1    0    0    0    0  0.00000000000E+00  0.00000000000E+00  0.50000000000E+03  0.50000000000E+03  0.00000000000E+00 0. -1.
         11   -1    0    0    0    0 -0.00000000000E+00 -0.00000000000E+00 -0.50000000000E+03  0.50000000000E+03  0.00000000000E+00 0. -1.
        -11    1    1    2    0    0  0.11933072784E+00 -0.80816830490E+01  0.49965410464E+03  0.49971947343E+03  0.00000000000E+00 0. -1.
         11    1    1    2    0    0  0.90378352337E+01  0.25950148290E+01 -0.25813251811E+03  0.25830372330E+03  0.00000000000E+00 0. -1.
        -15    1    1    2    0    0 -0.81164004861E+01  0.13067158668E+01 -0.20303875380E+03  0.20321288526E+03  0.17770000000E+01 0.  1.
         15    1    1    2    0    0 -0.10407654754E+01  0.41799523532E+01 -0.38482832737E+02  0.38763918003E+02  0.17770000000E+01 0. -1.
</event>
<event>
 6    1  0.4028964E-003  0.5004852E+03  0.7546771E-02  0.9398725E-01
        -11   -1    0    0    0    0  0.00000000000E+00  0.00000000000E+00  0.50000000000E+03  0.50000000000E+03  0.00000000000E+00 0.  1.
         11   -1    0    0    0    0 -0.00000000000E+00 -0.00000000000E+00 -0.50000000000E+03  0.50000000000E+03  0.00000000000E+00 0. -1.
        -11    1    1    2    0    0  0.97367321113E+01  0.37706101641E+01  0.49940562558E+03  0.49951476486E+03  0.00000000000E+00 0.  1.
         11    1    1    2    0    0 -0.14087047660E+01  0.32506873867E+01 -0.18710851788E+03  0.18714205535E+03  0.00000000000E+00 0. -1.
        -15    1    1    2    0    0 -0.11071775554E+02 -0.28828476388E+01 -0.67254737080E+02  0.68244065040E+02  0.17770000000E+01 0. -1.
         15    1    1    2    0    0  0.27437482090E+01 -0.41384499120E+01 -0.24504237062E+03  0.24509911475E+03  0.17770000000E+01 0.  1.
</event>
<event>
 6    1  0.4028964E-003  0.5036552E+03  0.7546771E-02  0.9391668E-01
        -11   -1    0    0    0    0  0.00000000000E+00  0.00000000000E+00  0.50000000000E+03  0.50000000000E+03  0.00000000000E+00 0.  1.
         11   -1    0    0    0    0 -0.00000000000E+00 -0.00000000000E+00 -0.50000000000E+03  0.50000000000E+03  0.00000000000E+00 0. -1.
        -11    1    1    2    0    0  0.43228775531E+01 -0.92530468161E+01  0.47743886438E+03  0.47754808697E+03  0.00000000000E+00 0.  1.
         11    1    1    2    0    0 -0.64328086794E+01  0.45473550883E+01 -0.49628228003E+03  0.49634480045E+03  0.00000000000E+00 0. -1.
        -15    1    1    2    0    0  0.94677250641E+01  0.13452134449E+01  0.91022921243E+01  0.13321293782E+02  0.17770000000E+01 0.  1.
         15    1    1    2    0    0 -0.73577939378E+01  0.33604782830E+01  0.97411235191E+01  0.12785818798E+02  0.17770000000E+01 0. -1.
</event>
<event>
 6    1  0.4028964E-003  0.5000860E+03  0.7546771E-02  0.9399617E-01
        -11   -1    0    0    0    0  0.00000000000E+00  0.00000000000E+00  0.50000000000E+03  0.50000000000E+03  0.00000000000E+00 0. -1.
         11   -1    0    0    0    0 -0.00000000000E+00 -0.00000000000E+00 -0.50000000000E+03  0.50000000000E+03  0.00000000000E+00 0. -1.
        -11    1    1    2    0    0 -0.20675789399E+01  0.20084027736E+01  0.14224107740E+03  0.14227028033E+03  0.00000000000E+00 0. -1.
         11    1    1    2    0    0 -0.73884194430E+01  0.19673345213E+01 -0.49985557551E+03  0.49991404813E+03  0.00000000000E+00 0. -1.
        -15    1    1    2    0    0  0.14683467375E+01 -0.28300721979E+01  0.91021048543E+02  0.91094205950E+02  0.17770000000E+01 0.  1.
         15    1    1    2    0    0  0.79876516454E+01 -0.11456650970E+01  0.26659344957E+03  0.26672146559E+03  0.17770000000E+01 0. -1.
</event>
<event>
 6    1  0.4028964E-003  0.5010069E+03  0.7546771E-02  0.9397560E-01
        -11   -1    0    0    0    0  0.00000000000E+00  0.00000000000E+00  0.50000000000E+03  0.50000000000E+03  0.00000000000E+00 0.  1.
         11   -1    0    0    0    0 -0.00000000000E+00 -0.00000000000E+00 -0.50000000000E+03  0.50000000000E+03  0.00000000000E+00 0.  1.
        -11    1    1    2    0    0 -0.33177704007E+01 -0.88383551870E+01  0.33971113886E+03  0.33984228988E+03  0.00000000000E+00 0.  1.
         11    1    1    2    0    0  0.68852935451E+01  0.13086778712E+02 -0.49877394958E+03  0.49899311000E+03  0.00000000000E+00 0.  1.
        -15    1    1    2    0    0 -0.13166359837E+02 -0.65617461017E+01  0.70836042052E+02  0.72369276118E+02  0.17770000000E+01 0. -1.
         15    1    1    2    0    0  0.95988366931E+01  0.23133225764E+01  0.88226768664E+02  0.88795324005E+02  0.17770000000E+01 0.  1.
</event>
<event>
 6    1  0.4028964E-003  0.5041874E+03  0.7546771E-02  0.9390488E-01
        -11   -1    0    0    0    0  0.00000000000E+00  0.00000000000E+00  0.50000000000E+03  0.50000000000E+03  0.00000000000E+00 0.  1.
         11   -1    0    0    0    0 -0.00000000000E+00 -0.00000000000E+00 -0.50000000000E+03  0.50000000000E+03  0.00000000000E+00 0.  1.
        -11    1    1    2    0    0  0.69635863917E+01 -0.15494916290E+01  0.49576122903E+03  0.49581255397E+03  0.00000000000E+00 0.  1.
         11    1    1    2    0    0 -0.42180798235E+01  0.65822632291E+01 -0.46736657907E+03  0.46743196042E+03  0.00000000000E+00 0.  1.
        -15    1    1    2    0    0 -0.56805770769E+01  0.21356905462E+01  0.91323583589E+00  0.63891985982E+01  0.17770000000E+01 0.  1.
         15    1    1    2    0    0  0.29350705086E+01 -0.71684621463E+01 -0.29307885794E+02  0.30366287016E+02  0.17770000000E+01 0. -1.
</event>
<event>
 6    1  0.4028964E-003  0.5017397E+03  0.7546771E-02  0.9395925E-01
        -11   -1    0    0    0    0  0.00000000000E+00  0.00000000000E+00  0.50000000000E+03  0.50000000000E+03  0.00000000000E+00 0.  1.
         11   -1    0    0    0    0 -0.00000000000E+00 -0.00000000000E+00 -0.50000000000E+03  0.50000000000E+03  0.00000000000E+00 0. -1.
        -11    1    1    2    0    0 -0.40287662198E+01  0.44319283679E+01  0.33208931670E+03  0.33214332330E+03  0.00000000000E+00 0.  1.
         11    1    1    2    0    0  0.47246758494E+01  0.14295196806E+02 -0.49803276994E+03  0.49826028855E+03  0.00000000000E+00 0. -1.
        -15    1    1    2    0    0  0.92207706760E+01  0.39257277772E+01  0.52056164855E+02  0.53041832349E+02  0.17770000000E+01 0. -1.
         15    1    1    2    0    0 -0.99166803056E+01 -0.22652852951E+02  0.11388728838E+03  0.11655455581E+03  0.17770000000E+01 0.  1.
</event>
<event>
 6    1  0.4028964E-003  0.5024249E+03  0.7546771E-02  0.9394400E-01
        -11   -1    0    0    0    0  0.00000000000E+00  0.00000000000E+00  0.50000000000E+03  0.50000000000E+03  0.00000000000E+00 0. -1.
         11   -1    0    0    0    0 -0.00000000000E+00 -0.00000000000E+00 -0.50000000000E+03  0.50000000000E+03  0.00000000000E+00 0. -1.
        -11    1    1    2    0    0  0.98194224763E+01 -0.13290867565E+02  0.49730058613E+03  0.49757506086E+03  0.00000000000E+00 0. -1.
         11    1    1    2    0    0  0.45756236178E+01 -0.73347394945E+01 -0.41401153099E+03  0.41410177798E+03  0.00000000000E+00 0. -1.
        -15    1    1    2    0    0 -0.10234230238E+02  0.19245483053E+02 -0.48358938865E+02  0.53074219577E+02  0.17770000000E+01 0.  1.
         15    1    1    2    0    0 -0.41608158565E+01  0.13801240065E+01 -0.34930116278E+02  0.35248941588E+02  0.17770000000E+01 0. -1.
</event>
<event>
 6    1  0.4028964E-003  0.5010288E+03  0.7546771E-02  0.9397511E-01
        -11   -1    0    0    0    0  0.00000000000E+00  0.00000000000E+00  0.50000000000E+03  0.50000000000E+03  0.00000000000E+00 0.  1.
         11   -1    0    0    0    0 -0.00000000000E+00 -0.00000000000E+00 -0.50000000000E+03  0.50000000000E+03  0.00000000000E+00 0.  1.
        -11    1    1    2    0    0  0.10567380832E+00 -0.51321926704E+01  0.37872313321E+03  0.37875792031E+03  0.00000000000E+00 0.  1.
         11    1    1    2    0    0  0.68720169520E+01  0.13587364898E+02 -0.49873883695E+03  0.49897121017E+03  0.00000000000E+00 0.  1.
        -15    1    1    2    0    0 -0.84656765775E+01 -0.39431495696E+01  0.20187477736E+02  0.22313854324E+02  0.17770000000E+01 0. -1.
         15    1    1    2    0    0  0.14879858172E+01 -0.45120226581E+01  0.99828226002E+02  0.99957015192E+02  0.17770000000E+01 0.  1.
</event>
<event>
 6    1  0.4028964E-003  0.5065756E+03  0.7546771E-02  0.9385215E-01
        -11   -1    0    0    0    0  0.00000000000E+00  0.00000000000E+00  0.50000000000E+03  0.50000000000E+03  0.00000000000E+00 0. -1.
         11   -1    0    0    0    0 -0.00000000000E+00 -0.00000000000E+00 -0.50000000000E+03  0.50000000000E+03  0.00000000000E+00 0. -1.
        -11    1    1    2    0    0  0.75434224978E+01  0.12774963256E+01  0.47112273097E+03  0.47118484999E+03  0.00000000000E+00 0. -1.
         11    1    1    2    0    0  0.10166575452E+02  0.15545231967E+02 -0.49307469759E+03  0.49342443281E+03  0.00000000000E+00 0. -1.
        -15    1    1    2    0    0 -0.18711431264E+02 -0.12463895711E+02  0.15603377330E+02  0.27424249659E+02  0.17770000000E+01 0.  1.
         15    1    1    2    0    0  0.10014333140E+01 -0.43588325810E+01  0.63485892867E+01  0.79664675411E+01  0.17770000000E+01 0. -1.
</event>
<event>
 6    1  0.4028964E-003  0.5516027E+03  0.7546771E-02  0.9291215E-01
        -11   -1    0    0    0    0  0.00000000000E+00  0.00000000000E+00  0.50000000000E+03  0.50000000000E+03  0.00000000000E+00 0.  1.
         11   -1    0    0    0    0 -0.00000000000E+00 -0.00000000000E+00 -0.50000000000E+03  0.50000000000E+03  0.00000000000E+00 0.  1.
        -11    1    1    2    0    0 -0.23601922182E+02  0.23862621019E+02  0.23875095987E+03  0.24109851980E+03  0.00000000000E+00 0.  1.
         11    1    1    2    0    0 -0.15886189901E+02  0.12693304375E+01 -0.44811398151E+03  0.44839728216E+03  0.00000000000E+00 0.  1.
        -15    1    1    2    0    0 -0.71892396263E+00  0.71311906906E+02 -0.55259539876E+01  0.71551371858E+02  0.17770000000E+01 0. -1.
         15    1    1    2    0    0  0.40207036045E+02 -0.96443858363E+02  0.21488897562E+03  0.23895282618E+03  0.17770000000E+01 0.  1.
</event>
<event>
 6    1  0.4028964E-003  0.5014775E+03  0.7546771E-02  0.9396510E-01
        -11   -1    0    0    0    0  0.00000000000E+00  0.00000000000E+00  0.50000000000E+03  0.50000000000E+03  0.00000000000E+00 0.  1.
         11   -1    0    0    0    0 -0.00000000000E+00 -0.00000000000E+00 -0.50000000000E+03  0.50000000000E+03  0.00000000000E+00 0. -1.
        -11    1    1    2    0    0 -0.59323985347E+01  0.56843540323E+01  0.49845483642E+03  0.49852254631E+03  0.00000000000E+00 0.  1.
         11    1    1    2    0    0  0.54576182755E+01 -0.61370937351E+01 -0.36595327466E+03  0.36604541897E+03  0.00000000000E+00 0. -1.
        -15    1    1    2    0    0  0.11278480172E+02 -0.79589164233E+01 -0.76327761414E+02  0.77586296194E+02  0.17770000000E+01 0. -1.
         15    1    1    2    0    0 -0.10803699913E+02  0.84116561261E+01 -0.56173800345E+02  0.57845738519E+02  0.17770000000E+01 0.  1.
</event>
<event>
 6    1  0.4028964E-003  0.5014606E+03  0.7546771E-02  0.9396547E-01
        -11   -1    0    0    0    0  0.00000000000E+00  0.00000000000E+00  0.50000000000E+03  0.50000000000E+03  0.00000000000E+00 0. -1.
         11   -1    0    0    0    0 -0.00000000000E+00 -0.00000000000E+00 -0.50000000000E+03  0.50000000000E+03  0.00000000000E+00 0. -1.
        -11    1    1    2    0    0  0.36862071103E+01 -0.12047331035E+02  0.49838021417E+03  0.49853943092E+03  0.00000000000E+00 0. -1.
         11    1    1    2    0    0 -0.13755724520E+01  0.59880847511E+01 -0.44153021355E+03  0.44157295982E+03  0.00000000000E+00 0. -1.
        -15    1    1    2    0    0 -0.92258209076E+00  0.12028088751E+02 -0.32392840002E+02  0.34611846080E+02  0.17770000000E+01 0. -1.
         15    1    1    2    0    0 -0.13880525675E+01 -0.59688424671E+01 -0.24457160612E+02  0.25275763184E+02  0.17770000000E+01 0.  1.
</event>
<event>
 6    1  0.4028964E-003  0.5058067E+03  0.7546771E-02  0.9386910E-01
        -11   -1    0    0    0    0  0.00000000000E+00  0.00000000000E+00  0.50000000000E+03  0.50000000000E+03  0.00000000000E+00 0. -1.
         11   -1    0    0    0    0 -0.00000000000E+00 -0.00000000000E+00 -0.50000000000E+03  0.50000000000E+03  0.00000000000E+00 0. -1.
        -11    1    1    2    0    0 -0.10645409774E+02 -0.18197112089E+01  0.49407523420E+03  0.49419325486E+03  0.00000000000E+00 0. -1.
         11    1    1    2    0    0  0.44591750704E+01  0.67652961916E+01 -0.46511284887E+03  0.46518342152E+03  0.00000000000E+00 0. -1.
        -15    1    1    2    0    0  0.97473042068E+01  0.24112852806E+01  0.28728263845E+00  0.10201200729E+02  0.17770000000E+01 0.  1.
         15    1    1    2    0    0 -0.35610695027E+01 -0.73568702633E+01 -0.29249667968E+02  0.30422122893E+02  0.17770000000E+01 0.  1.
</event>
<event>
 6    1  0.4028964E-003  0.5037647E+03  0.7546771E-02  0.9391425E-01
        -11   -1    0    0    0    0  0.00000000000E+00  0.00000000000E+00  0.50000000000E+03  0.50000000000E+03  0.00000000000E+00 0.  1.
         11   -1    0    0    0    0 -0.00000000000E+00 -0.00000000000E+00 -0.50000000000E+03  0.50000000000E+03  0.00000000000E+00 0.  1.
        -11    1    1    2    0    0  0.25127013660E+01  0.10907514173E+01  0.52836654541E+02  0.52907612589E+02  0.00000000000E+00 0.  1.
         11    1    1    2    0    0  0.25238599510E+02 -0.51173723395E+01 -0.49556661494E+03  0.49623527106E+03  0.00000000000E+00 0.  1.
        -15    1    1    2    0    0  0.88433721892E+01 -0.12925226573E+01  0.36120305842E+03  0.36131798043E+03  0.17770000000E+01 0.  1.
         15    1    1    2    0    0 -0.36594673066E+02  0.53191435795E+01  0.81526901980E+02  0.89539135916E+02  0.17770000000E+01 0. -1.
</event>
<event>
 6    1  0.4028964E-003  0.5049758E+03  0.7546771E-02  0.9388744E-01
        -11   -1    0    0    0    0  0.00000000000E+00  0.00000000000E+00  0.50000000000E+03  0.50000000000E+03  0.00000000000E+00 0. -1.
         11   -1    0    0    0    0 -0.00000000000E+00 -0.00000000000E+00 -0.50000000000E+03  0.50000000000E+03  0.00000000000E+00 0. -1.
        -11    1    1    2    0    0  0.36135570387E+01  0.12853619709E+02  0.49484406267E+03  0.49502416072E+03  0.00000000000E+00 0. -1.
         11    1    1    2    0    0  0.69524214307E+01  0.39909861453E+01 -0.47651953635E+03  0.47658696232E+03  0.00000000000E+00 0. -1.
        -15    1    1    2    0    0 -0.18184485669E+00 -0.86912812899E+00 -0.14169964204E+00  0.19915468975E+01  0.17770000000E+01 0.  1.
         15    1    1    2    0    0 -0.10384133613E+02 -0.15975477725E+02 -0.18182826681E+02  0.26397330064E+02  0.17770000000E+01 0.  1.
</event>
<event>
 6    1  0.4028964E-003  0.5030591E+03  0.7546771E-02  0.9392991E-01
        -11   -1    0    0    0    0  0.00000000000E+00  0.00000000000E+00  0.50000000000E+03  0.50000000000E+03  0.00000000000E+00 0.  1.
         11   -1    0    0    0    0 -0.00000000000E+00 -0.00000000000E+00 -0.50000000000E+03  0.50000000000E+03  0.00000000000E+00 0. -1.
        -11    1    1    2    0    0  0.76538221606E+00 -0.10429778843E+02  0.36548324876E+03  0.36563283663E+03  0.00000000000E+00 0.  1.
         11    1    1    2    0    0 -0.48629423437E+01 -0.10443590403E+02 -0.49680737018E+03  0.49694092190E+03  0.00000000000E+00 0. -1.
        -15    1    1    2    0    0  0.36499656873E+01 -0.83469775840E+01  0.53047838006E+02  0.53853738315E+02  0.17770000000E+01 0.  1.
         15    1    1    2    0    0  0.44759444033E+00  0.29220346830E+02  0.78276283418E+02  0.83572503160E+02  0.17770000000E+01 0. -1.
</event>
<event>
 6    1  0.4028964E-003  0.5287467E+03  0.7546771E-02  0.9337689E-01
        -11   -1    0    0    0    0  0.00000000000E+00  0.00000000000E+00  0.50000000000E+03  0.50000000000E+03  0.00000000000E+00 0.  1.
         11   -1    0    0    0    0 -0.00000000000E+00 -0.00000000000E+00 -0.50000000000E+03  0.50000000000E+03  0.00000000000E+00 0. -1.
        -11    1    1    2    0    0  0.72873375091E+00 -0.82765330489E+01  0.47118009286E+03  0.47125334159E+03  0.00000000000E+00 0.  1.
         11    1    1    2    0    0 -0.20066979862E+02  0.10290177410E+02 -0.43847472472E+03  0.43905427415E+03  0.00000000000E+00 0. -1.
        -15    1    1    2    0    0  0.14652424862E+02 -0.77190887436E+01 -0.59528581569E+02  0.61814946720E+02  0.17770000000E+01 0. -1.
         15    1    1    2    0    0  0.46858212488E+01  0.57054443829E+01  0.26823213424E+02  0.27877437539E+02  0.17770000000E+01 0.  1.
</event>
<event>
 6    1  0.4028964E-003  0.5161616E+03  0.7546771E-02  0.9364356E-01
        -11   -1    0    0    0    0  0.00000000000E+00  0.00000000000E+00  0.50000000000E+03  0.50000000000E+03  0.00000000000E+00 0. -1.
         11   -1    0    0    0    0 -0.00000000000E+00 -0.00000000000E+00 -0.50000000000E+03  0.50000000000E+03  0.00000000000E+00 0. -1.
        -11    1    1    2    0    0 -0.16107005305E+02 -0.15916847472E+01  0.46937594433E+03  0.46965492246E+03  0.00000000000E+00 0. -1.
         11    1    1    2    0    0  0.45157192469E+01 -0.48093041936E+01 -0.48379342716E+03  0.48383840411E+03  0.00000000000E+00 0. -1.
        -15    1    1    2    0    0 -0.10031501385E+02  0.83993077559E+01  0.20046125772E+02  0.24003838824E+02  0.17770000000E+01 0. -1.
         15    1    1    2    0    0  0.21622787443E+02 -0.19983188151E+01 -0.56286429348E+01  0.22502834603E+02  0.17770000000E+01 0.  1.
</event>
<event>
 6    1  0.4028964E-003  0.5105981E+03  0.7546771E-02  0.9376403E-01
        -11   -1    0    0    0    0  0.00000000000E+00  0.00000000000E+00  0.50000000000E+03  0.50000000000E+03  0.00000000000E+00 0. -1.
         11   -1    0    0    0    0 -0.00000000000E+00 -0.00000000000E+00 -0.50000000000E+03  0.50000000000E+03  0.00000000000E+00 0.  1.
        -11    1    1    2    0    0  0.61079911547E+00  0.10377787878E+02  0.47278218199E+03  0.47289646136E+03  0.00000000000E+00 0. -1.
         11    1    1    2    0    0  0.15787191392E+02  0.25228672389E+01 -0.48914066236E+03  0.48940186743E+03  0.00000000000E+00 0.  1.
        -15    1    1    2    0    0 -0.16824706678E+02 -0.57186041525E+01 -0.19358741531E+01  0.17963254883E+02  0.17770000000E+01 0. -1.
         15    1    1    2    0    0  0.42671617112E+00 -0.71820509640E+01  0.18294354525E+02  0.19738416330E+02  0.17770000000E+01 0.  1.
</event>
<event>
 6    1  0.4028964E-003  0.5005098E+03  0.7546771E-02  0.9398670E-01
        -11   -1    0    0    0    0  0.00000000000E+00  0.00000000000E+00  0.50000000000E+03  0.50000000000E+03  0.00000000000E+00 0.  1.
         11   -1    0    0    0    0 -0.00000000000E+00 -0.00000000000E+00 -0.50000000000E+03  0.50000000000E+03  0.00000000000E+00 0.  1.
        -11    1    1    2    0    0 -0.12130527387E+02 -0.24477457410E+01  0.49933686385E+03  0.49949018484E+03  0.00000000000E+00 0.  1.
         11    1    1    2    0    0  0.57097337704E+00  0.49457564697E+01 -0.31000914679E+03  0.31004912129E+03  0.00000000000E+00 0.  1.
        -15    1    1    2    0    0  0.27355961401E+01  0.93349777370E+00 -0.14746162000E+03  0.14750065087E+03  0.17770000000E+01 0. -1.
         15    1    1    2    0    0  0.88239578698E+01 -0.34315085024E+01 -0.41866097055E+02  0.42960043001E+02  0.17770000000E+01 0.  1.
</event>
<event>
 6    1  0.4028964E-003  0.5007034E+03  0.7546771E-02  0.9398237E-01
        -11   -1    0    0    0    0  0.00000000000E+00  0.00000000000E+00  0.50000000000E+03  0.50000000000E+03  0.00000000000E+00 0.  1.
         11   -1    0    0    0    0 -0.00000000000E+00 -0.00000000000E+00 -0.50000000000E+03  0.50000000000E+03  0.00000000000E+00 0.  1.
        -11    1    1    2    0    0  0.17196389378E+01  0.19976949853E+02  0.49889387028E+03  0.49929663477E+03  0.00000000000E+00 0.  1.
         11    1    1    2    0    0  0.33210278880E+01 -0.56689923858E+01 -0.29670388035E+03  0.29677661518E+03  0.00000000000E+00 0.  1.
        -15    1    1    2    0    0 -0.10598842119E+01 -0.17497877969E+02 -0.96272763517E+02  0.97871864252E+02  0.17770000000E+01 0. -1.
         15    1    1    2    0    0 -0.39807826139E+01  0.31899205015E+01 -0.10591722641E+03  0.10605488580E+03  0.17770000000E+01 0.  1.
</event>
<event>
 6    1  0.4028964E-003  0.5069594E+03  0.7546771E-02  0.9384371E-01
        -11   -1    0    0    0    0  0.00000000000E+00  0.00000000000E+00  0.50000000000E+03  0.50000000000E+03  0.00000000000E+00 0. -1.
         11   -1    0    0    0    0 -0.00000000000E+00 -0.00000000000E+00 -0.50000000000E+03  0.50000000000E+03  0.00000000000E+00 0. -1.
        -11    1    1    2    0    0 -0.31086787406E+02 -0.77985391930E+00  0.30613322044E+03  0.30770853934E+03  0.00000000000E+00 0. -1.
         11    1    1    2    0    0  0.11413687510E+02 -0.11721394316E+02 -0.49276912373E+03  0.49304063996E+03  0.00000000000E+00 0. -1.
        -15    1    1    2    0    0 -0.11162983527E+02 -0.47662883389E+01  0.35415840708E+01  0.12768330058E+02  0.17770000000E+01 0.  1.
         15    1    1    2    0    0  0.30836083423E+02  0.17267536574E+02  0.18309431922E+03  0.18648249065E+03  0.17770000000E+01 0. -1.
</event>
<event>
 6    1  0.4028964E-003  0.5023321E+03  0.7546771E-02  0.9394607E-01
        -11   -1    0    0    0    0  0.00000000000E+00  0.00000000000E+00  0.50000000000E+03  0.50000000000E+03  0.00000000000E+00 0.  1.
         11   -1    0    0    0    0 -0.00000000000E+00 -0.00000000000E+00 -0.50000000000E+03  0.50000000000E+03  0.00000000000E+00 0.  1.
        -11    1    1    2    0    0 -0.70075997170E+01  0.59569766764E+01  0.49758291967E+03  0.49766791536E+03  0.00000000000E+00 0.  1.
         11    1    1    2    0    0  0.10281673568E+02  0.16061960058E+02 -0.41957723483E+03  0.42001042292E+03  0.00000000000E+00 0.  1.
        -15    1    1    2    0    0 -0.10923416313E+01 -0.14358424258E+02 -0.67375749310E+02  0.68920293684E+02  0.17770000000E+01 0.  1.
         15    1    1    2    0    0 -0.21817322198E+01 -0.76605124761E+01 -0.10629935530E+02  0.13401368036E+02  0.17770000000E+01 0. -1.
</event>
<event>
 6    1  0.4028964E-003  0.5017322E+03  0.7546771E-02  0.9395942E-01
        -11   -1    0    0    0    0  0.00000000000E+00  0.00000000000E+00  0.50000000000E+03  0.50000000000E+03  0.00000000000E+00 0. -1.
         11   -1    0    0    0    0 -0.00000000000E+00 -0.00000000000E+00 -0.50000000000E+03  0.50000000000E+03  0.00000000000E+00 0. -1.
        -11    1    1    2    0    0  0.94174467191E+01 -0.11596840181E+02  0.49804381968E+03  0.49826782089E+03  0.00000000000E+00 0. -1.
         11    1    1    2    0    0 -0.77070086725E+01 -0.14006238614E+01 -0.36299282870E+03  0.36307733807E+03  0.00000000000E+00 0. -1.
        -15    1    1    2    0    0 -0.94376143639E+01 -0.20189994058E+01 -0.19165709249E+02  0.21532000917E+02  0.17770000000E+01 0. -1.
         15    1    1    2    0    0  0.77271763172E+01  0.15016463448E+02 -0.11588528173E+03  0.11712284013E+03  0.17770000000E+01 0.  1.
</event>
<event>
 6    1  0.4028964E-003  0.5022386E+03  0.7546771E-02  0.9394815E-01
        -11   -1    0    0    0    0  0.00000000000E+00  0.00000000000E+00  0.50000000000E+03  0.50000000000E+03  0.00000000000E+00 0.  1.
         11   -1    0    0    0    0 -0.00000000000E+00 -0.00000000000E+00 -0.50000000000E+03  0.50000000000E+03  0.00000000000E+00 0.  1.
        -11    1    1    2    0    0 -0.26321853814E+00 -0.50099304915E+01  0.54279696119E+02  0.54511045654E+02  0.00000000000E+00 0.  1.
         11    1    1    2    0    0  0.12320378771E+02  0.16739604261E+02 -0.49732730610E+03  0.49776144434E+03  0.00000000000E+00 0.  1.
        -15    1    1    2    0    0 -0.95997552387E+01 -0.11280752639E+02  0.44420146552E+03  0.44445192134E+03  0.17770000000E+01 0.  1.
         15    1    1    2    0    0 -0.24574049942E+01 -0.44892113015E+00 -0.11538555424E+01  0.32755886645E+01  0.17770000000E+01 0. -1.
</event>
<event>
 6    1  0.4028964E-003  0.5005622E+03  0.7546771E-02  0.9398553E-01
        -11   -1    0    0    0    0  0.00000000000E+00  0.00000000000E+00  0.50000000000E+03  0.50000000000E+03  0.00000000000E+00 0. -1.
         11   -1    0    0    0    0 -0.00000000000E+00 -0.00000000000E+00 -0.50000000000E+03  0.50000000000E+03  0.00000000000E+00 0. -1.
        -11    1    1    2    0    0  0.59886395251E+01  0.70275227347E+01  0.49935240436E+03  0.49943775751E+03  0.00000000000E+00 0. -1.
         11    1    1    2    0    0  0.44353860922E+01 -0.19724442672E+01 -0.32247676432E+03  0.32251329695E+03  0.00000000000E+00 0. -1.
        -15    1    1    2    0    0 -0.59710275340E+01 -0.51731091624E+00 -0.15662068171E+03  0.15674538733E+03  0.17770000000E+01 0. -1.
         15    1    1    2    0    0 -0.44529980833E+01 -0.45377675513E+01 -0.20254958338E+02  0.21303558213E+02  0.17770000000E+01 0.  1.
</event>
<event>
 6    1  0.4028964E-003  0.5001097E+03  0.7546771E-02  0.9399564E-01
        -11   -1    0    0    0    0  0.00000000000E+00  0.00000000000E+00  0.50000000000E+03  0.50000000000E+03  0.00000000000E+00 0.  1.
         11   -1    0    0    0    0 -0.00000000000E+00 -0.00000000000E+00 -0.50000000000E+03  0.50000000000E+03  0.00000000000E+00 0. -1.
        -11    1    1    2    0    0  0.41664506376E+01  0.10010633958E+02  0.49977266080E+03  0.49989027255E+03  0.00000000000E+00 0.  1.
         11    1    1    2    0    0 -0.49566624697E+01 -0.28069303778E+01 -0.14688171679E+03  0.14699212934E+03  0.00000000000E+00 0. -1.
        -15    1    1    2    0    0  0.47963960968E+01 -0.21120412717E+01 -0.20419219440E+03  0.20426716847E+03  0.17770000000E+01 0. -1.
         15    1    1    2    0    0 -0.40061842648E+01 -0.50916623083E+01 -0.14869874962E+03  0.14885042964E+03  0.17770000000E+01 0. -1.
</event>
<event>
 6    1  0.4028964E-003  0.5001897E+03  0.7546771E-02  0.9399385E-01
        -11   -1    0    0    0    0  0.00000000000E+00  0.00000000000E+00  0.50000000000E+03  0.50000000000E+03  0.00000000000E+00 0.  1.
         11   -1    0    0    0    0 -0.00000000000E+00 -0.00000000000E+00 -0.50000000000E+03  0.50000000000E+03  0.00000000000E+00 0. -1.
        -11    1    1    2    0    0  0.68173344067E+01  0.57521691709E+01  0.49973066055E+03  0.49981026059E+03  0.00000000000E+00 0.  1.
         11    1    1    2    0    0 -0.86264092606E+01  0.62711909847E+00 -0.26940041827E+03  0.26953922456E+03  0.00000000000E+00 0. -1.
        -15    1    1    2    0    0  0.27468958611E+01 -0.82779079303E+01 -0.14315358767E+03  0.14343004074E+03  0.17770000000E+01 0. -1.
         15    1    1    2    0    0 -0.93782100719E+00  0.18986196610E+01 -0.87176654613E+02  0.87220474106E+02  0.17770000000E+01 0.  1.
</event>
<event>
 6    1  0.4028964E-003  0.5013424E+03  0.7546771E-02  0.9396811E-01
        -11   -1    0    0    0    0  0.00000000000E+00  0.00000000000E+00  0.50000000000E+03  0.50000000000E+03  0.00000000000E+00 0.  1.
         11   -1    0    0    0    0 -0.00000000000E+00 -0.00000000000E+00 -0.50000000000E+03  0.50000000000E+03  0.00000000000E+00 0.  1.
        -11    1    1    2    0    0 -0.93807332277E+01  0.56064100180E+01  0.37763290408E+03  0.37779100073E+03  0.00000000000E+00 0.  1.
         11    1    1    2    0    0  0.14710281741E+02 -0.13118113307E+02 -0.49826796584E+03  0.49865764114E+03  0.00000000000E+00 0.  1.
        -15    1    1    2    0    0 -0.11729754028E+02  0.52716872625E+01  0.11031172708E+03  0.11107300607E+03  0.17770000000E+01 0.  1.
         15    1    1    2    0    0  0.64002055154E+01  0.22400160270E+01  0.10323334680E+02  0.12478352069E+02  0.17770000000E+01 0.  1.
</event>
<event>
 6    1  0.4028964E-003  0.5068311E+03  0.7546771E-02  0.9384653E-01
        -11   -1    0    0    0    0  0.00000000000E+00  0.00000000000E+00  0.50000000000E+03  0.50000000000E+03  0.00000000000E+00 0. -1.
         11   -1    0    0    0    0 -0.00000000000E+00 -0.00000000000E+00 -0.50000000000E+03  0.50000000000E+03  0.00000000000E+00 0. -1.
        -11    1    1    2    0    0  0.70642133771E+01  0.11948324783E+01  0.45644420812E+03  0.45650043359E+03  0.00000000000E+00 0. -1.
         11    1    1    2    0    0 -0.27965045606E+01 -0.14068134341E+02 -0.49296022855E+03  0.49316885524E+03  0.00000000000E+00 0. -1.
        -15    1    1    2    0    0  0.37818017589E+01  0.20655298493E+02  0.14539793669E+02  0.25602865256E+02  0.17770000000E+01 0. -1.
         15    1    1    2    0    0 -0.80495105753E+01 -0.77819966302E+01  0.21976226761E+02  0.24727845917E+02  0.17770000000E+01 0.  1.
</event>
<event>
 6    1  0.4028964E-003  0.5002289E+03  0.7546771E-02  0.9399298E-01
        -11   -1    0    0    0    0  0.00000000000E+00  0.00000000000E+00  0.50000000000E+03  0.50000000000E+03  0.00000000000E+00 0. -1.
         11   -1    0    0    0    0 -0.00000000000E+00 -0.00000000000E+00 -0.50000000000E+03  0.50000000000E+03  0.00000000000E+00 0. -1.
        -11    1    1    2    0    0 -0.42197787736E+01  0.34896208813E+01  0.36444877496E+03  0.36448990872E+03  0.00000000000E+00 0. -1.
         11    1    1    2    0    0  0.35031378491E+01  0.58068493629E+01 -0.49972512622E+03  0.49977114088E+03  0.00000000000E+00 0. -1.
        -15    1    1    2    0    0  0.26171506061E+01 -0.69265616625E+01  0.85558245113E+02  0.85896436303E+02  0.17770000000E+01 0.  1.
         15    1    1    2    0    0 -0.19005096815E+01 -0.23699085817E+01  0.49718106152E+02  0.49842514102E+02  0.17770000000E+01 0. -1.
</event>
<event>
 6    1  0.4028964E-003  0.5119158E+03  0.7546771E-02  0.9373535E-01
        -11   -1    0    0    0    0  0.00000000000E+00  0.00000000000E+00  0.50000000000E+03  0.50000000000E+03  0.00000000000E+00 0. -1.
         11   -1    0    0    0    0 -0.00000000000E+00 -0.00000000000E+00 -0.50000000000E+03  0.50000000000E+03  0.00000000000E+00 0. -1.
        -11    1    1    2    0    0 -0.51261256276E+01 -0.15217121047E+02  0.31166330688E+03  0.31207668095E+03  0.00000000000E+00 0. -1.
         11    1    1    2    0    0 -0.71122176645E+01 -0.61344583122E+01 -0.48799384171E+03  0.48808421893E+03  0.00000000000E+00 0. -1.
        -15    1    1    2    0    0 -0.29947948272E+02  0.15841468832E+02  0.13941466549E+03  0.14348323395E+03  0.17770000000E+01 0. -1.
         15    1    1    2    0    0  0.42186291564E+02  0.55101105263E+01  0.36915869339E+02  0.56355866172E+02  0.17770000000E+01 0.  1.
</event>
<event>
 6    1  0.4028964E-003  0.5007333E+03  0.7546771E-02  0.9398170E-01
        -11   -1    0    0    0    0  0.00000000000E+00  0.00000000000E+00  0.50000000000E+03  0.50000000000E+03  0.00000000000E+00 0.  1.
         11   -1    0    0    0    0 -0.00000000000E+00 -0.00000000000E+00 -0.50000000000E+03  0.50000000000E+03  0.00000000000E+00 0.  1.
        -11    1    1    2    0    0  0.28992021819E+01  0.35583357166E+00  0.80832905107E+02  0.80885663371E+02  0.00000000000E+00 0.  1.
         11    1    1    2    0    0 -0.57512993936E+01 -0.47175196125E+01 -0.49921126213E+03  0.49926667891E+03  0.00000000000E+00 0.  1.
        -15    1    1    2    0    0  0.33435200978E+01  0.81409019346E+01  0.41261866561E+03  0.41271633642E+03  0.17770000000E+01 0.  1.
         15    1    1    2    0    0 -0.49142288613E+00 -0.37792158937E+01  0.57596914123E+01  0.71313212934E+01  0.17770000000E+01 0. -1.
</event>
<event>
 6    1  0.4028964E-003  0.5003222E+03  0.7546771E-02  0.9399089E-01
        -11   -1    0    0    0    0  0.00000000000E+00  0.00000000000E+00  0.50000000000E+03  0.50000000000E+03  0.00000000000E+00 0.  1.
         11   -1    0    0    0    0 -0.00000000000E+00 -0.00000000000E+00 -0.50000000000E+03  0.50000000000E+03  0.00000000000E+00 0. -1.
        -11    1    1    2    0    0  0.10509686059E+01  0.23299205381E+01  0.34073366028E+02  0.34169099157E+02  0.00000000000E+00 0.  1.
         11    1    1    2    0    0 -0.12888844365E+02  0.39183516264E+01 -0.49949613493E+03  0.49967776076E+03  0.00000000000E+00 0. -1.
        -15    1    1    2    0    0  0.73054375799E+01  0.79383224020E-01  0.41766289479E+03  0.41773056763E+03  0.17770000000E+01 0.  1.
         15    1    1    2    0    0  0.45324381791E+01 -0.63276553885E+01  0.47759874110E+02  0.48422572449E+02  0.17770000000E+01 0. -1.
</event>
<event>
 6    1  0.4028964E-003  0.5024665E+03  0.7546771E-02  0.9394308E-01
        -11   -1    0    0    0    0  0.00000000000E+00  0.00000000000E+00  0.50000000000E+03  0.50000000000E+03  0.00000000000E+00 0.  1.
         11   -1    0    0    0    0 -0.00000000000E+00 -0.00000000000E+00 -0.50000000000E+03  0.50000000000E+03  0.00000000000E+00 0. -1.
        -11    1    1    2    0    0 -0.81399577251E+01 -0.16304866243E+01  0.49746427082E+03  0.49753353469E+03  0.00000000000E+00 0.  1.
         11    1    1    2    0    0  0.78564485103E+01  0.25916581190E+01 -0.42809134552E+03  0.42817127482E+03  0.00000000000E+00 0. -1.
        -15    1    1    2    0    0  0.75945087019E+01 -0.28125215535E+00 -0.45512389908E+01  0.90347756225E+01  0.17770000000E+01 0.  1.
         15    1    1    2    0    0 -0.73109994871E+01 -0.67991933937E+00 -0.64821686307E+02  0.65260414866E+02  0.17770000000E+01 0. -1.
</event>
<event>
 6    1  0.4028964E-003  0.4847720E+03  0.7546771E-02  0.9434543E-01
        -11   -1    0    0    0    0  0.00000000000E+00  0.00000000000E+00  0.50000000000E+03  0.50000000000E+03  0.00000000000E+00 0.  1.
         11   -1    0    0    0    0 -0.00000000000E+00 -0.00000000000E+00 -0.50000000000E+03  0.50000000000E+03  0.00000000000E+00 0.  1.
        -11    1    1    2    0    0  0.25940330412E+01 -0.31328753336E+01  0.37173668947E+02  0.37395528854E+02  0.00000000000E+00 0.  1.
         11    1    1    2    0    0  0.15315757561E+02 -0.38221730348E+00 -0.49560560964E+03  0.49584235280E+03  0.00000000000E+00 0.  1.
        -15    1    1    2    0    0  0.76159818567E+01  0.29271386483E+02  0.36899958724E+03  0.37024136770E+03  0.17770000000E+01 0.  1.
         15    1    1    2    0    0 -0.25525772459E+02 -0.25756293846E+02  0.89432353457E+02  0.96520750651E+02  0.17770000000E+01 0. -1.
</event>
<event>
 6    1  0.4028964E-003  0.5048750E+03  0.7546771E-02  0.9388967E-01
        -11   -1    0    0    0    0  0.00000000000E+00  0.00000000000E+00  0.50000000000E+03  0.50000000000E+03  0.00000000000E+00 0. -1.
         11   -1    0    0    0    0 -0.00000000000E+00 -0.00000000000E+00 -0.50000000000E+03  0.50000000000E+03  0.00000000000E+00 0.  1.
        -11    1    1    2    0    0  0.68484786147E+01  0.88014338665E+01  0.44938514089E+03  0.44952349411E+03  0.00000000000E+00 0. -1.
         11    1    1    2    0    0  0.80442127801E+01  0.44763935953E+00 -0.49505941311E+03  0.49512496630E+03  0.00000000000E+00 0.  1.
        -15    1    1    2    0    0 -0.36744198592E+01 -0.79332595637E+00 -0.26931736883E+01  0.49539520476E+01  0.17770000000E+01 0.  1.
         15    1    1    2    0    0 -0.11218271536E+02 -0.84557472697E+01  0.48367445906E+02  0.50397587547E+02  0.17770000000E+01 0. -1.
</event>
<event>
 6    1  0.4028964E-003  0.5073393E+03  0.7546771E-02  0.9383536E-01
        -11   -1    0    0    0    0  0.00000000000E+00  0.00000000000E+00  0.50000000000E+03  0.50000000000E+03  0.00000000000E+00 0.  1.
         11   -1    0    0    0    0 -0.00000000000E+00 -0.00000000000E+00 -0.50000000000E+03  0.50000000000E+03  0.00000000000E+00 0.  1.
        -11    1    1    2    0    0 -0.74567682430E+00 -0.71692457246E+01  0.42119315624E+03  0.42125482666E+03  0.00000000000E+00 0.  1.
         11    1    1    2    0    0  0.59753734537E+01  0.11266846019E+02 -0.49249558308E+03  0.49266068066E+03  0.00000000000E+00 0.  1.
        -15    1    1    2    0    0 -0.87288753516E+01 -0.79649697270E+01 -0.23901312013E+01  0.12186240758E+02  0.17770000000E+01 0.  1.
         15    1    1    2    0    0  0.34991787222E+01  0.38673694328E+01  0.73692558041E+02  0.73898251926E+02  0.17770000000E+01 0. -1.
</event>
<event>
 6    1  0.4028964E-003  0.4676196E+03  0.7546771E-02  0.9475329E-01
        -11   -1    0    0    0    0  0.00000000000E+00  0.00000000000E+00  0.50000000000E+03  0.50000000000E+03  0.00000000000E+00 0.  1.
         11   -1    0    0    0    0 -0.00000000000E+00 -0.00000000000E+00 -0.50000000000E+03  0.50000000000E+03  0.00000000000E+00 0.  1.
        -11    1    1    2    0    0  0.11328331052E+02 -0.27489660614E+01  0.49481876388E+03  0.49495605561E+03  0.00000000000E+00 0.  1.
         11    1    1    2    0    0 -0.26115487411E+01 -0.21080102135E+01 -0.71227018649E+02  0.71306045183E+02  0.00000000000E+00 0.  1.
        -15    1    1    2    0    0 -0.12565334644E+02  0.46541889996E+02 -0.17017040366E+03  0.17687611249E+03  0.17770000000E+01 0. -1.
         15    1    1    2    0    0  0.38485523332E+01 -0.41684913721E+02 -0.25342134156E+03  0.25686178672E+03  0.17770000000E+01 0.  1.
</event>
<event>
 6    1  0.4028964E-003  0.5024330E+03  0.7546771E-02  0.9394382E-01
        -11   -1    0    0    0    0  0.00000000000E+00  0.00000000000E+00  0.50000000000E+03  0.50000000000E+03  0.00000000000E+00 0. -1.
         11   -1    0    0    0    0 -0.00000000000E+00 -0.00000000000E+00 -0.50000000000E+03  0.50000000000E+03  0.00000000000E+00 0.  1.
        -11    1    1    2    0    0  0.18276018949E+02  0.15431224187E+02  0.25093577623E+03  0.25207320235E+03  0.00000000000E+00 0. -1.
         11    1    1    2    0    0  0.24822303466E+01 -0.69175583387E+01 -0.49751276107E+03  0.49756704223E+03  0.00000000000E+00 0.  1.
        -15    1    1    2    0    0 -0.13166322651E+02 -0.23196582601E+02  0.15191161884E+03  0.15424568443E+03  0.17770000000E+01 0.  1.
         15    1    1    2    0    0 -0.75919266448E+01  0.14682916752E+02  0.94665366003E+02  0.96114070999E+02  0.17770000000E+01 0. -1.
</event>
<event>
 6    1  0.4028964E-003  0.5193005E+03  0.7546771E-02  0.9357630E-01
        -11   -1    0    0    0    0  0.00000000000E+00  0.00000000000E+00  0.50000000000E+03  0.50000000000E+03  0.00000000000E+00 0.  1.
         11   -1    0    0    0    0 -0.00000000000E+00 -0.00000000000E+00 -0.50000000000E+03  0.50000000000E+03  0.00000000000E+00 0. -1.
        -11    1    1    2    0    0  0.22724158684E+02 -0.36963515247E+02  0.47873720677E+03  0.48069949240E+03  0.00000000000E+00 0.  1.
         11    1    1    2    0    0 -0.16716019678E+02 -0.78821278486E+00 -0.41163577506E+03  0.41197579772E+03  0.00000000000E+00 0. -1.
        -15    1    1    2    0    0 -0.20538120045E+02  0.89267036530E+01 -0.71271374865E+02  0.74727953385E+02  0.17770000000E+01 0.  1.
         15    1    1    2    0    0  0.14529981039E+02  0.28825024379E+02  0.41699431629E+01  0.32596756501E+02  0.17770000000E+01 0. -1.
</event>
<event>
 6    1  0.4028964E-003  0.5147991E+03  0.7546771E-02  0.9367291E-01
        -11   -1    0    0    0    0  0.00000000000E+00  0.00000000000E+00  0.50000000000E+03  0.50000000000E+03  0.00000000000E+00 0. -1.
         11   -1    0    0    0    0 -0.00000000000E+00 -0.00000000000E+00 -0.50000000000E+03  0.50000000000E+03  0.00000000000E+00 0. -1.
        -11    1    1    2    0    0 -0.54821777599E+01  0.15489126867E+02  0.43788236540E+03  0.43819052164E+03  0.00000000000E+00 0. -1.
         11    1    1    2    0    0 -0.13820363042E+02  0.13003450098E+01 -0.48500224636E+03  0.48520085770E+03  0.00000000000E+00 0. -1.
        -15    1    1    2    0    0  0.33719884465E+02 -0.83674732057E+01  0.10524907854E+02  0.36345242200E+02  0.17770000000E+01 0.  1.
         15    1    1    2    0    0 -0.14417343664E+02 -0.84219986710E+01  0.36594973109E+02  0.40263378470E+02  0.17770000000E+01 0. -1.
</event>
<event>
 6    1  0.4028964E-003  0.5101367E+03  0.7546771E-02  0.9377409E-01
        -11   -1    0    0    0    0  0.00000000000E+00  0.00000000000E+00  0.50000000000E+03  0.50000000000E+03  0.00000000000E+00 0. -1.
         11   -1    0    0    0    0 -0.00000000000E+00 -0.00000000000E+00 -0.50000000000E+03  0.50000000000E+03  0.00000000000E+00 0. -1.
        -11    1    1    2    0    0 -0.13110479730E+02  0.14471254567E+01  0.48968568578E+03  0.48986329696E+03  0.00000000000E+00 0. -1.
         11    1    1    2    0    0 -0.68234259053E+00  0.70989867161E+01 -0.16828995716E+03  0.16844100120E+03  0.00000000000E+00 0. -1.
        -15    1    1    2    0    0 -0.24987848639E+01 -0.15684163356E+02  0.34576949237E+01  0.16350849799E+02  0.17770000000E+01 0. -1.
         15    1    1    2    0    0  0.16291607184E+02  0.71380511828E+01 -0.32485342354E+03  0.32534485205E+03  0.17770000000E+01 0.  1.
</event>
<event>
 6    1  0.4028964E-003  0.5016774E+03  0.7546771E-02  0.9396064E-01
        -11   -1    0    0    0    0  0.00000000000E+00  0.00000000000E+00  0.50000000000E+03  0.50000000000E+03  0.00000000000E+00 0.  1.
         11   -1    0    0    0    0 -0.00000000000E+00 -0.00000000000E+00 -0.50000000000E+03  0.50000000000E+03  0.00000000000E+00 0. -1.
        -11    1    1    2    0    0 -0.90710029110E+01 -0.26140581201E+01  0.44742689021E+03  0.44752646679E+03  0.00000000000E+00 0.  1.
         11    1    1    2    0    0  0.10550432299E+02  0.10898818797E-01 -0.49821086594E+03  0.49832256490E+03  0.00000000000E+00 0. -1.
        -15    1    1    2    0    0  0.39090687446E+01 -0.52635461262E+00  0.45727682839E+02  0.45931868832E+02  0.17770000000E+01 0.  1.
         15    1    1    2    0    0 -0.53884981323E+01  0.31295139139E+01  0.50562928896E+01  0.82190994789E+01  0.17770000000E+01 0. -1.
</event>
<event>
 6    1  0.4028964E-003  0.5052454E+03  0.7546771E-02  0.9388149E-01
        -11   -1    0    0    0    0  0.00000000000E+00  0.00000000000E+00  0.50000000000E+03  0.50000000000E+03  0.00000000000E+00 0.  1.
         11   -1    0    0    0    0 -0.00000000000E+00 -0.00000000000E+00 -0.50000000000E+03  0.50000000000E+03  0.00000000000E+00 0. -1.
        -11    1    1    2    0    0 -0.78520773346E+01 -0.89809916736E+01  0.49461071460E+03  0.49475455766E+03  0.00000000000E+00 0.  1.
         11    1    1    2    0    0 -0.43822483488E+01 -0.12018775007E+02 -0.36244793962E+03  0.36267363288E+03  0.00000000000E+00 0. -1.
        -15    1    1    2    0    0 -0.73276995508E+01  0.86146635418E+01 -0.10959342267E+03  0.11018976191E+03  0.17770000000E+01 0. -1.
         15    1    1    2    0    0  0.19562025234E+02  0.12385103139E+02 -0.22569352314E+02  0.32382047555E+02  0.17770000000E+01 0.  1.
</event>
<event>
 6    1  0.4028964E-003  0.5007234E+03  0.7546771E-02  0.9398193E-01
        -11   -1    0    0    0    0  0.00000000000E+00  0.00000000000E+00  0.50000000000E+03  0.50000000000E+03  0.00000000000E+00 0. -1.
         11   -1    0    0    0    0 -0.00000000000E+00 -0.00000000000E+00 -0.50000000000E+03  0.50000000000E+03  0.00000000000E+00 0. -1.
        -11    1    1    2    0    0 -0.45100024938E+01  0.94177448329E+01  0.49916744244E+03  0.49927664639E+03  0.00000000000E+00 0. -1.
         11    1    1    2    0    0  0.41010050065E+01  0.13347428406E+01 -0.30824177562E+03  0.30827194491E+03  0.00000000000E+00 0. -1.
        -15    1    1    2    0    0  0.64967760716E+01 -0.33671259542E+01 -0.15635774391E+03  0.15653896463E+03  0.17770000000E+01 0. -1.
         15    1    1    2    0    0 -0.60877785843E+01 -0.73853617193E+01 -0.34567922910E+02  0.35912444070E+02  0.17770000000E+01 0.  1.
</event>
<event>
 6    1  0.4028964E-003  0.5031962E+03  0.7546771E-02  0.9392686E-01
        -11   -1    0    0    0    0  0.00000000000E+00  0.00000000000E+00  0.50000000000E+03  0.50000000000E+03  0.00000000000E+00 0.  1.
         11   -1    0    0    0    0 -0.00000000000E+00 -0.00000000000E+00 -0.50000000000E+03  0.50000000000E+03  0.00000000000E+00 0.  1.
        -11    1    1    2    0    0  0.78075868540E+01 -0.13835369330E+01  0.42351614006E+03  0.42359036046E+03  0.00000000000E+00 0.  1.
         11    1    1    2    0    0  0.31853623645E+01 -0.72445231790E+01 -0.49674074689E+03  0.49680378347E+03  0.00000000000E+00 0.  1.
        -15    1    1    2    0    0 -0.77476731491E+00 -0.27074787929E+01  0.57587392176E+02  0.57683586682E+02  0.17770000000E+01 0. -1.
         15    1    1    2    0    0 -0.10218181904E+02  0.11335538905E+02  0.15637214655E+02  0.21922269382E+02  0.17770000000E+01 0.  1.
</event>
<event>
 6    1  0.4028964E-003  0.5030319E+03  0.7546771E-02  0.9393051E-01
        -11   -1    0    0    0    0  0.00000000000E+00  0.00000000000E+00  0.50000000000E+03  0.50000000000E+03  0.00000000000E+00 0.  1.
         11   -1    0    0    0    0 -0.00000000000E+00 -0.00000000000E+00 -0.50000000000E+03  0.50000000000E+03  0.00000000000E+00 0.  1.
        -11    1    1    2    0    0  0.29470600001E+01 -0.60780135792E+01  0.49692223740E+03  0.49696814529E+03  0.00000000000E+00 0.  1.
         11    1    1    2    0    0 -0.21281069525E+01  0.13133067566E+02 -0.41880614296E+03  0.41901741215E+03  0.00000000000E+00 0.  1.
        -15    1    1    2    0    0 -0.80974255818E+01  0.54581890913E+00 -0.70291346465E+02  0.70780628255E+02  0.17770000000E+01 0. -1.
         15    1    1    2    0    0  0.72784725342E+01 -0.76008728956E+01 -0.78247479716E+01  0.13233814304E+02  0.17770000000E+01 0.  1.
</event>
<event>
 6    1  0.4028964E-003  0.4844636E+03  0.7546771E-02  0.9435261E-01
        -11   -1    0    0    0    0  0.00000000000E+00  0.00000000000E+00  0.50000000000E+03  0.50000000000E+03  0.00000000000E+00 0. -1.
         11   -1    0    0    0    0 -0.00000000000E+00 -0.00000000000E+00 -0.50000000000E+03  0.50000000000E+03  0.00000000000E+00 0. -1.
        -11    1    1    2    0    0 -0.48714303842E+01  0.71667274242E+01  0.48569643801E+03  0.48577373613E+03  0.00000000000E+00 0. -1.
         11    1    1    2    0    0  0.21535374988E+01 -0.12668103589E+02 -0.48300581777E+03  0.48317671567E+03  0.00000000000E+00 0. -1.
        -15    1    1    2    0    0 -0.37117279899E+01  0.24600195370E+01 -0.15536189723E+02  0.16259137151E+02  0.17770000000E+01 0. -1.
         15    1    1    2    0    0  0.64296208753E+01  0.30413566277E+01  0.12845569474E+02  0.14790411044E+02  0.17770000000E+01 0.  1.
</event>
<event>
 6    1  0.4028964E-003  0.5004724E+03  0.7546771E-02  0.9398753E-01
        -11   -1    0    0    0    0  0.00000000000E+00  0.00000000000E+00  0.50000000000E+03  0.50000000000E+03  0.00000000000E+00 0. -1.
         11   -1    0    0    0    0 -0.00000000000E+00 -0.00000000000E+00 -0.50000000000E+03  0.50000000000E+03  0.00000000000E+00 0. -1.
        -11    1    1    2    0    0  0.15128480820E+01  0.53314601862E+01  0.38293564500E+03  0.38297574517E+03  0.00000000000E+00 0. -1.
         11    1    1    2    0    0 -0.26172375431E+01  0.70525670163E+01 -0.49947092815E+03  0.49952757352E+03  0.00000000000E+00 0. -1.
        -15    1    1    2    0    0  0.23675313667E+00  0.49406246060E+00  0.10432253010E+02  0.10596687295E+02  0.17770000000E+01 0. -1.
         15    1    1    2    0    0  0.86763632441E+00 -0.12878089663E+02  0.10610303014E+03  0.10689999402E+03  0.17770000000E+01 0. -1.
</event>
<event>
 6    1  0.4028964E-003  0.5032150E+03  0.7546771E-02  0.9392644E-01
        -11   -1    0    0    0    0  0.00000000000E+00  0.00000000000E+00  0.50000000000E+03  0.50000000000E+03  0.00000000000E+00 0. -1.
         11   -1    0    0    0    0 -0.00000000000E+00 -0.00000000000E+00 -0.50000000000E+03  0.50000000000E+03  0.00000000000E+00 0. -1.
        -11    1    1    2    0    0 -0.91352131063E+01  0.69048549767E+01  0.49665295852E+03  0.49678495383E+03  0.00000000000E+00 0. -1.
         11    1    1    2    0    0  0.46271069802E+01 -0.10510395836E+02 -0.45902469766E+03  0.45916832600E+03  0.00000000000E+00 0. -1.
        -15    1    1    2    0    0  0.30493010314E+01  0.11212713851E+02 -0.32570261067E+02  0.34626620159E+02  0.17770000000E+01 0.  1.
         15    1    1    2    0    0  0.14588050946E+01 -0.76071729924E+01 -0.50579997965E+01  0.94201000092E+01  0.17770000000E+01 0. -1.
</event>
<event>
 6    1  0.4028964E-003  0.5123194E+03  0.7546771E-02  0.9372658E-01
        -11   -1    0    0    0    0  0.00000000000E+00  0.00000000000E+00  0.50000000000E+03  0.50000000000E+03  0.00000000000E+00 0.  1.
         11   -1    0    0    0    0 -0.00000000000E+00 -0.00000000000E+00 -0.50000000000E+03  0.50000000000E+03  0.00000000000E+00 0.  1.
        -11    1    1    2    0    0 -0.52772160204E+01 -0.88309988415E+01  0.48757212660E+03  0.48768064774E+03  0.00000000000E+00 0.  1.
         11    1    1    2    0    0  0.20610161935E+02 -0.22889281802E+02 -0.40610249540E+03  0.40726887281E+03  0.00000000000E+00 0.  1.
        -15    1    1    2    0    0  0.28844953121E+01  0.95597802661E+01  0.68054601589E+01  0.12213997254E+02  0.17770000000E+01 0. -1.
         15    1    1    2    0    0 -0.18217441227E+02  0.22160500378E+02 -0.88275091358E+02  0.92836482189E+02  0.17770000000E+01 0.  1.
</event>
<event>
 6    1  0.4028964E-003  0.5220003E+03  0.7546771E-02  0.9351885E-01
        -11   -1    0    0    0    0  0.00000000000E+00  0.00000000000E+00  0.50000000000E+03  0.50000000000E+03  0.00000000000E+00 0. -1.
         11   -1    0    0    0    0 -0.00000000000E+00 -0.00000000000E+00 -0.50000000000E+03  0.50000000000E+03  0.00000000000E+00 0.  1.
        -11    1    1    2    0    0 -0.15326704175E+02 -0.12531288352E+02  0.26099445777E+03  0.26174424164E+03  0.00000000000E+00 0. -1.
         11    1    1    2    0    0  0.77855834393E+01  0.76389872555E+01 -0.47787519089E+03  0.47799965220E+03  0.00000000000E+00 0.  1.
        -15    1    1    2    0    0 -0.11745227353E+02 -0.14334234057E+02 -0.16746429731E+02  0.25040392755E+02  0.17770000000E+01 0.  1.
         15    1    1    2    0    0  0.19286348089E+02  0.19226535153E+02  0.23362716286E+03  0.23521571340E+03  0.17770000000E+01 0. -1.
</event>
<event>
 6    1  0.4028964E-003  0.5023992E+03  0.7546771E-02  0.9394457E-01
        -11   -1    0    0    0    0  0.00000000000E+00  0.00000000000E+00  0.50000000000E+03  0.50000000000E+03  0.00000000000E+00 0.  1.
         11   -1    0    0    0    0 -0.00000000000E+00 -0.00000000000E+00 -0.50000000000E+03  0.50000000000E+03  0.00000000000E+00 0.  1.
        -11    1    1    2    0    0  0.12837139749E+01 -0.35431920737E+01  0.26620068840E+03  0.26622736267E+03  0.00000000000E+00 0.  1.
         11    1    1    2    0    0  0.15905294963E+02  0.13100496980E+02 -0.49717395274E+03  0.49760078448E+03  0.00000000000E+00 0.  1.
        -15    1    1    2    0    0  0.17962472616E+01 -0.10766043631E+02  0.19606656040E+03  0.19637817607E+03  0.17770000000E+01 0.  1.
         15    1    1    2    0    0 -0.18985256199E+02  0.12087387243E+01  0.34906703947E+02  0.39793676780E+02  0.17770000000E+01 0. -1.
</event>
<event>
 6    1  0.4028964E-003  0.5327153E+03  0.7546771E-02  0.9329442E-01
        -11   -1    0    0    0    0  0.00000000000E+00  0.00000000000E+00  0.50000000000E+03  0.50000000000E+03  0.00000000000E+00 0.  1.
         11   -1    0    0    0    0 -0.00000000000E+00 -0.00000000000E+00 -0.50000000000E+03  0.50000000000E+03  0.00000000000E+00 0. -1.
        -11    1    1    2    0    0 -0.12659263676E+01 -0.80321327720E+01  0.44842678590E+03  0.44850050171E+03  0.00000000000E+00 0.  1.
         11    1    1    2    0    0 -0.11882773518E+02  0.12215268560E+02 -0.46697381719E+03  0.46728466595E+03  0.00000000000E+00 0. -1.
        -15    1    1    2    0    0  0.75463011319E+01  0.96227792804E+01  0.48856236109E+02  0.50394782246E+02  0.17770000000E+01 0.  1.
         15    1    1    2    0    0  0.56023987538E+01 -0.13805915069E+02 -0.30309204814E+02  0.33820050091E+02  0.17770000000E+01 0. -1.
</event>
<event>
 6    1  0.4028964E-003  0.5021735E+03  0.7546771E-02  0.9394959E-01
        -11   -1    0    0    0    0  0.00000000000E+00  0.00000000000E+00  0.50000000000E+03  0.50000000000E+03  0.00000000000E+00 0.  1.
         11   -1    0    0    0    0 -0.00000000000E+00 -0.00000000000E+00 -0.50000000000E+03  0.50000000000E+03  0.00000000000E+00 0.  1.
        -11    1    1    2    0    0  0.85999674404E+01 -0.10627667592E+02  0.49763875480E+03  0.49782651299E+03  0.00000000000E+00 0.  1.
         11    1    1    2    0    0  0.19670981128E+01 -0.87837294310E+01 -0.36098353308E+03  0.36109574151E+03  0.00000000000E+00 0.  1.
        -15    1    1    2    0    0 -0.70366694303E+01  0.67855891976E+01 -0.11384637581E+02  0.15110481107E+02  0.17770000000E+01 0. -1.
         15    1    1    2    0    0 -0.35303961229E+01  0.12625807825E+02 -0.12527058414E+03  0.12596726439E+03  0.17770000000E+01 0.  1.
</event>
<event>
 6    1  0.4028964E-003  0.5036071E+03  0.7546771E-02  0.9391775E-01
        -11   -1    0    0    0    0  0.00000000000E+00  0.00000000000E+00  0.50000000000E+03  0.50000000000E+03  0.00000000000E+00 0. -1.
         11   -1    0    0    0    0 -0.00000000000E+00 -0.00000000000E+00 -0.50000000000E+03  0.50000000000E+03  0.00000000000E+00 0. -1.
        -11    1    1    2    0    0 -0.31065608294E+01  0.55880790901E+01  0.45229863504E+03  0.45234382123E+03  0.00000000000E+00 0. -1.
         11    1    1    2    0    0  0.41331877762E+00  0.72413452505E+01 -0.49633992357E+03  0.49639291659E+03  0.00000000000E+00 0. -1.
        -15    1    1    2    0    0  0.10887892245E+02 -0.11098107782E+02  0.37016717411E+02  0.40188422347E+02  0.17770000000E+01 0. -1.
         15    1    1    2    0    0 -0.81946501935E+01 -0.17313165589E+01  0.70245711220E+01  0.11074839830E+02  0.17770000000E+01 0.  1.
</event>
<event>
 6    1  0.4028964E-003  0.4886206E+03  0.7546771E-02  0.9425638E-01
        -11   -1    0    0    0    0  0.00000000000E+00  0.00000000000E+00  0.50000000000E+03  0.50000000000E+03  0.00000000000E+00 0. -1.
         11   -1    0    0    0    0 -0.00000000000E+00 -0.00000000000E+00 -0.50000000000E+03  0.50000000000E+03  0.00000000000E+00 0.  1.
        -11    1    1    2    0    0  0.19720638557E+01  0.67492197209E+01  0.49161915064E+03  0.49166943192E+03  0.00000000000E+00 0. -1.
         11    1    1    2    0    0 -0.10550236115E+02 -0.72601449636E+00 -0.48553176806E+03  0.48564692151E+03  0.00000000000E+00 0.  1.
        -15    1    1    2    0    0  0.15433224556E+01 -0.65359086371E+00 -0.11767659792E+02  0.12018509525E+02  0.17770000000E+01 0.  1.
         15    1    1    2    0    0  0.70348498042E+01 -0.53696143609E+01  0.56802772055E+01  0.10665137049E+02  0.17770000000E+01 0. -1.
</event>
<event>
 6    1  0.4028964E-003  0.4751679E+03  0.7546771E-02  0.9457155E-01
        -11   -1    0    0    0    0  0.00000000000E+00  0.00000000000E+00  0.50000000000E+03  0.50000000000E+03  0.00000000000E+00 0.  1.
         11   -1    0    0    0    0 -0.00000000000E+00 -0.00000000000E+00 -0.50000000000E+03  0.50000000000E+03  0.00000000000E+00 0. -1.
        -11    1    1    2    0    0 -0.94884535233E+01  0.83418263550E+01  0.47485302700E+03  0.47502106697E+03  0.00000000000E+00 0.  1.
         11    1    1    2    0    0  0.25279916352E+02  0.57999182616E+01 -0.47484332171E+03  0.47555114699E+03  0.00000000000E+00 0. -1.
        -15    1    1    2    0    0  0.39789648198E+01 -0.99356437708E+01  0.18834766328E+02  0.21736037583E+02  0.17770000000E+01 0. -1.
         15    1    1    2    0    0 -0.19770427649E+02 -0.42061008458E+01 -0.18844471609E+02  0.27691748464E+02  0.17770000000E+01 0.  1.
</event>
<event>
 6    1  0.4028964E-003  0.5016317E+03  0.7546771E-02  0.9396166E-01
        -11   -1    0    0    0    0  0.00000000000E+00  0.00000000000E+00  0.50000000000E+03  0.50000000000E+03  0.00000000000E+00 0.  1.
         11   -1    0    0    0    0 -0.00000000000E+00 -0.00000000000E+00 -0.50000000000E+03  0.50000000000E+03  0.00000000000E+00 0.  1.
        -11    1    1    2    0    0 -0.61265094623E+01  0.69432217363E+01  0.49828225979E+03  0.49836829039E+03  0.00000000000E+00 0.  1.
         11    1    1    2    0    0  0.58126378452E+00  0.50805152708E+01 -0.35401387614E+03  0.35405080709E+03  0.00000000000E+00 0.  1.
        -15    1    1    2    0    0 -0.22392525798E+01 -0.11892476465E+02 -0.23001296217E+02  0.26051153627E+02  0.17770000000E+01 0. -1.
         15    1    1    2    0    0  0.77844982576E+01 -0.13126054169E+00 -0.12126708744E+03  0.12152974890E+03  0.17770000000E+01 0.  1.
</event>
<event>
 6    1  0.4028964E-003  0.4696659E+03  0.7546771E-02  0.9470366E-01
        -11   -1    0    0    0    0  0.00000000000E+00  0.00000000000E+00  0.50000000000E+03  0.50000000000E+03  0.00000000000E+00 0.  1.
         11   -1    0    0    0    0 -0.00000000000E+00 -0.00000000000E+00 -0.50000000000E+03  0.50000000000E+03  0.00000000000E+00 0.  1.
        -11    1    1    2    0    0 -0.88025317353E+01  0.21026125770E+02  0.46013321198E+03  0.46069746613E+03  0.00000000000E+00 0.  1.
         11    1    1    2    0    0  0.15633538026E+01  0.13421404431E+02 -0.47929849826E+03  0.47948892438E+03  0.00000000000E+00 0.  1.
        -15    1    1    2    0    0  0.98464072644E+01 -0.23872566797E+02 -0.10674024684E+02  0.27998994865E+02  0.17770000000E+01 0. -1.
         15    1    1    2    0    0 -0.26072293316E+01 -0.10574963404E+02  0.29839310960E+02  0.31814614619E+02  0.17770000000E+01 0.  1.
</event>
<event>
 6    1  0.4028964E-003  0.5393511E+03  0.7546771E-02  0.9315823E-01
        -11   -1    0    0    0    0  0.00000000000E+00  0.00000000000E+00  0.50000000000E+03  0.50000000000E+03  0.00000000000E+00 0.  1.
         11   -1    0    0    0    0 -0.00000000000E+00 -0.00000000000E+00 -0.50000000000E+03  0.50000000000E+03  0.00000000000E+00 0. -1.
        -11    1    1    2    0    0  0.61083046846E+01 -0.14963428639E+02  0.38593713663E+03  0.38627540566E+03  0.00000000000E+00 0.  1.
         11    1    1    2    0    0  0.72058295141E+01  0.88843532201E+01 -0.46050685677E+03  0.46064891278E+03  0.00000000000E+00 0. -1.
        -15    1    1    2    0    0 -0.22164704758E+02  0.12596936221E+02  0.11155804355E+03  0.11444785602E+03  0.17770000000E+01 0.  1.
         15    1    1    2    0    0  0.88505705587E+01 -0.65178608020E+01 -0.36988323409E+02  0.38627825544E+02  0.17770000000E+01 0. -1.
</event>
<event>
 6    1  0.4028964E-003  0.5038259E+03  0.7546771E-02  0.9391289E-01
        -11   -1    0    0    0    0  0.00000000000E+00  0.00000000000E+00  0.50000000000E+03  0.50000000000E+03  0.00000000000E+00 0.  1.
         11   -1    0    0    0    0 -0.00000000000E+00 -0.00000000000E+00 -0.50000000000E+03  0.50000000000E+03  0.00000000000E+00 0.  1.
        -11    1    1    2    0    0  0.12876746960E+02  0.15868717115E+02  0.17890432912E+03  0.18006772552E+03  0.00000000000E+00 0.  1.
         11    1    1    2    0    0  0.22220877787E+01  0.18988574197E+02 -0.49580566313E+03  0.49617412187E+03  0.00000000000E+00 0.  1.
        -15    1    1    2    0    0  0.12758222620E+02 -0.16037482559E+02  0.22404687346E+03  0.22498918269E+03  0.17770000000E+01 0. -1.
         15    1    1    2    0    0 -0.27857057358E+02 -0.18819808753E+02  0.92854460547E+02  0.98768969918E+02  0.17770000000E+01 0.  1.
</event>
<event>
 6    1  0.4028964E-003  0.4795179E+03  0.7546771E-02  0.9446843E-01
        -11   -1    0    0    0    0  0.00000000000E+00  0.00000000000E+00  0.50000000000E+03  0.50000000000E+03  0.00000000000E+00 0.  1.
         11   -1    0    0    0    0 -0.00000000000E+00 -0.00000000000E+00 -0.50000000000E+03  0.50000000000E+03  0.00000000000E+00 0.  1.
        -11    1    1    2    0    0  0.65212465433E+01  0.29193136063E+01  0.47520145255E+03  0.47525516258E+03  0.00000000000E+00 0.  1.
         11    1    1    2    0    0  0.13876620431E+02 -0.15686636459E+01 -0.48383591993E+03  0.48403741458E+03  0.00000000000E+00 0.  1.
        -15    1    1    2    0    0 -0.28201295110E+02  0.77566116976E+00 -0.63864780930E+00  0.28275082602E+02  0.17770000000E+01 0.  1.
         15    1    1    2    0    0  0.78034281358E+01 -0.21263111302E+01  0.92731151848E+01  0.12432340243E+02  0.17770000000E+01 0. -1.
</event>
<event>
 6    1  0.4028964E-003  0.5149898E+03  0.7546771E-02  0.9366880E-01
        -11   -1    0    0    0    0  0.00000000000E+00  0.00000000000E+00  0.50000000000E+03  0.50000000000E+03  0.00000000000E+00 0. -1.
         11   -1    0    0    0    0 -0.00000000000E+00 -0.00000000000E+00 -0.50000000000E+03  0.50000000000E+03  0.00000000000E+00 0.  1.
        -11    1    1    2    0    0 -0.11606968202E+02  0.19840536599E+02  0.48446518978E+03  0.48501019444E+03  0.00000000000E+00 0. -1.
         11    1    1    2    0    0  0.20760644135E+01  0.72407525198E+01 -0.41223090581E+03  0.41229971895E+03  0.00000000000E+00 0.  1.
        -15    1    1    2    0    0  0.11079189981E+01 -0.99912113408E+01 -0.81001050422E+02  0.81641776604E+02  0.17770000000E+01 0.  1.
         15    1    1    2    0    0  0.84229847900E+01 -0.17090077778E+02  0.87667664512E+01  0.21048310009E+02  0.17770000000E+01 0. -1.
</event>
<event>
 6    1  0.4028964E-003  0.4828566E+03  0.7546771E-02  0.9439008E-01
        -11   -1    0    0    0    0  0.00000000000E+00  0.00000000000E+00  0.50000000000E+03  0.50000000000E+03  0.00000000000E+00 0.  1.
         11   -1    0    0    0    0 -0.00000000000E+00 -0.00000000000E+00 -0.50000000000E+03  0.50000000000E+03  0.00000000000E+00 0. -1.
        -11    1    1    2    0    0 -0.11347997473E+02 -0.30844529704E+01  0.48330904573E+03  0.48345209130E+03  0.00000000000E+00 0.  1.
         11    1    1    2    0    0  0.87696845237E+01  0.12370886811E+02 -0.48207158091E+03  0.48231001993E+03  0.00000000000E+00 0. -1.
        -15    1    1    2    0    0  0.80223914370E+01 -0.72682358724E+01 -0.15354313524E+02  0.18870577359E+02  0.17770000000E+01 0.  1.
         15    1    1    2    0    0 -0.54440784873E+01 -0.20181979681E+01  0.14116848707E+02  0.15367311412E+02  0.17770000000E+01 0. -1.
</event>
<event>
 6    1  0.4028964E-003  0.5044132E+03  0.7546771E-02  0.9389989E-01
        -11   -1    0    0    0    0  0.00000000000E+00  0.00000000000E+00  0.50000000000E+03  0.50000000000E+03  0.00000000000E+00 0. -1.
         11   -1    0    0    0    0 -0.00000000000E+00 -0.00000000000E+00 -0.50000000000E+03  0.50000000000E+03  0.00000000000E+00 0.  1.
        -11    1    1    2    0    0  0.18644041096E+01  0.55352377963E+01  0.32678481126E+03  0.32683700483E+03  0.00000000000E+00 0. -1.
         11    1    1    2    0    0  0.16810284552E+02 -0.11733370313E+02 -0.49516260438E+03  0.49558678597E+03  0.00000000000E+00 0.  1.
        -15    1    1    2    0    0 -0.25865047410E+02 -0.13733471019E+02  0.56160900274E+02  0.63362554812E+02  0.17770000000E+01 0.  1.
         15    1    1    2    0    0  0.71903587489E+01  0.19931603536E+02  0.11221689285E+03  0.11421365439E+03  0.17770000000E+01 0. -1.
</event>
<event>
 6    1  0.4028964E-003  0.5109872E+03  0.7546771E-02  0.9375555E-01
        -11   -1    0    0    0    0  0.00000000000E+00  0.00000000000E+00  0.50000000000E+03  0.50000000000E+03  0.00000000000E+00 0. -1.
         11   -1    0    0    0    0 -0.00000000000E+00 -0.00000000000E+00 -0.50000000000E+03  0.50000000000E+03  0.00000000000E+00 0. -1.
        -11    1    1    2    0    0 -0.10288481098E+02  0.13818368302E+02  0.46015087756E+03  0.46047326770E+03  0.00000000000E+00 0. -1.
         11    1    1    2    0    0  0.68296406497E+01  0.68516495518E+01 -0.48891708356E+03  0.48901278479E+03  0.00000000000E+00 0. -1.
        -15    1    1    2    0    0  0.17776428402E+02 -0.19934374414E+02  0.15684304641E+02  0.31024761579E+02  0.17770000000E+01 0. -1.
         15    1    1    2    0    0 -0.14317587953E+02 -0.73564344064E+00  0.13081901358E+02  0.19489185930E+02  0.17770000000E+01 0.  1.
</event>
<event>
 6    1  0.4028964E-003  0.5158237E+03  0.7546771E-02  0.9365083E-01
        -11   -1    0    0    0    0  0.00000000000E+00  0.00000000000E+00  0.50000000000E+03  0.50000000000E+03  0.00000000000E+00 0. -1.
         11   -1    0    0    0    0 -0.00000000000E+00 -0.00000000000E+00 -0.50000000000E+03  0.50000000000E+03  0.00000000000E+00 0. -1.
        -11    1    1    2    0    0 -0.31093924177E+02 -0.38156641660E+01  0.24127036356E+03  0.24329566323E+03  0.00000000000E+00 0. -1.
         11    1    1    2    0    0 -0.20379818561E+01  0.82693183001E+01 -0.48410139810E+03  0.48417630946E+03  0.00000000000E+00 0. -1.
        -15    1    1    2    0    0  0.23099532397E+02  0.73001302687E+00  0.25487265265E+03  0.25592449691E+03  0.17770000000E+01 0. -1.
         15    1    1    2    0    0  0.10032373636E+02 -0.51836671610E+01 -0.12041618115E+02  0.16603530403E+02  0.17770000000E+01 0.  1.
</event>
<event>
 6    1  0.4028964E-003  0.5078527E+03  0.7546771E-02  0.9382408E-01
        -11   -1    0    0    0    0  0.00000000000E+00  0.00000000000E+00  0.50000000000E+03  0.50000000000E+03  0.00000000000E+00 0. -1.
         11   -1    0    0    0    0 -0.00000000000E+00 -0.00000000000E+00 -0.50000000000E+03  0.50000000000E+03  0.00000000000E+00 0. -1.
        -11    1    1    2    0    0 -0.83550318859E+01  0.13393896001E+02  0.49189403274E+03  0.49214727720E+03  0.00000000000E+00 0. -1.
         11    1    1    2    0    0  0.12994937481E+02  0.23891584979E+01 -0.48028759883E+03  0.48046930607E+03  0.00000000000E+00 0. -1.
        -15    1    1    2    0    0 -0.18485320118E+01 -0.28901162454E+01 -0.13405887546E+02  0.13951537278E+02  0.17770000000E+01 0. -1.
         15    1    1    2    0    0 -0.27913735832E+01 -0.12892938254E+02  0.17994536357E+01  0.13431879455E+02  0.17770000000E+01 0.  1.
</event>
<event>
 6    1  0.4028964E-003  0.5008219E+03  0.7546771E-02  0.9397972E-01
        -11   -1    0    0    0    0  0.00000000000E+00  0.00000000000E+00  0.50000000000E+03  0.50000000000E+03  0.00000000000E+00 0. -1.
         11   -1    0    0    0    0 -0.00000000000E+00 -0.00000000000E+00 -0.50000000000E+03  0.50000000000E+03  0.00000000000E+00 0. -1.
        -11    1    1    2    0    0  0.80282276465E+00  0.59199460812E+01  0.36044888761E+03  0.36049839232E+03  0.00000000000E+00 0. -1.
         11    1    1    2    0    0  0.23184681135E+01  0.69480543477E+01 -0.49912432817E+03  0.49917807015E+03  0.00000000000E+00 0. -1.
        -15    1    1    2    0    0  0.73195422782E-01 -0.16166437249E+02  0.96400355127E+02  0.97762698656E+02  0.17770000000E+01 0.  1.
         15    1    1    2    0    0 -0.31944863009E+01  0.32984368197E+01  0.42275085428E+02  0.42560838867E+02  0.17770000000E+01 0. -1.
</event>
<event>
 6    1  0.4028964E-003  0.5096106E+03  0.7546771E-02  0.9378558E-01
        -11   -1    0    0    0    0  0.00000000000E+00  0.00000000000E+00  0.50000000000E+03  0.50000000000E+03  0.00000000000E+00 0.  1.
         11   -1    0    0    0    0 -0.00000000000E+00 -0.00000000000E+00 -0.50000000000E+03  0.50000000000E+03  0.00000000000E+00 0. -1.
        -11    1    1    2    0    0  0.15684787924E+00 -0.18561626190E+02  0.49003795755E+03  0.49038939467E+03  0.00000000000E+00 0.  1.
         11    1    1    2    0    0  0.58893129090E+01  0.51187427011E+01 -0.47935365206E+03  0.47941715580E+03  0.00000000000E+00 0. -1.
        -15    1    1    2    0    0 -0.67367727501E+01  0.16824341766E+01 -0.15706194899E+02  0.17264326776E+02  0.17770000000E+01 0. -1.
         15    1    1    2    0    0  0.69061196183E+00  0.11760449312E+02  0.50218894121E+01  0.12929122753E+02  0.17770000000E+01 0.  1.
</event>
<event>
 6    1  0.4028964E-003  0.5007476E+03  0.7546771E-02  0.9398139E-01
        -11   -1    0    0    0    0  0.00000000000E+00  0.00000000000E+00  0.50000000000E+03  0.50000000000E+03  0.00000000000E+00 0.  1.
         11   -1    0    0    0    0 -0.00000000000E+00 -0.00000000000E+00 -0.50000000000E+03  0.50000000000E+03  0.00000000000E+00 0.  1.
        -11    1    1    2    0    0 -0.38055734623E+01  0.97131820841E+01  0.49914342462E+03  0.49925242777E+03  0.00000000000E+00 0.  1.
         11    1    1    2    0    0 -0.99534818873E+01  0.19089008684E+01 -0.82332920407E+02  0.82954357854E+02  0.00000000000E+00 0.  1.
        -15    1    1    2    0    0  0.16225642969E+02 -0.57121320628E+01 -0.37961073030E+03  0.38000442659E+03  0.17770000000E+01 0.  1.
         15    1    1    2    0    0 -0.24665876194E+01 -0.59099508897E+01 -0.37199773912E+02  0.37788787783E+02  0.17770000000E+01 0. -1.
</event>
<event>
 6    1  0.4028964E-003  0.5081162E+03  0.7546771E-02  0.9381830E-01
        -11   -1    0    0    0    0  0.00000000000E+00  0.00000000000E+00  0.50000000000E+03  0.50000000000E+03  0.00000000000E+00 0.  1.
         11   -1    0    0    0    0 -0.00000000000E+00 -0.00000000000E+00 -0.50000000000E+03  0.50000000000E+03  0.00000000000E+00 0. -1.
        -11    1    1    2    0    0  0.49640474093E+01 -0.98512374082E+01  0.47996452751E+03  0.48009127915E+03  0.00000000000E+00 0.  1.
         11    1    1    2    0    0 -0.98100253591E+00  0.69559374331E+01 -0.49183367846E+03  0.49188384269E+03  0.00000000000E+00 0. -1.
        -15    1    1    2    0    0 -0.69064180170E+01  0.19614016006E+01 -0.61753123597E+01  0.96352435260E+01  0.17770000000E+01 0.  1.
         15    1    1    2    0    0  0.29233731437E+01  0.93389837457E+00  0.18044463312E+02  0.18389634632E+02  0.17770000000E+01 0. -1.
</event>
<event>
 6    1  0.4028964E-003  0.5003742E+03  0.7546771E-02  0.9398973E-01
        -11   -1    0    0    0    0  0.00000000000E+00  0.00000000000E+00  0.50000000000E+03  0.50000000000E+03  0.00000000000E+00 0. -1.
         11   -1    0    0    0    0 -0.00000000000E+00 -0.00000000000E+00 -0.50000000000E+03  0.50000000000E+03  0.00000000000E+00 0.  1.
        -11    1    1    2    0    0 -0.16334534906E+01  0.66510858346E+01  0.31428191829E+03  0.31435653210E+03  0.00000000000E+00 0. -1.
         11    1    1    2    0    0 -0.10091979625E+02 -0.62204774732E+01 -0.49948517648E+03  0.49962584393E+03  0.00000000000E+00 0.  1.
        -15    1    1    2    0    0  0.14168428563E+02 -0.34778805885E+00  0.14545305625E+03  0.14615270995E+03  0.17770000000E+01 0. -1.
         15    1    1    2    0    0 -0.24429954480E+01 -0.82820302529E-01  0.39750201947E+02  0.39864914019E+02  0.17770000000E+01 0. -1.
</event>
<event>
 6    1  0.4028964E-003  0.5015888E+03  0.7546771E-02  0.9396262E-01
        -11   -1    0    0    0    0  0.00000000000E+00  0.00000000000E+00  0.50000000000E+03  0.50000000000E+03  0.00000000000E+00 0. -1.
         11   -1    0    0    0    0 -0.00000000000E+00 -0.00000000000E+00 -0.50000000000E+03  0.50000000000E+03  0.00000000000E+00 0.  1.
        -11    1    1    2    0    0  0.19287552195E+01 -0.80027917863E+01  0.39522547258E+03  0.39531119254E+03  0.00000000000E+00 0. -1.
         11    1    1    2    0    0  0.11446952341E+01 -0.66983768907E+01 -0.49836489477E+03  0.49841122271E+03  0.00000000000E+00 0.  1.
        -15    1    1    2    0    0  0.15812371492E+01  0.96965728574E+01  0.16047571848E+02  0.18899897548E+02  0.17770000000E+01 0.  1.
         15    1    1    2    0    0 -0.46546876028E+01  0.50045958195E+01  0.87091850340E+02  0.87377687202E+02  0.17770000000E+01 0. -1.
</event>
<event>
 6    1  0.4028964E-003  0.5022791E+03  0.7546771E-02  0.9394724E-01
        -11   -1    0    0    0    0  0.00000000000E+00  0.00000000000E+00  0.50000000000E+03  0.50000000000E+03  0.00000000000E+00 0. -1.
         11   -1    0    0    0    0 -0.00000000000E+00 -0.00000000000E+00 -0.50000000000E+03  0.50000000000E+03  0.00000000000E+00 0.  1.
        -11    1    1    2    0    0  0.91352598045E+01 -0.18026613696E+02  0.34620646027E+03  0.34679579713E+03  0.00000000000E+00 0. -1.
         11    1    1    2    0    0 -0.96196045926E+01  0.57511799311E+01 -0.49759467550E+03  0.49772087956E+03  0.00000000000E+00 0.  1.
        -15    1    1    2    0    0 -0.38516124642E+01  0.15353684136E+02  0.14815991002E+03  0.14901371481E+03  0.17770000000E+01 0. -1.
         15    1    1    2    0    0  0.43359572522E+01 -0.30782503713E+01  0.32283052174E+01  0.64696085058E+01  0.17770000000E+01 0.  1.
</event>
<event>
 6    1  0.4028964E-003  0.5048395E+03  0.7546771E-02  0.9389046E-01
        -11   -1    0    0    0    0  0.00000000000E+00  0.00000000000E+00  0.50000000000E+03  0.50000000000E+03  0.00000000000E+00 0. -1.
         11   -1    0    0    0    0 -0.00000000000E+00 -0.00000000000E+00 -0.50000000000E+03  0.50000000000E+03  0.00000000000E+00 0. -1.
        -11    1    1    2    0    0 -0.64711178662E+01  0.22914858157E+01  0.49511293588E+03  0.49516052503E+03  0.00000000000E+00 0. -1.
         11    1    1    2    0    0  0.41792368697E+01  0.63747147600E+01 -0.47718872581E+03  0.47724960246E+03  0.00000000000E+00 0. -1.
        -15    1    1    2    0    0 -0.11895067169E+01 -0.51355226296E+01  0.27851362327E+01  0.62211921481E+01  0.17770000000E+01 0. -1.
         15    1    1    2    0    0  0.34813877135E+01 -0.35306779461E+01 -0.20709346301E+02  0.21368680361E+02  0.17770000000E+01 0.  1.
</event>
<event>
 6    1  0.4028964E-003  0.5016973E+03  0.7546771E-02  0.9396020E-01
        -11   -1    0    0    0    0  0.00000000000E+00  0.00000000000E+00  0.50000000000E+03  0.50000000000E+03  0.00000000000E+00 0.  1.
         11   -1    0    0    0    0 -0.00000000000E+00 -0.00000000000E+00 -0.50000000000E+03  0.50000000000E+03  0.00000000000E+00 0. -1.
        -11    1    1    2    0    0 -0.87603924680E+01 -0.16983773998E+01  0.49822277791E+03  0.49830268451E+03  0.00000000000E+00 0.  1.
         11    1    1    2    0    0  0.58764877618E+01  0.43790644428E+01 -0.47665611900E+03  0.47671245536E+03  0.00000000000E+00 0. -1.
        -15    1    1    2    0    0  0.57260753277E+01 -0.24284946319E+01 -0.52656646504E+01  0.83408919215E+01  0.17770000000E+01 0. -1.
         15    1    1    2    0    0 -0.28421706214E+01 -0.25219241114E+00 -0.16300994259E+02  0.16643968207E+02  0.17770000000E+01 0.  1.
</event>
<event>
 6    1  0.4028964E-003  0.5276845E+03  0.7546771E-02  0.9339909E-01
        -11   -1    0    0    0    0  0.00000000000E+00  0.00000000000E+00  0.50000000000E+03  0.50000000000E+03  0.00000000000E+00 0. -1.
         11   -1    0    0    0    0 -0.00000000000E+00 -0.00000000000E+00 -0.50000000000E+03  0.50000000000E+03  0.00000000000E+00 0.  1.
        -11    1    1    2    0    0 -0.17885755093E+02  0.17948129671E+01  0.36753013658E+03  0.36796945917E+03  0.00000000000E+00 0. -1.
         11    1    1    2    0    0 -0.76901192942E+01  0.40953507133E+01 -0.47223516972E+03  0.47231553579E+03  0.00000000000E+00 0.  1.
        -15    1    1    2    0    0  0.60266711520E+01 -0.65132516929E+01 -0.26006559202E+02  0.27536195513E+02  0.17770000000E+01 0.  1.
         15    1    1    2    0    0  0.19549203235E+02  0.62308801245E+00  0.13071159234E+03  0.13217880953E+03  0.17770000000E+01 0. -1.
</event>
<event>
 6    1  0.4028964E-003  0.5006215E+03  0.7546771E-02  0.9398420E-01
        -11   -1    0    0    0    0  0.00000000000E+00  0.00000000000E+00  0.50000000000E+03  0.50000000000E+03  0.00000000000E+00 0. -1.
         11   -1    0    0    0    0 -0.00000000000E+00 -0.00000000000E+00 -0.50000000000E+03  0.50000000000E+03  0.00000000000E+00 0. -1.
        -11    1    1    2    0    0 -0.88044346646E+01  0.26009341096E+01  0.49929409097E+03  0.49937848592E+03  0.00000000000E+00 0. -1.
         11    1    1    2    0    0  0.18282110597E+01  0.59476775169E+01 -0.39441431479E+03  0.39446339366E+03  0.00000000000E+00 0. -1.
        -15    1    1    2    0    0  0.73090449086E+01 -0.46207347206E-01 -0.40304685546E+02  0.41000605831E+02  0.17770000000E+01 0.  1.
         15    1    1    2    0    0 -0.33282130376E+00 -0.85024042793E+01 -0.64575090629E+02  0.65157514589E+02  0.17770000000E+01 0. -1.
</event>
<event>
 6    1  0.4028964E-003  0.5793544E+03  0.7546771E-02  0.9237895E-01
        -11   -1    0    0    0    0  0.00000000000E+00  0.00000000000E+00  0.50000000000E+03  0.50000000000E+03  0.00000000000E+00 0. -1.
         11   -1    0    0    0    0 -0.00000000000E+00 -0.00000000000E+00 -0.50000000000E+03  0.50000000000E+03  0.00000000000E+00 0. -1.
        -11    1    1    2    0    0  0.47713384647E+02 -0.25663609622E+02  0.13817341712E+03  0.14841523214E+03  0.00000000000E+00 0. -1.
         11    1    1    2    0    0  0.11458189776E+02 -0.13302619600E+02 -0.42027902792E+03  0.42064558848E+03  0.00000000000E+00 0. -1.
        -15    1    1    2    0    0  0.73231841956E+01  0.21832392913E+02 -0.69214827584E+02  0.72966653298E+02  0.17770000000E+01 0.  1.
         15    1    1    2    0    0 -0.66494758618E+02  0.17133836309E+02  0.35132043838E+03  0.35797252608E+03  0.17770000000E+01 0. -1.
</event>
<event>
 6    1  0.4028964E-003  0.5009513E+03  0.7546771E-02  0.9397684E-01
        -11   -1    0    0    0    0  0.00000000000E+00  0.00000000000E+00  0.50000000000E+03  0.50000000000E+03  0.00000000000E+00 0.  1.
         11   -1    0    0    0    0 -0.00000000000E+00 -0.00000000000E+00 -0.50000000000E+03  0.50000000000E+03  0.00000000000E+00 0. -1.
        -11    1    1    2    0    0 -0.17967928154E+01 -0.58563748055E+01  0.39740018791E+03  0.39744739896E+03  0.00000000000E+00 0.  1.
         11    1    1    2    0    0  0.15042133468E+01 -0.80920983254E+01 -0.49898084918E+03  0.49904872764E+03  0.00000000000E+00 0. -1.
        -15    1    1    2    0    0 -0.39293930957E+00  0.12339428943E+02  0.99435523704E+02  0.10021475446E+03  0.17770000000E+01 0.  1.
         15    1    1    2    0    0  0.68551877809E+00  0.16090441877E+01  0.21451375655E+01  0.32891189349E+01  0.17770000000E+01 0. -1.
</event>
<event>
 6    1  0.4028964E-003  0.5072961E+03  0.7546771E-02  0.9383630E-01
        -11   -1    0    0    0    0  0.00000000000E+00  0.00000000000E+00  0.50000000000E+03  0.50000000000E+03  0.00000000000E+00 0. -1.
         11   -1    0    0    0    0 -0.00000000000E+00 -0.00000000000E+00 -0.50000000000E+03  0.50000000000E+03  0.00000000000E+00 0.  1.
        -11    1    1    2    0    0  0.96273554820E+01 -0.10582606466E+01  0.49260866779E+03  0.49270387198E+03  0.00000000000E+00 0. -1.
         11    1    1    2    0    0  0.16163506593E+02 -0.28874451882E+01 -0.45122817466E+03  0.45152681194E+03  0.00000000000E+00 0.  1.
        -15    1    1    2    0    0 -0.22682144418E+02 -0.40459238541E+01 -0.40927163903E+02  0.47000421800E+02  0.17770000000E+01 0.  1.
         15    1    1    2    0    0 -0.31087176571E+01  0.79916296889E+01 -0.45332921844E+00  0.87688942825E+01  0.17770000000E+01 0. -1.
</event>
<event>
 6    1  0.4028964E-003  0.5077058E+03  0.7546771E-02  0.9382731E-01
        -11   -1    0    0    0    0  0.00000000000E+00  0.00000000000E+00  0.50000000000E+03  0.50000000000E+03  0.00000000000E+00 0.  1.
         11   -1    0    0    0    0 -0.00000000000E+00 -0.00000000000E+00 -0.50000000000E+03  0.50000000000E+03  0.00000000000E+00 0.  1.
        -11    1    1    2    0    0 -0.13310483408E+02  0.79755935862E+00  0.47173981756E+03  0.47192823664E+03  0.00000000000E+00 0.  1.
         11    1    1    2    0    0 -0.96909555821E+01 -0.12597071432E+01 -0.49219720298E+03  0.49229420889E+03  0.00000000000E+00 0.  1.
        -15    1    1    2    0    0  0.25343421088E+02 -0.19844625996E+01  0.17103709959E+02  0.30690743028E+02  0.17770000000E+01 0.  1.
         15    1    1    2    0    0 -0.23419820985E+01  0.24466103842E+01  0.33536754638E+01  0.50868114412E+01  0.17770000000E+01 0.  1.
</event>
<event>
 6    1  0.4028964E-003  0.4874198E+03  0.7546771E-02  0.9428407E-01
        -11   -1    0    0    0    0  0.00000000000E+00  0.00000000000E+00  0.50000000000E+03  0.50000000000E+03  0.00000000000E+00 0. -1.
         11   -1    0    0    0    0 -0.00000000000E+00 -0.00000000000E+00 -0.50000000000E+03  0.50000000000E+03  0.00000000000E+00 0. -1.
        -11    1    1    2    0    0 -0.46020003045E+01  0.47056575182E+01  0.48504177347E+03  0.48508642903E+03  0.00000000000E+00 0. -1.
         11    1    1    2    0    0 -0.65694453499E+01  0.14940561820E+01 -0.48980223547E+03  0.48984856812E+03  0.00000000000E+00 0. -1.
        -15    1    1    2    0    0  0.16808119107E+02 -0.26096045388E+01  0.85537948950E+00  0.17123443195E+02  0.17770000000E+01 0. -1.
         15    1    1    2    0    0 -0.56366734528E+01 -0.35901091613E+01  0.39050825085E+01  0.79415596580E+01  0.17770000000E+01 0.  1.
</event>
<event>
 6    1  0.4028964E-003  0.5092263E+03  0.7546771E-02  0.9379399E-01
        -11   -1    0    0    0    0  0.00000000000E+00  0.00000000000E+00  0.50000000000E+03  0.50000000000E+03  0.00000000000E+00 0.  1.
         11   -1    0    0    0    0 -0.00000000000E+00 -0.00000000000E+00 -0.50000000000E+03  0.50000000000E+03  0.00000000000E+00 0. -1.
        -11    1    1    2    0    0 -0.76597331242E+01 -0.51938091463E+01  0.49068643050E+03  0.49077369555E+03  0.00000000000E+00 0.  1.
         11    1    1    2    0    0 -0.13405991924E+02 -0.16427477785E+02 -0.41477149773E+03  0.41531310836E+03  0.00000000000E+00 0. -1.
        -15    1    1    2    0    0 -0.93757529107E+00  0.18256285722E+02 -0.42525494982E+01  0.18852398310E+02  0.17770000000E+01 0.  1.
         15    1    1    2    0    0  0.22003300339E+02  0.33650012095E+01 -0.71662383267E+02  0.75060797780E+02  0.17770000000E+01 0. -1.
</event>
<event>
 6    1  0.4028964E-003  0.4716287E+03  0.7546771E-02  0.9465631E-01
        -11   -1    0    0    0    0  0.00000000000E+00  0.00000000000E+00  0.50000000000E+03  0.50000000000E+03  0.00000000000E+00 0. -1.
         11   -1    0    0    0    0 -0.00000000000E+00 -0.00000000000E+00 -0.50000000000E+03  0.50000000000E+03  0.00000000000E+00 0. -1.
        -11    1    1    2    0    0  0.22417416818E+01 -0.26362934345E+02  0.47404440187E+03  0.47478218654E+03  0.00000000000E+00 0. -1.
         11    1    1    2    0    0 -0.49785407802E+01 -0.99181454289E+01 -0.46905860646E+03  0.46918986750E+03  0.00000000000E+00 0. -1.
        -15    1    1    2    0    0 -0.47982005318E+01  0.20700263419E+01 -0.17837228935E+02  0.18671695222E+02  0.17770000000E+01 0.  1.
         15    1    1    2    0    0  0.75349996302E+01  0.34211053432E+02  0.12851433524E+02  0.37356250735E+02  0.17770000000E+01 0. -1.
</event>
<event>
 6    1  0.4028964E-003  0.5019799E+03  0.7546771E-02  0.9395391E-01
        -11   -1    0    0    0    0  0.00000000000E+00  0.00000000000E+00  0.50000000000E+03  0.50000000000E+03  0.00000000000E+00 0. -1.
         11   -1    0    0    0    0 -0.00000000000E+00 -0.00000000000E+00 -0.50000000000E+03  0.50000000000E+03  0.00000000000E+00 0.  1.
        -11    1    1    2    0    0 -0.81591407656E+01 -0.36365713576E+00  0.49795317033E+03  0.49802014384E+03  0.00000000000E+00 0. -1.
         11    1    1    2    0    0  0.79946564169E+01  0.10884487762E+01 -0.48501054946E+03  0.48507765598E+03  0.00000000000E+00 0.  1.
        -15    1    1    2    0    0  0.47013268877E+01  0.78949556607E-01 -0.98968515727E+01  0.11100185025E+02  0.17770000000E+01 0.  1.
         15    1    1    2    0    0 -0.45368425390E+01 -0.80374119700E+00 -0.30457693058E+01  0.58020151499E+01  0.17770000000E+01 0. -1.
</event>
<event>
 6    1  0.4028964E-003  0.5144784E+03  0.7546771E-02  0.9367983E-01
        -11   -1    0    0    0    0  0.00000000000E+00  0.00000000000E+00  0.50000000000E+03  0.50000000000E+03  0.00000000000E+00 0. -1.
         11   -1    0    0    0    0 -0.00000000000E+00 -0.00000000000E+00 -0.50000000000E+03  0.50000000000E+03  0.00000000000E+00 0.  1.
        -11    1    1    2    0    0  0.11832771589E+02  0.93364616683E+01  0.48528756205E+03  0.48552157715E+03  0.00000000000E+00 0. -1.
         11    1    1    2    0    0  0.27201175545E+01  0.52468645367E+01 -0.32479288726E+03  0.32484665343E+03  0.00000000000E+00 0.  1.
        -15    1    1    2    0    0 -0.16009123483E+02 -0.99397085550E+01  0.83643859922E+01  0.20693248244E+02  0.17770000000E+01 0. -1.
         15    1    1    2    0    0  0.14562343393E+01 -0.46436176501E+01 -0.16885906078E+03  0.16893852118E+03  0.17770000000E+01 0.  1.
</event>
<event>
 6    1  0.4028964E-003  0.3951866E+03  0.7546771E-02  0.9670731E-01
        -11   -1    0    0    0    0  0.00000000000E+00  0.00000000000E+00  0.50000000000E+03  0.50000000000E+03  0.00000000000E+00 0.  1.
         11   -1    0    0    0    0 -0.00000000000E+00 -0.00000000000E+00 -0.50000000000E+03  0.50000000000E+03  0.00000000000E+00 0.  1.
        -11    1    1    2    0    0 -0.24025610911E+01  0.17404445920E+01  0.13339504680E+03  0.13342803288E+03  0.00000000000E+00 0.  1.
         11    1    1    2    0    0  0.91297777431E+01 -0.16636408090E+01 -0.43031722982E+03  0.43041728453E+03  0.00000000000E+00 0.  1.
        -15    1    1    2    0    0  0.57144359349E+01 -0.28731503888E+02  0.36239915290E+03  0.36358555781E+03  0.17770000000E+01 0.  1.
         15    1    1    2    0    0 -0.12441652587E+02  0.28654700105E+02 -0.65476969882E+02  0.72569124779E+02  0.17770000000E+01 0. -1.
</event>
<event>
 6    1  0.4028964E-003  0.5002348E+03  0.7546771E-02  0.9399284E-01
        -11   -1    0    0    0    0  0.00000000000E+00  0.00000000000E+00  0.50000000000E+03  0.50000000000E+03  0.00000000000E+00 0. -1.
         11   -1    0    0    0    0 -0.00000000000E+00 -0.00000000000E+00 -0.50000000000E+03  0.50000000000E+03  0.00000000000E+00 0.  1.
        -11    1    1    2    0    0  0.23295302283E+01  0.39225144229E+00  0.75069506167E+02  0.75106666338E+02  0.00000000000E+00 0. -1.
         11    1    1    2    0    0 -0.20694411869E+02  0.12438289503E+02 -0.49918159372E+03  0.49976517809E+03  0.00000000000E+00 0.  1.
        -15    1    1    2    0    0  0.17472682776E+02 -0.14188604450E+02  0.25464990825E+03  0.25564886982E+03  0.17770000000E+01 0.  1.
         15    1    1    2    0    0  0.89219886423E+00  0.13580635051E+01  0.16946217930E+03  0.16947928575E+03  0.17770000000E+01 0. -1.
</event>
<event>
 6    1  0.4028964E-003  0.5309117E+03  0.7546771E-02  0.9333181E-01
        -11   -1    0    0    0    0  0.00000000000E+00  0.00000000000E+00  0.50000000000E+03  0.50000000000E+03  0.00000000000E+00 0. -1.
         11   -1    0    0    0    0 -0.00000000000E+00 -0.00000000000E+00 -0.50000000000E+03  0.50000000000E+03  0.00000000000E+00 0. -1.
        -11    1    1    2    0    0 -0.42865196383E+00 -0.22410366973E+02  0.46855249549E+03  0.46908831718E+03  0.00000000000E+00 0. -1.
         11    1    1    2    0    0 -0.24151676579E+01 -0.71473469142E+01 -0.42472676209E+03  0.42479376176E+03  0.00000000000E+00 0. -1.
        -15    1    1    2    0    0  0.41051057237E+01  0.99979745189E+01  0.28831743392E+02  0.30842155299E+02  0.17770000000E+01 0. -1.
         15    1    1    2    0    0 -0.12612861020E+01  0.19559739369E+02 -0.72657476793E+02  0.75275765754E+02  0.17770000000E+01 0.  1.
</event>
<event>
 6    1  0.4028964E-003  0.5128476E+03  0.7546771E-02  0.9371512E-01
        -11   -1    0    0    0    0  0.00000000000E+00  0.00000000000E+00  0.50000000000E+03  0.50000000000E+03  0.00000000000E+00 0. -1.
         11   -1    0    0    0    0 -0.00000000000E+00 -0.00000000000E+00 -0.50000000000E+03  0.50000000000E+03  0.00000000000E+00 0. -1.
        -11    1    1    2    0    0 -0.30881802622E+01  0.76074107934E+01  0.48708317858E+03  0.48715237084E+03  0.00000000000E+00 0. -1.
         11    1    1    2    0    0  0.22189951311E+02  0.11755823135E+01 -0.47048486377E+03  0.47100932366E+03  0.00000000000E+00 0. -1.
        -15    1    1    2    0    0 -0.11578861538E+02  0.78654828803E+01 -0.18630482853E+02  0.23370675553E+02  0.17770000000E+01 0. -1.
         15    1    1    2    0    0 -0.75229095107E+01 -0.16648475987E+02  0.20321680449E+01  0.18467629955E+02  0.17770000000E+01 0.  1.
</event>
<event>
 6    1  0.5043178E-003  0.5003551E+03  0.7546771E-02  0.9399015E-01
        -11   -1    0    0    0    0  0.00000000000E+00  0.00000000000E+00  0.50000000000E+03  0.50000000000E+03  0.00000000000E+00 0.  1.
         11   -1    0    0    0    0 -0.00000000000E+00 -0.00000000000E+00 -0.50000000000E+03  0.50000000000E+03  0.00000000000E+00 0. -1.
        -11    1    1    2    0    0 -0.37572120811E+01  0.61694085046E+01  0.49959266681E+03  0.49964488487E+03  0.00000000000E+00 0.  1.
         11    1    1    2    0    0  0.31792968713E+01  0.18906271972E+01 -0.27362541769E+03  0.27365041861E+03  0.00000000000E+00 0. -1.
        -15    1    1    2    0    0 -0.67573618283E+01 -0.62855613327E+01 -0.16143842586E+03  0.16171175991E+03  0.17770000000E+01 0. -1.
         15    1    1    2    0    0  0.73352770381E+01 -0.17744743691E+01 -0.64528823260E+02  0.64992936607E+02  0.17770000000E+01 0.  1.
</event>
<event>
 6    1  0.4028964E-003  0.5041754E+03  0.7546771E-02  0.9390515E-01
        -11   -1    0    0    0    0  0.00000000000E+00  0.00000000000E+00  0.50000000000E+03  0.50000000000E+03  0.00000000000E+00 0.  1.
         11   -1    0    0    0    0 -0.00000000000E+00 -0.00000000000E+00 -0.50000000000E+03  0.50000000000E+03  0.00000000000E+00 0. -1.
        -11    1    1    2    0    0  0.46270411031E+01 -0.60004332585E+01  0.49576672281E+03  0.49582462439E+03  0.00000000000E+00 0.  1.
         11    1    1    2    0    0 -0.29484726083E+01 -0.75020515242E+01 -0.36336859733E+03  0.36345799179E+03  0.00000000000E+00 0. -1.
        -15    1    1    2    0    0  0.52746075420E+01  0.21826422312E+01  0.14888909658E+01  0.61611636190E+01  0.17770000000E+01 0. -1.
         15    1    1    2    0    0 -0.69531760368E+01  0.11319842551E+02 -0.13388701645E+03  0.13455622020E+03  0.17770000000E+01 0.  1.
</event>
<event>
 6    1  0.4028964E-003  0.5329245E+03  0.7546771E-02  0.9329010E-01
        -11   -1    0    0    0    0  0.00000000000E+00  0.00000000000E+00  0.50000000000E+03  0.50000000000E+03  0.00000000000E+00 0. -1.
         11   -1    0    0    0    0 -0.00000000000E+00 -0.00000000000E+00 -0.50000000000E+03  0.50000000000E+03  0.00000000000E+00 0.  1.
        -11    1    1    2    0    0 -0.16134128204E+02  0.26397277706E+01  0.46678926974E+03  0.46707547635E+03  0.00000000000E+00 0. -1.
         11    1    1    2    0    0 -0.53545048731E+01  0.15925486179E+02 -0.28554508156E+03  0.28603895790E+03  0.00000000000E+00 0.  1.
        -15    1    1    2    0    0  0.89662065512E+01 -0.13782095102E+02 -0.21233680331E+03  0.21297984593E+03  0.17770000000E+01 0.  1.
         15    1    1    2    0    0  0.12522426526E+02 -0.47831188475E+01  0.31092615127E+02  0.33905719819E+02  0.17770000000E+01 0. -1.
</event>
<event>
 6    1  0.4028964E-003  0.5057137E+03  0.7546771E-02  0.9387115E-01
        -11   -1    0    0    0    0  0.00000000000E+00  0.00000000000E+00  0.50000000000E+03  0.50000000000E+03  0.00000000000E+00 0. -1.
         11   -1    0    0    0    0 -0.00000000000E+00 -0.00000000000E+00 -0.50000000000E+03  0.50000000000E+03  0.00000000000E+00 0. -1.
        -11    1    1    2    0    0  0.69430805861E+01 -0.14629738477E+01  0.49423541484E+03  0.49428634610E+03  0.00000000000E+00 0. -1.
         11    1    1    2    0    0  0.90444958918E+01 -0.18276469170E+01 -0.48062732803E+03  0.48071589494E+03  0.00000000000E+00 0. -1.
        -15    1    1    2    0    0 -0.88661534567E+01  0.39230505684E+01 -0.14546248288E+02  0.17571285415E+02  0.17770000000E+01 0.  1.
         15    1    1    2    0    0 -0.71214230212E+01 -0.63242980364E+00  0.93816148386E+00  0.74264735422E+01  0.17770000000E+01 0. -1.
</event>
<event>
 6    1  0.4028964E-003  0.5134594E+03  0.7546771E-02  0.9370187E-01
        -11   -1    0    0    0    0  0.00000000000E+00  0.00000000000E+00  0.50000000000E+03  0.50000000000E+03  0.00000000000E+00 0. -1.
         11   -1    0    0    0    0 -0.00000000000E+00 -0.00000000000E+00 -0.50000000000E+03  0.50000000000E+03  0.00000000000E+00 0. -1.
        -11    1    1    2    0    0  0.12247496739E+02 -0.16121073073E+02  0.48611922416E+03  0.48654063578E+03  0.00000000000E+00 0. -1.
         11    1    1    2    0    0 -0.85971965381E+01  0.41306999604E+01 -0.44511376442E+03  0.44521594507E+03  0.00000000000E+00 0. -1.
        -15    1    1    2    0    0 -0.11537658093E+01  0.11569153057E+02  0.11025090371E+02  0.16121005697E+02  0.17770000000E+01 0.  1.
         15    1    1    2    0    0 -0.24965343915E+01  0.42122005557E+00 -0.52030550110E+02  0.52122413452E+02  0.17770000000E+01 0. -1.
</event>
<event>
 6    1  0.4028964E-003  0.5013920E+03  0.7546771E-02  0.9396700E-01
        -11   -1    0    0    0    0  0.00000000000E+00  0.00000000000E+00  0.50000000000E+03  0.50000000000E+03  0.00000000000E+00 0. -1.
         11   -1    0    0    0    0 -0.00000000000E+00 -0.00000000000E+00 -0.50000000000E+03  0.50000000000E+03  0.00000000000E+00 0. -1.
        -11    1    1    2    0    0 -0.23788528749E+02 -0.14857792749E+02  0.49781854254E+03  0.49860801177E+03  0.00000000000E+00 0. -1.
         11    1    1    2    0    0  0.18491357567E+01 -0.61082145810E+00 -0.96438917091E+02  0.96458577304E+02  0.00000000000E+00 0. -1.
        -15    1    1    2    0    0  0.19949748945E+02 -0.93787425319E+01 -0.28723753508E+03  0.28808768211E+03  0.17770000000E+01 0. -1.
         15    1    1    2    0    0  0.19896440471E+01  0.24847356739E+02 -0.11414209037E+03  0.11684572882E+03  0.17770000000E+01 0.  1.
</event>
<event>
 6    1  0.4028964E-003  0.5008488E+03  0.7546771E-02  0.9397912E-01
        -11   -1    0    0    0    0  0.00000000000E+00  0.00000000000E+00  0.50000000000E+03  0.50000000000E+03  0.00000000000E+00 0. -1.
         11   -1    0    0    0    0 -0.00000000000E+00 -0.00000000000E+00 -0.50000000000E+03  0.50000000000E+03  0.00000000000E+00 0. -1.
        -11    1    1    2    0    0  0.93215535182E+01 -0.22253988271E+01  0.45774327828E+03  0.45784358964E+03  0.00000000000E+00 0. -1.
         11    1    1    2    0    0 -0.31626850444E+01  0.61039983985E+01 -0.49910384222E+03  0.49915118621E+03  0.00000000000E+00 0. -1.
        -15    1    1    2    0    0 -0.53514903145E+01 -0.55542443989E+01  0.37757110806E+02  0.38577781492E+02  0.17770000000E+01 0. -1.
         15    1    1    2    0    0 -0.80737815929E+00  0.16756448275E+01  0.36034531282E+01  0.44274426622E+01  0.17770000000E+01 0. -1.
</event>
<event>
 6    1  0.4028964E-003  0.5001204E+03  0.7546771E-02  0.9399540E-01
        -11   -1    0    0    0    0  0.00000000000E+00  0.00000000000E+00  0.50000000000E+03  0.50000000000E+03  0.00000000000E+00 0.  1.
         11   -1    0    0    0    0 -0.00000000000E+00 -0.00000000000E+00 -0.50000000000E+03  0.50000000000E+03  0.00000000000E+00 0. -1.
        -11    1    1    2    0    0 -0.15445052269E+01 -0.85396601669E+00  0.12011339150E+03  0.12012635669E+03  0.00000000000E+00 0.  1.
         11    1    1    2    0    0 -0.14499045298E+01  0.88204696796E+01 -0.49979965377E+03  0.49987958232E+03  0.00000000000E+00 0. -1.
        -15    1    1    2    0    0  0.58591128210E+01 -0.32686285086E+01  0.96709744389E+02  0.96958473194E+02  0.17770000000E+01 0. -1.
         15    1    1    2    0    0 -0.28647030644E+01 -0.46978751543E+01  0.28297651788E+03  0.28303558779E+03  0.17770000000E+01 0.  1.
</event>
<event>
 6    1  0.4028964E-003  0.5001394E+03  0.7546771E-02  0.9399498E-01
        -11   -1    0    0    0    0  0.00000000000E+00  0.00000000000E+00  0.50000000000E+03  0.50000000000E+03  0.00000000000E+00 0.  1.
         11   -1    0    0    0    0 -0.00000000000E+00 -0.00000000000E+00 -0.50000000000E+03  0.50000000000E+03  0.00000000000E+00 0.  1.
        -11    1    1    2    0    0  0.10441515662E+01  0.24549748123E+01  0.15864112400E+03  0.15866355403E+03  0.00000000000E+00 0.  1.
         11    1    1    2    0    0  0.13271665119E+00 -0.89928774138E+01 -0.49977963740E+03  0.49986055597E+03  0.00000000000E+00 0.  1.
        -15    1    1    2    0    0 -0.14685361314E+01  0.10490454090E+02  0.22507567790E+03  0.22533181030E+03  0.17770000000E+01 0.  1.
         15    1    1    2    0    0  0.29166791397E+00 -0.39525514886E+01  0.11606283551E+03  0.11614407970E+03  0.17770000000E+01 0. -1.
</event>
<event>
 6    1  0.4028964E-003  0.5043488E+03  0.7546771E-02  0.9390131E-01
        -11   -1    0    0    0    0  0.00000000000E+00  0.00000000000E+00  0.50000000000E+03  0.50000000000E+03  0.00000000000E+00 0. -1.
         11   -1    0    0    0    0 -0.00000000000E+00 -0.00000000000E+00 -0.50000000000E+03  0.50000000000E+03  0.00000000000E+00 0.  1.
        -11    1    1    2    0    0  0.18374451463E+02  0.14486158166E+02  0.49509860894E+03  0.49565118967E+03  0.00000000000E+00 0. -1.
         11    1    1    2    0    0  0.16115253961E+02 -0.11214149164E+02 -0.12148860283E+03  0.12306477632E+03  0.00000000000E+00 0.  1.
        -15    1    1    2    0    0 -0.47588276418E+02  0.51257419517E+01 -0.34788811486E+03  0.35116978155E+03  0.17770000000E+01 0.  1.
         15    1    1    2    0    0  0.13098570994E+02 -0.83977509534E+01 -0.25721891251E+02  0.30114252468E+02  0.17770000000E+01 0. -1.
</event>
<event>
 6    1  0.4028964E-003  0.5036907E+03  0.7546771E-02  0.9391589E-01
        -11   -1    0    0    0    0  0.00000000000E+00  0.00000000000E+00  0.50000000000E+03  0.50000000000E+03  0.00000000000E+00 0. -1.
         11   -1    0    0    0    0 -0.00000000000E+00 -0.00000000000E+00 -0.50000000000E+03  0.50000000000E+03  0.00000000000E+00 0. -1.
        -11    1    1    2    0    0 -0.69561020505E+01  0.48853560403E+01  0.49623651575E+03  0.49630931245E+03  0.00000000000E+00 0. -1.
         11    1    1    2    0    0 -0.77859633365E+01 -0.87815006579E+01 -0.48075961281E+03  0.48090283976E+03  0.00000000000E+00 0. -1.
        -15    1    1    2    0    0  0.13190472793E+02  0.15973863077E+01 -0.12922471607E+02  0.18619565434E+02  0.17770000000E+01 0. -1.
         15    1    1    2    0    0  0.15515925941E+01  0.22987583099E+01 -0.25544313364E+01  0.41682823559E+01  0.17770000000E+01 0.  1.
</event>
<event>
 6    1  0.4028964E-003  0.5009652E+03  0.7546771E-02  0.9397653E-01
        -11   -1    0    0    0    0  0.00000000000E+00  0.00000000000E+00  0.50000000000E+03  0.50000000000E+03  0.00000000000E+00 0.  1.
         11   -1    0    0    0    0 -0.00000000000E+00 -0.00000000000E+00 -0.50000000000E+03  0.50000000000E+03  0.00000000000E+00 0. -1.
        -11    1    1    2    0    0  0.29700590941E+01 -0.63558472701E+01  0.36655213831E+03  0.36661926865E+03  0.00000000000E+00 0.  1.
         11    1    1    2    0    0 -0.15157998528E+01 -0.72296704960E+01 -0.49898016018E+03  0.49903483450E+03  0.00000000000E+00 0. -1.
        -15    1    1    2    0    0  0.45069472445E+01 -0.21199415515E+01  0.44206319063E+02  0.44521490314E+02  0.17770000000E+01 0. -1.
         15    1    1    2    0    0 -0.59612064858E+01  0.15705459318E+02  0.88221702808E+02  0.89824406541E+02  0.17770000000E+01 0.  1.
</event>
<event>
 6    1  0.4028964E-003  0.5022309E+03  0.7546771E-02  0.9394832E-01
        -11   -1    0    0    0    0  0.00000000000E+00  0.00000000000E+00  0.50000000000E+03  0.50000000000E+03  0.00000000000E+00 0. -1.
         11   -1    0    0    0    0 -0.00000000000E+00 -0.00000000000E+00 -0.50000000000E+03  0.50000000000E+03  0.00000000000E+00 0. -1.
        -11    1    1    2    0    0 -0.38204507628E+01 -0.71658707217E+01  0.49770288052E+03  0.49776912602E+03  0.00000000000E+00 0. -1.
         11    1    1    2    0    0 -0.98380337285E+01  0.37661782627E+01 -0.33528899893E+03  0.33545444372E+03  0.00000000000E+00 0. -1.
        -15    1    1    2    0    0 -0.64538219996E+01  0.70794178781E+01 -0.11086481079E+03  0.11129211103E+03  0.17770000000E+01 0. -1.
         15    1    1    2    0    0  0.20112306491E+02 -0.36797254191E+01 -0.51549070794E+02  0.55484319228E+02  0.17770000000E+01 0.  1.
</event>
<event>
 6    1  0.4028964E-003  0.5001760E+03  0.7546771E-02  0.9399416E-01
        -11   -1    0    0    0    0  0.00000000000E+00  0.00000000000E+00  0.50000000000E+03  0.50000000000E+03  0.00000000000E+00 0.  1.
         11   -1    0    0    0    0 -0.00000000000E+00 -0.00000000000E+00 -0.50000000000E+03  0.50000000000E+03  0.00000000000E+00 0.  1.
        -11    1    1    2    0    0  0.58264671034E+01 -0.36260701228E+00  0.15783883338E+03  0.15794675218E+03  0.00000000000E+00 0.  1.
         11    1    1    2    0    0 -0.35725061876E+01 -0.90368016807E+01 -0.49972954552E+03  0.49982401428E+03  0.00000000000E+00 0.  1.
        -15    1    1    2    0    0  0.38489061858E+01  0.71200644336E+01  0.21399760619E+03  0.21415798510E+03  0.17770000000E+01 0. -1.
         15    1    1    2    0    0 -0.61028671017E+01  0.22793442593E+01  0.12789310595E+03  0.12807124844E+03  0.17770000000E+01 0.  1.
</event>
<event>
 6    1  0.4028964E-003  0.5234131E+03  0.7546771E-02  0.9348893E-01
        -11   -1    0    0    0    0  0.00000000000E+00  0.00000000000E+00  0.50000000000E+03  0.50000000000E+03  0.00000000000E+00 0. -1.
         11   -1    0    0    0    0 -0.00000000000E+00 -0.00000000000E+00 -0.50000000000E+03  0.50000000000E+03  0.00000000000E+00 0.  1.
        -11    1    1    2    0    0 -0.16804731420E+02 -0.25360804253E+02  0.41933216335E+03  0.42043433805E+03  0.00000000000E+00 0. -1.
         11    1    1    2    0    0  0.32357825494E+02  0.61242185478E+01 -0.47544775005E+03  0.47658692592E+03  0.00000000000E+00 0.  1.
        -15    1    1    2    0    0 -0.24515979850E+02  0.27386253183E+02 -0.80381561669E+01  0.37667091936E+02  0.17770000000E+01 0.  1.
         15    1    1    2    0    0  0.89628857756E+01 -0.81496674775E+01  0.64153742866E+02  0.65311644093E+02  0.17770000000E+01 0. -1.
</event>
<event>
 6    1  0.4028964E-003  0.5004064E+03  0.7546771E-02  0.9398901E-01
        -11   -1    0    0    0    0  0.00000000000E+00  0.00000000000E+00  0.50000000000E+03  0.50000000000E+03  0.00000000000E+00 0.  1.
         11   -1    0    0    0    0 -0.00000000000E+00 -0.00000000000E+00 -0.50000000000E+03  0.50000000000E+03  0.00000000000E+00 0.  1.
        -11    1    1    2    0    0 -0.53881056143E+01  0.35472885903E+01  0.34269298466E+03  0.34275369681E+03  0.00000000000E+00 0.  1.
         11    1    1    2    0    0 -0.30653120766E+00 -0.70184416350E+01 -0.49954417901E+03  0.49959357408E+03  0.00000000000E+00 0.  1.
        -15    1    1    2    0    0  0.21515205373E+01  0.75804182856E+01  0.49928518997E+02  0.50577727511E+02  0.17770000000E+01 0. -1.
         15    1    1    2    0    0  0.35431162846E+01 -0.41092652410E+01  0.10692267535E+03  0.10707500160E+03  0.17770000000E+01 0.  1.
</event>
<event>
 6    1  0.4028964E-003  0.5022336E+03  0.7546771E-02  0.9394826E-01
        -11   -1    0    0    0    0  0.00000000000E+00  0.00000000000E+00  0.50000000000E+03  0.50000000000E+03  0.00000000000E+00 0. -1.
         11   -1    0    0    0    0 -0.00000000000E+00 -0.00000000000E+00 -0.50000000000E+03  0.50000000000E+03  0.00000000000E+00 0.  1.
        -11    1    1    2    0    0  0.44059305490E+01  0.18333560902E+01  0.19107749110E+03  0.19113707392E+03  0.00000000000E+00 0. -1.
         11    1    1    2    0    0 -0.10131583562E+01 -0.79595458701E+01 -0.49770172076E+03  0.49776639471E+03  0.00000000000E+00 0.  1.
        -15    1    1    2    0    0 -0.30435376689E+01 -0.17995960772E+02  0.23033942765E+03  0.23106823101E+03  0.17770000000E+01 0. -1.
         15    1    1    2    0    0 -0.34923452387E+00  0.24122150552E+02  0.76284802006E+02  0.80028300357E+02  0.17770000000E+01 0.  1.
</event>
<event>
 6    1  0.4028964E-003  0.5005406E+03  0.7546771E-02  0.9398601E-01
        -11   -1    0    0    0    0  0.00000000000E+00  0.00000000000E+00  0.50000000000E+03  0.50000000000E+03  0.00000000000E+00 0. -1.
         11   -1    0    0    0    0 -0.00000000000E+00 -0.00000000000E+00 -0.50000000000E+03  0.50000000000E+03  0.00000000000E+00 0. -1.
        -11    1    1    2    0    0 -0.21519070632E+01  0.88191010907E+01  0.49937688659E+03  0.49945938985E+03  0.00000000000E+00 0. -1.
         11    1    1    2    0    0 -0.28088989729E+01  0.34208157420E+01 -0.26407713752E+03  0.26411422993E+03  0.00000000000E+00 0. -1.
        -15    1    1    2    0    0 -0.15263350760E+01 -0.14055660536E+02 -0.10797962745E+03  0.10891578841E+03  0.17770000000E+01 0.  1.
         15    1    1    2    0    0  0.64871411120E+01  0.18157437038E+01 -0.12732012162E+03  0.12751059180E+03  0.17770000000E+01 0. -1.
</event>
<event>
 6    1  0.4028964E-003  0.5003521E+03  0.7546771E-02  0.9399022E-01
        -11   -1    0    0    0    0  0.00000000000E+00  0.00000000000E+00  0.50000000000E+03  0.50000000000E+03  0.00000000000E+00 0. -1.
         11   -1    0    0    0    0 -0.00000000000E+00 -0.00000000000E+00 -0.50000000000E+03  0.50000000000E+03  0.00000000000E+00 0. -1.
        -11    1    1    2    0    0  0.40812401900E+01 -0.58227213984E+01  0.16810691221E+03  0.16825722730E+03  0.00000000000E+00 0. -1.
         11    1    1    2    0    0  0.61823596719E+01 -0.48875125437E+01 -0.49958574164E+03  0.49964789863E+03  0.00000000000E+00 0. -1.
        -15    1    1    2    0    0 -0.91181971048E+01  0.10619771857E+02  0.32439583395E+03  0.32470253446E+03  0.17770000000E+01 0. -1.
         15    1    1    2    0    0 -0.11454027571E+01  0.90462084806E-01  0.70829954868E+01  0.73923396114E+01  0.17770000000E+01 0. -1.
</event>
<event>
 6    1  0.4028964E-003  0.5019950E+03  0.7546771E-02  0.9395357E-01
        -11   -1    0    0    0    0  0.00000000000E+00  0.00000000000E+00  0.50000000000E+03  0.50000000000E+03  0.00000000000E+00 0.  1.
         11   -1    0    0    0    0 -0.00000000000E+00 -0.00000000000E+00 -0.50000000000E+03  0.50000000000E+03  0.00000000000E+00 0. -1.
        -11    1    1    2    0    0  0.35547731324E+02 -0.20844479034E+02  0.49629712323E+03  0.49800498797E+03  0.00000000000E+00 0.  1.
         11    1    1    2    0    0 -0.41856613458E+01  0.52684578297E+00 -0.27049470033E+03  0.27052759607E+03  0.00000000000E+00 0. -1.
        -15    1    1    2    0    0 -0.24032962850E+02  0.21524856478E+02 -0.21858137340E+03  0.22095673168E+03  0.17770000000E+01 0. -1.
         15    1    1    2    0    0 -0.73291071280E+01 -0.12072232276E+01 -0.72210495072E+01  0.10510684288E+02  0.17770000000E+01 0.  1.
</event>
<event>
 6    1  0.4028964E-003  0.5095850E+03  0.7546771E-02  0.9378614E-01
        -11   -1    0    0    0    0  0.00000000000E+00  0.00000000000E+00  0.50000000000E+03  0.50000000000E+03  0.00000000000E+00 0. -1.
         11   -1    0    0    0    0 -0.00000000000E+00 -0.00000000000E+00 -0.50000000000E+03  0.50000000000E+03  0.00000000000E+00 0. -1.
        -11    1    1    2    0    0  0.64394351371E+01 -0.62794810551E+01  0.30379658921E+03  0.30392970540E+03  0.00000000000E+00 0. -1.
         11    1    1    2    0    0  0.41886036394E+00  0.11575369018E+02 -0.49027819719E+03  0.49041500309E+03  0.00000000000E+00 0. -1.
        -15    1    1    2    0    0  0.38160628545E+01  0.12239672786E+02  0.18450117344E+03  0.18495462324E+03  0.17770000000E+01 0. -1.
         15    1    1    2    0    0 -0.10674358356E+02 -0.17535560749E+02  0.19804345346E+01  0.20700668275E+02  0.17770000000E+01 0.  1.
</event>
<event>
 6    1  0.4028964E-003  0.5093111E+03  0.7546771E-02  0.9379213E-01
        -11   -1    0    0    0    0  0.00000000000E+00  0.00000000000E+00  0.50000000000E+03  0.50000000000E+03  0.00000000000E+00 0.  1.
         11   -1    0    0    0    0 -0.00000000000E+00 -0.00000000000E+00 -0.50000000000E+03  0.50000000000E+03  0.00000000000E+00 0.  1.
        -11    1    1    2    0    0  0.13667357372E+02  0.35669132378E+01  0.48569539794E+03  0.48590075026E+03  0.00000000000E+00 0.  1.
         11    1    1    2    0    0 -0.79846530299E+01  0.34084985606E+00 -0.49062376863E+03  0.49068885580E+03  0.00000000000E+00 0.  1.
        -15    1    1    2    0    0 -0.71685353617E+01  0.51459587215E+01 -0.45616940954E+01  0.10091361277E+02  0.17770000000E+01 0. -1.
         15    1    1    2    0    0  0.14858310196E+01 -0.90537218154E+01  0.94900647862E+01  0.13319032667E+02  0.17770000000E+01 0.  1.
</event>
<event>
 6    1  0.4028964E-003  0.4788315E+03  0.7546771E-02  0.9448463E-01
        -11   -1    0    0    0    0  0.00000000000E+00  0.00000000000E+00  0.50000000000E+03  0.50000000000E+03  0.00000000000E+00 0.  1.
         11   -1    0    0    0    0 -0.00000000000E+00 -0.00000000000E+00 -0.50000000000E+03  0.50000000000E+03  0.00000000000E+00 0. -1.
        -11    1    1    2    0    0  0.75931927032E-03 -0.70923144383E+01  0.47646242645E+03  0.47651520935E+03  0.00000000000E+00 0.  1.
         11    1    1    2    0    0  0.13325829247E+02 -0.19791138152E+02 -0.48103724563E+03  0.48162858985E+03  0.00000000000E+00 0. -1.
        -15    1    1    2    0    0 -0.11174483710E+02  0.28107832501E+02 -0.59678033647E+01  0.30881899878E+02  0.17770000000E+01 0.  1.
         15    1    1    2    0    0 -0.21521048564E+01 -0.12243799107E+01  0.10542622553E+02  0.10974300924E+02  0.17770000000E+01 0. -1.
</event>
<event>
 6    1  0.7019752E-003  0.5000880E+03  0.7546771E-02  0.9399613E-01
        -11   -1    0    0    0    0  0.00000000000E+00  0.00000000000E+00  0.50000000000E+03  0.50000000000E+03  0.00000000000E+00 0. -1.
         11   -1    0    0    0    0 -0.00000000000E+00 -0.00000000000E+00 -0.50000000000E+03  0.50000000000E+03  0.00000000000E+00 0.  1.
        -11    1    1    2    0    0  0.40373959453E+01  0.14326560603E+02  0.49969033356E+03  0.49991197261E+03  0.00000000000E+00 0. -1.
         11    1    1    2    0    0  0.63766922610E+00  0.25606001290E+00 -0.38144742902E+02  0.38150931835E+02  0.00000000000E+00 0.  1.
        -15    1    1    2    0    0 -0.37879312528E+01 -0.15999643587E+02 -0.39188815546E+03  0.39223694514E+03  0.17770000000E+01 0.  1.
         15    1    1    2    0    0 -0.88713391863E+00  0.14170229712E+01 -0.69657435198E+02  0.69700150416E+02  0.17770000000E+01 0.  1.
</event>
<event>
 6    1  0.4028964E-003  0.5075242E+03  0.7546771E-02  0.9383129E-01
        -11   -1    0    0    0    0  0.00000000000E+00  0.00000000000E+00  0.50000000000E+03  0.50000000000E+03  0.00000000000E+00 0. -1.
         11   -1    0    0    0    0 -0.00000000000E+00 -0.00000000000E+00 -0.50000000000E+03  0.50000000000E+03  0.00000000000E+00 0.  1.
        -11    1    1    2    0    0  0.11768158989E+02  0.83718731372E+01  0.47295675489E+03  0.47317720763E+03  0.00000000000E+00 0. -1.
         11    1    1    2    0    0  0.80970351510E+01 -0.11228104903E+02 -0.49228120272E+03  0.49247580130E+03  0.00000000000E+00 0.  1.
        -15    1    1    2    0    0 -0.19033257595E+02 -0.53769549291E+01  0.14660317272E+02  0.24683175859E+02  0.17770000000E+01 0. -1.
         15    1    1    2    0    0 -0.83193654585E+00  0.82331866951E+01  0.46641305595E+01  0.96638152118E+01  0.17770000000E+01 0.  1.
</event>
<event>
 6    1  0.4028964E-003  0.5012973E+03  0.7546771E-02  0.9396912E-01
        -11   -1    0    0    0    0  0.00000000000E+00  0.00000000000E+00  0.50000000000E+03  0.50000000000E+03  0.00000000000E+00 0. -1.
         11   -1    0    0    0    0 -0.00000000000E+00 -0.00000000000E+00 -0.50000000000E+03  0.50000000000E+03  0.00000000000E+00 0. -1.
        -11    1    1    2    0    0  0.61080926543E+01 -0.39646545439E+01  0.44704421514E+03  0.44710351997E+03  0.00000000000E+00 0. -1.
         11    1    1    2    0    0  0.37873884485E+01 -0.55843388511E+01 -0.49865704007E+03  0.49870268975E+03  0.00000000000E+00 0. -1.
        -15    1    1    2    0    0 -0.58254062254E+01  0.10117744955E+02  0.32980544871E+02  0.35031103174E+02  0.17770000000E+01 0. -1.
         15    1    1    2    0    0 -0.40700748774E+01 -0.56875155966E+00  0.18632280058E+02  0.19162687103E+02  0.17770000000E+01 0.  1.
</event>
<event>
 6    1  0.4028964E-003  0.5106013E+03  0.7546771E-02  0.9376396E-01
        -11   -1    0    0    0    0  0.00000000000E+00  0.00000000000E+00  0.50000000000E+03  0.50000000000E+03  0.00000000000E+00 0.  1.
         11   -1    0    0    0    0 -0.00000000000E+00 -0.00000000000E+00 -0.50000000000E+03  0.50000000000E+03  0.00000000000E+00 0. -1.
        -11    1    1    2    0    0 -0.83165901820E+01 -0.72434727678E+00  0.48932744592E+03  0.48939865108E+03  0.00000000000E+00 0.  1.
         11    1    1    2    0    0  0.15004287102E+02 -0.12460046323E+02 -0.34875512022E+03  0.34930003616E+03  0.00000000000E+00 0. -1.
        -15    1    1    2    0    0 -0.41476058879E+02  0.31326579223E+01 -0.60927814052E+02  0.73793178953E+02  0.17770000000E+01 0.  1.
         15    1    1    2    0    0  0.34788361959E+02  0.10051735677E+02 -0.79644511647E+02  0.87508133807E+02  0.17770000000E+01 0. -1.
</event>
<event>
 6    1  0.4028964E-003  0.5082712E+03  0.7546771E-02  0.9381490E-01
        -11   -1    0    0    0    0  0.00000000000E+00  0.00000000000E+00  0.50000000000E+03  0.50000000000E+03  0.00000000000E+00 0.  1.
         11   -1    0    0    0    0 -0.00000000000E+00 -0.00000000000E+00 -0.50000000000E+03  0.50000000000E+03  0.00000000000E+00 0. -1.
        -11    1    1    2    0    0 -0.52232958777E+00 -0.34280028219E+01  0.67750712837E+02  0.67839392107E+02  0.00000000000E+00 0.  1.
         11    1    1    2    0    0  0.64005715375E+01  0.29697822987E+01 -0.49167816801E+03  0.49172879498E+03  0.00000000000E+00 0. -1.
        -15    1    1    2    0    0  0.13815851466E+01  0.84154082120E+00 -0.80441316358E+01  0.83954006006E+01  0.17770000000E+01 0. -1.
         15    1    1    2    0    0 -0.72598270963E+01 -0.38332029800E+00  0.43197158681E+03  0.43203641231E+03  0.17770000000E+01 0.  1.
</event>
<event>
 6    1  0.4028964E-003  0.5022626E+03  0.7546771E-02  0.9394761E-01
        -11   -1    0    0    0    0  0.00000000000E+00  0.00000000000E+00  0.50000000000E+03  0.50000000000E+03  0.00000000000E+00 0.  1.
         11   -1    0    0    0    0 -0.00000000000E+00 -0.00000000000E+00 -0.50000000000E+03  0.50000000000E+03  0.00000000000E+00 0. -1.
        -11    1    1    2    0    0 -0.94654877070E+01  0.39549371529E+01  0.44250586070E+03  0.44262475500E+03  0.00000000000E+00 0.  1.
         11    1    1    2    0    0 -0.14388793809E+01  0.74328069103E+01 -0.49767982071E+03  0.49773740158E+03  0.00000000000E+00 0. -1.
        -15    1    1    2    0    0  0.30618704428E+00 -0.11234265522E+02  0.22026731147E+02  0.24791875409E+02  0.17770000000E+01 0. -1.
         15    1    1    2    0    0  0.10598180044E+02 -0.15347854164E+00  0.33147228860E+02  0.34845968002E+02  0.17770000000E+01 0.  1.
</event>
<event>
 6    1  0.4028964E-003  0.5018649E+03  0.7546771E-02  0.9395647E-01
        -11   -1    0    0    0    0  0.00000000000E+00  0.00000000000E+00  0.50000000000E+03  0.50000000000E+03  0.00000000000E+00 0.  1.
         11   -1    0    0    0    0 -0.00000000000E+00 -0.00000000000E+00 -0.50000000000E+03  0.50000000000E+03  0.00000000000E+00 0. -1.
        -11    1    1    2    0    0  0.28978008795E+01  0.64242199477E+01  0.35773319266E+03  0.35780260617E+03  0.00000000000E+00 0.  1.
         11    1    1    2    0    0 -0.13839289014E+02 -0.91179484239E+00 -0.49794201300E+03  0.49813512785E+03  0.00000000000E+00 0. -1.
        -15    1    1    2    0    0  0.90495192070E+01  0.86664969503E+01  0.25670937745E+02  0.28620914398E+02  0.17770000000E+01 0. -1.
         15    1    1    2    0    0  0.18919689277E+01 -0.14178922056E+02  0.11453788259E+03  0.11544135158E+03  0.17770000000E+01 0.  1.
</event>
<event>
 6    1  0.4028964E-003  0.4540762E+03  0.7546771E-02  0.9508871E-01
        -11   -1    0    0    0    0  0.00000000000E+00  0.00000000000E+00  0.50000000000E+03  0.50000000000E+03  0.00000000000E+00 0. -1.
         11   -1    0    0    0    0 -0.00000000000E+00 -0.00000000000E+00 -0.50000000000E+03  0.50000000000E+03  0.00000000000E+00 0. -1.
        -11    1    1    2    0    0  0.22037775950E+01 -0.51965190010E+01  0.57222052533E+02  0.57499771665E+02  0.00000000000E+00 0. -1.
         11    1    1    2    0    0  0.14002377675E+02  0.54046291038E+01 -0.46614873798E+03  0.46639031135E+03  0.00000000000E+00 0. -1.
        -15    1    1    2    0    0 -0.45416665412E+00 -0.80710668992E+01 -0.32901972732E+02  0.33927067761E+02  0.17770000000E+01 0.  1.
         15    1    1    2    0    0 -0.15751988616E+02  0.78629567965E+01  0.44182865818E+03  0.44218284923E+03  0.17770000000E+01 0. -1.
</event>
<event>
 6    1  0.4028964E-003  0.5148915E+03  0.7546771E-02  0.9367092E-01
        -11   -1    0    0    0    0  0.00000000000E+00  0.00000000000E+00  0.50000000000E+03  0.50000000000E+03  0.00000000000E+00 0. -1.
         11   -1    0    0    0    0 -0.00000000000E+00 -0.00000000000E+00 -0.50000000000E+03  0.50000000000E+03  0.00000000000E+00 0.  1.
        -11    1    1    2    0    0  0.10194912240E+02 -0.38999688209E+00  0.47057283885E+03  0.47068342333E+03  0.00000000000E+00 0. -1.
         11    1    1    2    0    0  0.11996531874E+02  0.30667015975E+01 -0.48495048317E+03  0.48510853689E+03  0.00000000000E+00 0.  1.
        -15    1    1    2    0    0 -0.15895769233E+02 -0.47057777190E+01 -0.96221796975E+01  0.19250036223E+02  0.17770000000E+01 0. -1.
         15    1    1    2    0    0 -0.62956748817E+01  0.20290730036E+01  0.23999824024E+02  0.24958003559E+02  0.17770000000E+01 0.  1.
</event>
<event>
 6    1  0.4028964E-003  0.5062417E+03  0.7546771E-02  0.9385951E-01
        -11   -1    0    0    0    0  0.00000000000E+00  0.00000000000E+00  0.50000000000E+03  0.50000000000E+03  0.00000000000E+00 0.  1.
         11   -1    0    0    0    0 -0.00000000000E+00 -0.00000000000E+00 -0.50000000000E+03  0.50000000000E+03  0.00000000000E+00 0. -1.
        -11    1    1    2    0    0 -0.13201210731E+02  0.18255376753E+02  0.11383805610E+03  0.11604582612E+03  0.00000000000E+00 0.  1.
         11    1    1    2    0    0  0.13793437377E+02 -0.38266776931E+02 -0.49207996271E+03  0.49375833647E+03  0.00000000000E+00 0. -1.
        -15    1    1    2    0    0 -0.21196905719E+02 -0.30974883908E+02  0.20536955559E+03  0.20877874493E+03  0.17770000000E+01 0.  1.
         15    1    1    2    0    0  0.20604679073E+02  0.50986284086E+02  0.17287235103E+03  0.18141709248E+03  0.17770000000E+01 0. -1.
</event>
<event>
 6    1  0.4028964E-003  0.5008329E+03  0.7546771E-02  0.9397948E-01
        -11   -1    0    0    0    0  0.00000000000E+00  0.00000000000E+00  0.50000000000E+03  0.50000000000E+03  0.00000000000E+00 0.  1.
         11   -1    0    0    0    0 -0.00000000000E+00 -0.00000000000E+00 -0.50000000000E+03  0.50000000000E+03  0.00000000000E+00 0.  1.
        -11    1    1    2    0    0 -0.96811100345E+01  0.27562277379E+00  0.43964190668E+03  0.43974857131E+03  0.00000000000E+00 0.  1.
         11    1    1    2    0    0  0.52545486066E+01  0.50441647834E+01 -0.49911393786E+03  0.49916708309E+03  0.00000000000E+00 0.  1.
        -15    1    1    2    0    0  0.61339612647E+01 -0.12167402122E+01  0.50488792248E+02  0.50905616677E+02  0.17770000000E+01 0. -1.
         15    1    1    2    0    0 -0.17073998369E+01 -0.41030473450E+01  0.89832389273E+01  0.10178728916E+02  0.17770000000E+01 0.  1.
</event>
<event>
 6    1  0.4028964E-003  0.5005545E+03  0.7546771E-02  0.9398570E-01
        -11   -1    0    0    0    0  0.00000000000E+00  0.00000000000E+00  0.50000000000E+03  0.50000000000E+03  0.00000000000E+00 0.  1.
         11   -1    0    0    0    0 -0.00000000000E+00 -0.00000000000E+00 -0.50000000000E+03  0.50000000000E+03  0.00000000000E+00 0. -1.
        -11    1    1    2    0    0 -0.12784119117E+02  0.13896181382E+02  0.49908844325E+03  0.49944550428E+03  0.00000000000E+00 0.  1.
         11    1    1    2    0    0 -0.10230064618E+01  0.28684630296E+01 -0.17162623189E+03  0.17165324960E+03  0.00000000000E+00 0. -1.
        -15    1    1    2    0    0  0.12660303773E+02 -0.21671261305E+02 -0.25320971899E+03  0.25445676721E+03  0.17770000000E+01 0.  1.
         15    1    1    2    0    0  0.11468218062E+01  0.49066168934E+01 -0.74252492366E+02  0.74444478917E+02  0.17770000000E+01 0. -1.
</event>
<event>
 6    1  0.4028964E-003  0.5004603E+03  0.7546771E-02  0.9398780E-01
        -11   -1    0    0    0    0  0.00000000000E+00  0.00000000000E+00  0.50000000000E+03  0.50000000000E+03  0.00000000000E+00 0. -1.
         11   -1    0    0    0    0 -0.00000000000E+00 -0.00000000000E+00 -0.50000000000E+03  0.50000000000E+03  0.00000000000E+00 0.  1.
        -11    1    1    2    0    0 -0.50886515533E+01 -0.81169903999E+00  0.31587214271E+03  0.31591417153E+03  0.00000000000E+00 0. -1.
         11    1    1    2    0    0 -0.41962164989E+01 -0.61059187553E+01 -0.49948476832E+03  0.49953971239E+03  0.00000000000E+00 0.  1.
        -15    1    1    2    0    0  0.98690369606E+01  0.20906221677E+01  0.16194621294E+03  0.16226984380E+03  0.17770000000E+01 0. -1.
         15    1    1    2    0    0 -0.58416890849E+00  0.48269956276E+01  0.21666412665E+02  0.22276272284E+02  0.17770000000E+01 0.  1.
</event>
<event>
 6    1  0.4028964E-003  0.5000551E+03  0.7546771E-02  0.9399686E-01
        -11   -1    0    0    0    0  0.00000000000E+00  0.00000000000E+00  0.50000000000E+03  0.50000000000E+03  0.00000000000E+00 0.  1.
         11   -1    0    0    0    0 -0.00000000000E+00 -0.00000000000E+00 -0.50000000000E+03  0.50000000000E+03  0.00000000000E+00 0.  1.
        -11    1    1    2    0    0 -0.23143074859E+01  0.35347133303E-01  0.60284005044E+02  0.60328422263E+02  0.00000000000E+00 0.  1.
         11    1    1    2    0    0  0.86977430426E+01 -0.93457046342E+01 -0.49978188189E+03  0.49994491936E+03  0.00000000000E+00 0.  1.
        -15    1    1    2    0    0  0.16817498800E+00  0.14320318091E+01  0.26723952313E+02  0.26821751511E+02  0.17770000000E+01 0. -1.
         15    1    1    2    0    0 -0.65516105447E+01  0.78783256918E+01  0.41277392453E+03  0.41290490687E+03  0.17770000000E+01 0.  1.
</event>
<event>
 6    1  0.4028964E-003  0.5023895E+03  0.7546771E-02  0.9394479E-01
        -11   -1    0    0    0    0  0.00000000000E+00  0.00000000000E+00  0.50000000000E+03  0.50000000000E+03  0.00000000000E+00 0. -1.
         11   -1    0    0    0    0 -0.00000000000E+00 -0.00000000000E+00 -0.50000000000E+03  0.50000000000E+03  0.00000000000E+00 0.  1.
        -11    1    1    2    0    0  0.61372221348E+01 -0.75987672337E+00  0.39577613460E+03  0.39582444547E+03  0.00000000000E+00 0. -1.
         11    1    1    2    0    0 -0.54910060155E+01  0.86550080789E+01 -0.49750490724E+03  0.49761048325E+03  0.00000000000E+00 0.  1.
        -15    1    1    2    0    0 -0.19457508724E+00 -0.19420410831E+02  0.53481095098E+02  0.56926052719E+02  0.17770000000E+01 0. -1.
         15    1    1    2    0    0 -0.45164103208E+00  0.11525279476E+02  0.48247677544E+02  0.49639018564E+02  0.17770000000E+01 0.  1.
</event>
<event>
 6    1  0.4028964E-003  0.5005151E+03  0.7546771E-02  0.9398658E-01
        -11   -1    0    0    0    0  0.00000000000E+00  0.00000000000E+00  0.50000000000E+03  0.50000000000E+03  0.00000000000E+00 0. -1.
         11   -1    0    0    0    0 -0.00000000000E+00 -0.00000000000E+00 -0.50000000000E+03  0.50000000000E+03  0.00000000000E+00 0.  1.
        -11    1    1    2    0    0  0.41787111730E+01 -0.74194762710E+01  0.49941232017E+03  0.49948491048E+03  0.00000000000E+00 0. -1.
         11    1    1    2    0    0 -0.50405672621E+01  0.53127907202E+00 -0.15669290205E+03  0.15677485490E+03  0.00000000000E+00 0.  1.
        -15    1    1    2    0    0 -0.70478772830E+00  0.62011525353E+00 -0.16371542419E+01  0.25921557981E+01  0.17770000000E+01 0.  1.
         15    1    1    2    0    0  0.15666438175E+01  0.62680819455E+01 -0.34108226388E+03  0.34114807882E+03  0.17770000000E+01 0.  1.
</event>
<event>
 6    1  0.4028964E-003  0.5008963E+03  0.7546771E-02  0.9397806E-01
        -11   -1    0    0    0    0  0.00000000000E+00  0.00000000000E+00  0.50000000000E+03  0.50000000000E+03  0.00000000000E+00 0.  1.
         11   -1    0    0    0    0 -0.00000000000E+00 -0.00000000000E+00 -0.50000000000E+03  0.50000000000E+03  0.00000000000E+00 0.  1.
        -11    1    1    2    0    0 -0.53312195173E+01 -0.46221316498E+01  0.49905378880E+03  0.49910366671E+03  0.00000000000E+00 0.  1.
         11    1    1    2    0    0  0.44830797212E+01  0.53345770708E+01 -0.27276979775E+03  0.27285878817E+03  0.00000000000E+00 0.  1.
        -15    1    1    2    0    0  0.26383902422E+01 -0.15562931488E+01 -0.22509700348E+03  0.22512485837E+03  0.17770000000E+01 0. -1.
         15    1    1    2    0    0 -0.17902504462E+01  0.84384772778E+00 -0.11869875767E+01  0.29126867588E+01  0.17770000000E+01 0.  1.
</event>
<event>
 6    1  0.4028964E-003  0.5015824E+03  0.7546771E-02  0.9396276E-01
        -11   -1    0    0    0    0  0.00000000000E+00  0.00000000000E+00  0.50000000000E+03  0.50000000000E+03  0.00000000000E+00 0. -1.
         11   -1    0    0    0    0 -0.00000000000E+00 -0.00000000000E+00 -0.50000000000E+03  0.50000000000E+03  0.00000000000E+00 0.  1.
        -11    1    1    2    0    0  0.11096499222E+02  0.38643606357E+01  0.49827902925E+03  0.49841755242E+03  0.00000000000E+00 0. -1.
         11    1    1    2    0    0  0.11987710769E+01 -0.71722491722E+01 -0.46808465421E+03  0.46814113440E+03  0.00000000000E+00 0.  1.
        -15    1    1    2    0    0 -0.19392842874E+01  0.27394358440E+01 -0.93384580231E+01  0.10081163600E+02  0.17770000000E+01 0.  1.
         15    1    1    2    0    0 -0.10355986011E+02  0.56845269243E+00 -0.20855917018E+02  0.23360149580E+02  0.17770000000E+01 0.  1.
</event>
<event>
 6    1  0.4028964E-003  0.5025069E+03  0.7546771E-02  0.9394218E-01
        -11   -1    0    0    0    0  0.00000000000E+00  0.00000000000E+00  0.50000000000E+03  0.50000000000E+03  0.00000000000E+00 0.  1.
         11   -1    0    0    0    0 -0.00000000000E+00 -0.00000000000E+00 -0.50000000000E+03  0.50000000000E+03  0.00000000000E+00 0. -1.
        -11    1    1    2    0    0  0.75136228148E+01  0.37273632198E+00  0.46722749739E+03  0.46728805654E+03  0.00000000000E+00 0.  1.
         11    1    1    2    0    0  0.55185723686E+01 -0.83308691962E+01 -0.49739274168E+03  0.49749311301E+03  0.00000000000E+00 0. -1.
        -15    1    1    2    0    0 -0.41627197028E+01  0.26800345575E+00  0.26509206787E+01  0.52521586630E+01  0.17770000000E+01 0. -1.
         15    1    1    2    0    0 -0.88694754806E+01  0.76901294185E+01  0.27514323604E+02  0.29966671790E+02  0.17770000000E+01 0.  1.
</event>
<event>
 6    1  0.4028964E-003  0.5050878E+03  0.7546771E-02  0.9388497E-01
        -11   -1    0    0    0    0  0.00000000000E+00  0.00000000000E+00  0.50000000000E+03  0.50000000000E+03  0.00000000000E+00 0. -1.
         11   -1    0    0    0    0 -0.00000000000E+00 -0.00000000000E+00 -0.50000000000E+03  0.50000000000E+03  0.00000000000E+00 0.  1.
        -11    1    1    2    0    0  0.85482602784E+01  0.21654683571E+01  0.49483365979E+03  0.49491222744E+03  0.00000000000E+00 0. -1.
         11    1    1    2    0    0  0.46625775018E+01 -0.13047164575E+01 -0.32030514934E+03  0.32034174035E+03  0.00000000000E+00 0.  1.
        -15    1    1    2    0    0 -0.34072967450E+01  0.17662705844E+01 -0.17439001951E+03  0.17444129677E+03  0.17770000000E+01 0. -1.
         15    1    1    2    0    0 -0.98035410352E+01 -0.26270224840E+01 -0.13849093770E+00  0.10304735450E+02  0.17770000000E+01 0. -1.
</event>
<event>
 6    1  0.4028964E-003  0.5016560E+03  0.7546771E-02  0.9396112E-01
        -11   -1    0    0    0    0  0.00000000000E+00  0.00000000000E+00  0.50000000000E+03  0.50000000000E+03  0.00000000000E+00 0. -1.
         11   -1    0    0    0    0 -0.00000000000E+00 -0.00000000000E+00 -0.50000000000E+03  0.50000000000E+03  0.00000000000E+00 0.  1.
        -11    1    1    2    0    0 -0.47329672133E+01 -0.14344176228E+02  0.49811505861E+03  0.49834402573E+03  0.00000000000E+00 0. -1.
         11    1    1    2    0    0 -0.97227712456E+01 -0.43760784029E+01 -0.36865739097E+03  0.36881154301E+03  0.00000000000E+00 0.  1.
        -15    1    1    2    0    0  0.11974288304E+02  0.14318727798E+02 -0.53358905648E+02  0.56557405236E+02  0.17770000000E+01 0. -1.
         15    1    1    2    0    0  0.24814501544E+01  0.44015268328E+01 -0.76098761995E+02  0.76287026024E+02  0.17770000000E+01 0.  1.
</event>
<event>
 6    1  0.4028964E-003  0.4614218E+03  0.7546771E-02  0.9490526E-01
        -11   -1    0    0    0    0  0.00000000000E+00  0.00000000000E+00  0.50000000000E+03  0.50000000000E+03  0.00000000000E+00 0.  1.
         11   -1    0    0    0    0 -0.00000000000E+00 -0.00000000000E+00 -0.50000000000E+03  0.50000000000E+03  0.00000000000E+00 0.  1.
        -11    1    1    2    0    0 -0.25457057593E+02 -0.16894227976E+02  0.46318699609E+03  0.46419356961E+03  0.00000000000E+00 0.  1.
         11    1    1    2    0    0 -0.12634725215E+02 -0.38625533456E+02 -0.45931665296E+03  0.46111100160E+03  0.00000000000E+00 0.  1.
        -15    1    1    2    0    0  0.28523923590E+02  0.15262875157E+02  0.36408706557E+01  0.32603423796E+02  0.17770000000E+01 0. -1.
         15    1    1    2    0    0  0.95678592169E+01  0.40256886274E+02 -0.75112137885E+01  0.42092004990E+02  0.17770000000E+01 0.  1.
</event>
<event>
 6    1  0.4028964E-003  0.5033125E+03  0.7546771E-02  0.9392428E-01
        -11   -1    0    0    0    0  0.00000000000E+00  0.00000000000E+00  0.50000000000E+03  0.50000000000E+03  0.00000000000E+00 0. -1.
         11   -1    0    0    0    0 -0.00000000000E+00 -0.00000000000E+00 -0.50000000000E+03  0.50000000000E+03  0.00000000000E+00 0.  1.
        -11    1    1    2    0    0  0.69361485681E+01 -0.57550041061E+01  0.26379662258E+03  0.26395054141E+03  0.00000000000E+00 0. -1.
         11    1    1    2    0    0  0.60549815761E+01  0.70791439884E+01 -0.49660013909E+03  0.49668750258E+03  0.00000000000E+00 0.  1.
        -15    1    1    2    0    0 -0.83256367628E+01  0.11439638322E+02  0.22045004277E+03  0.22091075266E+03  0.17770000000E+01 0. -1.
         15    1    1    2    0    0 -0.46654933814E+01 -0.12763778205E+02  0.12353473734E+02  0.18451203344E+02  0.17770000000E+01 0. -1.
</event>
<event>
 6    1  0.4028964E-003  0.5044976E+03  0.7546771E-02  0.9389802E-01
        -11   -1    0    0    0    0  0.00000000000E+00  0.00000000000E+00  0.50000000000E+03  0.50000000000E+03  0.00000000000E+00 0.  1.
         11   -1    0    0    0    0 -0.00000000000E+00 -0.00000000000E+00 -0.50000000000E+03  0.50000000000E+03  0.00000000000E+00 0. -1.
        -11    1    1    2    0    0 -0.16249658893E+02  0.75190076894E+01  0.31686177045E+03  0.31736724542E+03  0.00000000000E+00 0.  1.
         11    1    1    2    0    0 -0.16224081052E+02 -0.29103105479E+02 -0.49438081606E+03  0.49550237421E+03  0.00000000000E+00 0. -1.
        -15    1    1    2    0    0  0.11106492350E+02 -0.91356908879E+00  0.12912067974E+03  0.12961287145E+03  0.17770000000E+01 0.  1.
         15    1    1    2    0    0  0.21367247595E+02  0.22497666878E+02  0.48398365873E+02  0.57517508925E+02  0.17770000000E+01 0. -1.
</event>
<event>
 6    1  0.4028964E-003  0.5015878E+03  0.7546771E-02  0.9396264E-01
        -11   -1    0    0    0    0  0.00000000000E+00  0.00000000000E+00  0.50000000000E+03  0.50000000000E+03  0.00000000000E+00 0. -1.
         11   -1    0    0    0    0 -0.00000000000E+00 -0.00000000000E+00 -0.50000000000E+03  0.50000000000E+03  0.00000000000E+00 0.  1.
        -11    1    1    2    0    0  0.78381618039E+01 -0.34858038799E+01  0.42742417042E+03  0.42751024440E+03  0.00000000000E+00 0. -1.
         11    1    1    2    0    0 -0.63061533644E+01  0.15519428111E+02 -0.49813062820E+03  0.49841222193E+03  0.00000000000E+00 0.  1.
        -15    1    1    2    0    0 -0.66824366249E+01 -0.10381541371E+01  0.45595964242E+02  0.46128975790E+02  0.17770000000E+01 0. -1.
         15    1    1    2    0    0  0.51504281854E+01 -0.10995470094E+02  0.25110493540E+02  0.27948557886E+02  0.17770000000E+01 0.  1.
</event>
<event>
 6    1  0.4028964E-003  0.5294154E+03  0.7546771E-02  0.9336294E-01
        -11   -1    0    0    0    0  0.00000000000E+00  0.00000000000E+00  0.50000000000E+03  0.50000000000E+03  0.00000000000E+00 0. -1.
         11   -1    0    0    0    0 -0.00000000000E+00 -0.00000000000E+00 -0.50000000000E+03  0.50000000000E+03  0.00000000000E+00 0.  1.
        -11    1    1    2    0    0 -0.48345725637E+00  0.82842259527E+01  0.47051139983E+03  0.47058457210E+03  0.00000000000E+00 0. -1.
         11    1    1    2    0    0 -0.10710547487E+01 -0.85098027450E+01 -0.15110889613E+03  0.15135211393E+03  0.00000000000E+00 0.  1.
        -15    1    1    2    0    0 -0.13917942822E+02 -0.10556397303E+01  0.27456798358E+02  0.30852180032E+02  0.17770000000E+01 0. -1.
         15    1    1    2    0    0  0.15472454827E+02  0.12812165225E+01 -0.34685930206E+03  0.34721113394E+03  0.17770000000E+01 0.  1.
</event>
<event>
 6    1  0.4028964E-003  0.4728105E+03  0.7546771E-02  0.9462792E-01
        -11   -1    0    0    0    0  0.00000000000E+00  0.00000000000E+00  0.50000000000E+03  0.50000000000E+03  0.00000000000E+00 0.  1.
         11   -1    0    0    0    0 -0.00000000000E+00 -0.00000000000E+00 -0.50000000000E+03  0.50000000000E+03  0.00000000000E+00 0. -1.
        -11    1    1    2    0    0 -0.52650032734E+01  0.43199675883E+01  0.47568857316E+03  0.47573732355E+03  0.00000000000E+00 0.  1.
         11    1    1    2    0    0 -0.28137683761E+02 -0.47725875790E+01 -0.46962650339E+03  0.47049288999E+03  0.00000000000E+00 0. -1.
        -15    1    1    2    0    0  0.31741718625E+02 -0.16451740378E+02 -0.46994224391E+00  0.35799092690E+02  0.17770000000E+01 0.  1.
         15    1    1    2    0    0  0.16609684098E+01  0.16904360369E+02 -0.55921275259E+01  0.17970693776E+02  0.17770000000E+01 0. -1.
</event>
<event>
 6    1  0.4028964E-003  0.5007443E+03  0.7546771E-02  0.9398146E-01
        -11   -1    0    0    0    0  0.00000000000E+00  0.00000000000E+00  0.50000000000E+03  0.50000000000E+03  0.00000000000E+00 0.  1.
         11   -1    0    0    0    0 -0.00000000000E+00 -0.00000000000E+00 -0.50000000000E+03  0.50000000000E+03  0.00000000000E+00 0. -1.
        -11    1    1    2    0    0 -0.96508493249E+01  0.17252208041E+01  0.49915944342E+03  0.49925571127E+03  0.00000000000E+00 0.  1.
         11    1    1    2    0    0 -0.48269768797E+01 -0.42109404113E+01 -0.35584181153E+03  0.35589946131E+03  0.00000000000E+00 0. -1.
        -15    1    1    2    0    0  0.55394620012E+01  0.69914947016E+01 -0.39645548023E+02  0.40675469813E+02  0.17770000000E+01 0. -1.
         15    1    1    2    0    0  0.89383642034E+01 -0.45057750944E+01 -0.10367208386E+03  0.10416935761E+03  0.17770000000E+01 0.  1.
</event>
<event>
 6    1  0.4028964E-003  0.5026652E+03  0.7546771E-02  0.9393866E-01
        -11   -1    0    0    0    0  0.00000000000E+00  0.00000000000E+00  0.50000000000E+03  0.50000000000E+03  0.00000000000E+00 0. -1.
         11   -1    0    0    0    0 -0.00000000000E+00 -0.00000000000E+00 -0.50000000000E+03  0.50000000000E+03  0.00000000000E+00 0.  1.
        -11    1    1    2    0    0  0.16249881673E+01 -0.54668840190E+01  0.37158496479E+03  0.37162873068E+03  0.00000000000E+00 0. -1.
         11    1    1    2    0    0  0.98206040658E+01 -0.75010638634E+00 -0.49723723659E+03  0.49733477294E+03  0.00000000000E+00 0.  1.
        -15    1    1    2    0    0 -0.11384063524E+02  0.20067671759E+02  0.74361049788E+02  0.77878314097E+02  0.17770000000E+01 0.  1.
         15    1    1    2    0    0 -0.61528709391E-01 -0.13850681353E+02  0.51291222012E+02  0.53158182288E+02  0.17770000000E+01 0. -1.
</event>
<event>
 6    1  0.4028964E-003  0.5061426E+03  0.7546771E-02  0.9386169E-01
        -11   -1    0    0    0    0  0.00000000000E+00  0.00000000000E+00  0.50000000000E+03  0.50000000000E+03  0.00000000000E+00 0.  1.
         11   -1    0    0    0    0 -0.00000000000E+00 -0.00000000000E+00 -0.50000000000E+03  0.50000000000E+03  0.00000000000E+00 0. -1.
        -11    1    1    2    0    0 -0.19314289303E+01  0.12650394490E+02  0.44166845062E+03  0.44185380293E+03  0.00000000000E+00 0.  1.
         11    1    1    2    0    0  0.82884753166E+01  0.70474363548E+01 -0.49373751049E+03  0.49385736245E+03  0.00000000000E+00 0. -1.
        -15    1    1    2    0    0  0.12070335698E+02 -0.53561654236E+01  0.26206202044E+02  0.29399052136E+02  0.17770000000E+01 0.  1.
         15    1    1    2    0    0 -0.18427382085E+02 -0.14341665421E+02  0.25862857828E+02  0.34889782481E+02  0.17770000000E+01 0. -1.
</event>
<event>
 6    1  0.4028964E-003  0.5119314E+03  0.7546771E-02  0.9373501E-01
        -11   -1    0    0    0    0  0.00000000000E+00  0.00000000000E+00  0.50000000000E+03  0.50000000000E+03  0.00000000000E+00 0. -1.
         11   -1    0    0    0    0 -0.00000000000E+00 -0.00000000000E+00 -0.50000000000E+03  0.50000000000E+03  0.00000000000E+00 0.  1.
        -11    1    1    2    0    0 -0.50631863186E+01  0.74488394665E+01  0.48798545793E+03  0.48806856917E+03  0.00000000000E+00 0. -1.
         11    1    1    2    0    0  0.72647855264E+01 -0.14164022919E+02 -0.46901025314E+03  0.46928031517E+03  0.00000000000E+00 0.  1.
        -15    1    1    2    0    0 -0.52411121696E+01  0.21910898981E+02 -0.11318447118E+02  0.25274922850E+02  0.17770000000E+01 0. -1.
         15    1    1    2    0    0  0.30395129619E+01 -0.15195715528E+02 -0.76567576686E+01  0.17376192807E+02  0.17770000000E+01 0.  1.
</event>
<event>
 6    1  0.4028964E-003  0.5043728E+03  0.7546771E-02  0.9390078E-01
        -11   -1    0    0    0    0  0.00000000000E+00  0.00000000000E+00  0.50000000000E+03  0.50000000000E+03  0.00000000000E+00 0. -1.
         11   -1    0    0    0    0 -0.00000000000E+00 -0.00000000000E+00 -0.50000000000E+03  0.50000000000E+03  0.00000000000E+00 0.  1.
        -11    1    1    2    0    0  0.27466919277E+01  0.70303490983E+01  0.47867882959E+03  0.47873833356E+03  0.00000000000E+00 0. -1.
         11    1    1    2    0    0  0.88479019332E+01 -0.95458857635E+00 -0.49554733268E+03  0.49562723445E+03  0.00000000000E+00 0.  1.
        -15    1    1    2    0    0 -0.27411211668E+00 -0.40681133086E+01 -0.76100482794E+00  0.45123763908E+01  0.17770000000E+01 0. -1.
         15    1    1    2    0    0 -0.11320481744E+02 -0.20076472133E+01  0.17629507915E+02  0.21122055596E+02  0.17770000000E+01 0.  1.
</event>
<event>
 6    1  0.4028964E-003  0.4849814E+03  0.7546771E-02  0.9434057E-01
        -11   -1    0    0    0    0  0.00000000000E+00  0.00000000000E+00  0.50000000000E+03  0.50000000000E+03  0.00000000000E+00 0. -1.
         11   -1    0    0    0    0 -0.00000000000E+00 -0.00000000000E+00 -0.50000000000E+03  0.50000000000E+03  0.00000000000E+00 0.  1.
        -11    1    1    2    0    0 -0.94593948531E+01 -0.99428788720E+01  0.48434543674E+03  0.48453982611E+03  0.00000000000E+00 0. -1.
         11    1    1    2    0    0 -0.41467526123E+01  0.12369226549E+02 -0.48534668631E+03  0.48552198636E+03  0.00000000000E+00 0.  1.
        -15    1    1    2    0    0  0.13426602922E+02  0.67577811482E+01  0.90166030387E+01  0.17618119406E+02  0.17770000000E+01 0. -1.
         15    1    1    2    0    0  0.17954454376E+00 -0.91841288250E+01 -0.80153534659E+01  0.12320068129E+02  0.17770000000E+01 0.  1.
</event>
<event>
 6    1  0.4028964E-003  0.4890413E+03  0.7546771E-02  0.9424670E-01
        -11   -1    0    0    0    0  0.00000000000E+00  0.00000000000E+00  0.50000000000E+03  0.50000000000E+03  0.00000000000E+00 0. -1.
         11   -1    0    0    0    0 -0.00000000000E+00 -0.00000000000E+00 -0.50000000000E+03  0.50000000000E+03  0.00000000000E+00 0. -1.
        -11    1    1    2    0    0  0.86605461510E+01  0.42494887521E+01  0.48806082256E+03  0.48815615302E+03  0.00000000000E+00 0. -1.
         11    1    1    2    0    0  0.31034706423E+00  0.12766956141E+02 -0.48995093078E+03  0.49011733907E+03  0.00000000000E+00 0. -1.
        -15    1    1    2    0    0 -0.61822085692E+01 -0.16874250726E+02  0.31607025533E+00  0.18061496886E+02  0.17770000000E+01 0. -1.
         15    1    1    2    0    0 -0.27886846460E+01 -0.14219416704E+00  0.15740379645E+01  0.36650110163E+01  0.17770000000E+01 0.  1.
</event>
<event>
 6    1  0.4028964E-003  0.5339026E+03  0.7546771E-02  0.9326990E-01
        -11   -1    0    0    0    0  0.00000000000E+00  0.00000000000E+00  0.50000000000E+03  0.50000000000E+03  0.00000000000E+00 0. -1.
         11   -1    0    0    0    0 -0.00000000000E+00 -0.00000000000E+00 -0.50000000000E+03  0.50000000000E+03  0.00000000000E+00 0.  1.
        -11    1    1    2    0    0 -0.40345714873E+02  0.37222535927E+02  0.27336273293E+03  0.27881979421E+03  0.00000000000E+00 0. -1.
         11    1    1    2    0    0 -0.83357426606E+01 -0.45828218340E+00 -0.46602259974E+03  0.46609736976E+03  0.00000000000E+00 0.  1.
        -15    1    1    2    0    0  0.41533232753E+02 -0.37596473127E+02  0.21985922865E+03  0.22689147706E+03  0.17770000000E+01 0. -1.
         15    1    1    2    0    0  0.71482247802E+01  0.83221938321E+00 -0.27199361843E+02  0.28191358964E+02  0.17770000000E+01 0.  1.
</event>
<event>
 6    1  0.4028964E-003  0.5016896E+03  0.7546771E-02  0.9396037E-01
        -11   -1    0    0    0    0  0.00000000000E+00  0.00000000000E+00  0.50000000000E+03  0.50000000000E+03  0.00000000000E+00 0.  1.
         11   -1    0    0    0    0 -0.00000000000E+00 -0.00000000000E+00 -0.50000000000E+03  0.50000000000E+03  0.00000000000E+00 0. -1.
        -11    1    1    2    0    0  0.10662828609E+01  0.22982627244E+01  0.15428639179E+03  0.15430719252E+03  0.00000000000E+00 0.  1.
         11    1    1    2    0    0 -0.10336713401E+02  0.15527316299E+01 -0.49820074888E+03  0.49831039002E+03  0.00000000000E+00 0. -1.
        -15    1    1    2    0    0  0.18782910938E+02 -0.11807684141E+02  0.31603218784E+03  0.31681496276E+03  0.17770000000E+01 0.  1.
         15    1    1    2    0    0 -0.95124803983E+01  0.79566897867E+01  0.27882169248E+02  0.30567454697E+02  0.17770000000E+01 0. -1.
</event>
<event>
 6    1  0.4028964E-003  0.5009727E+03  0.7546771E-02  0.9397636E-01
        -11   -1    0    0    0    0  0.00000000000E+00  0.00000000000E+00  0.50000000000E+03  0.50000000000E+03  0.00000000000E+00 0. -1.
         11   -1    0    0    0    0 -0.00000000000E+00 -0.00000000000E+00 -0.50000000000E+03  0.50000000000E+03  0.00000000000E+00 0.  1.
        -11    1    1    2    0    0  0.13125745329E+02 -0.48755756651E+01  0.49883077351E+03  0.49902725079E+03  0.00000000000E+00 0. -1.
         11    1    1    2    0    0  0.21476703642E+01 -0.12792121791E+01 -0.27418359103E+02  0.27532077431E+02  0.00000000000E+00 0.  1.
        -15    1    1    2    0    0 -0.10504136468E+02  0.28381474003E-01 -0.28022976209E+02  0.29979703352E+02  0.17770000000E+01 0. -1.
         15    1    1    2    0    0 -0.47692792247E+01  0.61264063702E+01 -0.44338943820E+03  0.44346096843E+03  0.17770000000E+01 0.  1.
</event>
<event>
 6    1  0.4028964E-003  0.4855537E+03  0.7546771E-02  0.9432728E-01
        -11   -1    0    0    0    0  0.00000000000E+00  0.00000000000E+00  0.50000000000E+03  0.50000000000E+03  0.00000000000E+00 0. -1.
         11   -1    0    0    0    0 -0.00000000000E+00 -0.00000000000E+00 -0.50000000000E+03  0.50000000000E+03  0.00000000000E+00 0. -1.
        -11    1    1    2    0    0  0.12672280715E+02 -0.35296098621E+01  0.48820358274E+03  0.48838077669E+03  0.00000000000E+00 0. -1.
         11    1    1    2    0    0  0.87607659601E+01  0.65100613538E+01 -0.48285898732E+03  0.48298233255E+03  0.00000000000E+00 0. -1.
        -15    1    1    2    0    0 -0.70661665827E+01 -0.40361437391E+01  0.59576189062E+01  0.10240708886E+02  0.17770000000E+01 0. -1.
         15    1    1    2    0    0 -0.14366880092E+02  0.10556922473E+01 -0.11302214322E+02  0.18396181867E+02  0.17770000000E+01 0.  1.
</event>
<event>
 6    1  0.4028964E-003  0.5322897E+03  0.7546771E-02  0.9330323E-01
        -11   -1    0    0    0    0  0.00000000000E+00  0.00000000000E+00  0.50000000000E+03  0.50000000000E+03  0.00000000000E+00 0.  1.
         11   -1    0    0    0    0 -0.00000000000E+00 -0.00000000000E+00 -0.50000000000E+03  0.50000000000E+03  0.00000000000E+00 0.  1.
        -11    1    1    2    0    0 -0.28879069221E+02 -0.20632667204E+02  0.44286412180E+03  0.44428407350E+03  0.00000000000E+00 0.  1.
         11    1    1    2    0    0  0.99830992916E+01 -0.10080655619E+02 -0.46749504327E+03  0.46771027076E+03  0.00000000000E+00 0.  1.
        -15    1    1    2    0    0 -0.72845955663E+01  0.36337970555E+02 -0.15101469769E+02  0.40059025884E+02  0.17770000000E+01 0.  1.
         15    1    1    2    0    0  0.26180565496E+02 -0.56246477309E+01  0.39732391241E+02  0.47946629856E+02  0.17770000000E+01 0. -1.
</event>
<event>
 6    1  0.4028964E-003  0.5007954E+03  0.7546771E-02  0.9398032E-01
        -11   -1    0    0    0    0  0.00000000000E+00  0.00000000000E+00  0.50000000000E+03  0.50000000000E+03  0.00000000000E+00 0.  1.
         11   -1    0    0    0    0 -0.00000000000E+00 -0.00000000000E+00 -0.50000000000E+03  0.50000000000E+03  0.00000000000E+00 0. -1.
        -11    1    1    2    0    0  0.32055591436E+01  0.50992636045E+01  0.28841149044E+03  0.28847437653E+03  0.00000000000E+00 0.  1.
         11    1    1    2    0    0 -0.65241482876E+01 -0.23223490314E+01 -0.49915654490E+03  0.49920458144E+03  0.00000000000E+00 0. -1.
        -15    1    1    2    0    0  0.67977782226E+01 -0.23628860116E+01  0.20611756980E+03  0.20625082624E+03  0.17770000000E+01 0.  1.
         15    1    1    2    0    0 -0.34791890786E+01 -0.41402856151E+00  0.46274846700E+01  0.60702157841E+01  0.17770000000E+01 0. -1.
</event>
<event>
 6    1  0.4028964E-003  0.5515783E+03  0.7546771E-02  0.9291263E-01
        -11   -1    0    0    0    0  0.00000000000E+00  0.00000000000E+00  0.50000000000E+03  0.50000000000E+03  0.00000000000E+00 0. -1.
         11   -1    0    0    0    0 -0.00000000000E+00 -0.00000000000E+00 -0.50000000000E+03  0.50000000000E+03  0.00000000000E+00 0.  1.
        -11    1    1    2    0    0  0.16111210151E+02  0.68661571954E+01  0.41859574440E+03  0.41896194629E+03  0.00000000000E+00 0. -1.
         11    1    1    2    0    0  0.23033354724E+02  0.14147541968E+02 -0.44760625170E+03  0.44842172665E+03  0.00000000000E+00 0.  1.
        -15    1    1    2    0    0 -0.77583398731E+02  0.94203123798E+01  0.59303986684E+01  0.78398044627E+02  0.17770000000E+01 0.  1.
         15    1    1    2    0    0  0.38438833855E+02 -0.30434011543E+02  0.23080108628E+02  0.54218282433E+02  0.17770000000E+01 0. -1.
</event>
<event>
 6    1  0.4028964E-003  0.5012958E+03  0.7546771E-02  0.9396915E-01
        -11   -1    0    0    0    0  0.00000000000E+00  0.00000000000E+00  0.50000000000E+03  0.50000000000E+03  0.00000000000E+00 0.  1.
         11   -1    0    0    0    0 -0.00000000000E+00 -0.00000000000E+00 -0.50000000000E+03  0.50000000000E+03  0.00000000000E+00 0. -1.
        -11    1    1    2    0    0  0.87584282600E+01 -0.83408075025E+01  0.49855751519E+03  0.49870419598E+03  0.00000000000E+00 0.  1.
         11    1    1    2    0    0 -0.39963913470E+01 -0.21836066982E+01 -0.22048504825E+03  0.22053207428E+03  0.00000000000E+00 0. -1.
        -15    1    1    2    0    0 -0.78567174642E+00  0.99826841684E+01 -0.27547727015E+03  0.27566493314E+03  0.17770000000E+01 0. -1.
         15    1    1    2    0    0 -0.39763651665E+01  0.54173003223E+00 -0.25951967870E+01  0.50987965961E+01  0.17770000000E+01 0.  1.
</event>
<event>
 6    1  0.4028964E-003  0.5069344E+03  0.7546771E-02  0.9384426E-01
        -11   -1    0    0    0    0  0.00000000000E+00  0.00000000000E+00  0.50000000000E+03  0.50000000000E+03  0.00000000000E+00 0.  1.
         11   -1    0    0    0    0 -0.00000000000E+00 -0.00000000000E+00 -0.50000000000E+03  0.50000000000E+03  0.00000000000E+00 0.  1.
        -11    1    1    2    0    0  0.56975637759E+01 -0.90973113634E+01  0.49294873439E+03  0.49306559203E+03  0.00000000000E+00 0.  1.
         11    1    1    2    0    0 -0.74773744052E+01 -0.47386953903E+00 -0.48594853164E+03  0.48600628708E+03  0.00000000000E+00 0.  1.
        -15    1    1    2    0    0  0.65712937102E+01  0.64396849954E+01 -0.10431151351E+02  0.14022057316E+02  0.17770000000E+01 0.  1.
         15    1    1    2    0    0 -0.47914830809E+01  0.31314959071E+01  0.34309485974E+01  0.69060635683E+01  0.17770000000E+01 0. -1.
</event>
<event>
 6    1  0.4028964E-003  0.5099482E+03  0.7546771E-02  0.9377821E-01
        -11   -1    0    0    0    0  0.00000000000E+00  0.00000000000E+00  0.50000000000E+03  0.50000000000E+03  0.00000000000E+00 0.  1.
         11   -1    0    0    0    0 -0.00000000000E+00 -0.00000000000E+00 -0.50000000000E+03  0.50000000000E+03  0.00000000000E+00 0.  1.
        -11    1    1    2    0    0 -0.37971788800E+01  0.14327543172E+02  0.25567637384E+03  0.25610565242E+03  0.00000000000E+00 0.  1.
         11    1    1    2    0    0 -0.53296989142E+01  0.11910653080E+02 -0.48987808490E+03  0.49005184155E+03  0.00000000000E+00 0.  1.
        -15    1    1    2    0    0  0.75605122105E+00 -0.10633376471E+02 -0.64154542397E+01  0.12568058351E+02  0.17770000000E+01 0. -1.
         15    1    1    2    0    0  0.83708265732E+01 -0.15604819782E+02  0.24061716529E+03  0.24127444767E+03  0.17770000000E+01 0.  1.
</event>
<event>
 6    1  0.4028964E-003  0.5002788E+03  0.7546771E-02  0.9399186E-01
        -11   -1    0    0    0    0  0.00000000000E+00  0.00000000000E+00  0.50000000000E+03  0.50000000000E+03  0.00000000000E+00 0.  1.
         11   -1    0    0    0    0 -0.00000000000E+00 -0.00000000000E+00 -0.50000000000E+03  0.50000000000E+03  0.00000000000E+00 0.  1.
        -11    1    1    2    0    0  0.17995432677E+01 -0.19053622911E+01  0.16013957779E+03  0.16016102253E+03  0.00000000000E+00 0.  1.
         11    1    1    2    0    0 -0.79731655853E+01 -0.94429934976E+01 -0.49956832277E+03  0.49972117287E+03  0.00000000000E+00 0.  1.
        -15    1    1    2    0    0  0.14764985288E+01  0.26857749992E+01  0.11434466093E+02  0.11970721744E+02  0.17770000000E+01 0.  1.
         15    1    1    2    0    0  0.46971237889E+01  0.86625807895E+01  0.32799427889E+03  0.32814708286E+03  0.17770000000E+01 0.  1.
</event>
<event>
 6    1  0.4028964E-003  0.5002759E+03  0.7546771E-02  0.9399193E-01
        -11   -1    0    0    0    0  0.00000000000E+00  0.00000000000E+00  0.50000000000E+03  0.50000000000E+03  0.00000000000E+00 0.  1.
         11   -1    0    0    0    0 -0.00000000000E+00 -0.00000000000E+00 -0.50000000000E+03  0.50000000000E+03  0.00000000000E+00 0.  1.
        -11    1    1    2    0    0  0.14593693846E+01 -0.79654016061E+01  0.49965849100E+03  0.49972410889E+03  0.00000000000E+00 0.  1.
         11    1    1    2    0    0  0.76777277320E+01  0.18705180739E+01 -0.31942423908E+03  0.31952197241E+03  0.00000000000E+00 0.  1.
        -15    1    1    2    0    0 -0.72828478015E+01  0.82344483392E+00 -0.82527521055E+02  0.82871390684E+02  0.17770000000E+01 0.  1.
         15    1    1    2    0    0 -0.18542493151E+01  0.52714386982E+01 -0.97706730861E+02  0.97882528017E+02  0.17770000000E+01 0. -1.
</event>
<event>
 6    1  0.4028964E-003  0.5027077E+03  0.7546771E-02  0.9393771E-01
        -11   -1    0    0    0    0  0.00000000000E+00  0.00000000000E+00  0.50000000000E+03  0.50000000000E+03  0.00000000000E+00 0. -1.
         11   -1    0    0    0    0 -0.00000000000E+00 -0.00000000000E+00 -0.50000000000E+03  0.50000000000E+03  0.00000000000E+00 0.  1.
        -11    1    1    2    0    0  0.10797417780E+02  0.74053985256E+01  0.49711993566E+03  0.49729232307E+03  0.00000000000E+00 0. -1.
         11    1    1    2    0    0 -0.84630822422E+01  0.50681921036E+01 -0.32334745113E+03  0.32349788946E+03  0.00000000000E+00 0.  1.
        -15    1    1    2    0    0 -0.87959904095E+01 -0.90520445962E+01 -0.12808351157E+02  0.18069879552E+02  0.17770000000E+01 0.  1.
         15    1    1    2    0    0  0.64616548713E+01 -0.34215460330E+01 -0.16096413337E+03  0.16113990791E+03  0.17770000000E+01 0. -1.
</event>
<event>
 6    1  0.4028964E-003  0.5008629E+03  0.7546771E-02  0.9397881E-01
        -11   -1    0    0    0    0  0.00000000000E+00  0.00000000000E+00  0.50000000000E+03  0.50000000000E+03  0.00000000000E+00 0.  1.
         11   -1    0    0    0    0 -0.00000000000E+00 -0.00000000000E+00 -0.50000000000E+03  0.50000000000E+03  0.00000000000E+00 0. -1.
        -11    1    1    2    0    0 -0.12803683135E+02  0.31500730592E+01  0.49896287727E+03  0.49913706550E+03  0.00000000000E+00 0.  1.
         11    1    1    2    0    0 -0.54873267484E+01 -0.26804142370E+01 -0.17844154490E+03  0.17854601738E+03  0.00000000000E+00 0. -1.
        -15    1    1    2    0    0  0.16248056463E+02  0.80241016062E+01 -0.28860756378E+03  0.28918137759E+03  0.17770000000E+01 0. -1.
         15    1    1    2    0    0  0.20429534206E+01 -0.84937604283E+01 -0.31913768587E+02  0.33135539520E+02  0.17770000000E+01 0.  1.
</event>
<event>
 6    1  0.4028964E-003  0.5023512E+03  0.7546771E-02  0.9394564E-01
        -11   -1    0    0    0    0  0.00000000000E+00  0.00000000000E+00  0.50000000000E+03  0.50000000000E+03  0.00000000000E+00 0.  1.
         11   -1    0    0    0    0 -0.00000000000E+00 -0.00000000000E+00 -0.50000000000E+03  0.50000000000E+03  0.00000000000E+00 0.  1.
        -11    1    1    2    0    0 -0.36428207213E+01 -0.64171054873E+01  0.43161578316E+03  0.43167885477E+03  0.00000000000E+00 0.  1.
         11    1    1    2    0    0 -0.13872743709E+02  0.20735199459E+01 -0.49745110297E+03  0.49764882432E+03  0.00000000000E+00 0.  1.
        -15    1    1    2    0    0  0.16595944856E+02 -0.29699170062E+01  0.34601970739E+02  0.38531803756E+02  0.17770000000E+01 0.  1.
         15    1    1    2    0    0  0.91961957438E+00  0.73135025475E+01  0.31233349070E+02  0.32140517152E+02  0.17770000000E+01 0. -1.
</event>
<event>
 6    1  0.4028964E-003  0.5046207E+03  0.7546771E-02  0.9389530E-01
        -11   -1    0    0    0    0  0.00000000000E+00  0.00000000000E+00  0.50000000000E+03  0.50000000000E+03  0.00000000000E+00 0. -1.
         11   -1    0    0    0    0 -0.00000000000E+00 -0.00000000000E+00 -0.50000000000E+03  0.50000000000E+03  0.00000000000E+00 0.  1.
        -11    1    1    2    0    0  0.28266761363E+01 -0.76341820664E+01  0.48303664714E+03  0.48310524042E+03  0.00000000000E+00 0. -1.
         11    1    1    2    0    0 -0.10327793274E+02 -0.51551206143E+00 -0.49527138472E+03  0.49537932294E+03  0.00000000000E+00 0.  1.
        -15    1    1    2    0    0  0.61216843541E+01  0.11628246970E+01 -0.82744502032E+00  0.65321952565E+01  0.17770000000E+01 0.  1.
         15    1    1    2    0    0  0.13794327834E+01  0.69868694307E+01  0.13062182600E+02  0.14983241389E+02  0.17770000000E+01 0. -1.
</event>
<event>
 6    1  0.4028964E-003  0.5020014E+03  0.7546771E-02  0.9395342E-01
        -11   -1    0    0    0    0  0.00000000000E+00  0.00000000000E+00  0.50000000000E+03  0.50000000000E+03  0.00000000000E+00 0.  1.
         11   -1    0    0    0    0 -0.00000000000E+00 -0.00000000000E+00 -0.50000000000E+03  0.50000000000E+03  0.00000000000E+00 0. -1.
        -11    1    1    2    0    0  0.18565903769E+00 -0.71982320041E+01  0.37989490628E+03  0.37996314141E+03  0.00000000000E+00 0.  1.
         11    1    1    2    0    0 -0.10270091958E+02 -0.25068580231E+01 -0.49788635122E+03  0.49799857214E+03  0.00000000000E+00 0. -1.
        -15    1    1    2    0    0  0.57852530737E+01  0.63246541517E+01  0.78838430071E+01  0.11780624467E+02  0.17770000000E+01 0.  1.
         15    1    1    2    0    0  0.42991798469E+01  0.33804358754E+01  0.11010760193E+03  0.11025766199E+03  0.17770000000E+01 0. -1.
</event>
<event>
 6    1  0.4028964E-003  0.5057188E+03  0.7546771E-02  0.9387104E-01
        -11   -1    0    0    0    0  0.00000000000E+00  0.00000000000E+00  0.50000000000E+03  0.50000000000E+03  0.00000000000E+00 0.  1.
         11   -1    0    0    0    0 -0.00000000000E+00 -0.00000000000E+00 -0.50000000000E+03  0.50000000000E+03  0.00000000000E+00 0.  1.
        -11    1    1    2    0    0  0.11777884787E+02  0.34977743822E+01  0.44942359461E+03  0.44959150391E+03  0.00000000000E+00 0.  1.
         11    1    1    2    0    0 -0.16607259990E+01 -0.12599884550E+02 -0.49411775207E+03  0.49428116292E+03  0.00000000000E+00 0.  1.
        -15    1    1    2    0    0  0.50970660960E+01  0.14506560854E+02  0.31877584529E+02  0.35436683183E+02  0.17770000000E+01 0. -1.
         15    1    1    2    0    0 -0.15214224884E+02 -0.54044506871E+01  0.12816572933E+02  0.20690649985E+02  0.17770000000E+01 0.  1.
</event>
<event>
 6    1  0.4028964E-003  0.5243547E+03  0.7546771E-02  0.9346905E-01
        -11   -1    0    0    0    0  0.00000000000E+00  0.00000000000E+00  0.50000000000E+03  0.50000000000E+03  0.00000000000E+00 0. -1.
         11   -1    0    0    0    0 -0.00000000000E+00 -0.00000000000E+00 -0.50000000000E+03  0.50000000000E+03  0.00000000000E+00 0. -1.
        -11    1    1    2    0    0 -0.72751365699E+01  0.71493734517E+01  0.47553593692E+03  0.47564531791E+03  0.00000000000E+00 0. -1.
         11    1    1    2    0    0  0.32581167544E+02 -0.25192964961E+02 -0.44942146974E+03  0.45130463705E+03  0.00000000000E+00 0. -1.
        -15    1    1    2    0    0  0.34706449652E+01 -0.35138542508E+01  0.16471025116E+02  0.17287132369E+02  0.17770000000E+01 0. -1.
         15    1    1    2    0    0 -0.28776675940E+02  0.21557445760E+02 -0.42585492294E+02  0.55762912664E+02  0.17770000000E+01 0.  1.
</event>
<event>
 6    1  0.4028964E-003  0.5042649E+03  0.7546771E-02  0.9390317E-01
        -11   -1    0    0    0    0  0.00000000000E+00  0.00000000000E+00  0.50000000000E+03  0.50000000000E+03  0.00000000000E+00 0. -1.
         11   -1    0    0    0    0 -0.00000000000E+00 -0.00000000000E+00 -0.50000000000E+03  0.50000000000E+03  0.00000000000E+00 0.  1.
        -11    1    1    2    0    0  0.11928772237E+02 -0.60939897508E+00  0.46159366042E+03  0.46174817197E+03  0.00000000000E+00 0. -1.
         11    1    1    2    0    0 -0.10457584755E+02 -0.41311992422E+01 -0.49560752166E+03  0.49573505365E+03  0.00000000000E+00 0.  1.
        -15    1    1    2    0    0 -0.97881257869E+01 -0.24080950515E+01  0.28152416575E+02  0.29955343700E+02  0.17770000000E+01 0. -1.
         15    1    1    2    0    0  0.83169383041E+01  0.71486932687E+01  0.58614446642E+01  0.12561430681E+02  0.17770000000E+01 0.  1.
</event>
<event>
 6    1  0.4028964E-003  0.5015763E+03  0.7546771E-02  0.9396289E-01
        -11   -1    0    0    0    0  0.00000000000E+00  0.00000000000E+00  0.50000000000E+03  0.50000000000E+03  0.00000000000E+00 0. -1.
         11   -1    0    0    0    0 -0.00000000000E+00 -0.00000000000E+00 -0.50000000000E+03  0.50000000000E+03  0.00000000000E+00 0. -1.
        -11    1    1    2    0    0  0.58204542952E+01  0.44274048386E+01  0.36826495036E+03  0.36833755343E+03  0.00000000000E+00 0. -1.
         11    1    1    2    0    0  0.11348209205E+01  0.10989477985E+02 -0.49830120364E+03  0.49842366115E+03  0.00000000000E+00 0. -1.
        -15    1    1    2    0    0 -0.85261343901E+00  0.55628191315E+01  0.14749410157E+02  0.15886306536E+02  0.17770000000E+01 0. -1.
         15    1    1    2    0    0 -0.61026617767E+01 -0.20979701955E+02  0.11528684312E+03  0.11735247889E+03  0.17770000000E+01 0.  1.
</event>
<event>
 6    1  0.4028964E-003  0.5288775E+03  0.7546771E-02  0.9337416E-01
        -11   -1    0    0    0    0  0.00000000000E+00  0.00000000000E+00  0.50000000000E+03  0.50000000000E+03  0.00000000000E+00 0.  1.
         11   -1    0    0    0    0 -0.00000000000E+00 -0.00000000000E+00 -0.50000000000E+03  0.50000000000E+03  0.00000000000E+00 0. -1.
        -11    1    1    2    0    0  0.23538612492E+01  0.38870522834E+02  0.37859971846E+03  0.38059716897E+03  0.00000000000E+00 0.  1.
         11    1    1    2    0    0  0.39734723622E+01  0.75246200624E+01 -0.47104561769E+03  0.47112247063E+03  0.00000000000E+00 0. -1.
        -15    1    1    2    0    0  0.43368381805E+01 -0.25396987823E+02  0.11364580396E+03  0.11654330372E+03  0.17770000000E+01 0.  1.
         15    1    1    2    0    0 -0.10664171792E+02 -0.20998155073E+02 -0.21199904738E+02  0.31737056674E+02  0.17770000000E+01 0. -1.
</event>
<event>
 6    1  0.4028964E-003  0.5012407E+03  0.7546771E-02  0.9397038E-01
        -11   -1    0    0    0    0  0.00000000000E+00  0.00000000000E+00  0.50000000000E+03  0.50000000000E+03  0.00000000000E+00 0.  1.
         11   -1    0    0    0    0 -0.00000000000E+00 -0.00000000000E+00 -0.50000000000E+03  0.50000000000E+03  0.00000000000E+00 0. -1.
        -11    1    1    2    0    0  0.10627276336E+02 -0.96997957027E+00  0.49864514885E+03  0.49875932506E+03  0.00000000000E+00 0.  1.
         11    1    1    2    0    0 -0.29971192549E+01  0.58677682552E+01 -0.46125885035E+03  0.46130590767E+03  0.00000000000E+00 0. -1.
        -15    1    1    2    0    0 -0.28925828575E+01 -0.39294017823E+01 -0.52359645454E+01  0.73742991311E+01  0.17770000000E+01 0.  1.
         15    1    1    2    0    0 -0.47375742239E+01 -0.96838690262E+00 -0.32150333960E+02  0.32560468139E+02  0.17770000000E+01 0. -1.
</event>
<event>
 6    1  0.4028964E-003  0.5071628E+03  0.7546771E-02  0.9383924E-01
        -11   -1    0    0    0    0  0.00000000000E+00  0.00000000000E+00  0.50000000000E+03  0.50000000000E+03  0.00000000000E+00 0.  1.
         11   -1    0    0    0    0 -0.00000000000E+00 -0.00000000000E+00 -0.50000000000E+03  0.50000000000E+03  0.00000000000E+00 0. -1.
        -11    1    1    2    0    0 -0.49793515118E+00  0.63118369359E+01  0.43322992648E+03  0.43327618954E+03  0.00000000000E+00 0.  1.
         11    1    1    2    0    0 -0.79441671405E+01 -0.11312454599E+01 -0.49277190252E+03  0.49283723217E+03  0.00000000000E+00 0. -1.
        -15    1    1    2    0    0  0.32883785877E+01 -0.12113105574E+02  0.63111753196E+02  0.64372291251E+02  0.17770000000E+01 0. -1.
         15    1    1    2    0    0  0.51537237039E+01  0.69325140980E+01 -0.35697771625E+01  0.95142870319E+01  0.17770000000E+01 0.  1.
</event>
<event>
 6    1  0.4028964E-003  0.5081401E+03  0.7546771E-02  0.9381778E-01
        -11   -1    0    0    0    0  0.00000000000E+00  0.00000000000E+00  0.50000000000E+03  0.50000000000E+03  0.00000000000E+00 0.  1.
         11   -1    0    0    0    0 -0.00000000000E+00 -0.00000000000E+00 -0.50000000000E+03  0.50000000000E+03  0.00000000000E+00 0.  1.
        -11    1    1    2    0    0 -0.14522813494E+02 -0.73013904909E+01  0.45463096781E+03  0.45492146499E+03  0.00000000000E+00 0.  1.
         11    1    1    2    0    0  0.18589480690E+02  0.11644121950E+02 -0.49137055155E+03  0.49185991227E+03  0.00000000000E+00 0.  1.
        -15    1    1    2    0    0 -0.83267529940E+01  0.85069264540E+01  0.37657604952E+02  0.39534232670E+02  0.17770000000E+01 0.  1.
         15    1    1    2    0    0  0.42600857981E+01 -0.12849657913E+02 -0.91802121290E+00  0.13684390065E+02  0.17770000000E+01 0. -1.
</event>
<event>
 6    1  0.4028964E-003  0.5111994E+03  0.7546771E-02  0.9375093E-01
        -11   -1    0    0    0    0  0.00000000000E+00  0.00000000000E+00  0.50000000000E+03  0.50000000000E+03  0.00000000000E+00 0.  1.
         11   -1    0    0    0    0 -0.00000000000E+00 -0.00000000000E+00 -0.50000000000E+03  0.50000000000E+03  0.00000000000E+00 0.  1.
        -11    1    1    2    0    0  0.80002833948E+00 -0.76674981693E+01  0.48873984738E+03  0.48880064340E+03  0.00000000000E+00 0.  1.
         11    1    1    2    0    0 -0.11634408743E+02  0.95489804361E+01 -0.36262301991E+03  0.36293525189E+03  0.00000000000E+00 0.  1.
        -15    1    1    2    0    0  0.10638373245E+02 -0.74843307613E+01 -0.13607075209E+03  0.13670258774E+03  0.17770000000E+01 0.  1.
         15    1    1    2    0    0  0.19600715769E+00  0.56028484945E+01  0.99539246272E+01  0.11561516965E+02  0.17770000000E+01 0.  1.
</event>
<event>
 6    1  0.4028964E-003  0.5140898E+03  0.7546771E-02  0.9368823E-01
        -11   -1    0    0    0    0  0.00000000000E+00  0.00000000000E+00  0.50000000000E+03  0.50000000000E+03  0.00000000000E+00 0. -1.
         11   -1    0    0    0    0 -0.00000000000E+00 -0.00000000000E+00 -0.50000000000E+03  0.50000000000E+03  0.00000000000E+00 0. -1.
        -11    1    1    2    0    0 -0.10432452316E+02  0.18092900223E+02  0.43661812438E+03  0.43711734768E+03  0.00000000000E+00 0. -1.
         11    1    1    2    0    0  0.34165391186E+00 -0.34147023277E+02 -0.48470878833E+03  0.48591022361E+03  0.00000000000E+00 0. -1.
        -15    1    1    2    0    0 -0.10915156086E+02  0.27629688450E+02  0.43153944886E+02  0.52420997744E+02  0.17770000000E+01 0. -1.
         15    1    1    2    0    0  0.21005954491E+02 -0.11575565396E+02  0.49367190634E+01  0.24551430965E+02  0.17770000000E+01 0.  1.
</event>
<event>
 6    1  0.4028964E-003  0.5053586E+03  0.7546771E-02  0.9387899E-01
        -11   -1    0    0    0    0  0.00000000000E+00  0.00000000000E+00  0.50000000000E+03  0.50000000000E+03  0.00000000000E+00 0.  1.
         11   -1    0    0    0    0 -0.00000000000E+00 -0.00000000000E+00 -0.50000000000E+03  0.50000000000E+03  0.00000000000E+00 0. -1.
        -11    1    1    2    0    0 -0.23882014639E+01  0.97126760816E+01  0.49454028421E+03  0.49464141788E+03  0.00000000000E+00 0.  1.
         11    1    1    2    0    0 -0.90187537913E+01  0.69644433762E+01 -0.45568475828E+03  0.45582720445E+03  0.00000000000E+00 0. -1.
        -15    1    1    2    0    0 -0.46861175299E+01 -0.61875230180E+01 -0.23689565410E+02  0.24991966248E+02  0.17770000000E+01 0.  1.
         15    1    1    2    0    0  0.16093072785E+02 -0.10489596440E+02 -0.15165960519E+02  0.24539411415E+02  0.17770000000E+01 0. -1.
</event>
<event>
 6    1  0.4028964E-003  0.5526196E+03  0.7546771E-02  0.9289203E-01
        -11   -1    0    0    0    0  0.00000000000E+00  0.00000000000E+00  0.50000000000E+03  0.50000000000E+03  0.00000000000E+00 0.  1.
         11   -1    0    0    0    0 -0.00000000000E+00 -0.00000000000E+00 -0.50000000000E+03  0.50000000000E+03  0.00000000000E+00 0. -1.
        -11    1    1    2    0    0 -0.85524947488E+01  0.17268226721E+02  0.41841753212E+03  0.41886103663E+03  0.00000000000E+00 0.  1.
         11    1    1    2    0    0  0.22844748093E+01 -0.67574657847E+01 -0.44732349508E+03  0.44738036548E+03  0.00000000000E+00 0. -1.
        -15    1    1    2    0    0  0.46614758978E+01  0.11672860563E+02 -0.50089208363E+02  0.51672735119E+02  0.17770000000E+01 0.  1.
         15    1    1    2    0    0  0.16065440416E+01 -0.22183621499E+02  0.78995171322E+02  0.82085862776E+02  0.17770000000E+01 0. -1.
</event>
<event>
 6    1  0.4028964E-003  0.5004644E+03  0.7546771E-02  0.9398771E-01
        -11   -1    0    0    0    0  0.00000000000E+00  0.00000000000E+00  0.50000000000E+03  0.50000000000E+03  0.00000000000E+00 0. -1.
         11   -1    0    0    0    0 -0.00000000000E+00 -0.00000000000E+00 -0.50000000000E+03  0.50000000000E+03  0.00000000000E+00 0. -1.
        -11    1    1    2    0    0  0.11718644562E+02 -0.89101350471E+01  0.49931860512E+03  0.49953557086E+03  0.00000000000E+00 0. -1.
         11    1    1    2    0    0  0.62935975748E+00  0.83306850106E+00 -0.50843585423E+02  0.50854304395E+02  0.00000000000E+00 0. -1.
        -15    1    1    2    0    0 -0.90604959397E+01  0.12356024509E+02 -0.10883593322E+03  0.10992352804E+03  0.17770000000E+01 0. -1.
         15    1    1    2    0    0 -0.32875083802E+01 -0.42789579631E+01 -0.33963908647E+03  0.33968659671E+03  0.17770000000E+01 0.  1.
</event>
<event>
 6    1  0.4028964E-003  0.5026132E+03  0.7546771E-02  0.9393981E-01
        -11   -1    0    0    0    0  0.00000000000E+00  0.00000000000E+00  0.50000000000E+03  0.50000000000E+03  0.00000000000E+00 0. -1.
         11   -1    0    0    0    0 -0.00000000000E+00 -0.00000000000E+00 -0.50000000000E+03  0.50000000000E+03  0.00000000000E+00 0. -1.
        -11    1    1    2    0    0  0.41112076521E+01  0.72989083979E+01  0.49731626095E+03  0.49738681074E+03  0.00000000000E+00 0. -1.
         11    1    1    2    0    0 -0.73491343879E+01  0.13256703491E+01 -0.47693841225E+03  0.47699687238E+03  0.00000000000E+00 0. -1.
        -15    1    1    2    0    0  0.34177507262E+01 -0.56893488033E+01 -0.21025696316E+02  0.22119840515E+02  0.17770000000E+01 0. -1.
         15    1    1    2    0    0 -0.17982399043E+00 -0.29352299438E+01  0.64784761502E+00  0.34964763724E+01  0.17770000000E+01 0.  1.
</event>
<event>
 6    1  0.4028964E-003  0.5005789E+03  0.7546771E-02  0.9398515E-01
        -11   -1    0    0    0    0  0.00000000000E+00  0.00000000000E+00  0.50000000000E+03  0.50000000000E+03  0.00000000000E+00 0.  1.
         11   -1    0    0    0    0 -0.00000000000E+00 -0.00000000000E+00 -0.50000000000E+03  0.50000000000E+03  0.00000000000E+00 0.  1.
        -11    1    1    2    0    0  0.26904325807E+01  0.81342433968E+01  0.49934759336E+03  0.49942108820E+03  0.00000000000E+00 0.  1.
         11    1    1    2    0    0 -0.18806972288E+01 -0.29892938571E+01 -0.24738330015E+03  0.24740850853E+03  0.00000000000E+00 0.  1.
        -15    1    1    2    0    0  0.97198595804E+00 -0.14343096045E+02 -0.17908246483E+03  0.17966734845E+03  0.17770000000E+01 0.  1.
         15    1    1    2    0    0 -0.17817213100E+01  0.91981465051E+01 -0.72881828380E+02  0.73503054814E+02  0.17770000000E+01 0. -1.
</event>
<event>
 6    1  0.4028964E-003  0.5190301E+03  0.7546771E-02  0.9358207E-01
        -11   -1    0    0    0    0  0.00000000000E+00  0.00000000000E+00  0.50000000000E+03  0.50000000000E+03  0.00000000000E+00 0. -1.
         11   -1    0    0    0    0 -0.00000000000E+00 -0.00000000000E+00 -0.50000000000E+03  0.50000000000E+03  0.00000000000E+00 0. -1.
        -11    1    1    2    0    0  0.25552494772E+02 -0.96287042680E+01  0.48019414432E+03  0.48096991400E+03  0.00000000000E+00 0. -1.
         11    1    1    2    0    0  0.33981074334E+01 -0.99192460258E+01 -0.43125834919E+03  0.43138579291E+03  0.00000000000E+00 0. -1.
        -15    1    1    2    0    0 -0.31200632066E+02  0.26003669391E+02 -0.25620368748E+01  0.40735635813E+02  0.17770000000E+01 0. -1.
         15    1    1    2    0    0  0.22500298612E+01 -0.64557190974E+01 -0.46373758254E+02  0.46908657271E+02  0.17770000000E+01 0.  1.
</event>
<event>
 6    1  0.4028964E-003  0.4840009E+03  0.7546771E-02  0.9436338E-01
        -11   -1    0    0    0    0  0.00000000000E+00  0.00000000000E+00  0.50000000000E+03  0.50000000000E+03  0.00000000000E+00 0. -1.
         11   -1    0    0    0    0 -0.00000000000E+00 -0.00000000000E+00 -0.50000000000E+03  0.50000000000E+03  0.00000000000E+00 0.  1.
        -11    1    1    2    0    0  0.72109312819E+01 -0.58330367292E+01  0.48091431207E+03  0.48100373948E+03  0.00000000000E+00 0. -1.
         11    1    1    2    0    0  0.76058929095E+01  0.21689514340E+01 -0.48707370490E+03  0.48713791473E+03  0.00000000000E+00 0.  1.
        -15    1    1    2    0    0 -0.12072880483E+02  0.11853889295E+02  0.12402855684E+02  0.21053685965E+02  0.17770000000E+01 0.  1.
         15    1    1    2    0    0 -0.27439437083E+01 -0.81898039997E+01 -0.62434628483E+01  0.10804659826E+02  0.17770000000E+01 0. -1.
</event>
<event>
 6    1  0.4028964E-003  0.5058951E+03  0.7546771E-02  0.9386715E-01
        -11   -1    0    0    0    0  0.00000000000E+00  0.00000000000E+00  0.50000000000E+03  0.50000000000E+03  0.00000000000E+00 0. -1.
         11   -1    0    0    0    0 -0.00000000000E+00 -0.00000000000E+00 -0.50000000000E+03  0.50000000000E+03  0.00000000000E+00 0.  1.
        -11    1    1    2    0    0 -0.35115392216E+00  0.14615412947E+02  0.49388858215E+03  0.49410491313E+03  0.00000000000E+00 0. -1.
         11    1    1    2    0    0  0.52398242699E+01  0.15012465316E+01 -0.39642745464E+03  0.39646492442E+03  0.00000000000E+00 0.  1.
        -15    1    1    2    0    0 -0.87611768608E+00 -0.10160201830E+02  0.12637708308E+01  0.10428428891E+02  0.17770000000E+01 0.  1.
         15    1    1    2    0    0 -0.40125526616E+01 -0.59564576492E+01 -0.98724898338E+02  0.99001733558E+02  0.17770000000E+01 0. -1.
</event>
<event>
 6    1  0.4028964E-003  0.5221026E+03  0.7546771E-02  0.9351668E-01
        -11   -1    0    0    0    0  0.00000000000E+00  0.00000000000E+00  0.50000000000E+03  0.50000000000E+03  0.00000000000E+00 0.  1.
         11   -1    0    0    0    0 -0.00000000000E+00 -0.00000000000E+00 -0.50000000000E+03  0.50000000000E+03  0.00000000000E+00 0. -1.
        -11    1    1    2    0    0  0.79306310737E+00 -0.27355991787E+02  0.47711317559E+03  0.47789743833E+03  0.00000000000E+00 0.  1.
         11    1    1    2    0    0  0.31987114758E+01  0.34075068526E+01 -0.31251270097E+03  0.31254764616E+03  0.00000000000E+00 0. -1.
        -15    1    1    2    0    0 -0.71005199984E+01 -0.11919983087E+02 -0.17215724868E+03  0.17272457666E+03  0.17770000000E+01 0. -1.
         15    1    1    2    0    0  0.31087454152E+01  0.35868468021E+02  0.75567740522E+01  0.36830338843E+02  0.17770000000E+01 0.  1.
</event>
<event>
 6    1  0.4028964E-003  0.4660084E+03  0.7546771E-02  0.9479255E-01
        -11   -1    0    0    0    0  0.00000000000E+00  0.00000000000E+00  0.50000000000E+03  0.50000000000E+03  0.00000000000E+00 0.  1.
         11   -1    0    0    0    0 -0.00000000000E+00 -0.00000000000E+00 -0.50000000000E+03  0.50000000000E+03  0.00000000000E+00 0. -1.
        -11    1    1    2    0    0 -0.30005839417E+02 -0.82538892993E+01  0.45891677598E+03  0.45997074294E+03  0.00000000000E+00 0.  1.
         11    1    1    2    0    0 -0.11348725477E+02  0.19746662502E+00 -0.47296747083E+03  0.47310364724E+03  0.00000000000E+00 0. -1.
        -15    1    1    2    0    0  0.48369347918E+02 -0.29379441254E+01  0.20034955455E+02  0.52466965824E+02  0.17770000000E+01 0. -1.
         15    1    1    2    0    0 -0.70147830244E+01  0.10994366800E+02 -0.59842606030E+01  0.14458643995E+02  0.17770000000E+01 0.  1.
</event>
<event>
 6    1  0.4028964E-003  0.5006233E+03  0.7546771E-02  0.9398416E-01
        -11   -1    0    0    0    0  0.00000000000E+00  0.00000000000E+00  0.50000000000E+03  0.50000000000E+03  0.00000000000E+00 0.  1.
         11   -1    0    0    0    0 -0.00000000000E+00 -0.00000000000E+00 -0.50000000000E+03  0.50000000000E+03  0.00000000000E+00 0.  1.
        -11    1    1    2    0    0  0.81917107234E-01 -0.62600786969E+01  0.37304941039E+03  0.37310194034E+03  0.00000000000E+00 0.  1.
         11    1    1    2    0    0  0.31750558852E+01 -0.81904958293E+01 -0.49929939350E+03  0.49937666100E+03  0.00000000000E+00 0.  1.
        -15    1    1    2    0    0 -0.35329747465E+01  0.11058563732E+02  0.58753635326E+02  0.59915950592E+02  0.17770000000E+01 0. -1.
         15    1    1    2    0    0  0.27600175408E+00  0.33920107938E+01  0.67496347786E+02  0.67605448062E+02  0.17770000000E+01 0.  1.
</event>
<event>
 6    1  0.4028964E-003  0.5072831E+03  0.7546771E-02  0.9383659E-01
        -11   -1    0    0    0    0  0.00000000000E+00  0.00000000000E+00  0.50000000000E+03  0.50000000000E+03  0.00000000000E+00 0.  1.
         11   -1    0    0    0    0 -0.00000000000E+00 -0.00000000000E+00 -0.50000000000E+03  0.50000000000E+03  0.00000000000E+00 0.  1.
        -11    1    1    2    0    0 -0.10979506340E+02 -0.50518631564E+01  0.49256868760E+03  0.49271693992E+03  0.00000000000E+00 0.  1.
         11    1    1    2    0    0 -0.10943556850E+02  0.21282459375E+02 -0.46229257033E+03  0.46291157373E+03  0.00000000000E+00 0.  1.
        -15    1    1    2    0    0  0.13883700622E+01 -0.10904768121E+02 -0.97935750003E+01  0.14829476710E+02  0.17770000000E+01 0. -1.
         15    1    1    2    0    0  0.20534693127E+02 -0.53258280979E+01 -0.20482542270E+02  0.29542009641E+02  0.17770000000E+01 0.  1.
</event>
<event>
 6    1  0.4028964E-003  0.5065724E+03  0.7546771E-02  0.9385222E-01
        -11   -1    0    0    0    0  0.00000000000E+00  0.00000000000E+00  0.50000000000E+03  0.50000000000E+03  0.00000000000E+00 0. -1.
         11   -1    0    0    0    0 -0.00000000000E+00 -0.00000000000E+00 -0.50000000000E+03  0.50000000000E+03  0.00000000000E+00 0.  1.
        -11    1    1    2    0    0  0.22184337008E+02  0.20271648618E+02  0.49251167159E+03  0.49342763522E+03  0.00000000000E+00 0. -1.
         11    1    1    2    0    0 -0.16781742248E+01  0.43124693623E+01 -0.19306141040E+03  0.19311686060E+03  0.00000000000E+00 0.  1.
        -15    1    1    2    0    0 -0.21344032406E+02  0.25086480643E+02 -0.56090674446E+02  0.65070889953E+02  0.17770000000E+01 0. -1.
         15    1    1    2    0    0  0.83786962330E+00 -0.49670598623E+02 -0.24335958674E+03  0.24838461422E+03  0.17770000000E+01 0.  1.
</event>
<event>
 6    1  0.4028964E-003  0.5007831E+03  0.7546771E-02  0.9398059E-01
        -11   -1    0    0    0    0  0.00000000000E+00  0.00000000000E+00  0.50000000000E+03  0.50000000000E+03  0.00000000000E+00 0. -1.
         11   -1    0    0    0    0 -0.00000000000E+00 -0.00000000000E+00 -0.50000000000E+03  0.50000000000E+03  0.00000000000E+00 0. -1.
        -11    1    1    2    0    0 -0.86293394920E+01  0.52059282971E+01  0.32060018164E+03  0.32075854417E+03  0.00000000000E+00 0. -1.
         11    1    1    2    0    0  0.82436661668E+01  0.32182325424E-01 -0.49914881505E+03  0.49921688536E+03  0.00000000000E+00 0. -1.
        -15    1    1    2    0    0  0.27883990178E+01  0.19431706631E+01  0.15810044814E+03  0.15814695860E+03  0.17770000000E+01 0. -1.
         15    1    1    2    0    0 -0.24027256926E+01 -0.71812812856E+01  0.20448185265E+02  0.21877611874E+02  0.17770000000E+01 0.  1.
</event>
<event>
 6    1  0.4028964E-003  0.4819076E+03  0.7546771E-02  0.9441228E-01
        -11   -1    0    0    0    0  0.00000000000E+00  0.00000000000E+00  0.50000000000E+03  0.50000000000E+03  0.00000000000E+00 0. -1.
         11   -1    0    0    0    0 -0.00000000000E+00 -0.00000000000E+00 -0.50000000000E+03  0.50000000000E+03  0.00000000000E+00 0. -1.
        -11    1    1    2    0    0  0.55654848844E+01  0.96980755359E+01  0.47539403663E+03  0.47552551703E+03  0.00000000000E+00 0. -1.
         11    1    1    2    0    0  0.17298626687E+02  0.81672419372E+01 -0.48844024039E+03  0.48881470391E+03  0.00000000000E+00 0. -1.
        -15    1    1    2    0    0  0.83338416181E+00  0.13087705377E+00 -0.15162497510E+01  0.24836264356E+01  0.17770000000E+01 0.  1.
         15    1    1    2    0    0 -0.23697495733E+02 -0.17996194527E+02  0.14562453512E+02  0.33176152622E+02  0.17770000000E+01 0. -1.
</event>
<event>
 6    1  0.4028964E-003  0.5039102E+03  0.7546771E-02  0.9391103E-01
        -11   -1    0    0    0    0  0.00000000000E+00  0.00000000000E+00  0.50000000000E+03  0.50000000000E+03  0.00000000000E+00 0.  1.
         11   -1    0    0    0    0 -0.00000000000E+00 -0.00000000000E+00 -0.50000000000E+03  0.50000000000E+03  0.00000000000E+00 0.  1.
        -11    1    1    2    0    0  0.53963071338E+01 -0.13392804931E+02  0.49587967226E+03  0.49608984742E+03  0.00000000000E+00 0.  1.
         11    1    1    2    0    0 -0.49150753773E+01 -0.31920427704E+01 -0.41611574324E+03  0.41615701229E+03  0.00000000000E+00 0.  1.
        -15    1    1    2    0    0 -0.87124172300E+01  0.16453770837E+02 -0.76447173828E+02  0.78701721099E+02  0.17770000000E+01 0.  1.
         15    1    1    2    0    0  0.82311854735E+01  0.13107686470E+00 -0.33167551870E+01  0.90514191934E+01  0.17770000000E+01 0. -1.
</event>
<event>
 6    1  0.4028964E-003  0.5043070E+03  0.7546771E-02  0.9390224E-01
        -11   -1    0    0    0    0  0.00000000000E+00  0.00000000000E+00  0.50000000000E+03  0.50000000000E+03  0.00000000000E+00 0.  1.
         11   -1    0    0    0    0 -0.00000000000E+00 -0.00000000000E+00 -0.50000000000E+03  0.50000000000E+03  0.00000000000E+00 0. -1.
        -11    1    1    2    0    0  0.14626579431E+02  0.31545507716E+01  0.47715912795E+03  0.47739367549E+03  0.00000000000E+00 0.  1.
         11    1    1    2    0    0 -0.79220154421E+01 -0.66511897818E+01 -0.49558510518E+03  0.49569304325E+03  0.00000000000E+00 0. -1.
        -15    1    1    2    0    0 -0.23643309655E+01  0.95076593813E+01  0.42685417969E+01  0.10833458630E+02  0.17770000000E+01 0.  1.
         15    1    1    2    0    0 -0.43402330233E+01 -0.60110203711E+01  0.14157435434E+02  0.16079822626E+02  0.17770000000E+01 0. -1.
</event>
<event>
 6    1  0.4028964E-003  0.5013147E+03  0.7546771E-02  0.9396873E-01
        -11   -1    0    0    0    0  0.00000000000E+00  0.00000000000E+00  0.50000000000E+03  0.50000000000E+03  0.00000000000E+00 0.  1.
         11   -1    0    0    0    0 -0.00000000000E+00 -0.00000000000E+00 -0.50000000000E+03  0.50000000000E+03  0.00000000000E+00 0. -1.
        -11    1    1    2    0    0 -0.78143416748E+01 -0.21792708280E+01  0.37603594313E+03  0.37612344209E+03  0.00000000000E+00 0.  1.
         11    1    1    2    0    0  0.41838432904E+01  0.10070720499E+02 -0.49856602109E+03  0.49868527284E+03  0.00000000000E+00 0. -1.
        -15    1    1    2    0    0  0.70333185656E+01  0.47954887257E-01  0.10765056834E+03  0.10789472861E+03  0.17770000000E+01 0.  1.
         15    1    1    2    0    0 -0.34028201812E+01 -0.79394045578E+01  0.14879509625E+02  0.17296556467E+02  0.17770000000E+01 0. -1.
</event>
<event>
 6    1  0.8390893E-003  0.5193253E+03  0.7546771E-02  0.9357577E-01
        -11   -1    0    0    0    0  0.00000000000E+00  0.00000000000E+00  0.50000000000E+03  0.50000000000E+03  0.00000000000E+00 0.  1.
         11   -1    0    0    0    0 -0.00000000000E+00 -0.00000000000E+00 -0.50000000000E+03  0.50000000000E+03  0.00000000000E+00 0.  1.
        -11    1    1    2    0    0  0.17391642189E+01 -0.76031396571E+01  0.48061140471E+03  0.48067468704E+03  0.00000000000E+00 0.  1.
         11    1    1    2    0    0  0.17461437906E+02  0.28398281098E+02 -0.36462767577E+03  0.36614847551E+03  0.00000000000E+00 0.  1.
        -15    1    1    2    0    0 -0.41557979036E+01  0.77469227822E+01  0.15430698912E+02  0.17847959736E+02  0.17770000000E+01 0. -1.
         15    1    1    2    0    0 -0.15044804221E+02 -0.28542064223E+02 -0.13141442786E+03  0.13532887771E+03  0.17770000000E+01 0. -1.
</event>
<event>
 6    1  0.4028964E-003  0.5093781E+03  0.7546771E-02  0.9379067E-01
        -11   -1    0    0    0    0  0.00000000000E+00  0.00000000000E+00  0.50000000000E+03  0.50000000000E+03  0.00000000000E+00 0. -1.
         11   -1    0    0    0    0 -0.00000000000E+00 -0.00000000000E+00 -0.50000000000E+03  0.50000000000E+03  0.00000000000E+00 0.  1.
        -11    1    1    2    0    0  0.16299576864E+02  0.15022903323E+02  0.49012085185E+03  0.49062186381E+03  0.00000000000E+00 0. -1.
         11    1    1    2    0    0  0.90437237502E+00  0.56824803771E+01 -0.39444064896E+03  0.39448261562E+03  0.00000000000E+00 0.  1.
        -15    1    1    2    0    0 -0.23821056131E+01 -0.25364248444E+02 -0.94050569751E+01  0.27214561396E+02  0.17770000000E+01 0. -1.
         15    1    1    2    0    0 -0.14821843626E+02  0.46588647440E+01 -0.86275145915E+02  0.87680959169E+02  0.17770000000E+01 0.  1.
</event>
<event>
 6    1  0.4028964E-003  0.4458524E+03  0.7546771E-02  0.9529852E-01
        -11   -1    0    0    0    0  0.00000000000E+00  0.00000000000E+00  0.50000000000E+03  0.50000000000E+03  0.00000000000E+00 0.  1.
         11   -1    0    0    0    0 -0.00000000000E+00 -0.00000000000E+00 -0.50000000000E+03  0.50000000000E+03  0.00000000000E+00 0. -1.
        -11    1    1    2    0    0  0.11688218332E+02 -0.16204420152E+02  0.46455070955E+03  0.46498017100E+03  0.00000000000E+00 0.  1.
         11    1    1    2    0    0  0.53094747854E+02  0.16955613509E+02 -0.42626597768E+03  0.42989443914E+03  0.00000000000E+00 0. -1.
        -15    1    1    2    0    0 -0.54007231851E+02  0.24493720123E+02 -0.16986536223E+01  0.59352898588E+02  0.17770000000E+01 0.  1.
         15    1    1    2    0    0 -0.10775734336E+02 -0.25244913480E+02 -0.36586078246E+02  0.45772491275E+02  0.17770000000E+01 0. -1.
</event>
<event>
 6    1  0.4028964E-003  0.5038270E+03  0.7546771E-02  0.9391287E-01
        -11   -1    0    0    0    0  0.00000000000E+00  0.00000000000E+00  0.50000000000E+03  0.50000000000E+03  0.00000000000E+00 0. -1.
         11   -1    0    0    0    0 -0.00000000000E+00 -0.00000000000E+00 -0.50000000000E+03  0.50000000000E+03  0.00000000000E+00 0.  1.
        -11    1    1    2    0    0 -0.78942139610E+01  0.12406629111E+00  0.49611014456E+03  0.49617296334E+03  0.00000000000E+00 0. -1.
         11    1    1    2    0    0  0.70263499800E+01  0.30488923298E+01 -0.46939366775E+03  0.46945615414E+03  0.00000000000E+00 0.  1.
        -15    1    1    2    0    0 -0.39760110136E+01 -0.51415327722E+01 -0.27917775288E+02  0.28719399869E+02  0.17770000000E+01 0.  1.
         15    1    1    2    0    0  0.48438749946E+01  0.19685741513E+01  0.12012984723E+01  0.56514826526E+01  0.17770000000E+01 0. -1.
</event>
<event>
 6    1  0.4028964E-003  0.5024524E+03  0.7546771E-02  0.9394339E-01
        -11   -1    0    0    0    0  0.00000000000E+00  0.00000000000E+00  0.50000000000E+03  0.50000000000E+03  0.00000000000E+00 0.  1.
         11   -1    0    0    0    0 -0.00000000000E+00 -0.00000000000E+00 -0.50000000000E+03  0.50000000000E+03  0.00000000000E+00 0.  1.
        -11    1    1    2    0    0 -0.81839705620E+01  0.14178042378E+01  0.49747824708E+03  0.49754757949E+03  0.00000000000E+00 0.  1.
         11    1    1    2    0    0  0.10124119795E+02 -0.41026050245E+01 -0.25843614872E+03  0.25866691349E+03  0.00000000000E+00 0.  1.
        -15    1    1    2    0    0 -0.87709339458E+01 -0.14647761541E+02 -0.19723861225E+03  0.19798412586E+03  0.17770000000E+01 0.  1.
         15    1    1    2    0    0  0.68307847130E+01  0.17332562328E+02 -0.41803486101E+02  0.45801381157E+02  0.17770000000E+01 0. -1.
</event>
<event>
 6    1  0.4028964E-003  0.5241226E+03  0.7546771E-02  0.9347395E-01
        -11   -1    0    0    0    0  0.00000000000E+00  0.00000000000E+00  0.50000000000E+03  0.50000000000E+03  0.00000000000E+00 0. -1.
         11   -1    0    0    0    0 -0.00000000000E+00 -0.00000000000E+00 -0.50000000000E+03  0.50000000000E+03  0.00000000000E+00 0.  1.
        -11    1    1    2    0    0 -0.57359951269E+02  0.32820730026E+02  0.47126632861E+03  0.47587741784E+03  0.00000000000E+00 0. -1.
         11    1    1    2    0    0 -0.22704328240E+02  0.86666096094E+01 -0.25215861595E+03  0.25332699074E+03  0.00000000000E+00 0.  1.
        -15    1    1    2    0    0 -0.67910508227E+00  0.17221094236E+02  0.10610351589E+02  0.20316607991E+02  0.17770000000E+01 0. -1.
         15    1    1    2    0    0  0.80743384591E+02 -0.58708433871E+02 -0.22971806425E+03  0.25047898342E+03  0.17770000000E+01 0.  1.
</event>
<event>
 6    1  0.4028964E-003  0.3608543E+03  0.7546771E-02  0.9779706E-01
        -11   -1    0    0    0    0  0.00000000000E+00  0.00000000000E+00  0.50000000000E+03  0.50000000000E+03  0.00000000000E+00 0.  1.
         11   -1    0    0    0    0 -0.00000000000E+00 -0.00000000000E+00 -0.50000000000E+03  0.50000000000E+03  0.00000000000E+00 0. -1.
        -11    1    1    2    0    0  0.99714321057E+01  0.82936605472E+01  0.36931200091E+03  0.36953967078E+03  0.00000000000E+00 0.  1.
         11    1    1    2    0    0 -0.26353391797E+01  0.17806038119E+02 -0.35241621592E+03  0.35287560024E+03  0.00000000000E+00 0. -1.
        -15    1    1    2    0    0  0.11942969103E+03  0.39620261161E+02  0.25960486227E+02  0.12849249304E+03  0.17770000000E+01 0. -1.
         15    1    1    2    0    0 -0.12676578396E+03 -0.65719959828E+02 -0.42856271223E+02  0.14909223593E+03  0.17770000000E+01 0.  1.
</event>
<event>
 6    1  0.4028964E-003  0.5003782E+03  0.7546771E-02  0.9398964E-01
        -11   -1    0    0    0    0  0.00000000000E+00  0.00000000000E+00  0.50000000000E+03  0.50000000000E+03  0.00000000000E+00 0. -1.
         11   -1    0    0    0    0 -0.00000000000E+00 -0.00000000000E+00 -0.50000000000E+03  0.50000000000E+03  0.00000000000E+00 0. -1.
        -11    1    1    2    0    0  0.40094668825E+01 -0.79959860897E+01  0.49954169645E+03  0.49962177505E+03  0.00000000000E+00 0. -1.
         11    1    1    2    0    0 -0.14777349410E-01  0.16669087411E+01 -0.66392010693E+02  0.66412934636E+02  0.00000000000E+00 0. -1.
        -15    1    1    2    0    0  0.84830038488E+01 -0.34266053874E+01 -0.23114790845E+03  0.23133572203E+03  0.17770000000E+01 0.  1.
         15    1    1    2    0    0 -0.12477693382E+02  0.97556827359E+01 -0.20200177730E+03  0.20262956828E+03  0.17770000000E+01 0. -1.
</event>
<event>
 6    1  0.4028964E-003  0.5076923E+03  0.7546771E-02  0.9382760E-01
        -11   -1    0    0    0    0  0.00000000000E+00  0.00000000000E+00  0.50000000000E+03  0.50000000000E+03  0.00000000000E+00 0.  1.
         11   -1    0    0    0    0 -0.00000000000E+00 -0.00000000000E+00 -0.50000000000E+03  0.50000000000E+03  0.00000000000E+00 0. -1.
        -11    1    1    2    0    0  0.63833717430E+01 -0.67490452616E+01  0.49222001354E+03  0.49230766678E+03  0.00000000000E+00 0.  1.
         11    1    1    2    0    0  0.84009000002E+01 -0.74495951673E+01 -0.43007545517E+03  0.43022199936E+03  0.00000000000E+00 0. -1.
        -15    1    1    2    0    0  0.34506762013E+01 -0.10013661870E+02 -0.32681880062E+01  0.11225835031E+02  0.17770000000E+01 0.  1.
         15    1    1    2    0    0 -0.18234947944E+02  0.24212302299E+02 -0.58876370358E+02  0.66244498826E+02  0.17770000000E+01 0. -1.
</event>
<event>
 6    1  0.4028964E-003  0.4994615E+03  0.7546771E-02  0.9401015E-01
        -11   -1    0    0    0    0  0.00000000000E+00  0.00000000000E+00  0.50000000000E+03  0.50000000000E+03  0.00000000000E+00 0.  1.
         11   -1    0    0    0    0 -0.00000000000E+00 -0.00000000000E+00 -0.50000000000E+03  0.50000000000E+03  0.00000000000E+00 0.  1.
        -11    1    1    2    0    0  0.26923335738E-01 -0.78467322914E+00  0.28595122659E+01  0.29653410161E+01  0.00000000000E+00 0.  1.
         11    1    1    2    0    0 -0.28085595731E+01  0.90794856955E+01 -0.49891411178E+03  0.49900462523E+03  0.00000000000E+00 0.  1.
        -15    1    1    2    0    0 -0.95831595840E+01  0.79445228797E+01  0.51839240126E+02  0.53342449674E+02  0.17770000000E+01 0. -1.
         15    1    1    2    0    0  0.12364795821E+02 -0.16239335346E+02  0.44421535939E+03  0.44468758408E+03  0.17770000000E+01 0.  1.
</event>
<event>
 6    1  0.4028964E-003  0.4880775E+03  0.7546771E-02  0.9426890E-01
        -11   -1    0    0    0    0  0.00000000000E+00  0.00000000000E+00  0.50000000000E+03  0.50000000000E+03  0.00000000000E+00 0. -1.
         11   -1    0    0    0    0 -0.00000000000E+00 -0.00000000000E+00 -0.50000000000E+03  0.50000000000E+03  0.00000000000E+00 0.  1.
        -11    1    1    2    0    0  0.97351262221E+01  0.12504470154E+01  0.48340165051E+03  0.48350128440E+03  0.00000000000E+00 0. -1.
         11    1    1    2    0    0  0.40086548822E+01 -0.10693343413E+02 -0.49270813511E+03  0.49284046436E+03  0.00000000000E+00 0.  1.
        -15    1    1    2    0    0 -0.73879679755E+01 -0.78704207140E+00  0.85428520153E+01  0.11460347097E+02  0.17770000000E+01 0.  1.
         15    1    1    2    0    0 -0.63558131288E+01  0.10229938469E+02  0.76363258554E+00  0.12197904137E+02  0.17770000000E+01 0. -1.
</event>
<event>
 6    1  0.4028964E-003  0.5694522E+03  0.7546771E-02  0.9256550E-01
        -11   -1    0    0    0    0  0.00000000000E+00  0.00000000000E+00  0.50000000000E+03  0.50000000000E+03  0.00000000000E+00 0.  1.
         11   -1    0    0    0    0 -0.00000000000E+00 -0.00000000000E+00 -0.50000000000E+03  0.50000000000E+03  0.00000000000E+00 0. -1.
        -11    1    1    2    0    0  0.16574861374E+02  0.47256165479E+01  0.37570143233E+03  0.37609656171E+03  0.00000000000E+00 0.  1.
         11    1    1    2    0    0  0.12666346748E+02 -0.67575345343E+01 -0.43030837755E+03  0.43054779108E+03  0.00000000000E+00 0. -1.
        -15    1    1    2    0    0 -0.12483131868E+02  0.10085304297E+02 -0.67716330280E+02  0.69614661240E+02  0.17770000000E+01 0. -1.
         15    1    1    2    0    0 -0.16758076254E+02 -0.80533863107E+01  0.12232327550E+03  0.12374098597E+03  0.17770000000E+01 0.  1.
</event>
<event>
 6    1  0.4028964E-003  0.5017226E+03  0.7546771E-02  0.9395963E-01
        -11   -1    0    0    0    0  0.00000000000E+00  0.00000000000E+00  0.50000000000E+03  0.50000000000E+03  0.00000000000E+00 0. -1.
         11   -1    0    0    0    0 -0.00000000000E+00 -0.00000000000E+00 -0.50000000000E+03  0.50000000000E+03  0.00000000000E+00 0.  1.
        -11    1    1    2    0    0 -0.35317579829E+01  0.14651643964E+01  0.23046671960E+03  0.23049843571E+03  0.00000000000E+00 0. -1.
         11    1    1    2    0    0  0.47590761125E+02  0.31601635622E+01 -0.49598936644E+03  0.49827735128E+03  0.00000000000E+00 0.  1.
        -15    1    1    2    0    0  0.30353679025E+01 -0.61389063003E+01  0.56968315856E+02  0.57405978516E+02  0.17770000000E+01 0.  1.
         15    1    1    2    0    0 -0.47094371044E+02  0.15135783417E+01  0.20855433098E+03  0.21381823449E+03  0.17770000000E+01 0. -1.
</event>
<event>
 6    1  0.4028964E-003  0.4840010E+03  0.7546771E-02  0.9436338E-01
        -11   -1    0    0    0    0  0.00000000000E+00  0.00000000000E+00  0.50000000000E+03  0.50000000000E+03  0.00000000000E+00 0. -1.
         11   -1    0    0    0    0 -0.00000000000E+00 -0.00000000000E+00 -0.50000000000E+03  0.50000000000E+03  0.00000000000E+00 0.  1.
        -11    1    1    2    0    0 -0.17041535328E+02  0.92808110276E+00  0.48664220923E+03  0.48694138771E+03  0.00000000000E+00 0. -1.
         11    1    1    2    0    0  0.43989143845E+01 -0.70547637024E+01 -0.48110663542E+03  0.48117846459E+03  0.00000000000E+00 0.  1.
        -15    1    1    2    0    0  0.18616820724E+02  0.33188293933E+01  0.47047675092E+01  0.19567657211E+02  0.17770000000E+01 0. -1.
         15    1    1    2    0    0 -0.59741997802E+01  0.28078532063E+01 -0.10240341317E+02  0.12312490485E+02  0.17770000000E+01 0.  1.
</event>
<event>
 6    1  0.4028964E-003  0.5033930E+03  0.7546771E-02  0.9392250E-01
        -11   -1    0    0    0    0  0.00000000000E+00  0.00000000000E+00  0.50000000000E+03  0.50000000000E+03  0.00000000000E+00 0.  1.
         11   -1    0    0    0    0 -0.00000000000E+00 -0.00000000000E+00 -0.50000000000E+03  0.50000000000E+03  0.00000000000E+00 0.  1.
        -11    1    1    2    0    0  0.10734882988E+02  0.24246460703E+02  0.12819374935E+03  0.13090747092E+03  0.00000000000E+00 0.  1.
         11    1    1    2    0    0 -0.26449545654E+01  0.16837710877E+02 -0.49631446481E+03  0.49660704010E+03  0.00000000000E+00 0.  1.
        -15    1    1    2    0    0 -0.77889632034E+01 -0.29761296495E+02  0.34772750582E+03  0.34909021577E+03  0.17770000000E+01 0.  1.
         15    1    1    2    0    0 -0.30096521896E+00 -0.11322875086E+02  0.20393209636E+02  0.23395273209E+02  0.17770000000E+01 0. -1.
</event>
<event>
 6    1  0.4028964E-003  0.5062845E+03  0.7546771E-02  0.9385857E-01
        -11   -1    0    0    0    0  0.00000000000E+00  0.00000000000E+00  0.50000000000E+03  0.50000000000E+03  0.00000000000E+00 0.  1.
         11   -1    0    0    0    0 -0.00000000000E+00 -0.00000000000E+00 -0.50000000000E+03  0.50000000000E+03  0.00000000000E+00 0.  1.
        -11    1    1    2    0    0  0.44204315197E+01 -0.60346857642E+01  0.49365886974E+03  0.49371554292E+03  0.00000000000E+00 0.  1.
         11    1    1    2    0    0 -0.11460611736E+02 -0.76550281049E+01 -0.48031126891E+03  0.48050895946E+03  0.00000000000E+00 0.  1.
        -15    1    1    2    0    0  0.28765299553E+01  0.93031546374E+01 -0.16098148711E+02  0.18897916068E+02  0.17770000000E+01 0. -1.
         15    1    1    2    0    0  0.41636502614E+01  0.43865592317E+01  0.27505478826E+01  0.68775815551E+01  0.17770000000E+01 0.  1.
</event>
<event>
 6    1  0.4028964E-003  0.5012671E+03  0.7546771E-02  0.9396979E-01
        -11   -1    0    0    0    0  0.00000000000E+00  0.00000000000E+00  0.50000000000E+03  0.50000000000E+03  0.00000000000E+00 0. -1.
         11   -1    0    0    0    0 -0.00000000000E+00 -0.00000000000E+00 -0.50000000000E+03  0.50000000000E+03  0.00000000000E+00 0. -1.
        -11    1    1    2    0    0  0.37078011716E+01  0.28928680004E+01  0.34457872098E+03  0.34461081154E+03  0.00000000000E+00 0. -1.
         11    1    1    2    0    0  0.62802854802E+01  0.68150474550E+01 -0.49864676786E+03  0.49873288036E+03  0.00000000000E+00 0. -1.
        -15    1    1    2    0    0 -0.45228282503E+01  0.32713294009E+00  0.44661189372E+01  0.66080964509E+01  0.17770000000E+01 0.  1.
         15    1    1    2    0    0 -0.54652584015E+01 -0.10035048396E+02  0.14960192794E+03  0.15004821165E+03  0.17770000000E+01 0. -1.
</event>
<event>
 6    1  0.4028964E-003  0.2949224E+03  0.7546771E-02  0.1003081E+00
        -11   -1    0    0    0    0  0.00000000000E+00  0.00000000000E+00  0.50000000000E+03  0.50000000000E+03  0.00000000000E+00 0.  1.
         11   -1    0    0    0    0 -0.00000000000E+00 -0.00000000000E+00 -0.50000000000E+03  0.50000000000E+03  0.00000000000E+00 0.  1.
        -11    1    1    2    0    0 -0.77678738653E+01 -0.28439510738E+01  0.25483942287E+03  0.25497364446E+03  0.00000000000E+00 0.  1.
         11    1    1    2    0    0 -0.42928730583E+02 -0.15737271142E+02 -0.35972126006E+03  0.36261539205E+03  0.00000000000E+00 0.  1.
        -15    1    1    2    0    0  0.39270396634E+02  0.19636104395E+02 -0.13514195945E+03  0.14210646565E+03  0.17770000000E+01 0. -1.
         15    1    1    2    0    0  0.11426207815E+02 -0.10548821793E+01  0.24002379664E+03  0.24030449784E+03  0.17770000000E+01 0.  1.
</event>
<event>
 6    1  0.4028964E-003  0.5071452E+03  0.7546771E-02  0.9383962E-01
        -11   -1    0    0    0    0  0.00000000000E+00  0.00000000000E+00  0.50000000000E+03  0.50000000000E+03  0.00000000000E+00 0.  1.
         11   -1    0    0    0    0 -0.00000000000E+00 -0.00000000000E+00 -0.50000000000E+03  0.50000000000E+03  0.00000000000E+00 0.  1.
        -11    1    1    2    0    0  0.31479103470E+01 -0.10968556430E+01  0.22893646410E+03  0.22896073250E+03  0.00000000000E+00 0.  1.
         11    1    1    2    0    0 -0.11365623390E+02 -0.26591810623E+01 -0.49271653279E+03  0.49285477609E+03  0.00000000000E+00 0.  1.
        -15    1    1    2    0    0  0.33646128088E+02 -0.53704074007E+01  0.23918519996E+03  0.24160633439E+03  0.17770000000E+01 0.  1.
         15    1    1    2    0    0 -0.25428415045E+02  0.91264441059E+01  0.24594868723E+02  0.36578157010E+02  0.17770000000E+01 0. -1.
</event>
<event>
 6    1  0.4028964E-003  0.5254303E+03  0.7546771E-02  0.9344639E-01
        -11   -1    0    0    0    0  0.00000000000E+00  0.00000000000E+00  0.50000000000E+03  0.50000000000E+03  0.00000000000E+00 0.  1.
         11   -1    0    0    0    0 -0.00000000000E+00 -0.00000000000E+00 -0.50000000000E+03  0.50000000000E+03  0.00000000000E+00 0.  1.
        -11    1    1    2    0    0  0.25398221146E+01  0.96970447131E+01  0.47446383912E+03  0.47456971881E+03  0.00000000000E+00 0.  1.
         11    1    1    2    0    0 -0.53855088412E+01 -0.49978165420E+01 -0.46222021201E+03  0.46227860243E+03  0.00000000000E+00 0.  1.
        -15    1    1    2    0    0 -0.22930408893E+02 -0.20795820213E+02 -0.10201968028E+02  0.32642114989E+02  0.17770000000E+01 0.  1.
         15    1    1    2    0    0  0.25776095620E+02  0.16096592042E+02 -0.20416590869E+01  0.30509563772E+02  0.17770000000E+01 0. -1.
</event>
<event>
 6    1  0.4028964E-003  0.5013822E+03  0.7546771E-02  0.9396722E-01
        -11   -1    0    0    0    0  0.00000000000E+00  0.00000000000E+00  0.50000000000E+03  0.50000000000E+03  0.00000000000E+00 0.  1.
         11   -1    0    0    0    0 -0.00000000000E+00 -0.00000000000E+00 -0.50000000000E+03  0.50000000000E+03  0.00000000000E+00 0. -1.
        -11    1    1    2    0    0 -0.56856084802E+01  0.64342934927E+01  0.33057400917E+03  0.33068550288E+03  0.00000000000E+00 0.  1.
         11    1    1    2    0    0  0.96695486142E+01  0.93917809469E+01 -0.49843559754E+03  0.49861784025E+03  0.00000000000E+00 0. -1.
        -15    1    1    2    0    0 -0.10712881953E+02 -0.19789164826E+02  0.11081965673E+03  0.11309522948E+03  0.17770000000E+01 0.  1.
         15    1    1    2    0    0  0.67289418190E+01  0.39630903859E+01  0.57041931636E+02  0.57601427388E+02  0.17770000000E+01 0. -1.
</event>
<event>
 6    1  0.4028964E-003  0.5041314E+03  0.7546771E-02  0.9390612E-01
        -11   -1    0    0    0    0  0.00000000000E+00  0.00000000000E+00  0.50000000000E+03  0.50000000000E+03  0.00000000000E+00 0. -1.
         11   -1    0    0    0    0 -0.00000000000E+00 -0.00000000000E+00 -0.50000000000E+03  0.50000000000E+03  0.00000000000E+00 0. -1.
        -11    1    1    2    0    0 -0.30922323460E+01  0.13435063622E+02  0.49567687073E+03  0.49586855416E+03  0.00000000000E+00 0. -1.
         11    1    1    2    0    0 -0.99804083511E+01  0.13313179623E+01 -0.39270032071E+03  0.39282938134E+03  0.00000000000E+00 0. -1.
        -15    1    1    2    0    0  0.24022525239E+02 -0.16390469869E+02 -0.87266431236E+02  0.92001722653E+02  0.17770000000E+01 0.  1.
         15    1    1    2    0    0 -0.10949884542E+02  0.16240882846E+01 -0.15710118781E+02  0.19300341846E+02  0.17770000000E+01 0. -1.
</event>
<event>
 6    1  0.4028964E-003  0.5006733E+03  0.7546771E-02  0.9398304E-01
        -11   -1    0    0    0    0  0.00000000000E+00  0.00000000000E+00  0.50000000000E+03  0.50000000000E+03  0.00000000000E+00 0.  1.
         11   -1    0    0    0    0 -0.00000000000E+00 -0.00000000000E+00 -0.50000000000E+03  0.50000000000E+03  0.00000000000E+00 0. -1.
        -11    1    1    2    0    0  0.73259932607E+01  0.43175238191E+01  0.14594523350E+03  0.14619275759E+03  0.00000000000E+00 0.  1.
         11    1    1    2    0    0  0.13942878747E+02 -0.48044330166E+01 -0.49910887328E+03  0.49932670050E+03  0.00000000000E+00 0. -1.
        -15    1    1    2    0    0 -0.24126909575E+02 -0.38791030264E+01  0.25923547443E+03  0.26039075279E+03  0.17770000000E+01 0. -1.
         15    1    1    2    0    0  0.28580375669E+01  0.43660122239E+01  0.93928165354E+02  0.94089789123E+02  0.17770000000E+01 0.  1.
</event>
<event>
 6    1  0.4028964E-003  0.4898917E+03  0.7546771E-02  0.9422716E-01
        -11   -1    0    0    0    0  0.00000000000E+00  0.00000000000E+00  0.50000000000E+03  0.50000000000E+03  0.00000000000E+00 0.  1.
         11   -1    0    0    0    0 -0.00000000000E+00 -0.00000000000E+00 -0.50000000000E+03  0.50000000000E+03  0.00000000000E+00 0. -1.
        -11    1    1    2    0    0 -0.57718302932E+01  0.10077164028E+02  0.49191394808E+03  0.49205100912E+03  0.00000000000E+00 0.  1.
         11    1    1    2    0    0 -0.67280301026E+01 -0.25502609111E+01 -0.48779669892E+03  0.48784976140E+03  0.00000000000E+00 0. -1.
        -15    1    1    2    0    0  0.77784805230E+01 -0.82002072469E+01  0.25394498654E+01  0.11719841840E+02  0.17770000000E+01 0. -1.
         15    1    1    2    0    0  0.47213798728E+01  0.67330412979E+00 -0.66566990248E+01  0.83793876424E+01  0.17770000000E+01 0. -1.
</event>
<event>
 6    1  0.4028964E-003  0.5004779E+03  0.7546771E-02  0.9398741E-01
        -11   -1    0    0    0    0  0.00000000000E+00  0.00000000000E+00  0.50000000000E+03  0.50000000000E+03  0.00000000000E+00 0.  1.
         11   -1    0    0    0    0 -0.00000000000E+00 -0.00000000000E+00 -0.50000000000E+03  0.50000000000E+03  0.00000000000E+00 0. -1.
        -11    1    1    2    0    0 -0.10175817754E+01  0.18257619935E+01  0.61638859672E+02  0.61674288818E+02  0.00000000000E+00 0.  1.
         11    1    1    2    0    0  0.22364990588E+02  0.71543255631E+00 -0.49902064601E+03  0.49952208138E+03  0.00000000000E+00 0. -1.
        -15    1    1    2    0    0 -0.17827059016E+02  0.66016693523E+01  0.14491180498E+03  0.14616420568E+03  0.17770000000E+01 0.  1.
         15    1    1    2    0    0 -0.35203497967E+01 -0.91428639022E+01  0.29246998136E+03  0.29263942412E+03  0.17770000000E+01 0.  1.
</event>
<event>
 6    1  0.4028964E-003  0.5020867E+03  0.7546771E-02  0.9395153E-01
        -11   -1    0    0    0    0  0.00000000000E+00  0.00000000000E+00  0.50000000000E+03  0.50000000000E+03  0.00000000000E+00 0. -1.
         11   -1    0    0    0    0 -0.00000000000E+00 -0.00000000000E+00 -0.50000000000E+03  0.50000000000E+03  0.00000000000E+00 0. -1.
        -11    1    1    2    0    0 -0.39621413704E+01 -0.45834156521E+01  0.38586266084E+03  0.38591022180E+03  0.00000000000E+00 0. -1.
         11    1    1    2    0    0  0.10383393011E+02  0.14807875607E+02 -0.49758477907E+03  0.49791334627E+03  0.00000000000E+00 0. -1.
        -15    1    1    2    0    0  0.43199166454E+00 -0.31190790014E+00  0.97217837364E+02  0.97235536374E+02  0.17770000000E+01 0. -1.
         15    1    1    2    0    0 -0.68532433055E+01 -0.99125520548E+01  0.14504280869E+02  0.18940895559E+02  0.17770000000E+01 0.  1.
</event>
<event>
 6    1  0.4028964E-003  0.5045240E+03  0.7546771E-02  0.9389743E-01
        -11   -1    0    0    0    0  0.00000000000E+00  0.00000000000E+00  0.50000000000E+03  0.50000000000E+03  0.00000000000E+00 0.  1.
         11   -1    0    0    0    0 -0.00000000000E+00 -0.00000000000E+00 -0.50000000000E+03  0.50000000000E+03  0.00000000000E+00 0.  1.
        -11    1    1    2    0    0  0.77407731467E+01 -0.93498611499E+01  0.43759218837E+03  0.43776050849E+03  0.00000000000E+00 0.  1.
         11    1    1    2    0    0 -0.67129664382E+01 -0.44883722118E+01 -0.49541014888E+03  0.49547595806E+03  0.00000000000E+00 0.  1.
        -15    1    1    2    0    0  0.70124635330E+01  0.52951338815E+00  0.41489872924E+00  0.72653216849E+01  0.17770000000E+01 0. -1.
         15    1    1    2    0    0 -0.80402702415E+01  0.13308719974E+02  0.57403061775E+02  0.59498211763E+02  0.17770000000E+01 0.  1.
</event>
<event>
 6    1  0.4028964E-003  0.5087397E+03  0.7546771E-02  0.9380464E-01
        -11   -1    0    0    0    0  0.00000000000E+00  0.00000000000E+00  0.50000000000E+03  0.50000000000E+03  0.00000000000E+00 0. -1.
         11   -1    0    0    0    0 -0.00000000000E+00 -0.00000000000E+00 -0.50000000000E+03  0.50000000000E+03  0.00000000000E+00 0.  1.
        -11    1    1    2    0    0  0.11128969649E+01  0.97596172695E+01  0.49116209607E+03  0.49126031112E+03  0.00000000000E+00 0. -1.
         11    1    1    2    0    0  0.21357057881E+01 -0.48704649665E+01 -0.32856202364E+03  0.32860506089E+03  0.00000000000E+00 0.  1.
        -15    1    1    2    0    0  0.30159083113E+01  0.15444874168E+02 -0.15735327533E+03  0.15814819262E+03  0.17770000000E+01 0.  1.
         15    1    1    2    0    0 -0.62645110642E+01 -0.20334026471E+02 -0.52467970935E+01  0.21986435367E+02  0.17770000000E+01 0. -1.
</event>
<event>
 6    1  0.4028964E-003  0.5155551E+03  0.7546771E-02  0.9365661E-01
        -11   -1    0    0    0    0  0.00000000000E+00  0.00000000000E+00  0.50000000000E+03  0.50000000000E+03  0.00000000000E+00 0.  1.
         11   -1    0    0    0    0 -0.00000000000E+00 -0.00000000000E+00 -0.50000000000E+03  0.50000000000E+03  0.00000000000E+00 0.  1.
        -11    1    1    2    0    0 -0.49651507283E+01 -0.48577280201E+01  0.35701770289E+03  0.35708527052E+03  0.00000000000E+00 0.  1.
         11    1    1    2    0    0  0.90288406978E+01 -0.98090677780E+01 -0.48426142992E+03  0.48444490944E+03  0.00000000000E+00 0.  1.
        -15    1    1    2    0    0 -0.11475563779E+02  0.51167301903E+01 -0.12723763358E+02  0.17970013213E+02  0.17770000000E+01 0.  1.
         15    1    1    2    0    0  0.74118738093E+01  0.95500656079E+01  0.13996749039E+03  0.14049980683E+03  0.17770000000E+01 0. -1.
</event>
<event>
 6    1  0.4028964E-003  0.5006943E+03  0.7546771E-02  0.9398257E-01
        -11   -1    0    0    0    0  0.00000000000E+00  0.00000000000E+00  0.50000000000E+03  0.50000000000E+03  0.00000000000E+00 0. -1.
         11   -1    0    0    0    0 -0.00000000000E+00 -0.00000000000E+00 -0.50000000000E+03  0.50000000000E+03  0.00000000000E+00 0.  1.
        -11    1    1    2    0    0  0.70156232546E+01 -0.10397059825E+02  0.49914810680E+03  0.49930566825E+03  0.00000000000E+00 0. -1.
         11    1    1    2    0    0  0.17306883051E+01 -0.23229564818E+01 -0.14428734541E+02  0.14716650070E+02  0.00000000000E+00 0.  1.
        -15    1    1    2    0    0 -0.72095053124E+01  0.58072728571E+01 -0.36460566667E+02  0.37659421605E+02  0.17770000000E+01 0. -1.
         15    1    1    2    0    0 -0.15368062472E+01  0.69127434498E+01 -0.44825880559E+03  0.44831826008E+03  0.17770000000E+01 0.  1.
</event>
<event>
 6    1  0.4028964E-003  0.5109029E+03  0.7546771E-02  0.9375739E-01
        -11   -1    0    0    0    0  0.00000000000E+00  0.00000000000E+00  0.50000000000E+03  0.50000000000E+03  0.00000000000E+00 0.  1.
         11   -1    0    0    0    0 -0.00000000000E+00 -0.00000000000E+00 -0.50000000000E+03  0.50000000000E+03  0.00000000000E+00 0. -1.
        -11    1    1    2    0    0 -0.63392611976E+01 -0.35395168629E+01  0.47220835292E+03  0.47226416652E+03  0.00000000000E+00 0.  1.
         11    1    1    2    0    0 -0.29308448608E+01 -0.74977244061E+01 -0.48903082085E+03  0.48909707571E+03  0.00000000000E+00 0. -1.
        -15    1    1    2    0    0  0.37024945819E+01  0.97354268246E+01 -0.79054600831E+01  0.13196250593E+02  0.17770000000E+01 0. -1.
         15    1    1    2    0    0  0.55676114765E+01  0.13018144443E+01  0.24727928021E+02  0.25442507180E+02  0.17770000000E+01 0. -1.
</event>
<event>
 6    1  0.4028964E-003  0.5006090E+03  0.7546771E-02  0.9398448E-01
        -11   -1    0    0    0    0  0.00000000000E+00  0.00000000000E+00  0.50000000000E+03  0.50000000000E+03  0.00000000000E+00 0. -1.
         11   -1    0    0    0    0 -0.00000000000E+00 -0.00000000000E+00 -0.50000000000E+03  0.50000000000E+03  0.00000000000E+00 0. -1.
        -11    1    1    2    0    0 -0.68957154565E+01  0.62008579295E+01  0.49930484508E+03  0.49939095892E+03  0.00000000000E+00 0. -1.
         11    1    1    2    0    0 -0.22521543406E+01 -0.84721133874E+00 -0.58106830065E+02  0.58156630460E+02  0.00000000000E+00 0. -1.
        -15    1    1    2    0    0 -0.52402139518E+01  0.10419083502E+02 -0.14295031324E+03  0.14343628177E+03  0.17770000000E+01 0.  1.
         15    1    1    2    0    0  0.14388083749E+02 -0.15772730093E+02 -0.29824770178E+03  0.29901612885E+03  0.17770000000E+01 0. -1.
</event>
<event>
 6    1  0.4028964E-003  0.5168170E+03  0.7546771E-02  0.9362947E-01
        -11   -1    0    0    0    0  0.00000000000E+00  0.00000000000E+00  0.50000000000E+03  0.50000000000E+03  0.00000000000E+00 0. -1.
         11   -1    0    0    0    0 -0.00000000000E+00 -0.00000000000E+00 -0.50000000000E+03  0.50000000000E+03  0.00000000000E+00 0.  1.
        -11    1    1    2    0    0  0.11600503029E+02 -0.19809771263E+02  0.41653134932E+03  0.41716347356E+03  0.00000000000E+00 0. -1.
         11    1    1    2    0    0 -0.11500201118E+02  0.21500680137E+01 -0.48304133577E+03  0.48318299793E+03  0.00000000000E+00 0.  1.
        -15    1    1    2    0    0  0.60242626341E+01 -0.14692871683E+02 -0.82216652388E+01  0.17970134304E+02  0.17770000000E+01 0.  1.
         15    1    1    2    0    0 -0.61245645449E+01  0.32352574933E+02  0.74731651698E+02  0.81683394213E+02  0.17770000000E+01 0. -1.
</event>
<event>
 6    1  0.4028964E-003  0.5037252E+03  0.7546771E-02  0.9391513E-01
        -11   -1    0    0    0    0  0.00000000000E+00  0.00000000000E+00  0.50000000000E+03  0.50000000000E+03  0.00000000000E+00 0.  1.
         11   -1    0    0    0    0 -0.00000000000E+00 -0.00000000000E+00 -0.50000000000E+03  0.50000000000E+03  0.00000000000E+00 0. -1.
        -11    1    1    2    0    0 -0.25124492239E+01  0.71143684439E+01  0.38904621956E+03  0.38911937448E+03  0.00000000000E+00 0.  1.
         11    1    1    2    0    0 -0.11180613553E+02  0.50418839734E+01 -0.49612322218E+03  0.49627480119E+03  0.00000000000E+00 0. -1.
        -15    1    1    2    0    0  0.11742299624E+02 -0.53580320805E+01  0.80592462107E+01  0.15319898391E+02  0.17770000000E+01 0.  1.
         15    1    1    2    0    0  0.19507631526E+01 -0.67982203367E+01  0.99017756407E+02  0.99285925939E+02  0.17770000000E+01 0.  1.
</event>
<event>
 6    1  0.4028964E-003  0.5016169E+03  0.7546771E-02  0.9396199E-01
        -11   -1    0    0    0    0  0.00000000000E+00  0.00000000000E+00  0.50000000000E+03  0.50000000000E+03  0.00000000000E+00 0. -1.
         11   -1    0    0    0    0 -0.00000000000E+00 -0.00000000000E+00 -0.50000000000E+03  0.50000000000E+03  0.00000000000E+00 0. -1.
        -11    1    1    2    0    0 -0.12699197034E+02  0.39202614292E+01  0.42696858336E+03  0.42717538462E+03  0.00000000000E+00 0. -1.
         11    1    1    2    0    0  0.10659480723E+02  0.11376846691E+02 -0.49813921557E+03  0.49838312096E+03  0.00000000000E+00 0. -1.
        -15    1    1    2    0    0  0.30491449171E+01 -0.63385445434E+01  0.57585119322E+02  0.58040314678E+02  0.17770000000E+01 0. -1.
         15    1    1    2    0    0 -0.10094286066E+01 -0.89585635769E+01  0.13585512889E+02  0.16401179742E+02  0.17770000000E+01 0.  1.
</event>
<event>
 6    1  0.4028964E-003  0.4864935E+03  0.7546771E-02  0.9430549E-01
        -11   -1    0    0    0    0  0.00000000000E+00  0.00000000000E+00  0.50000000000E+03  0.50000000000E+03  0.00000000000E+00 0.  1.
         11   -1    0    0    0    0 -0.00000000000E+00 -0.00000000000E+00 -0.50000000000E+03  0.50000000000E+03  0.00000000000E+00 0. -1.
        -11    1    1    2    0    0 -0.14685912070E+01  0.14850153376E+02  0.49063850642E+03  0.49086538664E+03  0.00000000000E+00 0.  1.
         11    1    1    2    0    0  0.72480418380E+01  0.21922518169E+01 -0.48226465718E+03  0.48232410228E+03  0.00000000000E+00 0. -1.
        -15    1    1    2    0    0 -0.14285581509E+01 -0.12528767083E+02 -0.13471089230E+02  0.18537495976E+02  0.17770000000E+01 0.  1.
         15    1    1    2    0    0 -0.43508924801E+01 -0.45136381104E+01  0.50972399926E+01  0.82730151038E+01  0.17770000000E+01 0. -1.
</event>
<event>
 6    1  0.4028964E-003  0.5077158E+03  0.7546771E-02  0.9382709E-01
        -11   -1    0    0    0    0  0.00000000000E+00  0.00000000000E+00  0.50000000000E+03  0.50000000000E+03  0.00000000000E+00 0.  1.
         11   -1    0    0    0    0 -0.00000000000E+00 -0.00000000000E+00 -0.50000000000E+03  0.50000000000E+03  0.00000000000E+00 0.  1.
        -11    1    1    2    0    0  0.20878964923E+02 -0.21502296285E+02  0.17371165334E+03  0.17627824150E+03  0.00000000000E+00 0.  1.
         11    1    1    2    0    0 -0.60978871496E+01 -0.58608912691E+01 -0.49221149732E+03  0.49228415816E+03  0.00000000000E+00 0.  1.
        -15    1    1    2    0    0  0.21689665640E+01 -0.24999009610E+01 -0.49227818275E+01  0.61923687465E+01  0.17770000000E+01 0. -1.
         15    1    1    2    0    0 -0.16950044338E+02  0.29863088515E+02  0.32342262581E+03  0.32524523159E+03  0.17770000000E+01 0.  1.
</event>
<event>
 6    1  0.4028964E-003  0.5016339E+03  0.7546771E-02  0.9396161E-01
        -11   -1    0    0    0    0  0.00000000000E+00  0.00000000000E+00  0.50000000000E+03  0.50000000000E+03  0.00000000000E+00 0.  1.
         11   -1    0    0    0    0 -0.00000000000E+00 -0.00000000000E+00 -0.50000000000E+03  0.50000000000E+03  0.00000000000E+00 0.  1.
        -11    1    1    2    0    0  0.92359426916E+01  0.21171180081E+02  0.49783054704E+03  0.49836610546E+03  0.00000000000E+00 0.  1.
         11    1    1    2    0    0  0.22043489896E+01  0.60437301715E+01 -0.31039556423E+03  0.31046222335E+03  0.00000000000E+00 0.  1.
        -15    1    1    2    0    0 -0.63263965200E+01 -0.15673342257E+02 -0.16021990028E+03  0.16111874853E+03  0.17770000000E+01 0.  1.
         15    1    1    2    0    0 -0.51138951612E+01 -0.11541567995E+02 -0.27215082520E+02  0.30052922671E+02  0.17770000000E+01 0. -1.
</event>
<event>
 6    1  0.4028964E-003  0.5023122E+03  0.7546771E-02  0.9394651E-01
        -11   -1    0    0    0    0  0.00000000000E+00  0.00000000000E+00  0.50000000000E+03  0.50000000000E+03  0.00000000000E+00 0. -1.
         11   -1    0    0    0    0 -0.00000000000E+00 -0.00000000000E+00 -0.50000000000E+03  0.50000000000E+03  0.00000000000E+00 0.  1.
        -11    1    1    2    0    0 -0.11113257096E+01 -0.63781742415E+01  0.45117644287E+03  0.45122289254E+03  0.00000000000E+00 0. -1.
         11    1    1    2    0    0  0.83111197370E+01 -0.26024073288E+01 -0.49761159738E+03  0.49768780283E+03  0.00000000000E+00 0.  1.
        -15    1    1    2    0    0 -0.73360990498E+01  0.60565236952E+01  0.81527441597E+01  0.12654042630E+02  0.17770000000E+01 0.  1.
         15    1    1    2    0    0  0.13630502235E+00  0.29240578751E+01  0.38282410355E+02  0.38435262001E+02  0.17770000000E+01 0. -1.
</event>
<event>
 6    1  0.4028964E-003  0.5092552E+03  0.7546771E-02  0.9379335E-01
        -11   -1    0    0    0    0  0.00000000000E+00  0.00000000000E+00  0.50000000000E+03  0.50000000000E+03  0.00000000000E+00 0. -1.
         11   -1    0    0    0    0 -0.00000000000E+00 -0.00000000000E+00 -0.50000000000E+03  0.50000000000E+03  0.00000000000E+00 0. -1.
        -11    1    1    2    0    0 -0.74020375044E+01 -0.53917176016E+01  0.47766252067E+03  0.47775029506E+03  0.00000000000E+00 0. -1.
         11    1    1    2    0    0  0.58672493921E+01 -0.33568436245E+01 -0.49069827522E+03  0.49074483219E+03  0.00000000000E+00 0. -1.
        -15    1    1    2    0    0  0.72096756624E+01  0.10056858509E+02  0.19154391541E+02  0.22872871935E+02  0.17770000000E+01 0. -1.
         15    1    1    2    0    0 -0.56748875500E+01 -0.13082972828E+01 -0.61186369899E+01  0.86320008167E+01  0.17770000000E+01 0.  1.
</event>
<event>
 6    1  0.4028964E-003  0.5139124E+03  0.7546771E-02  0.9369207E-01
        -11   -1    0    0    0    0  0.00000000000E+00  0.00000000000E+00  0.50000000000E+03  0.50000000000E+03  0.00000000000E+00 0.  1.
         11   -1    0    0    0    0 -0.00000000000E+00 -0.00000000000E+00 -0.50000000000E+03  0.50000000000E+03  0.00000000000E+00 0. -1.
        -11    1    1    2    0    0  0.26207611363E+02 -0.37769540389E+02  0.48390882681E+03  0.48608757414E+03  0.00000000000E+00 0.  1.
         11    1    1    2    0    0  0.27174678147E+01 -0.14712323943E+02 -0.34605572513E+03  0.34637898608E+03  0.00000000000E+00 0. -1.
        -15    1    1    2    0    0 -0.24798482723E+02  0.52632793866E+02 -0.42497636490E+02  0.72072065128E+02  0.17770000000E+01 0.  1.
         15    1    1    2    0    0 -0.41265964538E+01 -0.15092953422E+00 -0.95355465192E+02  0.95461374644E+02  0.17770000000E+01 0. -1.
</event>
<event>
 6    1  0.4028964E-003  0.5100468E+03  0.7546771E-02  0.9377606E-01
        -11   -1    0    0    0    0  0.00000000000E+00  0.00000000000E+00  0.50000000000E+03  0.50000000000E+03  0.00000000000E+00 0. -1.
         11   -1    0    0    0    0 -0.00000000000E+00 -0.00000000000E+00 -0.50000000000E+03  0.50000000000E+03  0.00000000000E+00 0. -1.
        -11    1    1    2    0    0 -0.78178058241E+01  0.65767429348E+01  0.48984667364E+03  0.48995319706E+03  0.00000000000E+00 0. -1.
         11    1    1    2    0    0 -0.11280845854E+02  0.12528549478E+00 -0.46653283200E+03  0.46666921531E+03  0.00000000000E+00 0. -1.
        -15    1    1    2    0    0  0.11410024612E+02 -0.12291882283E+02 -0.27957013415E+02  0.32650135678E+02  0.17770000000E+01 0. -1.
         15    1    1    2    0    0  0.76886270661E+01  0.55898538532E+01  0.46431717798E+01  0.10727451955E+02  0.17770000000E+01 0.  1.
</event>
<event>
 6    1  0.4028964E-003  0.5061166E+03  0.7546771E-02  0.9386227E-01
        -11   -1    0    0    0    0  0.00000000000E+00  0.00000000000E+00  0.50000000000E+03  0.50000000000E+03  0.00000000000E+00 0.  1.
         11   -1    0    0    0    0 -0.00000000000E+00 -0.00000000000E+00 -0.50000000000E+03  0.50000000000E+03  0.00000000000E+00 0. -1.
        -11    1    1    2    0    0  0.77754200056E+01  0.58181454719E+01  0.48337457154E+03  0.48347211335E+03  0.00000000000E+00 0.  1.
         11    1    1    2    0    0 -0.12977028768E+02  0.31902446027E+00 -0.49371282125E+03  0.49388344265E+03  0.00000000000E+00 0. -1.
        -15    1    1    2    0    0  0.81731023025E+01  0.35423004424E+01  0.17528189678E+01  0.92508160183E+01  0.17770000000E+01 0. -1.
         15    1    1    2    0    0 -0.29714935398E+01 -0.96794703746E+01  0.85854307453E+01  0.13393627988E+02  0.17770000000E+01 0.  1.
</event>
<event>
 6    1  0.4028964E-003  0.5171366E+03  0.7546771E-02  0.9362261E-01
        -11   -1    0    0    0    0  0.00000000000E+00  0.00000000000E+00  0.50000000000E+03  0.50000000000E+03  0.00000000000E+00 0.  1.
         11   -1    0    0    0    0 -0.00000000000E+00 -0.00000000000E+00 -0.50000000000E+03  0.50000000000E+03  0.00000000000E+00 0. -1.
        -11    1    1    2    0    0  0.54165571978E+01  0.81566810464E+01  0.46539019728E+03  0.46549318606E+03  0.00000000000E+00 0.  1.
         11    1    1    2    0    0  0.39295620092E+01 -0.54268678957E+01 -0.48281694066E+03  0.48286342845E+03  0.00000000000E+00 0. -1.
        -15    1    1    2    0    0 -0.13746556260E+02  0.12599994048E+02 -0.89564366974E+01  0.20763023535E+02  0.17770000000E+01 0. -1.
         15    1    1    2    0    0  0.44004370528E+01 -0.15329807198E+02  0.26383180070E+02  0.30880361957E+02  0.17770000000E+01 0.  1.
</event>
<event>
 6    1  0.4028964E-003  0.5015203E+03  0.7546771E-02  0.9396414E-01
        -11   -1    0    0    0    0  0.00000000000E+00  0.00000000000E+00  0.50000000000E+03  0.50000000000E+03  0.00000000000E+00 0.  1.
         11   -1    0    0    0    0 -0.00000000000E+00 -0.00000000000E+00 -0.50000000000E+03  0.50000000000E+03  0.00000000000E+00 0.  1.
        -11    1    1    2    0    0 -0.24271676663E+02 -0.89364873683E+01  0.49780819010E+03  0.49847965779E+03  0.00000000000E+00 0.  1.
         11    1    1    2    0    0 -0.15046628444E+01  0.10009337892E+02 -0.28659978979E+03  0.28677846914E+03  0.00000000000E+00 0.  1.
        -15    1    1    2    0    0  0.11087985071E+02 -0.16061900822E+01 -0.17825377454E+03  0.17861435868E+03  0.17770000000E+01 0.  1.
         15    1    1    2    0    0  0.14688354437E+02  0.53333955816E+00 -0.32954625767E+02  0.36127514385E+02  0.17770000000E+01 0. -1.
</event>
<event>
 6    1  0.4028964E-003  0.5107119E+03  0.7546771E-02  0.9376155E-01
        -11   -1    0    0    0    0  0.00000000000E+00  0.00000000000E+00  0.50000000000E+03  0.50000000000E+03  0.00000000000E+00 0. -1.
         11   -1    0    0    0    0 -0.00000000000E+00 -0.00000000000E+00 -0.50000000000E+03  0.50000000000E+03  0.00000000000E+00 0. -1.
        -11    1    1    2    0    0  0.73876630417E+01 -0.50609816941E+01  0.42734936392E+03  0.42744317744E+03  0.00000000000E+00 0. -1.
         11    1    1    2    0    0  0.20619651864E+02  0.68003499981E+01 -0.48880613218E+03  0.48928810497E+03  0.00000000000E+00 0. -1.
        -15    1    1    2    0    0 -0.25068834408E+02  0.20411632332E+01  0.69392515614E+02  0.73831509250E+02  0.17770000000E+01 0.  1.
         15    1    1    2    0    0 -0.29384804984E+01 -0.37805315371E+01 -0.79357473458E+01  0.94372083414E+01  0.17770000000E+01 0. -1.
</event>
<event>
 6    1  0.4028964E-003  0.5229633E+03  0.7546771E-02  0.9349844E-01
        -11   -1    0    0    0    0  0.00000000000E+00  0.00000000000E+00  0.50000000000E+03  0.50000000000E+03  0.00000000000E+00 0.  1.
         11   -1    0    0    0    0 -0.00000000000E+00 -0.00000000000E+00 -0.50000000000E+03  0.50000000000E+03  0.00000000000E+00 0.  1.
        -11    1    1    2    0    0 -0.27504257330E+01  0.33521289920E+01  0.31278247266E+03  0.31281252662E+03  0.00000000000E+00 0.  1.
         11    1    1    2    0    0  0.29213969698E+02 -0.12214274756E+02 -0.47598461426E+03  0.47703668365E+03  0.00000000000E+00 0.  1.
        -15    1    1    2    0    0  0.19766300393E+02  0.10749380816E+02  0.16227702594E+03  0.16383908782E+03  0.17770000000E+01 0. -1.
         15    1    1    2    0    0 -0.46229844359E+02 -0.18872350519E+01  0.92511566289E+00  0.46311701907E+02  0.17770000000E+01 0.  1.
</event>
<event>
 6    1  0.4028964E-003  0.5002679E+03  0.7546771E-02  0.9399211E-01
        -11   -1    0    0    0    0  0.00000000000E+00  0.00000000000E+00  0.50000000000E+03  0.50000000000E+03  0.00000000000E+00 0. -1.
         11   -1    0    0    0    0 -0.00000000000E+00 -0.00000000000E+00 -0.50000000000E+03  0.50000000000E+03  0.00000000000E+00 0.  1.
        -11    1    1    2    0    0  0.69709064678E+01 -0.23669617394E+01  0.49967788964E+03  0.49973211768E+03  0.00000000000E+00 0. -1.
         11    1    1    2    0    0  0.20144348039E+01 -0.45471044921E+00 -0.72554102992E+02  0.72583486897E+02  0.00000000000E+00 0.  1.
        -15    1    1    2    0    0 -0.11159447678E+02  0.92439136919E+01 -0.25454386068E+03  0.25496218926E+03  0.17770000000E+01 0.  1.
         15    1    1    2    0    0  0.21741064063E+01 -0.64222415033E+01 -0.17257992597E+03  0.17272220617E+03  0.17770000000E+01 0.  1.
</event>
<event>
 6    1  0.4028964E-003  0.5029149E+03  0.7546771E-02  0.9393311E-01
        -11   -1    0    0    0    0  0.00000000000E+00  0.00000000000E+00  0.50000000000E+03  0.50000000000E+03  0.00000000000E+00 0. -1.
         11   -1    0    0    0    0 -0.00000000000E+00 -0.00000000000E+00 -0.50000000000E+03  0.50000000000E+03  0.00000000000E+00 0.  1.
        -11    1    1    2    0    0  0.21897103538E+01 -0.63601176144E+01  0.49703954829E+03  0.49708506163E+03  0.00000000000E+00 0. -1.
         11    1    1    2    0    0  0.28744918374E+01 -0.62718188988E+01 -0.45656998360E+03  0.45662210671E+03  0.00000000000E+00 0.  1.
        -15    1    1    2    0    0  0.23866375322E+00  0.40635280402E+01  0.11027509949E+00  0.44428718323E+01  0.17770000000E+01 0.  1.
         15    1    1    2    0    0 -0.53028659444E+01  0.85684084730E+01 -0.40579839794E+02  0.41849959829E+02  0.17770000000E+01 0. -1.
</event>
<event>
 6    1  0.4028964E-003  0.5020563E+03  0.7546771E-02  0.9395220E-01
        -11   -1    0    0    0    0  0.00000000000E+00  0.00000000000E+00  0.50000000000E+03  0.50000000000E+03  0.00000000000E+00 0. -1.
         11   -1    0    0    0    0 -0.00000000000E+00 -0.00000000000E+00 -0.50000000000E+03  0.50000000000E+03  0.00000000000E+00 0. -1.
        -11    1    1    2    0    0 -0.10262345877E+02  0.12850005165E+01  0.49783628422E+03  0.49794370451E+03  0.00000000000E+00 0. -1.
         11    1    1    2    0    0 -0.37672048633E+01  0.41965825996E+01 -0.39843124126E+03  0.39847114971E+03  0.00000000000E+00 0. -1.
        -15    1    1    2    0    0  0.11253219587E+02 -0.61075725223E+01 -0.99392833273E+02  0.10022988790E+03  0.17770000000E+01 0. -1.
         15    1    1    2    0    0  0.27763311533E+01  0.62598940618E+00 -0.12209686985E-01  0.33552578866E+01  0.17770000000E+01 0.  1.
</event>
<event>
 6    1  0.4028964E-003  0.5063709E+03  0.7546771E-02  0.9385666E-01
        -11   -1    0    0    0    0  0.00000000000E+00  0.00000000000E+00  0.50000000000E+03  0.50000000000E+03  0.00000000000E+00 0. -1.
         11   -1    0    0    0    0 -0.00000000000E+00 -0.00000000000E+00 -0.50000000000E+03  0.50000000000E+03  0.00000000000E+00 0. -1.
        -11    1    1    2    0    0 -0.46677639703E+01  0.41546322990E+01  0.39630016881E+03  0.39634943268E+03  0.00000000000E+00 0. -1.
         11    1    1    2    0    0 -0.66613600883E+01  0.67568236340E+01 -0.49353787042E+03  0.49362906916E+03  0.00000000000E+00 0. -1.
        -15    1    1    2    0    0 -0.17179235061E+01 -0.51762289592E+01  0.95365297210E+02  0.95537648330E+02  0.17770000000E+01 0.  1.
         15    1    1    2    0    0  0.13047047565E+02 -0.57352269737E+01  0.18724043984E+01  0.14483849828E+02  0.17770000000E+01 0. -1.
</event>
<event>
 6    1  0.4028964E-003  0.5127162E+03  0.7546771E-02  0.9371797E-01
        -11   -1    0    0    0    0  0.00000000000E+00  0.00000000000E+00  0.50000000000E+03  0.50000000000E+03  0.00000000000E+00 0.  1.
         11   -1    0    0    0    0 -0.00000000000E+00 -0.00000000000E+00 -0.50000000000E+03  0.50000000000E+03  0.00000000000E+00 0. -1.
        -11    1    1    2    0    0  0.11860452425E+02 -0.68332003442E+01  0.47269334173E+03  0.47289148678E+03  0.00000000000E+00 0.  1.
         11    1    1    2    0    0 -0.85447725256E+01 -0.28049237336E+01 -0.48720075236E+03  0.48728375084E+03  0.00000000000E+00 0. -1.
        -15    1    1    2    0    0 -0.93371964741E+01 -0.42791318962E+01  0.20835541955E+02  0.23297462208E+02  0.17770000000E+01 0. -1.
         15    1    1    2    0    0  0.60215165748E+01  0.13917255974E+02 -0.63281313229E+01  0.16527300165E+02  0.17770000000E+01 0.  1.
</event>
<event>
 6    1  0.4028964E-003  0.5059040E+03  0.7546771E-02  0.9386695E-01
        -11   -1    0    0    0    0  0.00000000000E+00  0.00000000000E+00  0.50000000000E+03  0.50000000000E+03  0.00000000000E+00 0. -1.
         11   -1    0    0    0    0 -0.00000000000E+00 -0.00000000000E+00 -0.50000000000E+03  0.50000000000E+03  0.00000000000E+00 0. -1.
        -11    1    1    2    0    0  0.13717081049E+01 -0.75970707081E+01  0.49403564382E+03  0.49409595670E+03  0.00000000000E+00 0. -1.
         11    1    1    2    0    0  0.34981178579E+01  0.61834346534E+01 -0.48778898700E+03  0.48784071943E+03  0.00000000000E+00 0. -1.
        -15    1    1    2    0    0 -0.44227385081E+01 -0.69273384296E+01 -0.31482397954E+01  0.89787402479E+01  0.17770000000E+01 0.  1.
         15    1    1    2    0    0 -0.44708745466E+00  0.83409744843E+01 -0.30984170239E+01  0.90845836225E+01  0.17770000000E+01 0. -1.
</event>
<event>
 6    1  0.4028964E-003  0.5132575E+03  0.7546771E-02  0.9370624E-01
        -11   -1    0    0    0    0  0.00000000000E+00  0.00000000000E+00  0.50000000000E+03  0.50000000000E+03  0.00000000000E+00 0.  1.
         11   -1    0    0    0    0 -0.00000000000E+00 -0.00000000000E+00 -0.50000000000E+03  0.50000000000E+03  0.00000000000E+00 0.  1.
        -11    1    1    2    0    0 -0.16115431876E+02  0.11620709779E+02  0.48633683617E+03  0.48674250508E+03  0.00000000000E+00 0.  1.
         11    1    1    2    0    0  0.13814196123E+01  0.20874872839E+01 -0.14477963557E+03  0.14480127348E+03  0.00000000000E+00 0.  1.
        -15    1    1    2    0    0  0.27360713703E+02  0.46736899056E+01 -0.17023967614E+01  0.27865891613E+02  0.17770000000E+01 0. -1.
         15    1    1    2    0    0 -0.12626701439E+02 -0.18381886968E+02 -0.33985480383E+03  0.34059032983E+03  0.17770000000E+01 0.  1.
</event>
<event>
 6    1  0.4028964E-003  0.5012378E+03  0.7546771E-02  0.9397044E-01
        -11   -1    0    0    0    0  0.00000000000E+00  0.00000000000E+00  0.50000000000E+03  0.50000000000E+03  0.00000000000E+00 0. -1.
         11   -1    0    0    0    0 -0.00000000000E+00 -0.00000000000E+00 -0.50000000000E+03  0.50000000000E+03  0.00000000000E+00 0. -1.
        -11    1    1    2    0    0  0.87528920707E+01 -0.54787485760E+00  0.29998150216E+03  0.30010967150E+03  0.00000000000E+00 0. -1.
         11    1    1    2    0    0 -0.69423585367E+01  0.61611056037E+01 -0.49867578728E+03  0.49876216414E+03  0.00000000000E+00 0. -1.
        -15    1    1    2    0    0 -0.70174352787E+01  0.11278823682E+02  0.81290092583E+02  0.82387457435E+02  0.17770000000E+01 0.  1.
         15    1    1    2    0    0  0.52069017447E+01 -0.16892054428E+02  0.11740419253E+03  0.11874070693E+03  0.17770000000E+01 0. -1.
</event>
<event>
 6    1  0.4028964E-003  0.5016113E+03  0.7546771E-02  0.9396212E-01
        -11   -1    0    0    0    0  0.00000000000E+00  0.00000000000E+00  0.50000000000E+03  0.50000000000E+03  0.00000000000E+00 0. -1.
         11   -1    0    0    0    0 -0.00000000000E+00 -0.00000000000E+00 -0.50000000000E+03  0.50000000000E+03  0.00000000000E+00 0. -1.
        -11    1    1    2    0    0  0.24875341832E+01 -0.14575018273E+02  0.49816937012E+03  0.49838874416E+03  0.00000000000E+00 0. -1.
         11    1    1    2    0    0 -0.11909330314E+01  0.72449972427E+01 -0.32940190501E+03  0.32948372241E+03  0.00000000000E+00 0. -1.
        -15    1    1    2    0    0  0.34976399337E+01  0.15242230313E+02 -0.15264731878E+03  0.15345657604E+03  0.17770000000E+01 0. -1.
         15    1    1    2    0    0 -0.47942410855E+01 -0.79122092829E+01 -0.16120146330E+02  0.18670957394E+02  0.17770000000E+01 0.  1.
</event>
<event>
 6    1  0.4028964E-003  0.4893660E+03  0.7546771E-02  0.9423924E-01
        -11   -1    0    0    0    0  0.00000000000E+00  0.00000000000E+00  0.50000000000E+03  0.50000000000E+03  0.00000000000E+00 0.  1.
         11   -1    0    0    0    0 -0.00000000000E+00 -0.00000000000E+00 -0.50000000000E+03  0.50000000000E+03  0.00000000000E+00 0. -1.
        -11    1    1    2    0    0 -0.70578880520E+01 -0.76474683834E+00  0.48729781981E+03  0.48734952940E+03  0.00000000000E+00 0.  1.
         11    1    1    2    0    0 -0.22660218771E+01 -0.11094598896E+02 -0.49137680265E+03  0.49150726054E+03  0.00000000000E+00 0. -1.
        -15    1    1    2    0    0  0.93409269490E+00 -0.64135628486E+00  0.55264229685E+01  0.59146383553E+01  0.17770000000E+01 0.  1.
         15    1    1    2    0    0  0.83898172342E+01  0.12500702019E+02 -0.14474401252E+01  0.15228571703E+02  0.17770000000E+01 0. -1.
</event>
<event>
 6    1  0.4028964E-003  0.5023400E+03  0.7546771E-02  0.9394589E-01
        -11   -1    0    0    0    0  0.00000000000E+00  0.00000000000E+00  0.50000000000E+03  0.50000000000E+03  0.00000000000E+00 0. -1.
         11   -1    0    0    0    0 -0.00000000000E+00 -0.00000000000E+00 -0.50000000000E+03  0.50000000000E+03  0.00000000000E+00 0. -1.
        -11    1    1    2    0    0  0.30442349128E+01  0.26036256148E+01  0.22865188253E+03  0.22868696862E+03  0.00000000000E+00 0. -1.
         11    1    1    2    0    0 -0.15656532340E+02 -0.11635522394E+02 -0.49727755309E+03  0.49766000160E+03  0.00000000000E+00 0. -1.
        -15    1    1    2    0    0  0.29262925151E+02  0.13416963655E+02  0.21209610110E+03  0.21453262580E+03  0.17770000000E+01 0. -1.
         15    1    1    2    0    0 -0.16650627723E+02 -0.43850668760E+01  0.56529569456E+02  0.59120403982E+02  0.17770000000E+01 0.  1.
</event>
<event>
 6    1  0.4028964E-003  0.5013752E+03  0.7546771E-02  0.9396738E-01
        -11   -1    0    0    0    0  0.00000000000E+00  0.00000000000E+00  0.50000000000E+03  0.50000000000E+03  0.00000000000E+00 0. -1.
         11   -1    0    0    0    0 -0.00000000000E+00 -0.00000000000E+00 -0.50000000000E+03  0.50000000000E+03  0.00000000000E+00 0.  1.
        -11    1    1    2    0    0 -0.51590222599E+01 -0.23995834316E+01  0.40584609326E+03  0.40588597527E+03  0.00000000000E+00 0. -1.
         11    1    1    2    0    0 -0.95470358284E+01 -0.67462592711E+01 -0.49848771329E+03  0.49862476694E+03  0.00000000000E+00 0.  1.
        -15    1    1    2    0    0  0.10951476928E+02  0.13209914853E+02  0.65607759480E+02  0.67837839959E+02  0.17770000000E+01 0. -1.
         15    1    1    2    0    0  0.37545811602E+01 -0.40640721506E+01  0.27033860556E+02  0.27651417824E+02  0.17770000000E+01 0.  1.
</event>
<event>
 6    1  0.4028964E-003  0.5001136E+03  0.7546771E-02  0.9399556E-01
        -11   -1    0    0    0    0  0.00000000000E+00  0.00000000000E+00  0.50000000000E+03  0.50000000000E+03  0.00000000000E+00 0. -1.
         11   -1    0    0    0    0 -0.00000000000E+00 -0.00000000000E+00 -0.50000000000E+03  0.50000000000E+03  0.00000000000E+00 0. -1.
        -11    1    1    2    0    0  0.51093372763E+01 -0.68085503465E+01  0.49981395042E+03  0.49988643383E+03  0.00000000000E+00 0. -1.
         11    1    1    2    0    0 -0.40993159061E+01 -0.27652326417E+01 -0.26021730555E+03  0.26026428301E+03  0.00000000000E+00 0. -1.
        -15    1    1    2    0    0 -0.17868034580E+01  0.73936960098E+01 -0.14779737920E+03  0.14800365683E+03  0.17770000000E+01 0.  1.
         15    1    1    2    0    0  0.77678208776E+00  0.21800869784E+01 -0.91799265674E+02  0.91845626335E+02  0.17770000000E+01 0. -1.
</event>
<event>
 6    1  0.4028964E-003  0.5079984E+03  0.7546771E-02  0.9382088E-01
        -11   -1    0    0    0    0  0.00000000000E+00  0.00000000000E+00  0.50000000000E+03  0.50000000000E+03  0.00000000000E+00 0. -1.
         11   -1    0    0    0    0 -0.00000000000E+00 -0.00000000000E+00 -0.50000000000E+03  0.50000000000E+03  0.00000000000E+00 0.  1.
        -11    1    1    2    0    0 -0.25686006278E+01  0.11422330187E+02  0.42841860390E+03  0.42857854298E+03  0.00000000000E+00 0. -1.
         11    1    1    2    0    0 -0.12475394976E+02  0.13559336774E+02 -0.49165643750E+03  0.49200156873E+03  0.00000000000E+00 0.  1.
        -15    1    1    2    0    0  0.90115106812E+01 -0.20774017735E+02  0.67160109038E+02  0.70897144601E+02  0.17770000000E+01 0.  1.
         15    1    1    2    0    0  0.60324849227E+01 -0.42076492261E+01 -0.39222754419E+01  0.85227436894E+01  0.17770000000E+01 0. -1.
</event>
<event>
 6    1  0.4028964E-003  0.4786068E+03  0.7546771E-02  0.9448993E-01
        -11   -1    0    0    0    0  0.00000000000E+00  0.00000000000E+00  0.50000000000E+03  0.50000000000E+03  0.00000000000E+00 0.  1.
         11   -1    0    0    0    0 -0.00000000000E+00 -0.00000000000E+00 -0.50000000000E+03  0.50000000000E+03  0.00000000000E+00 0.  1.
        -11    1    1    2    0    0 -0.50030731282E-01 -0.90574633927E+00  0.49608106912E+02  0.49616400020E+02  0.00000000000E+00 0.  1.
         11    1    1    2    0    0 -0.20984821401E+02 -0.20888643092E+02 -0.49475830827E+03  0.49564350267E+03  0.00000000000E+00 0.  1.
        -15    1    1    2    0    0 -0.18998699687E+02 -0.72870200675E+01  0.31222999686E+03  0.31289739520E+03  0.17770000000E+01 0. -1.
         15    1    1    2    0    0  0.40033551819E+02  0.29081409498E+02  0.13292020449E+03  0.14184270211E+03  0.17770000000E+01 0.  1.
</event>
<event>
 6    1  0.4028964E-003  0.5036707E+03  0.7546771E-02  0.9391633E-01
        -11   -1    0    0    0    0  0.00000000000E+00  0.00000000000E+00  0.50000000000E+03  0.50000000000E+03  0.00000000000E+00 0.  1.
         11   -1    0    0    0    0 -0.00000000000E+00 -0.00000000000E+00 -0.50000000000E+03  0.50000000000E+03  0.00000000000E+00 0. -1.
        -11    1    1    2    0    0 -0.60235323255E+01 -0.80258705709E+01  0.49622781650E+03  0.49632926914E+03  0.00000000000E+00 0.  1.
         11    1    1    2    0    0 -0.44294924383E+01  0.10781620426E+02 -0.47643053594E+03  0.47657309966E+03  0.00000000000E+00 0. -1.
        -15    1    1    2    0    0  0.44791484214E+01  0.11923045958E+01  0.97069952513E+00  0.50580972112E+01  0.17770000000E+01 0. -1.
         15    1    1    2    0    0  0.59738763424E+01 -0.39480544510E+01 -0.20767980085E+02  0.22039533986E+02  0.17770000000E+01 0.  1.
</event>
<event>
 6    1  0.4028964E-003  0.5131631E+03  0.7546771E-02  0.9370829E-01
        -11   -1    0    0    0    0  0.00000000000E+00  0.00000000000E+00  0.50000000000E+03  0.50000000000E+03  0.00000000000E+00 0.  1.
         11   -1    0    0    0    0 -0.00000000000E+00 -0.00000000000E+00 -0.50000000000E+03  0.50000000000E+03  0.00000000000E+00 0.  1.
        -11    1    1    2    0    0 -0.19202218500E+02 -0.93825847921E+01  0.40181385827E+03  0.40238182711E+03  0.00000000000E+00 0.  1.
         11    1    1    2    0    0 -0.43233950500E+00 -0.89122728370E+01 -0.48675516083E+03  0.48683693586E+03  0.00000000000E+00 0.  1.
        -15    1    1    2    0    0  0.14885753628E+02  0.20961936895E+02  0.12466985966E+00  0.25771335453E+02  0.17770000000E+01 0.  1.
         15    1    1    2    0    0  0.47488043769E+01 -0.26670792657E+01  0.84816632698E+02  0.85009901576E+02  0.17770000000E+01 0. -1.
</event>
<event>
 6    1  0.4028964E-003  0.5631755E+03  0.7546771E-02  0.9268585E-01
        -11   -1    0    0    0    0  0.00000000000E+00  0.00000000000E+00  0.50000000000E+03  0.50000000000E+03  0.00000000000E+00 0. -1.
         11   -1    0    0    0    0 -0.00000000000E+00 -0.00000000000E+00 -0.50000000000E+03  0.50000000000E+03  0.00000000000E+00 0.  1.
        -11    1    1    2    0    0 -0.37373865516E+01 -0.20593041963E+01  0.26600663424E+03  0.26604085824E+03  0.00000000000E+00 0. -1.
         11    1    1    2    0    0  0.18750414372E+03 -0.46870846894E+02 -0.39174092643E+03  0.43682448837E+03  0.00000000000E+00 0.  1.
        -15    1    1    2    0    0 -0.13458504660E+03  0.27889367497E+02 -0.22725158339E+02  0.13932172170E+03  0.17770000000E+01 0.  1.
         15    1    1    2    0    0 -0.49181710573E+02  0.21040783593E+02  0.14845945052E+03  0.15781293169E+03  0.17770000000E+01 0. -1.
</event>
<event>
 6    1  0.4028964E-003  0.5075411E+03  0.7546771E-02  0.9383092E-01
        -11   -1    0    0    0    0  0.00000000000E+00  0.00000000000E+00  0.50000000000E+03  0.50000000000E+03  0.00000000000E+00 0. -1.
         11   -1    0    0    0    0 -0.00000000000E+00 -0.00000000000E+00 -0.50000000000E+03  0.50000000000E+03  0.00000000000E+00 0. -1.
        -11    1    1    2    0    0 -0.15012331964E+02 -0.50561180514E+01  0.49220407829E+03  0.49245892126E+03  0.00000000000E+00 0. -1.
         11    1    1    2    0    0  0.91121031706E+01  0.83928632676E+01 -0.42198686941E+03  0.42216867309E+03  0.00000000000E+00 0. -1.
        -15    1    1    2    0    0 -0.14820803032E+02  0.54809841884E+01 -0.54993067501E+01  0.16825501297E+02  0.17770000000E+01 0. -1.
         15    1    1    2    0    0  0.20721031825E+02 -0.88177294045E+01 -0.64717902130E+02  0.68546904356E+02  0.17770000000E+01 0.  1.
</event>
<event>
 6    1  0.4028964E-003  0.5028635E+03  0.7546771E-02  0.9393425E-01
        -11   -1    0    0    0    0  0.00000000000E+00  0.00000000000E+00  0.50000000000E+03  0.50000000000E+03  0.00000000000E+00 0. -1.
         11   -1    0    0    0    0 -0.00000000000E+00 -0.00000000000E+00 -0.50000000000E+03  0.50000000000E+03  0.00000000000E+00 0.  1.
        -11    1    1    2    0    0  0.49366016500E+01  0.49240310031E+01  0.49708760102E+03  0.49713649957E+03  0.00000000000E+00 0. -1.
         11    1    1    2    0    0 -0.39004836040E+01 -0.62358945843E+01 -0.46762430099E+03  0.46768214316E+03  0.00000000000E+00 0.  1.
        -15    1    1    2    0    0  0.36347488535E+01  0.62735059272E+01 -0.34352918019E+01  0.82174956411E+01  0.17770000000E+01 0. -1.
         15    1    1    2    0    0 -0.46708668995E+01 -0.49616423460E+01 -0.26028008230E+02  0.26963861626E+02  0.17770000000E+01 0.  1.
</event>
<event>
 6    1  0.4028964E-003  0.4851875E+03  0.7546771E-02  0.9433578E-01
        -11   -1    0    0    0    0  0.00000000000E+00  0.00000000000E+00  0.50000000000E+03  0.50000000000E+03  0.00000000000E+00 0.  1.
         11   -1    0    0    0    0 -0.00000000000E+00 -0.00000000000E+00 -0.50000000000E+03  0.50000000000E+03  0.00000000000E+00 0. -1.
        -11    1    1    2    0    0 -0.99812068612E+00 -0.11542407201E+02  0.48717063114E+03  0.48730836978E+03  0.00000000000E+00 0.  1.
         11    1    1    2    0    0  0.57608503684E+01 -0.39998660595E+01 -0.48316014107E+03  0.48321103904E+03  0.00000000000E+00 0. -1.
        -15    1    1    2    0    0 -0.14331562435E+02  0.10538468945E+02 -0.15643030334E+00  0.17878344694E+02  0.17770000000E+01 0. -1.
         15    1    1    2    0    0  0.95688327531E+01  0.50038043155E+01 -0.38540597665E+01  0.11602246488E+02  0.17770000000E+01 0.  1.
</event>
<event>
 6    1  0.4028964E-003  0.5020365E+03  0.7546771E-02  0.9395264E-01
        -11   -1    0    0    0    0  0.00000000000E+00  0.00000000000E+00  0.50000000000E+03  0.50000000000E+03  0.00000000000E+00 0. -1.
         11   -1    0    0    0    0 -0.00000000000E+00 -0.00000000000E+00 -0.50000000000E+03  0.50000000000E+03  0.00000000000E+00 0.  1.
        -11    1    1    2    0    0  0.27844061172E+01 -0.49135515598E+01  0.68220558652E+02  0.68453929976E+02  0.00000000000E+00 0. -1.
         11    1    1    2    0    0 -0.10556212381E+02 -0.74501887385E+01 -0.49779588525E+03  0.49796353511E+03  0.00000000000E+00 0.  1.
        -15    1    1    2    0    0  0.60058747321E+01 -0.44043110047E+01  0.39499931176E+03  0.39507351532E+03  0.17770000000E+01 0. -1.
         15    1    1    2    0    0  0.17659315311E+01  0.16768051303E+02  0.34576014836E+02  0.38509019588E+02  0.17770000000E+01 0.  1.
</event>
<event>
 6    1  0.4028964E-003  0.5039519E+03  0.7546771E-02  0.9391010E-01
        -11   -1    0    0    0    0  0.00000000000E+00  0.00000000000E+00  0.50000000000E+03  0.50000000000E+03  0.00000000000E+00 0.  1.
         11   -1    0    0    0    0 -0.00000000000E+00 -0.00000000000E+00 -0.50000000000E+03  0.50000000000E+03  0.00000000000E+00 0.  1.
        -11    1    1    2    0    0  0.13332514992E+02  0.72630474668E+00  0.42256639494E+03  0.42277729552E+03  0.00000000000E+00 0.  1.
         11    1    1    2    0    0 -0.86208516884E+01  0.88793970882E+01 -0.49589367158E+03  0.49604807861E+03  0.00000000000E+00 0.  1.
        -15    1    1    2    0    0  0.57806802185E+01 -0.11761815848E+01 -0.43229429205E+00  0.61761051046E+01  0.17770000000E+01 0.  1.
         15    1    1    2    0    0 -0.10492343522E+02 -0.84295202501E+01  0.73759570935E+02  0.74998520771E+02  0.17770000000E+01 0. -1.
</event>
<event>
 6    1  0.4028964E-003  0.4496262E+03  0.7546771E-02  0.9520164E-01
        -11   -1    0    0    0    0  0.00000000000E+00  0.00000000000E+00  0.50000000000E+03  0.50000000000E+03  0.00000000000E+00 0.  1.
         11   -1    0    0    0    0 -0.00000000000E+00 -0.00000000000E+00 -0.50000000000E+03  0.50000000000E+03  0.00000000000E+00 0.  1.
        -11    1    1    2    0    0  0.51523410403E+01 -0.10502903993E+02  0.44919154613E+03  0.44934385800E+03  0.00000000000E+00 0.  1.
         11    1    1    2    0    0  0.11897165885E+02  0.69863068959E+01 -0.44986581444E+03  0.45007732896E+03  0.00000000000E+00 0.  1.
        -15    1    1    2    0    0 -0.27651279217E+02  0.31260537746E+02  0.35467135260E+02  0.54798630230E+02  0.17770000000E+01 0. -1.
         15    1    1    2    0    0  0.10601772292E+02 -0.27743940649E+02 -0.34792866949E+02  0.45780182809E+02  0.17770000000E+01 0.  1.
</event>
<event>
 6    1  0.4028964E-003  0.5138470E+03  0.7546771E-02  0.9369348E-01
        -11   -1    0    0    0    0  0.00000000000E+00  0.00000000000E+00  0.50000000000E+03  0.50000000000E+03  0.00000000000E+00 0. -1.
         11   -1    0    0    0    0 -0.00000000000E+00 -0.00000000000E+00 -0.50000000000E+03  0.50000000000E+03  0.00000000000E+00 0.  1.
        -11    1    1    2    0    0 -0.11371208455E+02  0.40741579697E+01  0.43319374649E+03  0.43336211780E+03  0.00000000000E+00 0. -1.
         11    1    1    2    0    0  0.59567122802E+01 -0.36622590291E+01 -0.48610266347E+03  0.48615295329E+03  0.00000000000E+00 0.  1.
        -15    1    1    2    0    0 -0.73824519426E+01  0.81071358568E+01 -0.10457622280E+02  0.15256010004E+02  0.17770000000E+01 0.  1.
         15    1    1    2    0    0  0.12796948117E+02 -0.85190347974E+01  0.63366539255E+02  0.65228918902E+02  0.17770000000E+01 0. -1.
</event>
<event>
 6    1  0.4028964E-003  0.5332980E+03  0.7546771E-02  0.9328238E-01
        -11   -1    0    0    0    0  0.00000000000E+00  0.00000000000E+00  0.50000000000E+03  0.50000000000E+03  0.00000000000E+00 0.  1.
         11   -1    0    0    0    0 -0.00000000000E+00 -0.00000000000E+00 -0.50000000000E+03  0.50000000000E+03  0.00000000000E+00 0.  1.
        -11    1    1    2    0    0 -0.11881769789E+01  0.74126600199E+01  0.43805541438E+03  0.43811973861E+03  0.00000000000E+00 0.  1.
         11    1    1    2    0    0 -0.30447673000E+01  0.71206689155E+01 -0.46663775894E+03  0.46670201692E+03  0.00000000000E+00 0.  1.
        -15    1    1    2    0    0  0.82763918668E+00 -0.13240283714E+02  0.61028979015E+02  0.62479469492E+02  0.17770000000E+01 0. -1.
         15    1    1    2    0    0  0.34053050922E+01 -0.12930452216E+01 -0.32446634452E+02  0.32698774977E+02  0.17770000000E+01 0. -1.
</event>
<event>
 6    1  0.4028964E-003  0.5203885E+03  0.7546771E-02  0.9355310E-01
        -11   -1    0    0    0    0  0.00000000000E+00  0.00000000000E+00  0.50000000000E+03  0.50000000000E+03  0.00000000000E+00 0.  1.
         11   -1    0    0    0    0 -0.00000000000E+00 -0.00000000000E+00 -0.50000000000E+03  0.50000000000E+03  0.00000000000E+00 0. -1.
        -11    1    1    2    0    0 -0.28774465449E+02  0.30043156092E+02  0.31629925783E+03  0.31902316780E+03  0.00000000000E+00 0.  1.
         11    1    1    2    0    0 -0.13804087833E+00  0.11728861117E+02 -0.47946807369E+03  0.47961152918E+03  0.00000000000E+00 0. -1.
        -15    1    1    2    0    0 -0.55823413109E-01 -0.68240551815E+02  0.14001426542E+03  0.15576882961E+03  0.17770000000E+01 0. -1.
         15    1    1    2    0    0  0.28968329741E+02  0.26468534607E+02  0.23154550428E+02  0.45596473402E+02  0.17770000000E+01 0.  1.
</event>
<event>
 6    1  0.4047567E-003  0.5066102E+03  0.7546771E-02  0.9385139E-01
        -11   -1    0    0    0    0  0.00000000000E+00  0.00000000000E+00  0.50000000000E+03  0.50000000000E+03  0.00000000000E+00 0. -1.
         11   -1    0    0    0    0 -0.00000000000E+00 -0.00000000000E+00 -0.50000000000E+03  0.50000000000E+03  0.00000000000E+00 0.  1.
        -11    1    1    2    0    0 -0.11456948490E+02  0.59092485896E+01  0.49322137148E+03  0.49338980753E+03  0.00000000000E+00 0. -1.
         11    1    1    2    0    0  0.43039442645E+01 -0.10107344426E+02 -0.25031605707E+03  0.25055700105E+03  0.00000000000E+00 0.  1.
        -15    1    1    2    0    0  0.57802562539E+01 -0.14146007410E+01  0.50620502771E+01  0.80121495009E+01  0.17770000000E+01 0. -1.
         15    1    1    2    0    0  0.13727479711E+01  0.56126965772E+01 -0.24796736468E+03  0.24804104192E+03  0.17770000000E+01 0.  1.
</event>
<event>
 6    1  0.4028964E-003  0.5026206E+03  0.7546771E-02  0.9393965E-01
        -11   -1    0    0    0    0  0.00000000000E+00  0.00000000000E+00  0.50000000000E+03  0.50000000000E+03  0.00000000000E+00 0. -1.
         11   -1    0    0    0    0 -0.00000000000E+00 -0.00000000000E+00 -0.50000000000E+03  0.50000000000E+03  0.00000000000E+00 0.  1.
        -11    1    1    2    0    0 -0.13330009511E+01  0.64591436050E+01  0.44848891328E+03  0.44853740397E+03  0.00000000000E+00 0. -1.
         11    1    1    2    0    0  0.28559378476E+01  0.69042377613E+01 -0.49732324682E+03  0.49737936900E+03  0.00000000000E+00 0.  1.
        -15    1    1    2    0    0 -0.35821569568E+01 -0.15249007590E+02  0.48201059208E+02  0.50713547684E+02  0.17770000000E+01 0. -1.
         15    1    1    2    0    0  0.20592200604E+01  0.18856262232E+01  0.63327433333E+00  0.33696793456E+01  0.17770000000E+01 0.  1.
</event>
<event>
 6    1  0.4028964E-003  0.4645179E+03  0.7546771E-02  0.9482903E-01
        -11   -1    0    0    0    0  0.00000000000E+00  0.00000000000E+00  0.50000000000E+03  0.50000000000E+03  0.00000000000E+00 0.  1.
         11   -1    0    0    0    0 -0.00000000000E+00 -0.00000000000E+00 -0.50000000000E+03  0.50000000000E+03  0.00000000000E+00 0. -1.
        -11    1    1    2    0    0  0.82732137412E+01 -0.54680321911E+01  0.45868106026E+03  0.45878825233E+03  0.00000000000E+00 0.  1.
         11    1    1    2    0    0  0.38623560654E+02 -0.49261769134E+01 -0.46994652992E+03  0.47155677033E+03  0.00000000000E+00 0. -1.
        -15    1    1    2    0    0  0.18917565481E+01  0.12085451767E+02  0.16398945030E+02  0.20535822709E+02  0.17770000000E+01 0. -1.
         15    1    1    2    0    0 -0.48788530944E+02 -0.16912426622E+01 -0.51334753658E+01  0.49119154632E+02  0.17770000000E+01 0.  1.
</event>
<event>
 6    1  0.4028964E-003  0.5010419E+03  0.7546771E-02  0.9397481E-01
        -11   -1    0    0    0    0  0.00000000000E+00  0.00000000000E+00  0.50000000000E+03  0.50000000000E+03  0.00000000000E+00 0. -1.
         11   -1    0    0    0    0 -0.00000000000E+00 -0.00000000000E+00 -0.50000000000E+03  0.50000000000E+03  0.00000000000E+00 0.  1.
        -11    1    1    2    0    0  0.14051960769E+00  0.16994584297E+01  0.48270566059E+02  0.48300677556E+02  0.00000000000E+00 0. -1.
         11    1    1    2    0    0  0.87063571878E+01 -0.37855421870E+01 -0.49886781223E+03  0.49895813959E+03  0.00000000000E+00 0.  1.
        -15    1    1    2    0    0 -0.23219347385E+02  0.11043663219E+02  0.32043175174E+03  0.32146658589E+03  0.17770000000E+01 0. -1.
         15    1    1    2    0    0  0.14372470589E+02 -0.89575794616E+01  0.13016549443E+03  0.13127459697E+03  0.17770000000E+01 0.  1.
</event>
<event>
 6    1  0.4028964E-003  0.5002122E+03  0.7546771E-02  0.9399335E-01
        -11   -1    0    0    0    0  0.00000000000E+00  0.00000000000E+00  0.50000000000E+03  0.50000000000E+03  0.00000000000E+00 0. -1.
         11   -1    0    0    0    0 -0.00000000000E+00 -0.00000000000E+00 -0.50000000000E+03  0.50000000000E+03  0.00000000000E+00 0. -1.
        -11    1    1    2    0    0  0.65484149039E+01 -0.55222377422E+01  0.49971434786E+03  0.49978776126E+03  0.00000000000E+00 0. -1.
         11    1    1    2    0    0 -0.49197637568E+01  0.60945478710E+01 -0.17369970118E+03  0.17387620245E+03  0.00000000000E+00 0. -1.
        -15    1    1    2    0    0 -0.60229730236E+00 -0.62216732573E+01 -0.85618283389E+02  0.85864545417E+02  0.17770000000E+01 0. -1.
         15    1    1    2    0    0 -0.10263538447E+01  0.56493631286E+01 -0.24039636330E+03  0.24047149087E+03  0.17770000000E+01 0. -1.
</event>
<event>
 6    1  0.4028964E-003  0.5005007E+03  0.7546771E-02  0.9398690E-01
        -11   -1    0    0    0    0  0.00000000000E+00  0.00000000000E+00  0.50000000000E+03  0.50000000000E+03  0.00000000000E+00 0. -1.
         11   -1    0    0    0    0 -0.00000000000E+00 -0.00000000000E+00 -0.50000000000E+03  0.50000000000E+03  0.00000000000E+00 0. -1.
        -11    1    1    2    0    0 -0.47370702157E+00  0.43486451091E+01  0.24754298662E+03  0.24758163368E+03  0.00000000000E+00 0. -1.
         11    1    1    2    0    0 -0.73545192787E+01  0.12440781397E+01 -0.49944357232E+03  0.49949926789E+03  0.00000000000E+00 0. -1.
        -15    1    1    2    0    0  0.13799834909E+01  0.55806762942E+01  0.27956799742E+02  0.28597004793E+02  0.17770000000E+01 0.  1.
         15    1    1    2    0    0  0.64482428093E+01 -0.11173399543E+02  0.22394378596E+03  0.22432209363E+03  0.17770000000E+01 0. -1.
</event>
<event>
 6    1  0.4028964E-003  0.5008540E+03  0.7546771E-02  0.9397901E-01
        -11   -1    0    0    0    0  0.00000000000E+00  0.00000000000E+00  0.50000000000E+03  0.50000000000E+03  0.00000000000E+00 0.  1.
         11   -1    0    0    0    0 -0.00000000000E+00 -0.00000000000E+00 -0.50000000000E+03  0.50000000000E+03  0.00000000000E+00 0. -1.
        -11    1    1    2    0    0 -0.50923720122E+01  0.65956348875E+01  0.49907644300E+03  0.49914600129E+03  0.00000000000E+00 0.  1.
         11    1    1    2    0    0  0.23916235657E+01  0.10110531214E+02 -0.27004308976E+03  0.27024287785E+03  0.00000000000E+00 0. -1.
        -15    1    1    2    0    0 -0.25443521381E+01 -0.10510921753E+02 -0.42420512957E+02  0.43813363856E+02  0.17770000000E+01 0.  1.
         15    1    1    2    0    0  0.52451005846E+01 -0.61952443488E+01 -0.18661284028E+03  0.18679775700E+03  0.17770000000E+01 0. -1.
</event>
<event>
 6    1  0.4028964E-003  0.5052558E+03  0.7546771E-02  0.9388126E-01
        -11   -1    0    0    0    0  0.00000000000E+00  0.00000000000E+00  0.50000000000E+03  0.50000000000E+03  0.00000000000E+00 0. -1.
         11   -1    0    0    0    0 -0.00000000000E+00 -0.00000000000E+00 -0.50000000000E+03  0.50000000000E+03  0.00000000000E+00 0.  1.
        -11    1    1    2    0    0 -0.12053275822E+02 -0.70102277716E+01  0.49454767800E+03  0.49474420721E+03  0.00000000000E+00 0. -1.
         11    1    1    2    0    0 -0.35304501119E+01 -0.43509147767E+01 -0.29703680117E+03  0.29708964267E+03  0.00000000000E+00 0.  1.
        -15    1    1    2    0    0  0.10603334053E+02  0.24386665614E+02 -0.19068529639E+03  0.19253877569E+03  0.17770000000E+01 0.  1.
         15    1    1    2    0    0  0.49803918806E+01 -0.13025523066E+02 -0.68255804367E+01  0.15627374435E+02  0.17770000000E+01 0. -1.
</event>
<event>
 6    1  0.4028964E-003  0.5171099E+03  0.7546771E-02  0.9362318E-01
        -11   -1    0    0    0    0  0.00000000000E+00  0.00000000000E+00  0.50000000000E+03  0.50000000000E+03  0.00000000000E+00 0.  1.
         11   -1    0    0    0    0 -0.00000000000E+00 -0.00000000000E+00 -0.50000000000E+03  0.50000000000E+03  0.00000000000E+00 0.  1.
        -11    1    1    2    0    0 -0.52188460998E+01 -0.58031189380E+01  0.48282706608E+03  0.48289014101E+03  0.00000000000E+00 0.  1.
         11    1    1    2    0    0 -0.46952781086E+01  0.77924193758E+01 -0.23396096225E+03  0.23413777844E+03  0.00000000000E+00 0.  1.
        -15    1    1    2    0    0  0.22339009102E+01  0.24885610166E+02  0.66573031425E+01  0.25918358758E+02  0.17770000000E+01 0. -1.
         15    1    1    2    0    0  0.76802232982E+01 -0.26874910603E+02 -0.25552340697E+03  0.25705372180E+03  0.17770000000E+01 0.  1.
</event>
<event>
 6    1  0.4028964E-003  0.5010804E+03  0.7546771E-02  0.9397395E-01
        -11   -1    0    0    0    0  0.00000000000E+00  0.00000000000E+00  0.50000000000E+03  0.50000000000E+03  0.00000000000E+00 0.  1.
         11   -1    0    0    0    0 -0.00000000000E+00 -0.00000000000E+00 -0.50000000000E+03  0.50000000000E+03  0.00000000000E+00 0. -1.
        -11    1    1    2    0    0 -0.20228565011E+02 -0.67451226178E+00  0.49850884757E+03  0.49891955355E+03  0.00000000000E+00 0.  1.
         11    1    1    2    0    0  0.96240975116E+01  0.49468692134E+01 -0.32588125125E+03  0.32606086040E+03  0.00000000000E+00 0. -1.
        -15    1    1    2    0    0 -0.23434264529E+01 -0.12422988361E+02 -0.97254340864E+02  0.98088668220E+02  0.17770000000E+01 0. -1.
         15    1    1    2    0    0  0.12947893952E+02  0.81506314098E+01 -0.75373255459E+02  0.76930917827E+02  0.17770000000E+01 0.  1.
</event>
<event>
 6    1  0.4028964E-003  0.5243351E+03  0.7546771E-02  0.9346946E-01
        -11   -1    0    0    0    0  0.00000000000E+00  0.00000000000E+00  0.50000000000E+03  0.50000000000E+03  0.00000000000E+00 0. -1.
         11   -1    0    0    0    0 -0.00000000000E+00 -0.00000000000E+00 -0.50000000000E+03  0.50000000000E+03  0.00000000000E+00 0. -1.
        -11    1    1    2    0    0 -0.57818148282E+01  0.35669153498E+01  0.47561641017E+03  0.47566492607E+03  0.00000000000E+00 0. -1.
         11    1    1    2    0    0  0.21453066836E+02  0.97308407821E+01 -0.38878059888E+03  0.38949361664E+03  0.00000000000E+00 0. -1.
        -15    1    1    2    0    0 -0.21082422376E+02 -0.15384355642E+02 -0.10887978945E+03  0.11197818185E+03  0.17770000000E+01 0.  1.
         15    1    1    2    0    0  0.54111703685E+01  0.20865995097E+01  0.22043978153E+02  0.22863275445E+02  0.17770000000E+01 0. -1.
</event>
<event>
 6    1  0.4028964E-003  0.5023045E+03  0.7546771E-02  0.9394668E-01
        -11   -1    0    0    0    0  0.00000000000E+00  0.00000000000E+00  0.50000000000E+03  0.50000000000E+03  0.00000000000E+00 0.  1.
         11   -1    0    0    0    0 -0.00000000000E+00 -0.00000000000E+00 -0.50000000000E+03  0.50000000000E+03  0.00000000000E+00 0.  1.
        -11    1    1    2    0    0 -0.85594382299E+01 -0.13352653938E+02  0.44636792437E+03  0.44664961800E+03  0.00000000000E+00 0.  1.
         11    1    1    2    0    0  0.92746403013E+01 -0.16029560751E+01 -0.49760652690E+03  0.49769553347E+03  0.00000000000E+00 0.  1.
        -15    1    1    2    0    0 -0.42319555087E+01  0.11770949997E+02  0.48016255045E+02  0.49650611162E+02  0.17770000000E+01 0.  1.
         15    1    1    2    0    0  0.35167534373E+01  0.31846600151E+01  0.32223474773E+01  0.60042373716E+01  0.17770000000E+01 0. -1.
</event>
<event>
 6    1  0.4028964E-003  0.5122786E+03  0.7546771E-02  0.9372747E-01
        -11   -1    0    0    0    0  0.00000000000E+00  0.00000000000E+00  0.50000000000E+03  0.50000000000E+03  0.00000000000E+00 0.  1.
         11   -1    0    0    0    0 -0.00000000000E+00 -0.00000000000E+00 -0.50000000000E+03  0.50000000000E+03  0.00000000000E+00 0. -1.
        -11    1    1    2    0    0  0.47017800814E+01 -0.61681850650E+01  0.46191614069E+03  0.46198124883E+03  0.00000000000E+00 0.  1.
         11    1    1    2    0    0 -0.33338087300E+01 -0.92993162137E+01 -0.48762138886E+03  0.48772144759E+03  0.00000000000E+00 0. -1.
        -15    1    1    2    0    0  0.10597917265E+02  0.22310477789E+02  0.48480513577E+01  0.25233600625E+02  0.17770000000E+01 0.  1.
         15    1    1    2    0    0 -0.11965888616E+02 -0.68429765102E+01  0.20857196814E+02  0.25063702956E+02  0.17770000000E+01 0. -1.
</event>
<event>
 6    1  0.4028964E-003  0.5479247E+03  0.7546771E-02  0.9298531E-01
        -11   -1    0    0    0    0  0.00000000000E+00  0.00000000000E+00  0.50000000000E+03  0.50000000000E+03  0.00000000000E+00 0. -1.
         11   -1    0    0    0    0 -0.00000000000E+00 -0.00000000000E+00 -0.50000000000E+03  0.50000000000E+03  0.00000000000E+00 0.  1.
        -11    1    1    2    0    0 -0.17189121454E+02  0.19810159424E+02  0.45131378816E+03  0.45207526331E+03  0.00000000000E+00 0. -1.
         11    1    1    2    0    0 -0.36587977663E+01  0.10754125692E+01 -0.25344631124E+03  0.25347500072E+03  0.00000000000E+00 0.  1.
        -15    1    1    2    0    0  0.19674340791E+02 -0.12349379771E+01 -0.24371792518E+03  0.24452032542E+03  0.17770000000E+01 0.  1.
         15    1    1    2    0    0  0.11735784289E+01 -0.19650634016E+02  0.45850448253E+02  0.49929410547E+02  0.17770000000E+01 0. -1.
</event>
<event>
 6    1  0.4028964E-003  0.5163531E+03  0.7546771E-02  0.9363944E-01
        -11   -1    0    0    0    0  0.00000000000E+00  0.00000000000E+00  0.50000000000E+03  0.50000000000E+03  0.00000000000E+00 0. -1.
         11   -1    0    0    0    0 -0.00000000000E+00 -0.00000000000E+00 -0.50000000000E+03  0.50000000000E+03  0.00000000000E+00 0.  1.
        -11    1    1    2    0    0  0.15941630274E+02  0.29491752959E+01  0.11684460940E+03  0.11796396042E+03  0.00000000000E+00 0. -1.
         11    1    1    2    0    0 -0.80107098235E+01 -0.25335336040E+02 -0.48291641085E+03  0.48364688626E+03  0.00000000000E+00 0.  1.
        -15    1    1    2    0    0  0.23063827017E+02  0.28902319010E+02  0.67011000896E+01  0.37621092916E+02  0.17770000000E+01 0.  1.
         15    1    1    2    0    0 -0.30994747467E+02 -0.65161582662E+01  0.35937070135E+03  0.36076806040E+03  0.17770000000E+01 0. -1.
</event>
<event>
 6    1  0.4028964E-003  0.5024062E+03  0.7546771E-02  0.9394442E-01
        -11   -1    0    0    0    0  0.00000000000E+00  0.00000000000E+00  0.50000000000E+03  0.50000000000E+03  0.00000000000E+00 0. -1.
         11   -1    0    0    0    0 -0.00000000000E+00 -0.00000000000E+00 -0.50000000000E+03  0.50000000000E+03  0.00000000000E+00 0.  1.
        -11    1    1    2    0    0 -0.34427066986E+01  0.83513589253E+01  0.32992983101E+03  0.33005346660E+03  0.00000000000E+00 0. -1.
         11    1    1    2    0    0  0.40564219346E+01  0.53502858656E+01 -0.49754854915E+03  0.49759384931E+03  0.00000000000E+00 0.  1.
        -15    1    1    2    0    0 -0.63314756750E+01 -0.25383913039E+01  0.15235121763E+03  0.15251420346E+03  0.17770000000E+01 0. -1.
         15    1    1    2    0    0  0.57177604391E+01 -0.11163253487E+02  0.15267500510E+02  0.19838480629E+02  0.17770000000E+01 0.  1.
</event>
<event>
 6    1  0.4028964E-003  0.4886637E+03  0.7546771E-02  0.9425539E-01
        -11   -1    0    0    0    0  0.00000000000E+00  0.00000000000E+00  0.50000000000E+03  0.50000000000E+03  0.00000000000E+00 0. -1.
         11   -1    0    0    0    0 -0.00000000000E+00 -0.00000000000E+00 -0.50000000000E+03  0.50000000000E+03  0.00000000000E+00 0. -1.
        -11    1    1    2    0    0  0.25306010332E+00 -0.98801074781E+01  0.48580818472E+03  0.48590870840E+03  0.00000000000E+00 0. -1.
         11    1    1    2    0    0 -0.27230613241E+01 -0.93216486765E+01 -0.49153126146E+03  0.49162718516E+03  0.00000000000E+00 0. -1.
        -15    1    1    2    0    0 -0.14841912803E+01  0.13288866808E+01 -0.10455352676E+01  0.28669908550E+01  0.17770000000E+01 0.  1.
         15    1    1    2    0    0  0.39541925011E+01  0.17872869474E+02  0.67686120132E+01  0.19597115582E+02  0.17770000000E+01 0. -1.
</event>
<event>
 6    1  0.4028964E-003  0.5126593E+03  0.7546771E-02  0.9371921E-01
        -11   -1    0    0    0    0  0.00000000000E+00  0.00000000000E+00  0.50000000000E+03  0.50000000000E+03  0.00000000000E+00 0.  1.
         11   -1    0    0    0    0 -0.00000000000E+00 -0.00000000000E+00 -0.50000000000E+03  0.50000000000E+03  0.00000000000E+00 0. -1.
        -11    1    1    2    0    0 -0.47667979649E+01  0.75518099088E+01  0.48725886685E+03  0.48734069758E+03  0.00000000000E+00 0.  1.
         11    1    1    2    0    0 -0.47572264042E+01  0.43180703823E+01 -0.46309288238E+03  0.46313744681E+03  0.00000000000E+00 0. -1.
        -15    1    1    2    0    0  0.84735456628E+01  0.14247049213E+02 -0.63510663738E+01  0.17840211895E+02  0.17770000000E+01 0.  1.
         15    1    1    2    0    0  0.10504787063E+01 -0.26116929504E+02 -0.17814918100E+02  0.31681643710E+02  0.17770000000E+01 0. -1.
</event>
<event>
 6    1  0.4028964E-003  0.5234902E+03  0.7546771E-02  0.9348730E-01
        -11   -1    0    0    0    0  0.00000000000E+00  0.00000000000E+00  0.50000000000E+03  0.50000000000E+03  0.00000000000E+00 0.  1.
         11   -1    0    0    0    0 -0.00000000000E+00 -0.00000000000E+00 -0.50000000000E+03  0.50000000000E+03  0.00000000000E+00 0. -1.
        -11    1    1    2    0    0 -0.59968013916E+01  0.30912073599E+01  0.47646201104E+03  0.47650977446E+03  0.00000000000E+00 0.  1.
         11    1    1    2    0    0  0.47046880485E+01 -0.83732876938E+01 -0.46723905123E+03  0.46733775477E+03  0.00000000000E+00 0. -1.
        -15    1    1    2    0    0  0.23940354200E+02 -0.11645032140E+02 -0.77465496337E+01  0.27783342005E+02  0.17770000000E+01 0. -1.
         15    1    1    2    0    0 -0.22648240857E+02  0.16927112474E+02 -0.14764101763E+01  0.28369128760E+02  0.17770000000E+01 0.  1.
</event>
<event>
 6    1  0.4028964E-003  0.5027938E+03  0.7546771E-02  0.9393580E-01
        -11   -1    0    0    0    0  0.00000000000E+00  0.00000000000E+00  0.50000000000E+03  0.50000000000E+03  0.00000000000E+00 0.  1.
         11   -1    0    0    0    0 -0.00000000000E+00 -0.00000000000E+00 -0.50000000000E+03  0.50000000000E+03  0.00000000000E+00 0.  1.
        -11    1    1    2    0    0  0.66544144039E+01  0.23513970072E+01  0.49715610793E+03  0.49720620064E+03  0.00000000000E+00 0.  1.
         11    1    1    2    0    0  0.16613735220E+02 -0.16784624348E+01 -0.38283392400E+03  0.38319792118E+03  0.00000000000E+00 0.  1.
        -15    1    1    2    0    0 -0.37198158841E+01  0.40666016592E+01 -0.31250387651E+01  0.65801121229E+01  0.17770000000E+01 0. -1.
         15    1    1    2    0    0 -0.19548333740E+02 -0.47395362317E+01 -0.11119714517E+03  0.11301576606E+03  0.17770000000E+01 0.  1.
</event>
<event>
 6    1  0.4028964E-003  0.5314773E+03  0.7546771E-02  0.9332007E-01
        -11   -1    0    0    0    0  0.00000000000E+00  0.00000000000E+00  0.50000000000E+03  0.50000000000E+03  0.00000000000E+00 0.  1.
         11   -1    0    0    0    0 -0.00000000000E+00 -0.00000000000E+00 -0.50000000000E+03  0.50000000000E+03  0.00000000000E+00 0. -1.
        -11    1    1    2    0    0  0.20509413980E+02  0.24044208482E+01  0.46806743482E+03  0.46852272180E+03  0.00000000000E+00 0.  1.
         11    1    1    2    0    0  0.19875457078E+01 -0.11673184216E+02 -0.44642024711E+03  0.44657726162E+03  0.00000000000E+00 0. -1.
        -15    1    1    2    0    0 -0.19719672180E+02  0.10296235883E+01  0.28087328392E+02  0.34379955509E+02  0.17770000000E+01 0.  1.
         15    1    1    2    0    0 -0.27772875081E+01  0.82391397797E+01 -0.49734516098E+02  0.50520061072E+02  0.17770000000E+01 0.  1.
</event>
<event>
 6    1  0.4028964E-003  0.5007820E+03  0.7546771E-02  0.9398062E-01
        -11   -1    0    0    0    0  0.00000000000E+00  0.00000000000E+00  0.50000000000E+03  0.50000000000E+03  0.00000000000E+00 0.  1.
         11   -1    0    0    0    0 -0.00000000000E+00 -0.00000000000E+00 -0.50000000000E+03  0.50000000000E+03  0.00000000000E+00 0.  1.
        -11    1    1    2    0    0 -0.31689518456E+01 -0.71253327473E+01  0.49915708397E+03  0.49921799557E+03  0.00000000000E+00 0.  1.
         11    1    1    2    0    0 -0.47346754742E+01 -0.58451858217E+01 -0.26323691423E+03  0.26334436839E+03  0.00000000000E+00 0.  1.
        -15    1    1    2    0    0  0.37175627881E+01  0.51731022098E+01 -0.15746034402E+02  0.17078541739E+02  0.17770000000E+01 0. -1.
         15    1    1    2    0    0  0.41860645317E+01  0.77974163592E+01 -0.22017413534E+03  0.22035909430E+03  0.17770000000E+01 0.  1.
</event>
<event>
 6    1  0.4028964E-003  0.5060771E+03  0.7546771E-02  0.9386314E-01
        -11   -1    0    0    0    0  0.00000000000E+00  0.00000000000E+00  0.50000000000E+03  0.50000000000E+03  0.00000000000E+00 0. -1.
         11   -1    0    0    0    0 -0.00000000000E+00 -0.00000000000E+00 -0.50000000000E+03  0.50000000000E+03  0.00000000000E+00 0. -1.
        -11    1    1    2    0    0 -0.61739609288E+01  0.56981575321E+01  0.49385148743E+03  0.49392294786E+03  0.00000000000E+00 0. -1.
         11    1    1    2    0    0  0.14298674472E+02 -0.86824002336E+01 -0.37350815802E+03  0.37388257551E+03  0.00000000000E+00 0. -1.
        -15    1    1    2    0    0  0.11068852151E+01 -0.17197498817E+02 -0.10807918009E+02  0.20419304130E+02  0.17770000000E+01 0.  1.
         15    1    1    2    0    0 -0.92315987587E+01  0.20181741519E+02 -0.10953541140E+03  0.11177517249E+03  0.17770000000E+01 0.  1.
</event>
<event>
 6    1  0.4028964E-003  0.5007721E+03  0.7546771E-02  0.9398084E-01
        -11   -1    0    0    0    0  0.00000000000E+00  0.00000000000E+00  0.50000000000E+03  0.50000000000E+03  0.00000000000E+00 0.  1.
         11   -1    0    0    0    0 -0.00000000000E+00 -0.00000000000E+00 -0.50000000000E+03  0.50000000000E+03  0.00000000000E+00 0.  1.
        -11    1    1    2    0    0 -0.48915342484E+01  0.16898683990E+01  0.34617824552E+03  0.34621692685E+03  0.00000000000E+00 0.  1.
         11    1    1    2    0    0 -0.74268129352E+01  0.92523291482E+01 -0.49908689956E+03  0.49922790032E+03  0.00000000000E+00 0.  1.
        -15    1    1    2    0    0  0.14813392403E+01  0.30487711432E+01  0.47737256788E+02  0.47890424785E+02  0.17770000000E+01 0.  1.
         15    1    1    2    0    0  0.10837007943E+02 -0.13990968690E+02  0.10517139726E+03  0.10666474805E+03  0.17770000000E+01 0. -1.
</event>
<event>
 6    1  0.4028964E-003  0.5003212E+03  0.7546771E-02  0.9399091E-01
        -11   -1    0    0    0    0  0.00000000000E+00  0.00000000000E+00  0.50000000000E+03  0.50000000000E+03  0.00000000000E+00 0. -1.
         11   -1    0    0    0    0 -0.00000000000E+00 -0.00000000000E+00 -0.50000000000E+03  0.50000000000E+03  0.00000000000E+00 0.  1.
        -11    1    1    2    0    0  0.87064891006E+01  0.38600370701E+01  0.49958805289E+03  0.49967882227E+03  0.00000000000E+00 0. -1.
         11    1    1    2    0    0 -0.52078942936E+01  0.66967223806E+01 -0.28748959827E+03  0.28761473775E+03  0.00000000000E+00 0.  1.
        -15    1    1    2    0    0  0.29015324995E+01 -0.56702755432E+01 -0.13639513819E+03  0.13655534543E+03  0.17770000000E+01 0. -1.
         15    1    1    2    0    0 -0.64001273066E+01 -0.48864839075E+01 -0.75703316423E+02  0.76151094549E+02  0.17770000000E+01 0.  1.
</event>
<event>
 6    1  0.4028964E-003  0.5001466E+03  0.7546771E-02  0.9399482E-01
        -11   -1    0    0    0    0  0.00000000000E+00  0.00000000000E+00  0.50000000000E+03  0.50000000000E+03  0.00000000000E+00 0. -1.
         11   -1    0    0    0    0 -0.00000000000E+00 -0.00000000000E+00 -0.50000000000E+03  0.50000000000E+03  0.00000000000E+00 0. -1.
        -11    1    1    2    0    0 -0.79430397624E+01  0.34595583251E+01  0.49977834792E+03  0.49985343599E+03  0.00000000000E+00 0. -1.
         11    1    1    2    0    0  0.36729959922E+01 -0.24795750011E+01 -0.28829417511E+03  0.28832823412E+03  0.00000000000E+00 0. -1.
        -15    1    1    2    0    0 -0.87041705267E-01  0.16182283092E+01 -0.16603315010E+03  0.16605056729E+03  0.17770000000E+01 0. -1.
         15    1    1    2    0    0  0.43570854755E+01 -0.25982116331E+01 -0.45451022716E+02  0.45767762590E+02  0.17770000000E+01 0.  1.
</event>
<event>
 6    1  0.4028964E-003  0.5030798E+03  0.7546771E-02  0.9392945E-01
        -11   -1    0    0    0    0  0.00000000000E+00  0.00000000000E+00  0.50000000000E+03  0.50000000000E+03  0.00000000000E+00 0.  1.
         11   -1    0    0    0    0 -0.00000000000E+00 -0.00000000000E+00 -0.50000000000E+03  0.50000000000E+03  0.00000000000E+00 0. -1.
        -11    1    1    2    0    0 -0.73754316379E+01 -0.48763896571E+01  0.49684149721E+03  0.49692016413E+03  0.00000000000E+00 0.  1.
         11    1    1    2    0    0 -0.62065030087E+01  0.61350909825E+01 -0.40254463644E+03  0.40263922356E+03  0.00000000000E+00 0. -1.
        -15    1    1    2    0    0  0.13973839718E+02  0.13305088017E+02 -0.44732538855E+02  0.48748859730E+02  0.17770000000E+01 0. -1.
         15    1    1    2    0    0 -0.39190507124E+00 -0.14563789342E+02 -0.49564321911E+02  0.51691752583E+02  0.17770000000E+01 0.  1.
</event>
<event>
 6    1  0.4028964E-003  0.5144676E+03  0.7546771E-02  0.9368007E-01
        -11   -1    0    0    0    0  0.00000000000E+00  0.00000000000E+00  0.50000000000E+03  0.50000000000E+03  0.00000000000E+00 0.  1.
         11   -1    0    0    0    0 -0.00000000000E+00 -0.00000000000E+00 -0.50000000000E+03  0.50000000000E+03  0.00000000000E+00 0. -1.
        -11    1    1    2    0    0  0.10806866034E+02  0.75817540237E+01  0.48535292431E+03  0.48553242166E+03  0.00000000000E+00 0.  1.
         11    1    1    2    0    0  0.24655587949E+01  0.15683731304E+02 -0.35110060038E+03  0.35145937176E+03  0.00000000000E+00 0. -1.
        -15    1    1    2    0    0 -0.70623216812E+01  0.28024045335E+02 -0.14096500290E+02  0.32203921406E+02  0.17770000000E+01 0.  1.
         15    1    1    2    0    0 -0.62101031481E+01 -0.51289530663E+02 -0.12015582364E+03  0.13080428517E+03  0.17770000000E+01 0. -1.
</event>
<event>
 6    1  0.4028964E-003  0.4781057E+03  0.7546771E-02  0.9450178E-01
        -11   -1    0    0    0    0  0.00000000000E+00  0.00000000000E+00  0.50000000000E+03  0.50000000000E+03  0.00000000000E+00 0.  1.
         11   -1    0    0    0    0 -0.00000000000E+00 -0.00000000000E+00 -0.50000000000E+03  0.50000000000E+03  0.00000000000E+00 0. -1.
        -11    1    1    2    0    0 -0.74603168868E+01 -0.64121758807E+01  0.48221514539E+03  0.48231547640E+03  0.00000000000E+00 0.  1.
         11    1    1    2    0    0 -0.64264832042E+01 -0.66379582507E+00 -0.47401414580E+03  0.47405817231E+03  0.00000000000E+00 0. -1.
        -15    1    1    2    0    0  0.14733799841E+02  0.22071408364E+02 -0.37954119074E+00  0.26599505737E+02  0.17770000000E+01 0.  1.
         15    1    1    2    0    0 -0.84699975010E+00 -0.14995436658E+02 -0.78214584003E+01  0.17026845558E+02  0.17770000000E+01 0. -1.
</event>
<event>
 6    1  0.4028964E-003  0.4776305E+03  0.7546771E-02  0.9451303E-01
        -11   -1    0    0    0    0  0.00000000000E+00  0.00000000000E+00  0.50000000000E+03  0.50000000000E+03  0.00000000000E+00 0. -1.
         11   -1    0    0    0    0 -0.00000000000E+00 -0.00000000000E+00 -0.50000000000E+03  0.50000000000E+03  0.00000000000E+00 0. -1.
        -11    1    1    2    0    0  0.19584476055E+01 -0.23281547500E+02  0.47203660993E+03  0.47261445925E+03  0.00000000000E+00 0. -1.
         11    1    1    2    0    0  0.10022523477E+02 -0.28700682602E+01 -0.48303035678E+03  0.48314285035E+03  0.00000000000E+00 0. -1.
        -15    1    1    2    0    0 -0.95388947379E+01  0.30009486241E+02  0.17522630065E+02  0.36079912288E+02  0.17770000000E+01 0. -1.
         15    1    1    2    0    0 -0.24420763444E+01 -0.38578704814E+01 -0.65288832178E+01  0.81627781174E+01  0.17770000000E+01 0.  1.
</event>
<event>
 6    1  0.4028964E-003  0.4995023E+03  0.7546771E-02  0.9400924E-01
        -11   -1    0    0    0    0  0.00000000000E+00  0.00000000000E+00  0.50000000000E+03  0.50000000000E+03  0.00000000000E+00 0. -1.
         11   -1    0    0    0    0 -0.00000000000E+00 -0.00000000000E+00 -0.50000000000E+03  0.50000000000E+03  0.00000000000E+00 0. -1.
        -11    1    1    2    0    0  0.21335252005E+02 -0.18579220046E+02  0.49442489504E+03  0.49523363903E+03  0.00000000000E+00 0. -1.
         11    1    1    2    0    0 -0.19695982991E+01  0.27929101171E+01 -0.93465584955E+01  0.99517747207E+01  0.00000000000E+00 0. -1.
        -15    1    1    2    0    0 -0.52021168716E+02 -0.22771425611E+01 -0.37423037810E+03  0.37783980864E+03  0.17770000000E+01 0. -1.
         15    1    1    2    0    0  0.32655515010E+02  0.18063452490E+02 -0.11084795845E+03  0.11697477761E+03  0.17770000000E+01 0.  1.
</event>
<event>
 6    1  0.4028964E-003  0.5007498E+03  0.7546771E-02  0.9398133E-01
        -11   -1    0    0    0    0  0.00000000000E+00  0.00000000000E+00  0.50000000000E+03  0.50000000000E+03  0.00000000000E+00 0. -1.
         11   -1    0    0    0    0 -0.00000000000E+00 -0.00000000000E+00 -0.50000000000E+03  0.50000000000E+03  0.00000000000E+00 0.  1.
        -11    1    1    2    0    0  0.13908133515E+02  0.45561885451E+00  0.49905620190E+03  0.49925017419E+03  0.00000000000E+00 0. -1.
         11    1    1    2    0    0 -0.64309301919E+00  0.76726896643E+01 -0.26711492727E+03  0.26722587470E+03  0.00000000000E+00 0.  1.
        -15    1    1    2    0    0 -0.15075053356E+02 -0.13658315430E+02 -0.15441010708E+03  0.15575444043E+03  0.17770000000E+01 0. -1.
         15    1    1    2    0    0  0.18100128611E+01  0.55300069107E+01 -0.77531167546E+02  0.77769510690E+02  0.17770000000E+01 0. -1.
</event>
<event>
 6    1  0.4028964E-003  0.5101834E+03  0.7546771E-02  0.9377307E-01
        -11   -1    0    0    0    0  0.00000000000E+00  0.00000000000E+00  0.50000000000E+03  0.50000000000E+03  0.00000000000E+00 0.  1.
         11   -1    0    0    0    0 -0.00000000000E+00 -0.00000000000E+00 -0.50000000000E+03  0.50000000000E+03  0.00000000000E+00 0.  1.
        -11    1    1    2    0    0  0.67154719438E+01  0.21818601979E+02  0.43825595951E+03  0.43885012817E+03  0.00000000000E+00 0.  1.
         11    1    1    2    0    0 -0.16663199894E+01 -0.12357910759E+02 -0.48965782139E+03  0.48981657447E+03  0.00000000000E+00 0.  1.
        -15    1    1    2    0    0  0.49219194382E+00  0.97973595364E+01 -0.52131029758E+01  0.11250096819E+02  0.17770000000E+01 0.  1.
         15    1    1    2    0    0 -0.55413438981E+01 -0.19258050756E+02  0.56614964861E+02  0.60083200534E+02  0.17770000000E+01 0. -1.
</event>
<event>
 6    1  0.4028964E-003  0.5020430E+03  0.7546771E-02  0.9395250E-01
        -11   -1    0    0    0    0  0.00000000000E+00  0.00000000000E+00  0.50000000000E+03  0.50000000000E+03  0.00000000000E+00 0.  1.
         11   -1    0    0    0    0 -0.00000000000E+00 -0.00000000000E+00 -0.50000000000E+03  0.50000000000E+03  0.00000000000E+00 0. -1.
        -11    1    1    2    0    0  0.74576272955E+01  0.11648575134E+01  0.46128958098E+03  0.46135133101E+03  0.00000000000E+00 0.  1.
         11    1    1    2    0    0  0.15854476324E+01  0.66549119263E+01 -0.49791005099E+03  0.49795704671E+03  0.00000000000E+00 0. -1.
        -15    1    1    2    0    0  0.29856605141E+01 -0.31664861701E+01  0.88610405077E+01  0.10030781188E+02  0.17770000000E+01 0. -1.
         15    1    1    2    0    0 -0.12028735442E+02 -0.46532832696E+01  0.27759429496E+02  0.30660841092E+02  0.17770000000E+01 0.  1.
</event>
<event>
 6    1  0.4028964E-003  0.5131508E+03  0.7546771E-02  0.9370855E-01
        -11   -1    0    0    0    0  0.00000000000E+00  0.00000000000E+00  0.50000000000E+03  0.50000000000E+03  0.00000000000E+00 0.  1.
         11   -1    0    0    0    0 -0.00000000000E+00 -0.00000000000E+00 -0.50000000000E+03  0.50000000000E+03  0.00000000000E+00 0.  1.
        -11    1    1    2    0    0 -0.49751623874E+01 -0.90633135769E+01  0.44618294034E+03  0.44630271357E+03  0.00000000000E+00 0.  1.
         11    1    1    2    0    0 -0.76543032893E+01  0.74509576052E+01 -0.48673199296E+03  0.48684919441E+03  0.00000000000E+00 0.  1.
        -15    1    1    2    0    0  0.13910437524E+02 -0.13609236203E+01  0.52490539096E+02  0.54348567680E+02  0.17770000000E+01 0. -1.
         15    1    1    2    0    0 -0.12809718474E+01  0.29732795920E+01 -0.11941486472E+02  0.12499524334E+02  0.17770000000E+01 0.  1.
</event>
<event>
 6    1  0.4028964E-003  0.5110420E+03  0.7546771E-02  0.9375436E-01
        -11   -1    0    0    0    0  0.00000000000E+00  0.00000000000E+00  0.50000000000E+03  0.50000000000E+03  0.00000000000E+00 0. -1.
         11   -1    0    0    0    0 -0.00000000000E+00 -0.00000000000E+00 -0.50000000000E+03  0.50000000000E+03  0.00000000000E+00 0. -1.
        -11    1    1    2    0    0  0.10449437535E+02 -0.10294517590E+02  0.27485935086E+03  0.27525048700E+03  0.00000000000E+00 0. -1.
         11    1    1    2    0    0 -0.18114419464E+02  0.22432462210E+01 -0.48861720758E+03  0.48895801445E+03  0.00000000000E+00 0. -1.
        -15    1    1    2    0    0 -0.77656978398E+01  0.95875275409E+01  0.21897857250E+03  0.21933307933E+03  0.17770000000E+01 0. -1.
         15    1    1    2    0    0  0.15430679769E+02 -0.15362561721E+01 -0.52207157709E+01  0.16458419223E+02  0.17770000000E+01 0. -1.
</event>
<event>
 6    1  0.4028964E-003  0.5108004E+03  0.7546771E-02  0.9375962E-01
        -11   -1    0    0    0    0  0.00000000000E+00  0.00000000000E+00  0.50000000000E+03  0.50000000000E+03  0.00000000000E+00 0. -1.
         11   -1    0    0    0    0 -0.00000000000E+00 -0.00000000000E+00 -0.50000000000E+03  0.50000000000E+03  0.00000000000E+00 0. -1.
        -11    1    1    2    0    0 -0.60951069400E+01  0.39362038115E+01  0.48914583441E+03  0.48919964365E+03  0.00000000000E+00 0. -1.
         11    1    1    2    0    0 -0.33083713823E+01  0.52350313401E+01 -0.27574803913E+03  0.27581757007E+03  0.00000000000E+00 0. -1.
        -15    1    1    2    0    0 -0.66139715286E+01 -0.20962917052E+00 -0.21621975478E+03  0.21632828907E+03  0.17770000000E+01 0.  1.
         15    1    1    2    0    0  0.16017449851E+02 -0.89616059812E+01  0.28219595053E+01  0.18654497204E+02  0.17770000000E+01 0. -1.
</event>
<event>
 6    1  0.4028964E-003  0.5063575E+03  0.7546771E-02  0.9385696E-01
        -11   -1    0    0    0    0  0.00000000000E+00  0.00000000000E+00  0.50000000000E+03  0.50000000000E+03  0.00000000000E+00 0. -1.
         11   -1    0    0    0    0 -0.00000000000E+00 -0.00000000000E+00 -0.50000000000E+03  0.50000000000E+03  0.00000000000E+00 0.  1.
        -11    1    1    2    0    0 -0.99623439316E+01 -0.71867127278E+01  0.45544721669E+03  0.45561284478E+03  0.00000000000E+00 0. -1.
         11    1    1    2    0    0  0.16855528638E+01  0.79943476050E+01 -0.49357488024E+03  0.49364249522E+03  0.00000000000E+00 0.  1.
        -15    1    1    2    0    0 -0.73053520254E+01 -0.69077738823E+01  0.13484647672E+01  0.10298620998E+02  0.17770000000E+01 0.  1.
         15    1    1    2    0    0  0.15582143093E+02  0.61001390051E+01  0.36779198780E+02  0.40446039004E+02  0.17770000000E+01 0. -1.
</event>
<event>
 6    1  0.4028964E-003  0.5079517E+03  0.7546771E-02  0.9382191E-01
        -11   -1    0    0    0    0  0.00000000000E+00  0.00000000000E+00  0.50000000000E+03  0.50000000000E+03  0.00000000000E+00 0. -1.
         11   -1    0    0    0    0 -0.00000000000E+00 -0.00000000000E+00 -0.50000000000E+03  0.50000000000E+03  0.00000000000E+00 0. -1.
        -11    1    1    2    0    0  0.63477733916E+01 -0.30659000036E+01  0.49199782413E+03  0.49204832377E+03  0.00000000000E+00 0. -1.
         11    1    1    2    0    0 -0.56407777872E+01 -0.10277345871E+02 -0.47173028577E+03  0.47187594209E+03  0.00000000000E+00 0. -1.
        -15    1    1    2    0    0  0.55276372628E+01  0.26116889964E+01  0.48495872554E+01  0.80032442591E+01  0.17770000000E+01 0.  1.
         15    1    1    2    0    0 -0.62346328672E+01  0.10731556879E+02 -0.25117125617E+02  0.28072489884E+02  0.17770000000E+01 0. -1.
</event>
<event>
 6    1  0.4028964E-003  0.5222065E+03  0.7546771E-02  0.9351447E-01
        -11   -1    0    0    0    0  0.00000000000E+00  0.00000000000E+00  0.50000000000E+03  0.50000000000E+03  0.00000000000E+00 0. -1.
         11   -1    0    0    0    0 -0.00000000000E+00 -0.00000000000E+00 -0.50000000000E+03  0.50000000000E+03  0.00000000000E+00 0.  1.
        -11    1    1    2    0    0 -0.19853689357E+01  0.97061980089E+01  0.45730150491E+03  0.45740880880E+03  0.00000000000E+00 0. -1.
         11    1    1    2    0    0 -0.25851547078E+01  0.17964133932E+02 -0.47744866388E+03  0.47779349072E+03  0.00000000000E+00 0.  1.
        -15    1    1    2    0    0  0.99104506934E+01 -0.81499986536E+01  0.36492308122E+02  0.38723194497E+02  0.17770000000E+01 0.  1.
         15    1    1    2    0    0 -0.53399270499E+01 -0.19520333287E+02 -0.16345149150E+02  0.26074505983E+02  0.17770000000E+01 0. -1.
</event>
<event>
 6    1  0.4028964E-003  0.5057569E+03  0.7546771E-02  0.9387020E-01
        -11   -1    0    0    0    0  0.00000000000E+00  0.00000000000E+00  0.50000000000E+03  0.50000000000E+03  0.00000000000E+00 0. -1.
         11   -1    0    0    0    0 -0.00000000000E+00 -0.00000000000E+00 -0.50000000000E+03  0.50000000000E+03  0.00000000000E+00 0.  1.
        -11    1    1    2    0    0  0.42735867711E+01  0.20782103304E+02  0.49378748282E+03  0.49424309561E+03  0.00000000000E+00 0. -1.
         11    1    1    2    0    0  0.11521106632E+02 -0.14454954629E+02 -0.40547087103E+03  0.40589199162E+03  0.00000000000E+00 0.  1.
        -15    1    1    2    0    0  0.13085484563E+02 -0.10783074428E+02 -0.27258439775E+02  0.32150969944E+02  0.17770000000E+01 0. -1.
         15    1    1    2    0    0 -0.28880177966E+02  0.44559257528E+01 -0.61058172019E+02  0.67713942825E+02  0.17770000000E+01 0.  1.
</event>
<event>
 6    1  0.4028964E-003  0.4833798E+03  0.7546771E-02  0.9437786E-01
        -11   -1    0    0    0    0  0.00000000000E+00  0.00000000000E+00  0.50000000000E+03  0.50000000000E+03  0.00000000000E+00 0.  1.
         11   -1    0    0    0    0 -0.00000000000E+00 -0.00000000000E+00 -0.50000000000E+03  0.50000000000E+03  0.00000000000E+00 0. -1.
        -11    1    1    2    0    0 -0.67727840698E+01  0.51220780506E+01  0.48310732389E+03  0.48318194573E+03  0.00000000000E+00 0.  1.
         11    1    1    2    0    0 -0.61514992114E+01 -0.25843250294E+01 -0.48362151890E+03  0.48366754410E+03  0.00000000000E+00 0. -1.
        -15    1    1    2    0    0  0.41122712097E+01 -0.29946059879E+00 -0.14682036381E+02  0.15353187696E+02  0.17770000000E+01 0.  1.
         15    1    1    2    0    0  0.88120120715E+01 -0.22382924224E+01  0.15196231387E+02  0.17797322469E+02  0.17770000000E+01 0. -1.
</event>
<event>
 6    1  0.4028964E-003  0.5054337E+03  0.7546771E-02  0.9387733E-01
        -11   -1    0    0    0    0  0.00000000000E+00  0.00000000000E+00  0.50000000000E+03  0.50000000000E+03  0.00000000000E+00 0. -1.
         11   -1    0    0    0    0 -0.00000000000E+00 -0.00000000000E+00 -0.50000000000E+03  0.50000000000E+03  0.00000000000E+00 0. -1.
        -11    1    1    2    0    0 -0.33678333258E+02  0.43657089747E+01  0.11077370438E+03  0.11586243191E+03  0.00000000000E+00 0. -1.
         11    1    1    2    0    0 -0.20268510469E+01  0.86295468932E+01 -0.49448683784E+03  0.49456628474E+03  0.00000000000E+00 0. -1.
        -15    1    1    2    0    0 -0.52069708250E+01  0.40621611855E+01  0.55294062945E+01  0.87946439177E+01  0.17770000000E+01 0.  1.
         15    1    1    2    0    0  0.40912155130E+02 -0.17057417053E+02  0.37818372716E+03  0.38077663943E+03  0.17770000000E+01 0. -1.
</event>
<event>
 6    1  0.4028964E-003  0.4916966E+03  0.7546771E-02  0.9418583E-01
        -11   -1    0    0    0    0  0.00000000000E+00  0.00000000000E+00  0.50000000000E+03  0.50000000000E+03  0.00000000000E+00 0.  1.
         11   -1    0    0    0    0 -0.00000000000E+00 -0.00000000000E+00 -0.50000000000E+03  0.50000000000E+03  0.00000000000E+00 0. -1.
        -11    1    1    2    0    0  0.28095183050E+01 -0.89059042494E+01  0.49240654842E+03  0.49249509383E+03  0.00000000000E+00 0.  1.
         11    1    1    2    0    0 -0.61554537386E+01 -0.28149444506E+01 -0.49092805808E+03  0.49097471598E+03  0.00000000000E+00 0. -1.
        -15    1    1    2    0    0 -0.13317264301E+01  0.12772502947E+01  0.31489910356E+01  0.40594010817E+01  0.17770000000E+01 0. -1.
         15    1    1    2    0    0  0.46776618637E+01  0.10443598405E+02 -0.46274813762E+01  0.12470789111E+02  0.17770000000E+01 0.  1.
</event>
<event>
 6    1  0.4028964E-003  0.5581243E+03  0.7546771E-02  0.9278391E-01
        -11   -1    0    0    0    0  0.00000000000E+00  0.00000000000E+00  0.50000000000E+03  0.50000000000E+03  0.00000000000E+00 0. -1.
         11   -1    0    0    0    0 -0.00000000000E+00 -0.00000000000E+00 -0.50000000000E+03  0.50000000000E+03  0.00000000000E+00 0. -1.
        -11    1    1    2    0    0 -0.76895507076E+01  0.63929668824E+02  0.34249359993E+03  0.34849389914E+03  0.00000000000E+00 0. -1.
         11    1    1    2    0    0 -0.97918865546E+01 -0.20636228053E+02 -0.44128497331E+03  0.44187573210E+03  0.00000000000E+00 0. -1.
        -15    1    1    2    0    0 -0.44858119397E+02 -0.55961943422E-01  0.12222384846E+03  0.13020783721E+03  0.17770000000E+01 0. -1.
         15    1    1    2    0    0  0.62339556659E+02 -0.43237478827E+02 -0.23432475086E+02  0.79422531548E+02  0.17770000000E+01 0.  1.
</event>
<event>
 6    1  0.4028964E-003  0.4792439E+03  0.7546771E-02  0.9447489E-01
        -11   -1    0    0    0    0  0.00000000000E+00  0.00000000000E+00  0.50000000000E+03  0.50000000000E+03  0.00000000000E+00 0.  1.
         11   -1    0    0    0    0 -0.00000000000E+00 -0.00000000000E+00 -0.50000000000E+03  0.50000000000E+03  0.00000000000E+00 0. -1.
        -11    1    1    2    0    0 -0.40308347934E+01  0.89591118042E+01  0.48020468418E+03  0.48030516551E+03  0.00000000000E+00 0.  1.
         11    1    1    2    0    0 -0.18090242860E+01 -0.83800408593E+01 -0.47812605918E+03  0.47820291312E+03  0.00000000000E+00 0. -1.
        -15    1    1    2    0    0  0.64298487848E+01  0.29214695740E+01  0.18840727724E+02  0.20199224986E+02  0.17770000000E+01 0. -1.
         15    1    1    2    0    0 -0.58998970539E+00 -0.35005405190E+01 -0.20919352723E+02  0.21292696380E+02  0.17770000000E+01 0.  1.
</event>
<event>
 6    1  0.4028964E-003  0.5033814E+03  0.7546771E-02  0.9392275E-01
        -11   -1    0    0    0    0  0.00000000000E+00  0.00000000000E+00  0.50000000000E+03  0.50000000000E+03  0.00000000000E+00 0.  1.
         11   -1    0    0    0    0 -0.00000000000E+00 -0.00000000000E+00 -0.50000000000E+03  0.50000000000E+03  0.00000000000E+00 0. -1.
        -11    1    1    2    0    0 -0.30606177630E+01  0.78039325920E+01  0.49654787162E+03  0.49661862385E+03  0.00000000000E+00 0.  1.
         11    1    1    2    0    0  0.16507958230E+02  0.57986720637E+01 -0.37785454742E+03  0.37825942988E+03  0.00000000000E+00 0. -1.
        -15    1    1    2    0    0  0.74814583109E+01 -0.14626060032E+02 -0.33260898309E+02  0.37139452552E+02  0.17770000000E+01 0.  1.
         15    1    1    2    0    0 -0.20928798778E+02  0.10234553762E+01 -0.85432425889E+02  0.87982493722E+02  0.17770000000E+01 0. -1.
</event>
<event>
 6    1  0.4028964E-003  0.5206089E+03  0.7546771E-02  0.9354841E-01
        -11   -1    0    0    0    0  0.00000000000E+00  0.00000000000E+00  0.50000000000E+03  0.50000000000E+03  0.00000000000E+00 0.  1.
         11   -1    0    0    0    0 -0.00000000000E+00 -0.00000000000E+00 -0.50000000000E+03  0.50000000000E+03  0.00000000000E+00 0.  1.
        -11    1    1    2    0    0  0.91637939117E+01  0.20219805299E+02  0.47887678582E+03  0.47939106337E+03  0.00000000000E+00 0.  1.
         11    1    1    2    0    0  0.91009877014E+01  0.33619538217E+01 -0.45639892497E+03  0.45650203661E+03  0.00000000000E+00 0.  1.
        -15    1    1    2    0    0 -0.85753873760E+01 -0.75059821794E+01 -0.37983361026E+02  0.39695975627E+02  0.17770000000E+01 0.  1.
         15    1    1    2    0    0 -0.96893942371E+01 -0.16075776941E+02  0.15505500177E+02  0.24410924392E+02  0.17770000000E+01 0. -1.
</event>
<event>
 6    1  0.4028964E-003  0.5047066E+03  0.7546771E-02  0.9389339E-01
        -11   -1    0    0    0    0  0.00000000000E+00  0.00000000000E+00  0.50000000000E+03  0.50000000000E+03  0.00000000000E+00 0.  1.
         11   -1    0    0    0    0 -0.00000000000E+00 -0.00000000000E+00 -0.50000000000E+03  0.50000000000E+03  0.00000000000E+00 0. -1.
        -11    1    1    2    0    0  0.10766368275E+01  0.67998187762E+01  0.42905385406E+03  0.42910908446E+03  0.00000000000E+00 0.  1.
         11    1    1    2    0    0 -0.10006020664E+01 -0.74204855290E+01 -0.49523674943E+03  0.49529335024E+03  0.00000000000E+00 0. -1.
        -15    1    1    2    0    0  0.70725221559E+01  0.13333902467E+02  0.11732391106E+02  0.19199485793E+02  0.17770000000E+01 0. -1.
         15    1    1    2    0    0 -0.71485569170E+01 -0.12713235715E+02  0.54450504262E+02  0.56398079504E+02  0.17770000000E+01 0.  1.
</event>
<event>
 6    1  0.4028964E-003  0.5141533E+03  0.7546771E-02  0.9368686E-01
        -11   -1    0    0    0    0  0.00000000000E+00  0.00000000000E+00  0.50000000000E+03  0.50000000000E+03  0.00000000000E+00 0.  1.
         11   -1    0    0    0    0 -0.00000000000E+00 -0.00000000000E+00 -0.50000000000E+03  0.50000000000E+03  0.00000000000E+00 0. -1.
        -11    1    1    2    0    0 -0.21185504961E+01 -0.11259580443E+02  0.48571157661E+03  0.48584668576E+03  0.00000000000E+00 0.  1.
         11    1    1    2    0    0  0.37065556139E+02  0.28808183662E+02 -0.42475272763E+03  0.42733902996E+03  0.00000000000E+00 0. -1.
        -15    1    1    2    0    0 -0.54761686788E+01  0.15318541124E+02 -0.24851748536E+02  0.29755894540E+02  0.17770000000E+01 0.  1.
         15    1    1    2    0    0 -0.29470836965E+02 -0.32867144343E+02 -0.36107100446E+02  0.57058389745E+02  0.17770000000E+01 0. -1.
</event>
<event>
 6    1  0.4028964E-003  0.5078613E+03  0.7546771E-02  0.9382389E-01
        -11   -1    0    0    0    0  0.00000000000E+00  0.00000000000E+00  0.50000000000E+03  0.50000000000E+03  0.00000000000E+00 0. -1.
         11   -1    0    0    0    0 -0.00000000000E+00 -0.00000000000E+00 -0.50000000000E+03  0.50000000000E+03  0.00000000000E+00 0.  1.
        -11    1    1    2    0    0 -0.15960417200E+02  0.20601831704E+02  0.49144815334E+03  0.49213865709E+03  0.00000000000E+00 0. -1.
         11    1    1    2    0    0  0.58968793230E+00  0.69852386173E+01 -0.39466966085E+03  0.39473191217E+03  0.00000000000E+00 0.  1.
        -15    1    1    2    0    0  0.10424727870E+02 -0.81840691445E+01  0.90151093375E+00  0.13402402393E+02  0.17770000000E+01 0. -1.
         15    1    1    2    0    0  0.49460013977E+01 -0.19403001177E+02 -0.97680003426E+02  0.99727028346E+02  0.17770000000E+01 0.  1.
</event>
<event>
 6    1  0.4028964E-003  0.5041862E+03  0.7546771E-02  0.9390491E-01
        -11   -1    0    0    0    0  0.00000000000E+00  0.00000000000E+00  0.50000000000E+03  0.50000000000E+03  0.00000000000E+00 0. -1.
         11   -1    0    0    0    0 -0.00000000000E+00 -0.00000000000E+00 -0.50000000000E+03  0.50000000000E+03  0.00000000000E+00 0.  1.
        -11    1    1    2    0    0  0.46049665955E+01  0.69454493008E+01  0.49574379221E+03  0.49581382846E+03  0.00000000000E+00 0. -1.
         11    1    1    2    0    0 -0.82597592857E+01  0.24315434244E+01 -0.48623342999E+03  0.48630965903E+03  0.00000000000E+00 0.  1.
        -15    1    1    2    0    0  0.55575162338E+01 -0.99334127308E+01 -0.98952219391E+01  0.15186567137E+02  0.17770000000E+01 0.  1.
         15    1    1    2    0    0 -0.19027235436E+01  0.55642000550E+00  0.38485971656E+00  0.26899453725E+01  0.17770000000E+01 0. -1.
</event>
<event>
 6    1  0.4028964E-003  0.5076516E+03  0.7546771E-02  0.9382850E-01
        -11   -1    0    0    0    0  0.00000000000E+00  0.00000000000E+00  0.50000000000E+03  0.50000000000E+03  0.00000000000E+00 0. -1.
         11   -1    0    0    0    0 -0.00000000000E+00 -0.00000000000E+00 -0.50000000000E+03  0.50000000000E+03  0.00000000000E+00 0. -1.
        -11    1    1    2    0    0 -0.49735237298E+01 -0.48513174742E+01  0.42661084597E+03  0.42666741745E+03  0.00000000000E+00 0. -1.
         11    1    1    2    0    0 -0.79500438622E+01  0.40515389044E+01 -0.49226752786E+03  0.49234839001E+03  0.00000000000E+00 0. -1.
        -15    1    1    2    0    0  0.75628554790E+01  0.29088190122E+01  0.71858165755E+02  0.72335411285E+02  0.17770000000E+01 0. -1.
         15    1    1    2    0    0  0.53607121130E+01 -0.21090404423E+01 -0.62014838672E+01  0.86487812495E+01  0.17770000000E+01 0.  1.
</event>
<event>
 6    1  0.4028964E-003  0.5044054E+03  0.7546771E-02  0.9390006E-01
        -11   -1    0    0    0    0  0.00000000000E+00  0.00000000000E+00  0.50000000000E+03  0.50000000000E+03  0.00000000000E+00 0.  1.
         11   -1    0    0    0    0 -0.00000000000E+00 -0.00000000000E+00 -0.50000000000E+03  0.50000000000E+03  0.00000000000E+00 0. -1.
        -11    1    1    2    0    0  0.64812716932E+01 -0.26561648734E+01  0.49554505703E+03  0.49559455772E+03  0.00000000000E+00 0.  1.
         11    1    1    2    0    0  0.37430435818E+01 -0.11017664982E+02 -0.43334191343E+03  0.43349811216E+03  0.00000000000E+00 0. -1.
        -15    1    1    2    0    0  0.59025761996E+01  0.31124572197E+00 -0.39456505202E+02  0.39936334476E+02  0.17770000000E+01 0.  1.
         15    1    1    2    0    0 -0.16126891475E+02  0.13362584134E+02 -0.22746638403E+02  0.30970995641E+02  0.17770000000E+01 0. -1.
</event>
<event>
 6    1  0.4028964E-003  0.5045328E+03  0.7546771E-02  0.9389724E-01
        -11   -1    0    0    0    0  0.00000000000E+00  0.00000000000E+00  0.50000000000E+03  0.50000000000E+03  0.00000000000E+00 0.  1.
         11   -1    0    0    0    0 -0.00000000000E+00 -0.00000000000E+00 -0.50000000000E+03  0.50000000000E+03  0.00000000000E+00 0.  1.
        -11    1    1    2    0    0 -0.11442876012E+01  0.81503209647E+01  0.42243815810E+03  0.42251832451E+03  0.00000000000E+00 0.  1.
         11    1    1    2    0    0  0.14246032830E+02  0.22248554783E+02 -0.49476231859E+03  0.49546715283E+03  0.00000000000E+00 0.  1.
        -15    1    1    2    0    0 -0.37711302040E+01 -0.26923359971E+02  0.61139529551E+02  0.66934957518E+02  0.17770000000E+01 0.  1.
         15    1    1    2    0    0 -0.93306150243E+01 -0.34755157771E+01  0.11184630940E+02  0.15079565144E+02  0.17770000000E+01 0. -1.
</event>
<event>
 6    1  0.4028964E-003  0.5035024E+03  0.7546771E-02  0.9392007E-01
        -11   -1    0    0    0    0  0.00000000000E+00  0.00000000000E+00  0.50000000000E+03  0.50000000000E+03  0.00000000000E+00 0. -1.
         11   -1    0    0    0    0 -0.00000000000E+00 -0.00000000000E+00 -0.50000000000E+03  0.50000000000E+03  0.00000000000E+00 0. -1.
        -11    1    1    2    0    0  0.12037168294E+02  0.13814754747E+01  0.40649315312E+03  0.40667368421E+03  0.00000000000E+00 0. -1.
         11    1    1    2    0    0 -0.67130274366E+01  0.30162598027E+01 -0.49644303320E+03  0.49649758083E+03  0.00000000000E+00 0. -1.
        -15    1    1    2    0    0  0.14616523916E+02 -0.73922855643E+00  0.47819032636E+02  0.50040052373E+02  0.17770000000E+01 0. -1.
         15    1    1    2    0    0 -0.19940664774E+02 -0.36585067210E+01  0.42130847443E+02  0.46788682588E+02  0.17770000000E+01 0.  1.
</event>
<event>
 6    1  0.4028964E-003  0.4047542E+03  0.7546771E-02  0.9642457E-01
        -11   -1    0    0    0    0  0.00000000000E+00  0.00000000000E+00  0.50000000000E+03  0.50000000000E+03  0.00000000000E+00 0.  1.
         11   -1    0    0    0    0 -0.00000000000E+00 -0.00000000000E+00 -0.50000000000E+03  0.50000000000E+03  0.00000000000E+00 0.  1.
        -11    1    1    2    0    0  0.91124842078E+01 -0.97386902160E+01  0.43794393669E+03  0.43814697436E+03  0.00000000000E+00 0.  1.
         11    1    1    2    0    0  0.14997182408E+02  0.90540354470E+02 -0.36749828370E+03  0.37878418629E+03  0.00000000000E+00 0.  1.
        -15    1    1    2    0    0 -0.21959920706E+02 -0.15445429920E+02 -0.10548317427E+03  0.10886072389E+03  0.17770000000E+01 0.  1.
         15    1    1    2    0    0 -0.21497459090E+01 -0.65356234334E+02  0.35037521272E+02  0.74208115457E+02  0.17770000000E+01 0. -1.
</event>
<event>
 6    1  0.4028964E-003  0.5032683E+03  0.7546771E-02  0.9392526E-01
        -11   -1    0    0    0    0  0.00000000000E+00  0.00000000000E+00  0.50000000000E+03  0.50000000000E+03  0.00000000000E+00 0. -1.
         11   -1    0    0    0    0 -0.00000000000E+00 -0.00000000000E+00 -0.50000000000E+03  0.50000000000E+03  0.00000000000E+00 0. -1.
        -11    1    1    2    0    0 -0.10812157541E+02  0.48724872918E+01  0.49659011174E+03  0.49673170118E+03  0.00000000000E+00 0. -1.
         11    1    1    2    0    0 -0.91723385431E+01  0.37499367630E+01 -0.22652727181E+03  0.22674390553E+03  0.00000000000E+00 0. -1.
        -15    1    1    2    0    0  0.33551535760E+01  0.38326089872E+01 -0.23929683677E+03  0.23935763987E+03  0.17770000000E+01 0.  1.
         15    1    1    2    0    0  0.16629342508E+02 -0.12455033042E+02 -0.30766003157E+02  0.37166753417E+02  0.17770000000E+01 0. -1.
</event>
<event>
 6    1  0.4028964E-003  0.5037446E+03  0.7546771E-02  0.9391470E-01
        -11   -1    0    0    0    0  0.00000000000E+00  0.00000000000E+00  0.50000000000E+03  0.50000000000E+03  0.00000000000E+00 0. -1.
         11   -1    0    0    0    0 -0.00000000000E+00 -0.00000000000E+00 -0.50000000000E+03  0.50000000000E+03  0.00000000000E+00 0. -1.
        -11    1    1    2    0    0  0.18865945820E+02  0.12884139385E+00  0.49589666183E+03  0.49625541783E+03  0.00000000000E+00 0. -1.
         11    1    1    2    0    0 -0.46663655966E+01  0.40824724053E+01 -0.38312239619E+03  0.38317256166E+03  0.00000000000E+00 0. -1.
        -15    1    1    2    0    0 -0.18963183572E+02  0.78432518814E+01 -0.10064638028E+03  0.10273251931E+03  0.17770000000E+01 0. -1.
         15    1    1    2    0    0  0.47636033490E+01 -0.12054565680E+02 -0.12127885358E+02  0.17839501194E+02  0.17770000000E+01 0.  1.
</event>
<event>
 6    1  0.4028964E-003  0.5004154E+03  0.7546771E-02  0.9398881E-01
        -11   -1    0    0    0    0  0.00000000000E+00  0.00000000000E+00  0.50000000000E+03  0.50000000000E+03  0.00000000000E+00 0.  1.
         11   -1    0    0    0    0 -0.00000000000E+00 -0.00000000000E+00 -0.50000000000E+03  0.50000000000E+03  0.00000000000E+00 0. -1.
        -11    1    1    2    0    0 -0.42777188381E+01 -0.31337954146E+01  0.27020389180E+03  0.27025592074E+03  0.00000000000E+00 0.  1.
         11    1    1    2    0    0  0.10535515285E+02 -0.15813932627E+00 -0.49947352175E+03  0.49958464851E+03  0.00000000000E+00 0. -1.
        -15    1    1    2    0    0  0.40093924602E+01  0.23442326764E+01  0.16240805762E+03  0.16248417019E+03  0.17770000000E+01 0.  1.
         15    1    1    2    0    0 -0.10267188907E+02  0.94770206454E+00  0.66861572341E+02  0.67675260563E+02  0.17770000000E+01 0. -1.
</event>
<event>
 6    1  0.4028964E-003  0.5059778E+03  0.7546771E-02  0.9386532E-01
        -11   -1    0    0    0    0  0.00000000000E+00  0.00000000000E+00  0.50000000000E+03  0.50000000000E+03  0.00000000000E+00 0.  1.
         11   -1    0    0    0    0 -0.00000000000E+00 -0.00000000000E+00 -0.50000000000E+03  0.50000000000E+03  0.00000000000E+00 0. -1.
        -11    1    1    2    0    0  0.60833140083E+00  0.52472443853E+00  0.16566951796E+02  0.16586418981E+02  0.00000000000E+00 0.  1.
         11    1    1    2    0    0 -0.60441227947E+01 -0.10279016559E+02 -0.49387831109E+03  0.49402224217E+03  0.00000000000E+00 0. -1.
        -15    1    1    2    0    0 -0.84531878304E+00 -0.28120649882E+01 -0.54400566901E+01  0.64322794665E+01  0.17770000000E+01 0. -1.
         15    1    1    2    0    0  0.62811101769E+01  0.12566357109E+02  0.48275141598E+03  0.48295905938E+03  0.17770000000E+01 0.  1.
</event>
<event>
 6    1  0.4028964E-003  0.5013047E+03  0.7546771E-02  0.9396895E-01
        -11   -1    0    0    0    0  0.00000000000E+00  0.00000000000E+00  0.50000000000E+03  0.50000000000E+03  0.00000000000E+00 0.  1.
         11   -1    0    0    0    0 -0.00000000000E+00 -0.00000000000E+00 -0.50000000000E+03  0.50000000000E+03  0.00000000000E+00 0. -1.
        -11    1    1    2    0    0 -0.61666975124E+01  0.47942447590E+01  0.48005472750E+03  0.48011827120E+03  0.00000000000E+00 0.  1.
         11    1    1    2    0    0  0.54773936124E+00 -0.71190802780E+01 -0.49864417126E+03  0.49869528858E+03  0.00000000000E+00 0. -1.
        -15    1    1    2    0    0  0.20397266686E+01 -0.95195253379E+00  0.13949669056E+02  0.14241407735E+02  0.17770000000E+01 0. -1.
         15    1    1    2    0    0  0.35792314825E+01  0.32767880528E+01  0.46397747017E+01  0.69450324860E+01  0.17770000000E+01 0.  1.
</event>
<event>
 6    1  0.4028964E-003  0.5005175E+03  0.7546771E-02  0.9398652E-01
        -11   -1    0    0    0    0  0.00000000000E+00  0.00000000000E+00  0.50000000000E+03  0.50000000000E+03  0.00000000000E+00 0.  1.
         11   -1    0    0    0    0 -0.00000000000E+00 -0.00000000000E+00 -0.50000000000E+03  0.50000000000E+03  0.00000000000E+00 0.  1.
        -11    1    1    2    0    0 -0.22639757996E+00 -0.82690635240E+01  0.49941396527E+03  0.49948246953E+03  0.00000000000E+00 0.  1.
         11    1    1    2    0    0 -0.75120762814E+01 -0.55644595184E+01 -0.26004128098E+03  0.26020926638E+03  0.00000000000E+00 0.  1.
        -15    1    1    2    0    0  0.93010175063E+01  0.13599863896E+02 -0.15154252220E+03  0.15244592152E+03  0.17770000000E+01 0. -1.
         15    1    1    2    0    0 -0.15625436449E+01  0.23365914588E+00 -0.87830162088E+02  0.87862342563E+02  0.17770000000E+01 0.  1.
</event>
<event>
 6    1  0.4494648E-003  0.5209681E+03  0.7546771E-02  0.9354077E-01
        -11   -1    0    0    0    0  0.00000000000E+00  0.00000000000E+00  0.50000000000E+03  0.50000000000E+03  0.00000000000E+00 0. -1.
         11   -1    0    0    0    0 -0.00000000000E+00 -0.00000000000E+00 -0.50000000000E+03  0.50000000000E+03  0.00000000000E+00 0.  1.
        -11    1    1    2    0    0 -0.69424040249E+01  0.18856220897E+01  0.47897785760E+03  0.47903187849E+03  0.00000000000E+00 0. -1.
         11    1    1    2    0    0 -0.40688963107E+01  0.50406093859E+01 -0.46075474351E+03  0.46080027922E+03  0.00000000000E+00 0.  1.
        -15    1    1    2    0    0  0.90329858218E+01 -0.53134930512E+01  0.19557511544E+02  0.22259425600E+02  0.17770000000E+01 0.  1.
         15    1    1    2    0    0  0.19783145138E+01 -0.16127384245E+01 -0.37780625633E+02  0.37908416687E+02  0.17770000000E+01 0. -1.
</event>
<event>
 6    1  0.4028964E-003  0.5413075E+03  0.7546771E-02  0.9311847E-01
        -11   -1    0    0    0    0  0.00000000000E+00  0.00000000000E+00  0.50000000000E+03  0.50000000000E+03  0.00000000000E+00 0. -1.
         11   -1    0    0    0    0 -0.00000000000E+00 -0.00000000000E+00 -0.50000000000E+03  0.50000000000E+03  0.00000000000E+00 0.  1.
        -11    1    1    2    0    0  0.16886792647E+02  0.46935030115E+01  0.28561861708E+03  0.28615587913E+03  0.00000000000E+00 0. -1.
         11    1    1    2    0    0  0.14396898773E+02  0.36688660361E+02 -0.45699615906E+03  0.45869250908E+03  0.00000000000E+00 0.  1.
        -15    1    1    2    0    0 -0.33291613390E+02 -0.52629351443E+02 -0.18447927269E+02  0.64974332663E+02  0.17770000000E+01 0.  1.
         15    1    1    2    0    0  0.20079219697E+01  0.11247188070E+02  0.18982546925E+03  0.19017727912E+03  0.17770000000E+01 0. -1.
</event>
<event>
 6    1  0.4028964E-003  0.5148986E+03  0.7546771E-02  0.9367077E-01
        -11   -1    0    0    0    0  0.00000000000E+00  0.00000000000E+00  0.50000000000E+03  0.50000000000E+03  0.00000000000E+00 0. -1.
         11   -1    0    0    0    0 -0.00000000000E+00 -0.00000000000E+00 -0.50000000000E+03  0.50000000000E+03  0.00000000000E+00 0.  1.
        -11    1    1    2    0    0 -0.58125977049E+01 -0.73725143206E+01  0.48501058241E+03  0.48510143817E+03  0.00000000000E+00 0. -1.
         11    1    1    2    0    0 -0.58411746973E+01 -0.80944144898E+01 -0.44960006602E+03  0.44971086070E+03  0.00000000000E+00 0.  1.
        -15    1    1    2    0    0 -0.17487993084E+02 -0.58904044010E+01 -0.12816060048E+02  0.22537433090E+02  0.17770000000E+01 0. -1.
         15    1    1    2    0    0  0.29141765486E+02  0.21357333211E+02 -0.22594456346E+02  0.42650268043E+02  0.17770000000E+01 0.  1.
</event>
<event>
 6    1  0.4028964E-003  0.5027497E+03  0.7546771E-02  0.9393678E-01
        -11   -1    0    0    0    0  0.00000000000E+00  0.00000000000E+00  0.50000000000E+03  0.50000000000E+03  0.00000000000E+00 0. -1.
         11   -1    0    0    0    0 -0.00000000000E+00 -0.00000000000E+00 -0.50000000000E+03  0.50000000000E+03  0.00000000000E+00 0.  1.
        -11    1    1    2    0    0 -0.54372180648E+01  0.92613923259E+01  0.49713432185E+03  0.49725030989E+03  0.00000000000E+00 0. -1.
         11    1    1    2    0    0 -0.12350453976E+01 -0.12494371264E+02 -0.27260159207E+03  0.27289056900E+03  0.00000000000E+00 0.  1.
        -15    1    1    2    0    0 -0.35918931317E+01 -0.77513893461E+01 -0.55233830945E+01  0.10327207893E+02  0.17770000000E+01 0. -1.
         15    1    1    2    0    0  0.10264156594E+02  0.10984368284E+02 -0.21900934668E+03  0.21953191321E+03  0.17770000000E+01 0.  1.
</event>
<event>
 6    1  0.4028964E-003  0.5063042E+03  0.7546771E-02  0.9385813E-01
        -11   -1    0    0    0    0  0.00000000000E+00  0.00000000000E+00  0.50000000000E+03  0.50000000000E+03  0.00000000000E+00 0.  1.
         11   -1    0    0    0    0 -0.00000000000E+00 -0.00000000000E+00 -0.50000000000E+03  0.50000000000E+03  0.00000000000E+00 0.  1.
        -11    1    1    2    0    0 -0.58353648888E+01 -0.66278917423E+01  0.39787694824E+03  0.39797493184E+03  0.00000000000E+00 0.  1.
         11    1    1    2    0    0  0.92917766649E+01 -0.47657425226E+00 -0.49360815744E+03  0.49369583483E+03  0.00000000000E+00 0.  1.
        -15    1    1    2    0    0  0.91026851368E+01 -0.65776067006E+01  0.60027025309E+00  0.11386037062E+02  0.17770000000E+01 0. -1.
         15    1    1    2    0    0 -0.12559096913E+02  0.13682072695E+02  0.95130938945E+02  0.96943196265E+02  0.17770000000E+01 0.  1.
</event>
<event>
 6    1  0.4028964E-003  0.5027702E+03  0.7546771E-02  0.9393632E-01
        -11   -1    0    0    0    0  0.00000000000E+00  0.00000000000E+00  0.50000000000E+03  0.50000000000E+03  0.00000000000E+00 0. -1.
         11   -1    0    0    0    0 -0.00000000000E+00 -0.00000000000E+00 -0.50000000000E+03  0.50000000000E+03  0.00000000000E+00 0. -1.
        -11    1    1    2    0    0 -0.59304356934E+01 -0.10286680414E+02  0.49708803599E+03  0.49722982753E+03  0.00000000000E+00 0. -1.
         11    1    1    2    0    0  0.85986591723E+00  0.77599717706E+01 -0.31211855237E+03  0.31221618675E+03  0.00000000000E+00 0. -1.
        -15    1    1    2    0    0  0.71830379392E+01  0.13830494027E+02 -0.17352698235E+03  0.17423446826E+03  0.17770000000E+01 0. -1.
         15    1    1    2    0    0 -0.21124681631E+01 -0.11303785384E+02 -0.11442501272E+02  0.16319517459E+02  0.17770000000E+01 0.  1.
</event>
<event>
 6    1  0.4028964E-003  0.5272887E+03  0.7546771E-02  0.9340738E-01
        -11   -1    0    0    0    0  0.00000000000E+00  0.00000000000E+00  0.50000000000E+03  0.50000000000E+03  0.00000000000E+00 0.  1.
         11   -1    0    0    0    0 -0.00000000000E+00 -0.00000000000E+00 -0.50000000000E+03  0.50000000000E+03  0.00000000000E+00 0.  1.
        -11    1    1    2    0    0 -0.28162469879E+01 -0.54305070719E+01  0.45108156628E+03  0.45112304430E+03  0.00000000000E+00 0.  1.
         11    1    1    2    0    0  0.24097581820E+02  0.40853332982E+01 -0.47207899975E+03  0.47271129180E+03  0.00000000000E+00 0.  1.
        -15    1    1    2    0    0 -0.76885463134E+01  0.47617420636E+01 -0.25739631417E+02  0.27339975976E+02  0.17770000000E+01 0. -1.
         15    1    1    2    0    0 -0.13592788518E+02 -0.34165682899E+01  0.46737064879E+02  0.48825687922E+02  0.17770000000E+01 0.  1.
</event>
<event>
 6    1  0.4028964E-003  0.5007315E+03  0.7546771E-02  0.9398174E-01
        -11   -1    0    0    0    0  0.00000000000E+00  0.00000000000E+00  0.50000000000E+03  0.50000000000E+03  0.00000000000E+00 0.  1.
         11   -1    0    0    0    0 -0.00000000000E+00 -0.00000000000E+00 -0.50000000000E+03  0.50000000000E+03  0.00000000000E+00 0.  1.
        -11    1    1    2    0    0 -0.41681417012E+01  0.11403162016E+01  0.24076638665E+03  0.24080516329E+03  0.00000000000E+00 0.  1.
         11    1    1    2    0    0 -0.50549140332E+01  0.46566635464E+01 -0.49922118377E+03  0.49926849189E+03  0.00000000000E+00 0.  1.
        -15    1    1    2    0    0  0.19783195174E+01 -0.41004833261E+01  0.23858087663E+03  0.23863092871E+03  0.17770000000E+01 0. -1.
         15    1    1    2    0    0  0.72447362170E+01 -0.16964964219E+01  0.19873920485E+02  0.21295416113E+02  0.17770000000E+01 0.  1.
</event>
<event>
 6    1  0.4028964E-003  0.5446728E+03  0.7546771E-02  0.9305050E-01
        -11   -1    0    0    0    0  0.00000000000E+00  0.00000000000E+00  0.50000000000E+03  0.50000000000E+03  0.00000000000E+00 0.  1.
         11   -1    0    0    0    0 -0.00000000000E+00 -0.00000000000E+00 -0.50000000000E+03  0.50000000000E+03  0.00000000000E+00 0.  1.
        -11    1    1    2    0    0 -0.37490717666E+02 -0.14313798156E+02  0.45355528839E+03  0.45532717727E+03  0.00000000000E+00 0.  1.
         11    1    1    2    0    0 -0.91526194141E+01 -0.17027908921E+01 -0.40590326836E+03  0.40601001614E+03  0.00000000000E+00 0.  1.
        -15    1    1    2    0    0  0.82375993250E+01 -0.78493872507E+00 -0.83225306245E+02  0.83654548591E+02  0.17770000000E+01 0.  1.
         15    1    1    2    0    0  0.38405737755E+02  0.16801527773E+02  0.35573286209E+02  0.55008258005E+02  0.17770000000E+01 0. -1.
</event>
<event>
 6    1  0.4028964E-003  0.3611187E+03  0.7546771E-02  0.9778817E-01
        -11   -1    0    0    0    0  0.00000000000E+00  0.00000000000E+00  0.50000000000E+03  0.50000000000E+03  0.00000000000E+00 0.  1.
         11   -1    0    0    0    0 -0.00000000000E+00 -0.00000000000E+00 -0.50000000000E+03  0.50000000000E+03  0.00000000000E+00 0. -1.
        -11    1    1    2    0    0 -0.92179758976E+01 -0.38468731330E+02  0.44763967472E+03  0.44938412605E+03  0.00000000000E+00 0.  1.
         11    1    1    2    0    0 -0.23677404859E+01 -0.31974008122E+00 -0.14573441657E+03  0.14575400030E+03  0.00000000000E+00 0. -1.
        -15    1    1    2    0    0  0.73592018841E+02 -0.68716958299E+02 -0.28586648258E+02  0.10468122937E+03  0.17770000000E+01 0.  1.
         15    1    1    2    0    0 -0.62006302458E+02  0.10750542971E+03 -0.27331860989E+03  0.30018064428E+03  0.17770000000E+01 0. -1.
</event>
<event>
 6    1  0.5170557E-003  0.5117177E+03  0.7546771E-02  0.9373966E-01
        -11   -1    0    0    0    0  0.00000000000E+00  0.00000000000E+00  0.50000000000E+03  0.50000000000E+03  0.00000000000E+00 0.  1.
         11   -1    0    0    0    0 -0.00000000000E+00 -0.00000000000E+00 -0.50000000000E+03  0.50000000000E+03  0.00000000000E+00 0.  1.
        -11    1    1    2    0    0  0.70308278585E+01  0.15182165994E+01  0.48822932902E+03  0.48828231100E+03  0.00000000000E+00 0.  1.
         11    1    1    2    0    0 -0.66811851802E+01 -0.60638172502E+01 -0.38539943468E+03  0.38550503546E+03  0.00000000000E+00 0.  1.
        -15    1    1    2    0    0 -0.23998153784E+01  0.79730139663E+00  0.11439470416E+02  0.11849642010E+02  0.17770000000E+01 0. -1.
         15    1    1    2    0    0  0.20501727001E+01  0.37482992542E+01 -0.11426936475E+03  0.11436301153E+03  0.17770000000E+01 0.  1.
</event>
<event>
 6    1  0.4028964E-003  0.5001047E+03  0.7546771E-02  0.9399576E-01
        -11   -1    0    0    0    0  0.00000000000E+00  0.00000000000E+00  0.50000000000E+03  0.50000000000E+03  0.00000000000E+00 0. -1.
         11   -1    0    0    0    0 -0.00000000000E+00 -0.00000000000E+00 -0.50000000000E+03  0.50000000000E+03  0.00000000000E+00 0.  1.
        -11    1    1    2    0    0 -0.53169545245E+00 -0.43999315511E+01  0.18106308889E+03  0.18111732180E+03  0.00000000000E+00 0. -1.
         11    1    1    2    0    0  0.66722713957E+01  0.26787918294E+01 -0.49984361180E+03  0.49989532043E+03  0.00000000000E+00 0.  1.
        -15    1    1    2    0    0  0.91948961657E+00 -0.19007286216E+01  0.43943260443E+02  0.44029831908E+02  0.17770000000E+01 0. -1.
         15    1    1    2    0    0 -0.70600655598E+01  0.36218683433E+01  0.27483726246E+03  0.27495752585E+03  0.17770000000E+01 0.  1.
</event>
<event>
 6    1  0.4028964E-003  0.5021396E+03  0.7546771E-02  0.9395035E-01
        -11   -1    0    0    0    0  0.00000000000E+00  0.00000000000E+00  0.50000000000E+03  0.50000000000E+03  0.00000000000E+00 0.  1.
         11   -1    0    0    0    0 -0.00000000000E+00 -0.00000000000E+00 -0.50000000000E+03  0.50000000000E+03  0.00000000000E+00 0.  1.
        -11    1    1    2    0    0 -0.48882353245E+01  0.21621302170E+01  0.33298402771E+03  0.33302692438E+03  0.00000000000E+00 0.  1.
         11    1    1    2    0    0 -0.81802549637E+01 -0.14377822551E+00 -0.49779319729E+03  0.49786042674E+03  0.00000000000E+00 0.  1.
        -15    1    1    2    0    0  0.68932214340E+01 -0.53674551920E+01  0.16036394933E+03  0.16061158131E+03  0.17770000000E+01 0.  1.
         15    1    1    2    0    0  0.61752688543E+01  0.33491032005E+01  0.44452202506E+01  0.85010675651E+01  0.17770000000E+01 0. -1.
</event>
<event>
 6    1  0.4028964E-003  0.5100033E+03  0.7546771E-02  0.9377701E-01
        -11   -1    0    0    0    0  0.00000000000E+00  0.00000000000E+00  0.50000000000E+03  0.50000000000E+03  0.00000000000E+00 0. -1.
         11   -1    0    0    0    0 -0.00000000000E+00 -0.00000000000E+00 -0.50000000000E+03  0.50000000000E+03  0.00000000000E+00 0. -1.
        -11    1    1    2    0    0 -0.41117143517E+01  0.20035711456E+02  0.48956967895E+03  0.48999674129E+03  0.00000000000E+00 0. -1.
         11    1    1    2    0    0 -0.85396699341E+01 -0.24582543352E+01 -0.10318572995E+03  0.10356767759E+03  0.00000000000E+00 0. -1.
        -15    1    1    2    0    0  0.14163133364E+02 -0.80473810173E+01 -0.39379743457E+03  0.39413821420E+03  0.17770000000E+01 0. -1.
         15    1    1    2    0    0 -0.15117490785E+01 -0.95300761033E+01  0.74134855724E+01  0.12297366919E+02  0.17770000000E+01 0.  1.
</event>
<event>
 6    1  0.4028964E-003  0.5018377E+03  0.7546771E-02  0.9395707E-01
        -11   -1    0    0    0    0  0.00000000000E+00  0.00000000000E+00  0.50000000000E+03  0.50000000000E+03  0.00000000000E+00 0. -1.
         11   -1    0    0    0    0 -0.00000000000E+00 -0.00000000000E+00 -0.50000000000E+03  0.50000000000E+03  0.00000000000E+00 0.  1.
        -11    1    1    2    0    0  0.61290392340E+01  0.10666937043E+02  0.49801039342E+03  0.49816232357E+03  0.00000000000E+00 0. -1.
         11    1    1    2    0    0 -0.16765694465E+02 -0.42534593748E+01 -0.31078463601E+03  0.31126559464E+03  0.00000000000E+00 0.  1.
        -15    1    1    2    0    0  0.27604421865E+01 -0.54909117712E+01 -0.17862387359E+03  0.17873840130E+03  0.17770000000E+01 0. -1.
         15    1    1    2    0    0  0.78762130443E+01 -0.92256589724E+00 -0.86018838187E+01  0.11833680492E+02  0.17770000000E+01 0.  1.
</event>
<event>
 6    1  0.4028964E-003  0.5052760E+03  0.7546771E-02  0.9388081E-01
        -11   -1    0    0    0    0  0.00000000000E+00  0.00000000000E+00  0.50000000000E+03  0.50000000000E+03  0.00000000000E+00 0.  1.
         11   -1    0    0    0    0 -0.00000000000E+00 -0.00000000000E+00 -0.50000000000E+03  0.50000000000E+03  0.00000000000E+00 0.  1.
        -11    1    1    2    0    0  0.13521322997E+02 -0.29646640035E+02  0.49364978893E+03  0.49472402767E+03  0.00000000000E+00 0.  1.
         11    1    1    2    0    0  0.15131448743E+02  0.11605214677E+02 -0.30562130280E+03  0.30621564701E+03  0.00000000000E+00 0.  1.
        -15    1    1    2    0    0 -0.28910412279E+02 -0.13769530001E+02 -0.73712092872E+02  0.80386828891E+02  0.17770000000E+01 0.  1.
         15    1    1    2    0    0  0.25764053883E+00  0.31810955359E+02 -0.11431639326E+03  0.11867349643E+03  0.17770000000E+01 0. -1.
</event>
<event>
 6    1  0.4028964E-003  0.5067755E+03  0.7546771E-02  0.9384775E-01
        -11   -1    0    0    0    0  0.00000000000E+00  0.00000000000E+00  0.50000000000E+03  0.50000000000E+03  0.00000000000E+00 0.  1.
         11   -1    0    0    0    0 -0.00000000000E+00 -0.00000000000E+00 -0.50000000000E+03  0.50000000000E+03  0.00000000000E+00 0.  1.
        -11    1    1    2    0    0 -0.98151428225E+01  0.49222777655E+01  0.49310222412E+03  0.49322446135E+03  0.00000000000E+00 0.  1.
         11    1    1    2    0    0 -0.40247945548E+01  0.44092112953E+01 -0.41779226905E+03  0.41783491979E+03  0.00000000000E+00 0.  1.
        -15    1    1    2    0    0  0.27909219966E+01 -0.14030877016E+02 -0.75437258201E+02  0.76802294297E+02  0.17770000000E+01 0.  1.
         15    1    1    2    0    0  0.11049015381E+02  0.46993879548E+01  0.12730313407E+00  0.12138324560E+02  0.17770000000E+01 0. -1.
</event>
<event>
 6    1  0.4028964E-003  0.5022941E+03  0.7546771E-02  0.9394691E-01
        -11   -1    0    0    0    0  0.00000000000E+00  0.00000000000E+00  0.50000000000E+03  0.50000000000E+03  0.00000000000E+00 0.  1.
         11   -1    0    0    0    0 -0.00000000000E+00 -0.00000000000E+00 -0.50000000000E+03  0.50000000000E+03  0.00000000000E+00 0. -1.
        -11    1    1    2    0    0 -0.71744315701E+01  0.11232148445E+02  0.38704876200E+03  0.38727816591E+03  0.00000000000E+00 0.  1.
         11    1    1    2    0    0  0.49151585849E+01 -0.46129031047E+01 -0.49766024986E+03  0.49770589905E+03  0.00000000000E+00 0. -1.
        -15    1    1    2    0    0  0.68050418395E+01 -0.66302358770E+00  0.10558279444E+03  0.10581886602E+03  0.17770000000E+01 0.  1.
         15    1    1    2    0    0 -0.45457688543E+01 -0.59562217530E+01  0.50286934213E+01  0.91970690208E+01  0.17770000000E+01 0. -1.
</event>
<event>
 6    1  0.4028964E-003  0.5032990E+03  0.7546771E-02  0.9392458E-01
        -11   -1    0    0    0    0  0.00000000000E+00  0.00000000000E+00  0.50000000000E+03  0.50000000000E+03  0.00000000000E+00 0.  1.
         11   -1    0    0    0    0 -0.00000000000E+00 -0.00000000000E+00 -0.50000000000E+03  0.50000000000E+03  0.00000000000E+00 0.  1.
        -11    1    1    2    0    0 -0.25671776118E+00 -0.71755314302E+01  0.49664911596E+03  0.49670101524E+03  0.00000000000E+00 0.  1.
         11    1    1    2    0    0 -0.51894763952E+01  0.33104018302E+01 -0.41725900853E+03  0.41730440883E+03  0.00000000000E+00 0.  1.
        -15    1    1    2    0    0  0.17475295698E+01  0.54507889696E+01  0.47134060855E+00  0.60120587953E+01  0.17770000000E+01 0.  1.
         15    1    1    2    0    0  0.36986645865E+01 -0.15856593696E+01 -0.79861448038E+02  0.79982517134E+02  0.17770000000E+01 0.  1.
</event>
<event>
 6    1  0.4028964E-003  0.5038007E+03  0.7546771E-02  0.9391345E-01
        -11   -1    0    0    0    0  0.00000000000E+00  0.00000000000E+00  0.50000000000E+03  0.50000000000E+03  0.00000000000E+00 0. -1.
         11   -1    0    0    0    0 -0.00000000000E+00 -0.00000000000E+00 -0.50000000000E+03  0.50000000000E+03  0.00000000000E+00 0.  1.
        -11    1    1    2    0    0  0.79929773022E+01  0.27091969354E+01  0.49612752372E+03  0.49619930192E+03  0.00000000000E+00 0. -1.
         11    1    1    2    0    0  0.53717074089E+01 -0.20687156014E+02 -0.35184167558E+03  0.35249025283E+03  0.00000000000E+00 0.  1.
        -15    1    1    2    0    0  0.13136518989E+02  0.12274719934E+02 -0.66821503460E+02  0.69220718967E+02  0.17770000000E+01 0. -1.
         15    1    1    2    0    0 -0.26501203700E+02  0.57032391449E+01 -0.77464344679E+02  0.82089726274E+02  0.17770000000E+01 0.  1.
</event>
<event>
 6    1  0.4028964E-003  0.5291959E+03  0.7546771E-02  0.9336752E-01
        -11   -1    0    0    0    0  0.00000000000E+00  0.00000000000E+00  0.50000000000E+03  0.50000000000E+03  0.00000000000E+00 0.  1.
         11   -1    0    0    0    0 -0.00000000000E+00 -0.00000000000E+00 -0.50000000000E+03  0.50000000000E+03  0.00000000000E+00 0. -1.
        -11    1    1    2    0    0  0.93771234758E+01  0.76258440805E+01  0.47064893773E+03  0.47080410633E+03  0.00000000000E+00 0.  1.
         11    1    1    2    0    0 -0.13910615089E+02  0.31071541479E+01 -0.38603932013E+03  0.38630236384E+03  0.00000000000E+00 0. -1.
        -15    1    1    2    0    0  0.17401574864E+02 -0.34097703906E+01 -0.11108601414E+03  0.11250645141E+03  0.17770000000E+01 0.  1.
         15    1    1    2    0    0 -0.12868083251E+02 -0.73232278378E+01  0.26476396539E+02  0.30387078426E+02  0.17770000000E+01 0.  1.
</event>
<event>
 6    1  0.4028964E-003  0.5010346E+03  0.7546771E-02  0.9397498E-01
        -11   -1    0    0    0    0  0.00000000000E+00  0.00000000000E+00  0.50000000000E+03  0.50000000000E+03  0.00000000000E+00 0. -1.
         11   -1    0    0    0    0 -0.00000000000E+00 -0.00000000000E+00 -0.50000000000E+03  0.50000000000E+03  0.00000000000E+00 0. -1.
        -11    1    1    2    0    0 -0.80822996112E+01  0.49686071223E+01  0.16596830033E+03  0.16623924729E+03  0.00000000000E+00 0. -1.
         11    1    1    2    0    0  0.54547125158E+01 -0.96042328946E+01 -0.49884310172E+03  0.49896536484E+03  0.00000000000E+00 0. -1.
        -15    1    1    2    0    0  0.40016971134E+01 -0.37634108461E+01  0.31356963165E+03  0.31362278053E+03  0.17770000000E+01 0. -1.
         15    1    1    2    0    0 -0.13741100180E+01  0.83990366183E+01  0.19305169732E+02  0.21172607347E+02  0.17770000000E+01 0.  1.
</event>
<event>
 6    1  0.4028964E-003  0.4631019E+03  0.7546771E-02  0.9486381E-01
        -11   -1    0    0    0    0  0.00000000000E+00  0.00000000000E+00  0.50000000000E+03  0.50000000000E+03  0.00000000000E+00 0.  1.
         11   -1    0    0    0    0 -0.00000000000E+00 -0.00000000000E+00 -0.50000000000E+03  0.50000000000E+03  0.00000000000E+00 0. -1.
        -11    1    1    2    0    0 -0.20407443600E+02  0.68069919889E+01  0.46285506058E+03  0.46335473020E+03  0.00000000000E+00 0.  1.
         11    1    1    2    0    0 -0.14572948569E+02  0.83320827240E+01 -0.46332919690E+03  0.46363319460E+03  0.00000000000E+00 0. -1.
        -15    1    1    2    0    0  0.33294555274E+02 -0.34270676596E+02 -0.12921246826E+02  0.49529012042E+02  0.17770000000E+01 0.  1.
         15    1    1    2    0    0  0.16858368953E+01  0.19131601883E+02  0.13395383152E+02  0.23483063162E+02  0.17770000000E+01 0. -1.
</event>
<event>
 6    1  0.4028964E-003  0.5081555E+03  0.7546771E-02  0.9381744E-01
        -11   -1    0    0    0    0  0.00000000000E+00  0.00000000000E+00  0.50000000000E+03  0.50000000000E+03  0.00000000000E+00 0. -1.
         11   -1    0    0    0    0 -0.00000000000E+00 -0.00000000000E+00 -0.50000000000E+03  0.50000000000E+03  0.00000000000E+00 0.  1.
        -11    1    1    2    0    0 -0.98827431695E+01 -0.14563742453E+02  0.49152952048E+03  0.49184452901E+03  0.00000000000E+00 0. -1.
         11    1    1    2    0    0 -0.14324998922E+02  0.12481768798E+02 -0.31819917584E+03  0.31876592612E+03  0.00000000000E+00 0.  1.
        -15    1    1    2    0    0  0.20982162627E+02  0.31195350036E+02 -0.14004987300E+03  0.14501905278E+03  0.17770000000E+01 0. -1.
         15    1    1    2    0    0  0.32255794651E+01 -0.29113376381E+02 -0.33280471641E+02  0.44370492096E+02  0.17770000000E+01 0.  1.
</event>
<event>
 6    1  0.4028964E-003  0.5193690E+03  0.7546771E-02  0.9357483E-01
        -11   -1    0    0    0    0  0.00000000000E+00  0.00000000000E+00  0.50000000000E+03  0.50000000000E+03  0.00000000000E+00 0. -1.
         11   -1    0    0    0    0 -0.00000000000E+00 -0.00000000000E+00 -0.50000000000E+03  0.50000000000E+03  0.00000000000E+00 0. -1.
        -11    1    1    2    0    0 -0.12364755202E+02 -0.52139752200E+01  0.41164298605E+03  0.41186165235E+03  0.00000000000E+00 0. -1.
         11    1    1    2    0    0 -0.10238573844E+02  0.21998051296E+02 -0.48001811985E+03  0.48063097907E+03  0.00000000000E+00 0. -1.
        -15    1    1    2    0    0  0.26817917831E+02 -0.29230671250E+01  0.82729888762E+02  0.87035264472E+02  0.17770000000E+01 0.  1.
         15    1    1    2    0    0 -0.42145887851E+01 -0.13861008951E+02 -0.14354754959E+02  0.20472104110E+02  0.17770000000E+01 0. -1.
</event>
<event>
 6    1  0.4028964E-003  0.5070812E+03  0.7546771E-02  0.9384103E-01
        -11   -1    0    0    0    0  0.00000000000E+00  0.00000000000E+00  0.50000000000E+03  0.50000000000E+03  0.00000000000E+00 0.  1.
         11   -1    0    0    0    0 -0.00000000000E+00 -0.00000000000E+00 -0.50000000000E+03  0.50000000000E+03  0.00000000000E+00 0.  1.
        -11    1    1    2    0    0 -0.11431613788E+02  0.96020989212E+00  0.49278525993E+03  0.49291877241E+03  0.00000000000E+00 0.  1.
         11    1    1    2    0    0  0.10369419992E+02  0.15365190020E+02 -0.48177745080E+03  0.48213392956E+03  0.00000000000E+00 0.  1.
        -15    1    1    2    0    0  0.24244463832E+01 -0.12515161557E+00  0.23608555092E+01  0.38242608341E+01  0.17770000000E+01 0. -1.
         15    1    1    2    0    0 -0.13622525881E+01 -0.16200248297E+02 -0.13368664636E+02  0.21123037190E+02  0.17770000000E+01 0.  1.
</event>
<event>
 6    1  0.4028964E-003  0.5074272E+03  0.7546771E-02  0.9383342E-01
        -11   -1    0    0    0    0  0.00000000000E+00  0.00000000000E+00  0.50000000000E+03  0.50000000000E+03  0.00000000000E+00 0.  1.
         11   -1    0    0    0    0 -0.00000000000E+00 -0.00000000000E+00 -0.50000000000E+03  0.50000000000E+03  0.00000000000E+00 0.  1.
        -11    1    1    2    0    0  0.58002198183E+00 -0.73475101366E+01  0.39226529883E+03  0.39233453455E+03  0.00000000000E+00 0.  1.
         11    1    1    2    0    0 -0.65463932016E+01  0.88986313803E+01 -0.49244889079E+03  0.49257278746E+03  0.00000000000E+00 0.  1.
        -15    1    1    2    0    0 -0.27566728871E+01  0.78414926897E+01  0.10170765891E+03  0.10206220585E+03  0.17770000000E+01 0.  1.
         15    1    1    2    0    0  0.87230441068E+01 -0.93926139334E+01 -0.15240669524E+01  0.13030472135E+02  0.17770000000E+01 0. -1.
</event>
<event>
 6    1  0.4028964E-003  0.5463344E+03  0.7546771E-02  0.9301713E-01
        -11   -1    0    0    0    0  0.00000000000E+00  0.00000000000E+00  0.50000000000E+03  0.50000000000E+03  0.00000000000E+00 0. -1.
         11   -1    0    0    0    0 -0.00000000000E+00 -0.00000000000E+00 -0.50000000000E+03  0.50000000000E+03  0.00000000000E+00 0.  1.
        -11    1    1    2    0    0  0.79901603015E+01  0.15180424124E+01  0.44038212910E+03  0.44045722465E+03  0.00000000000E+00 0. -1.
         11    1    1    2    0    0 -0.14259769874E+02  0.12976708592E+02 -0.45325572250E+03  0.45366561031E+03  0.00000000000E+00 0.  1.
        -15    1    1    2    0    0 -0.12227309845E+02 -0.18312887271E+02  0.55220417159E+02  0.59475382693E+02  0.17770000000E+01 0. -1.
         15    1    1    2    0    0  0.18496919418E+02  0.38181362659E+01 -0.42346823764E+02  0.46401782341E+02  0.17770000000E+01 0.  1.
</event>
<event>
 6    1  0.4028964E-003  0.5037931E+03  0.7546771E-02  0.9391362E-01
        -11   -1    0    0    0    0  0.00000000000E+00  0.00000000000E+00  0.50000000000E+03  0.50000000000E+03  0.00000000000E+00 0.  1.
         11   -1    0    0    0    0 -0.00000000000E+00 -0.00000000000E+00 -0.50000000000E+03  0.50000000000E+03  0.00000000000E+00 0. -1.
        -11    1    1    2    0    0 -0.19690785098E+02 -0.12568119052E+01  0.49581444591E+03  0.49620688363E+03  0.00000000000E+00 0.  1.
         11    1    1    2    0    0  0.79446933120E+01 -0.64949998813E+01 -0.39058295379E+03  0.39071773311E+03  0.00000000000E+00 0. -1.
        -15    1    1    2    0    0  0.13483306517E+02  0.24572829719E+01 -0.86221632068E+01  0.16289174982E+02  0.17770000000E+01 0.  1.
         15    1    1    2    0    0 -0.17372147308E+01  0.52945288145E+01 -0.96609328914E+02  0.96786208277E+02  0.17770000000E+01 0. -1.
</event>
<event>
 6    1  0.4028964E-003  0.5053713E+03  0.7546771E-02  0.9387871E-01
        -11   -1    0    0    0    0  0.00000000000E+00  0.00000000000E+00  0.50000000000E+03  0.50000000000E+03  0.00000000000E+00 0.  1.
         11   -1    0    0    0    0 -0.00000000000E+00 -0.00000000000E+00 -0.50000000000E+03  0.50000000000E+03  0.00000000000E+00 0. -1.
        -11    1    1    2    0    0 -0.65420376337E+01  0.68875740544E+01  0.45526874519E+03  0.45536783734E+03  0.00000000000E+00 0.  1.
         11    1    1    2    0    0  0.40382201363E+01  0.75620063472E+01 -0.49455441637E+03  0.49462871117E+03  0.00000000000E+00 0. -1.
        -15    1    1    2    0    0  0.25267929335E+01 -0.22302444151E+02  0.25317433518E+02  0.33880877595E+02  0.17770000000E+01 0. -1.
         15    1    1    2    0    0 -0.22975436107E-01  0.78528637491E+01  0.13968237659E+02  0.16122573903E+02  0.17770000000E+01 0.  1.
</event>
<event>
 6    1  0.4028964E-003  0.5013936E+03  0.7546771E-02  0.9396697E-01
        -11   -1    0    0    0    0  0.00000000000E+00  0.00000000000E+00  0.50000000000E+03  0.50000000000E+03  0.00000000000E+00 0. -1.
         11   -1    0    0    0    0 -0.00000000000E+00 -0.00000000000E+00 -0.50000000000E+03  0.50000000000E+03  0.00000000000E+00 0.  1.
        -11    1    1    2    0    0  0.16689173387E+01  0.52838537946E+01  0.11973579861E+03  0.11986394731E+03  0.00000000000E+00 0. -1.
         11    1    1    2    0    0 -0.22995828021E+01  0.68214375438E+01 -0.49855445710E+03  0.49860642473E+03  0.00000000000E+00 0.  1.
        -15    1    1    2    0    0 -0.32354444607E+01  0.28781834169E+01  0.33486544367E+03  0.33489815636E+03  0.17770000000E+01 0. -1.
         15    1    1    2    0    0  0.38661099240E+01 -0.14983474755E+02  0.43953214818E+02  0.46631471599E+02  0.17770000000E+01 0.  1.
</event>
<event>
 6    1  0.4028964E-003  0.4783891E+03  0.7546771E-02  0.9449508E-01
        -11   -1    0    0    0    0  0.00000000000E+00  0.00000000000E+00  0.50000000000E+03  0.50000000000E+03  0.00000000000E+00 0.  1.
         11   -1    0    0    0    0 -0.00000000000E+00 -0.00000000000E+00 -0.50000000000E+03  0.50000000000E+03  0.00000000000E+00 0.  1.
        -11    1    1    2    0    0 -0.85359963001E+01 -0.48929468984E+01  0.47426467841E+03  0.47436672454E+03  0.00000000000E+00 0.  1.
         11    1    1    2    0    0 -0.73929486683E+01 -0.40652189863E+01 -0.48254806057E+03  0.48262181100E+03  0.00000000000E+00 0.  1.
        -15    1    1    2    0    0  0.10090004680E+02  0.55102898707E+01 -0.14835835336E+02  0.18852883812E+02  0.17770000000E+01 0. -1.
         15    1    1    2    0    0  0.58389402886E+01  0.34478760140E+01  0.23119217488E+02  0.24158580648E+02  0.17770000000E+01 0.  1.
</event>
<event>
 6    1  0.4028964E-003  0.5110064E+03  0.7546771E-02  0.9375513E-01
        -11   -1    0    0    0    0  0.00000000000E+00  0.00000000000E+00  0.50000000000E+03  0.50000000000E+03  0.00000000000E+00 0.  1.
         11   -1    0    0    0    0 -0.00000000000E+00 -0.00000000000E+00 -0.50000000000E+03  0.50000000000E+03  0.00000000000E+00 0. -1.
        -11    1    1    2    0    0  0.11229858991E+01  0.82794979894E+01  0.46533115838E+03  0.46540616470E+03  0.00000000000E+00 0.  1.
         11    1    1    2    0    0 -0.18059817933E+01 -0.63586191085E+01 -0.48894893426E+03  0.48899361337E+03  0.00000000000E+00 0. -1.
        -15    1    1    2    0    0  0.10542370413E+02  0.10787508557E+02  0.25113512721E+02  0.29348903982E+02  0.17770000000E+01 0. -1.
         15    1    1    2    0    0 -0.98593745186E+01 -0.12708387438E+02 -0.14957368411E+01  0.16251317942E+02  0.17770000000E+01 0.  1.
</event>
<event>
 6    1  0.4028964E-003  0.5042898E+03  0.7546771E-02  0.9390262E-01
        -11   -1    0    0    0    0  0.00000000000E+00  0.00000000000E+00  0.50000000000E+03  0.50000000000E+03  0.00000000000E+00 0.  1.
         11   -1    0    0    0    0 -0.00000000000E+00 -0.00000000000E+00 -0.50000000000E+03  0.50000000000E+03  0.00000000000E+00 0.  1.
        -11    1    1    2    0    0 -0.35714499276E+01 -0.86877535249E+01  0.46065125761E+03  0.46074701676E+03  0.00000000000E+00 0.  1.
         11    1    1    2    0    0 -0.69644213089E+01  0.43131125515E+01 -0.49564247535E+03  0.49571016680E+03  0.00000000000E+00 0.  1.
        -15    1    1    2    0    0  0.12172107508E+02 -0.10318669389E+01  0.55897206531E+01  0.13550928254E+02  0.17770000000E+01 0.  1.
         15    1    1    2    0    0 -0.16362362719E+01  0.54065079123E+01  0.29401497082E+02  0.29991888180E+02  0.17770000000E+01 0. -1.
</event>
<event>
 6    1  0.4772058E-003  0.5035095E+03  0.7546771E-02  0.9391991E-01
        -11   -1    0    0    0    0  0.00000000000E+00  0.00000000000E+00  0.50000000000E+03  0.50000000000E+03  0.00000000000E+00 0.  1.
         11   -1    0    0    0    0 -0.00000000000E+00 -0.00000000000E+00 -0.50000000000E+03  0.50000000000E+03  0.00000000000E+00 0.  1.
        -11    1    1    2    0    0 -0.36949483358E+01 -0.38238154010E+01  0.39237223979E+03  0.39240826796E+03  0.00000000000E+00 0.  1.
         11    1    1    2    0    0  0.15560753294E+01 -0.10655421578E+02 -0.49637368772E+03  0.49649048052E+03  0.00000000000E+00 0.  1.
        -15    1    1    2    0    0  0.10177198418E+01 -0.86856523238E+00  0.90572691000E+02  0.90600001342E+02  0.17770000000E+01 0. -1.
         15    1    1    2    0    0  0.11211531646E+01  0.15347802212E+02  0.13428756938E+02  0.20501250183E+02  0.17770000000E+01 0.  1.
</event>
<event>
 6    1  0.4028964E-003  0.5009732E+03  0.7546771E-02  0.9397635E-01
        -11   -1    0    0    0    0  0.00000000000E+00  0.00000000000E+00  0.50000000000E+03  0.50000000000E+03  0.00000000000E+00 0. -1.
         11   -1    0    0    0    0 -0.00000000000E+00 -0.00000000000E+00 -0.50000000000E+03  0.50000000000E+03  0.00000000000E+00 0.  1.
        -11    1    1    2    0    0 -0.76037572694E+00 -0.69064407170E+01  0.44187977257E+03  0.44193439615E+03  0.00000000000E+00 0. -1.
         11    1    1    2    0    0 -0.74907694949E+01 -0.13450058571E+01 -0.49896879926E+03  0.49902683626E+03  0.00000000000E+00 0.  1.
        -15    1    1    2    0    0  0.20591304858E+00 -0.12292090716E+01  0.13603421539E+02  0.13775491341E+02  0.17770000000E+01 0.  1.
         15    1    1    2    0    0  0.80452321733E+01  0.94806556456E+01  0.43485605155E+02  0.45263276250E+02  0.17770000000E+01 0. -1.
</event>
