<event>
 6    1  0.1697564E-002  0.1843164E+03  0.7546771E-02  0.1067018E+00
        -11   -1    0    0    0    0  0.00000000000E+00  0.00000000000E+00  0.18250000000E+03  0.18250000000E+03  0.00000000000E+00 0.  1.
         11   -1    0    0    0    0 -0.00000000000E+00 -0.00000000000E+00 -0.18250000000E+03  0.18250000000E+03  0.00000000000E+00 0. -1.
        -11    1    1    2    0    0  0.62358711542E+01  0.53213929786E+00  0.18057513973E+03  0.18068356413E+03  0.00000000000E+00 0.  1.
         11    1    1    2    0    0  0.10611121234E+01 -0.41269378554E+01 -0.16764631162E+03  0.16770045729E+03  0.00000000000E+00 0. -1.
        -15    1    1    2    0    0 -0.46800738029E+01  0.25089997390E+01 -0.11842401557E+02  0.13099556257E+02  0.17770000000E+01 0.  1.
         15    1    1    2    0    0 -0.26169094747E+01  0.10857988186E+01 -0.10864265459E+01  0.35164223172E+01  0.17770000000E+01 0. -1.
</event>
<event>
 6    1  0.1697564E-002  0.1915243E+03  0.7546771E-02  0.1061490E+00
        -11   -1    0    0    0    0  0.00000000000E+00  0.00000000000E+00  0.18250000000E+03  0.18250000000E+03  0.00000000000E+00 0. -1.
         11   -1    0    0    0    0 -0.00000000000E+00 -0.00000000000E+00 -0.18250000000E+03  0.18250000000E+03  0.00000000000E+00 0. -1.
        -11    1    1    2    0    0  0.27437271528E+01  0.67964270255E+01  0.17332075016E+03  0.17347565217E+03  0.00000000000E+00 0. -1.
         11    1    1    2    0    0  0.13849526461E+01  0.20693625040E+01 -0.15542446758E+03  0.15544441282E+03  0.00000000000E+00 0. -1.
        -15    1    1    2    0    0 -0.44641443652E+01 -0.80475102143E+01  0.66254266813E+01  0.11478023056E+02  0.17770000000E+01 0. -1.
         15    1    1    2    0    0  0.33546456630E+00 -0.81827931517E+00 -0.24521709264E+02  0.24601911953E+02  0.17770000000E+01 0.  1.
</event>
<event>
 6    1  0.1697564E-002  0.1893316E+03  0.7546771E-02  0.1063143E+00
        -11   -1    0    0    0    0  0.00000000000E+00  0.00000000000E+00  0.18250000000E+03  0.18250000000E+03  0.00000000000E+00 0.  1.
         11   -1    0    0    0    0 -0.00000000000E+00 -0.00000000000E+00 -0.18250000000E+03  0.18250000000E+03  0.00000000000E+00 0.  1.
        -11    1    1    2    0    0  0.39098504642E+01  0.23191437525E+01  0.17560957280E+03  0.17566840187E+03  0.00000000000E+00 0.  1.
         11    1    1    2    0    0 -0.39651660678E+01  0.73946577728E+01 -0.15479110652E+03  0.15501835428E+03  0.00000000000E+00 0.  1.
        -15    1    1    2    0    0 -0.20071592434E+01  0.31359032036E+00  0.54405627510E+01  0.60732593527E+01  0.17770000000E+01 0.  1.
         15    1    1    2    0    0  0.20624748470E+01 -0.10027391846E+02 -0.26259029027E+02  0.28239984493E+02  0.17770000000E+01 0.  1.
</event>
<event>
 6    1  0.1697564E-002  0.1946087E+03  0.7546771E-02  0.1059205E+00
        -11   -1    0    0    0    0  0.00000000000E+00  0.00000000000E+00  0.18250000000E+03  0.18250000000E+03  0.00000000000E+00 0.  1.
         11   -1    0    0    0    0 -0.00000000000E+00 -0.00000000000E+00 -0.18250000000E+03  0.18250000000E+03  0.00000000000E+00 0. -1.
        -11    1    1    2    0    0 -0.14754516718E+02  0.72304638911E+01  0.16959723051E+03  0.17039130250E+03  0.00000000000E+00 0.  1.
         11    1    1    2    0    0 -0.17130304922E+02  0.77364285087E+00 -0.13433194356E+03  0.13542199574E+03  0.00000000000E+00 0. -1.
        -15    1    1    2    0    0  0.16706729422E+01 -0.55275941076E+01  0.56239722582E+01  0.82542254427E+01  0.17770000000E+01 0.  1.
         15    1    1    2    0    0  0.30214148698E+02 -0.24765126344E+01 -0.40889259211E+02  0.50932476321E+02  0.17770000000E+01 0. -1.
</event>
<event>
 6    1  0.1697564E-002  0.1835077E+03  0.7546771E-02  0.1067655E+00
        -11   -1    0    0    0    0  0.00000000000E+00  0.00000000000E+00  0.18250000000E+03  0.18250000000E+03  0.00000000000E+00 0.  1.
         11   -1    0    0    0    0 -0.00000000000E+00 -0.00000000000E+00 -0.18250000000E+03  0.18250000000E+03  0.00000000000E+00 0.  1.
        -11    1    1    2    0    0  0.17849495244E+01 -0.15241298939E+01  0.16069179708E+03  0.16070893772E+03  0.00000000000E+00 0.  1.
         11    1    1    2    0    0  0.39548877745E+01  0.15850115153E+01 -0.18144227650E+03  0.18149229487E+03  0.00000000000E+00 0.  1.
        -15    1    1    2    0    0 -0.64050232782E+01 -0.16784038931E+01  0.13682692349E+02  0.15304089706E+02  0.17770000000E+01 0.  1.
         15    1    1    2    0    0  0.66518597934E+00  0.16175222717E+01  0.70677870709E+01  0.74946776959E+01  0.17770000000E+01 0.  1.
</event>
<event>
 6    1  0.1697564E-002  0.1920922E+03  0.7546771E-02  0.1061066E+00
        -11   -1    0    0    0    0  0.00000000000E+00  0.00000000000E+00  0.18250000000E+03  0.18250000000E+03  0.00000000000E+00 0. -1.
         11   -1    0    0    0    0 -0.00000000000E+00 -0.00000000000E+00 -0.18250000000E+03  0.18250000000E+03  0.00000000000E+00 0.  1.
        -11    1    1    2    0    0 -0.12363869486E+01  0.64187709508E+01  0.17278421075E+03  0.17290781578E+03  0.00000000000E+00 0. -1.
         11    1    1    2    0    0 -0.13094893978E+01 -0.40202039274E+01 -0.44141828224E+02  0.44343858662E+02  0.00000000000E+00 0.  1.
        -15    1    1    2    0    0  0.63407669536E+01 -0.22981186213E+01  0.82435852067E+01  0.10798198962E+02  0.17770000000E+01 0. -1.
         15    1    1    2    0    0 -0.37948906072E+01 -0.10044840203E+00 -0.13688596773E+03  0.13695012660E+03  0.17770000000E+01 0.  1.
</event>
<event>
 6    1  0.1697564E-002  0.1843049E+03  0.7546771E-02  0.1067027E+00
        -11   -1    0    0    0    0  0.00000000000E+00  0.00000000000E+00  0.18250000000E+03  0.18250000000E+03  0.00000000000E+00 0.  1.
         11   -1    0    0    0    0 -0.00000000000E+00 -0.00000000000E+00 -0.18250000000E+03  0.18250000000E+03  0.00000000000E+00 0.  1.
        -11    1    1    2    0    0  0.12464405173E+02  0.27024850648E+01  0.18024440311E+03  0.18069507374E+03  0.00000000000E+00 0.  1.
         11    1    1    2    0    0 -0.21979590089E+01 -0.51347441349E+00 -0.10118779842E+03  0.10121296967E+03  0.00000000000E+00 0.  1.
        -15    1    1    2    0    0 -0.13697800949E+02 -0.30449299262E+01 -0.23741552916E+02  0.27635491907E+02  0.17770000000E+01 0. -1.
         15    1    1    2    0    0  0.34313547855E+01  0.85591927484E+00 -0.55315051770E+02  0.55456464680E+02  0.17770000000E+01 0. -1.
</event>
<event>
 6    1  0.1697564E-002  0.1642076E+03  0.7546771E-02  0.1084026E+00
        -11   -1    0    0    0    0  0.00000000000E+00  0.00000000000E+00  0.18250000000E+03  0.18250000000E+03  0.00000000000E+00 0. -1.
         11   -1    0    0    0    0 -0.00000000000E+00 -0.00000000000E+00 -0.18250000000E+03  0.18250000000E+03  0.00000000000E+00 0.  1.
        -11    1    1    2    0    0 -0.61271172777E+01  0.17952810455E+02  0.16442245081E+03  0.16551310310E+03  0.00000000000E+00 0. -1.
         11    1    1    2    0    0  0.17050140717E+01  0.14808689017E+01 -0.16349191869E+03  0.16350751519E+03  0.00000000000E+00 0.  1.
        -15    1    1    2    0    0  0.90255865034E+01 -0.23220290839E+02 -0.83156013056E+01  0.26323944850E+02  0.17770000000E+01 0.  1.
         15    1    1    2    0    0 -0.46034832973E+01  0.37866114829E+01  0.73850691876E+01  0.96554368569E+01  0.17770000000E+01 0. -1.
</event>
<event>
 6    1  0.1697564E-002  0.1852880E+03  0.7546771E-02  0.1066257E+00
        -11   -1    0    0    0    0  0.00000000000E+00  0.00000000000E+00  0.18250000000E+03  0.18250000000E+03  0.00000000000E+00 0. -1.
         11   -1    0    0    0    0 -0.00000000000E+00 -0.00000000000E+00 -0.18250000000E+03  0.18250000000E+03  0.00000000000E+00 0. -1.
        -11    1    1    2    0    0  0.29228757824E+01  0.21914078209E+01  0.17967486390E+03  0.17971199790E+03  0.00000000000E+00 0. -1.
         11    1    1    2    0    0 -0.15972815981E+01 -0.15197948115E+01 -0.16232985958E+03  0.16234483175E+03  0.00000000000E+00 0. -1.
        -15    1    1    2    0    0 -0.16162780335E+01  0.12986084726E+01 -0.19389623196E+02  0.19580958999E+02  0.17770000000E+01 0.  1.
         15    1    1    2    0    0  0.29068384916E+00 -0.19702214820E+01  0.20446188782E+01  0.33622113475E+01  0.17770000000E+01 0. -1.
</event>
<event>
 6    1  0.1697564E-002  0.1834526E+03  0.7546771E-02  0.1067699E+00
        -11   -1    0    0    0    0  0.00000000000E+00  0.00000000000E+00  0.18250000000E+03  0.18250000000E+03  0.00000000000E+00 0.  1.
         11   -1    0    0    0    0 -0.00000000000E+00 -0.00000000000E+00 -0.18250000000E+03  0.18250000000E+03  0.00000000000E+00 0. -1.
        -11    1    1    2    0    0  0.24006681812E+01  0.63161690237E+01  0.18142160138E+03  0.18154738953E+03  0.00000000000E+00 0.  1.
         11    1    1    2    0    0  0.28900585531E+01 -0.52014259004E+01 -0.16149648167E+03  0.16160606691E+03  0.00000000000E+00 0. -1.
        -15    1    1    2    0    0 -0.11327695118E+01 -0.88944209678E+00 -0.14933251758E+02  0.15107415765E+02  0.17770000000E+01 0.  1.
         15    1    1    2    0    0 -0.41579572225E+01 -0.22530102650E+00 -0.49918679519E+01  0.67391277971E+01  0.17770000000E+01 0. -1.
</event>
<event>
 6    1  0.1697564E-002  0.1842323E+03  0.7546771E-02  0.1067084E+00
        -11   -1    0    0    0    0  0.00000000000E+00  0.00000000000E+00  0.18250000000E+03  0.18250000000E+03  0.00000000000E+00 0.  1.
         11   -1    0    0    0    0 -0.00000000000E+00 -0.00000000000E+00 -0.18250000000E+03  0.18250000000E+03  0.00000000000E+00 0. -1.
        -11    1    1    2    0    0  0.18470555705E+02 -0.73755900658E+00  0.17982009013E+03  0.18076772454E+03  0.00000000000E+00 0.  1.
         11    1    1    2    0    0 -0.23827762986E+01 -0.12092359384E+01 -0.10390348214E+03  0.10393783466E+03  0.00000000000E+00 0. -1.
        -15    1    1    2    0    0 -0.17283971276E+02 -0.44015420274E+01 -0.41089490831E+02  0.44828709785E+02  0.17770000000E+01 0. -1.
         15    1    1    2    0    0  0.11961918692E+01  0.63483369724E+01 -0.34827117162E+02  0.35465731011E+02  0.17770000000E+01 0.  1.
</event>
<event>
 6    1  0.1697564E-002  0.1878502E+03  0.7546771E-02  0.1064274E+00
        -11   -1    0    0    0    0  0.00000000000E+00  0.00000000000E+00  0.18250000000E+03  0.18250000000E+03  0.00000000000E+00 0. -1.
         11   -1    0    0    0    0 -0.00000000000E+00 -0.00000000000E+00 -0.18250000000E+03  0.18250000000E+03  0.00000000000E+00 0. -1.
        -11    1    1    2    0    0  0.23971819242E+00 -0.46453324180E+01  0.15955345492E+03  0.15962124406E+03  0.00000000000E+00 0. -1.
         11    1    1    2    0    0 -0.38886438296E+01 -0.29591066339E+01 -0.17708237757E+03  0.17714978496E+03  0.00000000000E+00 0. -1.
        -15    1    1    2    0    0 -0.36677220807E+00  0.44816817710E+01  0.21176884941E+02  0.21721836436E+02  0.17770000000E+01 0.  1.
         15    1    1    2    0    0  0.40156978452E+01  0.31227572808E+01 -0.36479622855E+01  0.65071345503E+01  0.17770000000E+01 0.  1.
</event>
<event>
 6    1  0.1697564E-002  0.1837490E+03  0.7546771E-02  0.1067465E+00
        -11   -1    0    0    0    0  0.00000000000E+00  0.00000000000E+00  0.18250000000E+03  0.18250000000E+03  0.00000000000E+00 0. -1.
         11   -1    0    0    0    0 -0.00000000000E+00 -0.00000000000E+00 -0.18250000000E+03  0.18250000000E+03  0.00000000000E+00 0.  1.
        -11    1    1    2    0    0  0.32984234424E+01  0.23566780214E+01  0.12751313947E+03  0.12757756177E+03  0.00000000000E+00 0. -1.
         11    1    1    2    0    0  0.47122674625E+01 -0.86572674454E+01 -0.18098280799E+03  0.18125101525E+03  0.00000000000E+00 0.  1.
        -15    1    1    2    0    0 -0.63906640499E+01  0.81063336500E+01  0.51550957372E+02  0.52604297992E+02  0.17770000000E+01 0. -1.
         15    1    1    2    0    0 -0.16200268550E+01 -0.18057442260E+01  0.19187111432E+01  0.35671249868E+01  0.17770000000E+01 0. -1.
</event>
<event>
 6    1  0.1697564E-002  0.1825683E+03  0.7546771E-02  0.1068400E+00
        -11   -1    0    0    0    0  0.00000000000E+00  0.00000000000E+00  0.18250000000E+03  0.18250000000E+03  0.00000000000E+00 0. -1.
         11   -1    0    0    0    0 -0.00000000000E+00 -0.00000000000E+00 -0.18250000000E+03  0.18250000000E+03  0.00000000000E+00 0. -1.
        -11    1    1    2    0    0 -0.31556606846E+01 -0.13929049155E+01  0.18239903705E+03  0.18243165047E+03  0.00000000000E+00 0. -1.
         11    1    1    2    0    0  0.28517271846E+00  0.17503118691E+01 -0.64541185877E+02  0.64565544910E+02  0.00000000000E+00 0. -1.
        -15    1    1    2    0    0 -0.12069767342E+00 -0.10593893675E+01 -0.28917765379E+02  0.28991925725E+02  0.17770000000E+01 0. -1.
         15    1    1    2    0    0  0.29911856395E+01  0.70198241392E+00 -0.88940085793E+02  0.89010878890E+02  0.17770000000E+01 0. -1.
</event>
<event>
 6    1  0.1697564E-002  0.1826673E+03  0.7546771E-02  0.1068322E+00
        -11   -1    0    0    0    0  0.00000000000E+00  0.00000000000E+00  0.18250000000E+03  0.18250000000E+03  0.00000000000E+00 0.  1.
         11   -1    0    0    0    0 -0.00000000000E+00 -0.00000000000E+00 -0.18250000000E+03  0.18250000000E+03  0.00000000000E+00 0. -1.
        -11    1    1    2    0    0 -0.99209275561E+00  0.30745448059E+01  0.14570751266E+03  0.14574332341E+03  0.00000000000E+00 0.  1.
         11    1    1    2    0    0 -0.13115979006E+01 -0.35407543419E+01 -0.18229358419E+03  0.18233268513E+03  0.00000000000E+00 0. -1.
        -15    1    1    2    0    0  0.16554432941E+01  0.12731965530E+01  0.15774659020E+02  0.16011218509E+02  0.17770000000E+01 0. -1.
         15    1    1    2    0    0  0.64824736212E+00 -0.80698701701E+00  0.20811412510E+02  0.20912772947E+02  0.17770000000E+01 0.  1.
</event>
<event>
 6    1  0.1697564E-002  0.1903499E+03  0.7546771E-02  0.1062373E+00
        -11   -1    0    0    0    0  0.00000000000E+00  0.00000000000E+00  0.18250000000E+03  0.18250000000E+03  0.00000000000E+00 0. -1.
         11   -1    0    0    0    0 -0.00000000000E+00 -0.00000000000E+00 -0.18250000000E+03  0.18250000000E+03  0.00000000000E+00 0. -1.
        -11    1    1    2    0    0  0.19006080669E+02  0.28208358909E+01  0.17358997121E+03  0.17465012546E+03  0.00000000000E+00 0. -1.
         11    1    1    2    0    0  0.83917337052E+01  0.98667318058E+01 -0.14421232530E+03  0.14479284637E+03  0.00000000000E+00 0. -1.
        -15    1    1    2    0    0 -0.95939215604E+00 -0.46098212069E+01  0.19454178977E+00  0.50365127198E+01  0.17770000000E+01 0.  1.
         15    1    1    2    0    0 -0.26438422218E+02 -0.80777464898E+01 -0.29572187703E+02  0.40520515449E+02  0.17770000000E+01 0. -1.
</event>
<event>
 6    1  0.1697564E-002  0.1843444E+03  0.7546771E-02  0.1066996E+00
        -11   -1    0    0    0    0  0.00000000000E+00  0.00000000000E+00  0.18250000000E+03  0.18250000000E+03  0.00000000000E+00 0. -1.
         11   -1    0    0    0    0 -0.00000000000E+00 -0.00000000000E+00 -0.18250000000E+03  0.18250000000E+03  0.00000000000E+00 0. -1.
        -11    1    1    2    0    0  0.54235052409E+01 -0.21153690066E+00  0.18057405659E+03  0.18065560902E+03  0.00000000000E+00 0. -1.
         11    1    1    2    0    0 -0.95960295250E+00  0.48675270899E+01 -0.16621121634E+03  0.16628524317E+03  0.00000000000E+00 0. -1.
        -15    1    1    2    0    0 -0.35425594277E+00 -0.59310605563E+01 -0.93322796101E+01  0.11205005503E+02  0.17770000000E+01 0. -1.
         15    1    1    2    0    0 -0.41096463456E+01  0.12750703671E+01 -0.50305606363E+01  0.68541423127E+01  0.17770000000E+01 0.  1.
</event>
<event>
 6    1  0.1697564E-002  0.1839119E+03  0.7546771E-02  0.1067336E+00
        -11   -1    0    0    0    0  0.00000000000E+00  0.00000000000E+00  0.18250000000E+03  0.18250000000E+03  0.00000000000E+00 0. -1.
         11   -1    0    0    0    0 -0.00000000000E+00 -0.00000000000E+00 -0.18250000000E+03  0.18250000000E+03  0.00000000000E+00 0. -1.
        -11    1    1    2    0    0 -0.39207961613E+01  0.22473285678E+01  0.18103169278E+03  0.18108809160E+03  0.00000000000E+00 0. -1.
         11    1    1    2    0    0  0.80848873266E+00  0.35868488002E+01 -0.15853765750E+03  0.15858028876E+03  0.00000000000E+00 0. -1.
        -15    1    1    2    0    0  0.19710110377E+01 -0.55376805761E+01 -0.56228013308E+01  0.83261284208E+01  0.17770000000E+01 0.  1.
         15    1    1    2    0    0  0.11412963909E+01 -0.29649679193E+00 -0.16871233945E+02  0.17005491220E+02  0.17770000000E+01 0. -1.
</event>
<event>
 6    1  0.1697564E-002  0.1845216E+03  0.7546771E-02  0.1066857E+00
        -11   -1    0    0    0    0  0.00000000000E+00  0.00000000000E+00  0.18250000000E+03  0.18250000000E+03  0.00000000000E+00 0. -1.
         11   -1    0    0    0    0 -0.00000000000E+00 -0.00000000000E+00 -0.18250000000E+03  0.18250000000E+03  0.00000000000E+00 0. -1.
        -11    1    1    2    0    0 -0.11926183867E+01 -0.89500704394E+01  0.18025240356E+03  0.18047840616E+03  0.00000000000E+00 0. -1.
         11    1    1    2    0    0 -0.19758589854E+01 -0.16380899278E+01 -0.15440512417E+03  0.15442645411E+03  0.00000000000E+00 0. -1.
        -15    1    1    2    0    0 -0.79327654613E+00  0.19331285644E+01 -0.16185276124E+02  0.16416064264E+02  0.17770000000E+01 0. -1.
         15    1    1    2    0    0  0.39617539182E+01  0.86550318027E+01 -0.96620032644E+01  0.13679075469E+02  0.17770000000E+01 0.  1.
</event>
<event>
 6    1  0.1697564E-002  0.1872902E+03  0.7546771E-02  0.1064704E+00
        -11   -1    0    0    0    0  0.00000000000E+00  0.00000000000E+00  0.18250000000E+03  0.18250000000E+03  0.00000000000E+00 0.  1.
         11   -1    0    0    0    0 -0.00000000000E+00 -0.00000000000E+00 -0.18250000000E+03  0.18250000000E+03  0.00000000000E+00 0. -1.
        -11    1    1    2    0    0  0.68722575137E+01 -0.28785154367E+01  0.17755355099E+03  0.17770981190E+03  0.00000000000E+00 0.  1.
         11    1    1    2    0    0 -0.11057596124E+01  0.30434616820E+01 -0.16177443162E+03  0.16180683573E+03  0.00000000000E+00 0. -1.
        -15    1    1    2    0    0 -0.60999596932E+01  0.19961871268E+01  0.24061609663E+01  0.70810741346E+01  0.17770000000E+01 0. -1.
         15    1    1    2    0    0  0.33346179195E+00 -0.21611333720E+01 -0.18185280343E+02  0.18402278239E+02  0.17770000000E+01 0.  1.
</event>
<event>
 6    1  0.1697564E-002  0.1832346E+03  0.7546771E-02  0.1067872E+00
        -11   -1    0    0    0    0  0.00000000000E+00  0.00000000000E+00  0.18250000000E+03  0.18250000000E+03  0.00000000000E+00 0. -1.
         11   -1    0    0    0    0 -0.00000000000E+00 -0.00000000000E+00 -0.18250000000E+03  0.18250000000E+03  0.00000000000E+00 0.  1.
        -11    1    1    2    0    0 -0.12505697353E+01 -0.28973637761E+01  0.18173795932E+03  0.18176535561E+03  0.00000000000E+00 0. -1.
         11    1    1    2    0    0  0.13965109208E+01 -0.14596169310E+00 -0.37234795414E+02  0.37261260541E+02  0.00000000000E+00 0.  1.
        -15    1    1    2    0    0  0.77263285635E+00  0.19530231727E+01 -0.18803434098E+01  0.33323687345E+01  0.17770000000E+01 0.  1.
         15    1    1    2    0    0 -0.91857404185E+00  0.10903022965E+01 -0.14262282050E+03  0.14264101512E+03  0.17770000000E+01 0.  1.
</event>
<event>
 6    1  0.1697564E-002  0.1860861E+03  0.7546771E-02  0.1065636E+00
        -11   -1    0    0    0    0  0.00000000000E+00  0.00000000000E+00  0.18250000000E+03  0.18250000000E+03  0.00000000000E+00 0.  1.
         11   -1    0    0    0    0 -0.00000000000E+00 -0.00000000000E+00 -0.18250000000E+03  0.18250000000E+03  0.00000000000E+00 0.  1.
        -11    1    1    2    0    0 -0.48274506613E+01  0.72051652603E+01  0.32918532073E+02  0.34041863053E+02  0.00000000000E+00 0.  1.
         11    1    1    2    0    0 -0.56991850845E+00  0.24263022772E+01 -0.17889655787E+03  0.17891391831E+03  0.00000000000E+00 0.  1.
        -15    1    1    2    0    0 -0.27805764940E+01 -0.46625854062E+01  0.14099380423E+03  0.14110946767E+03  0.17770000000E+01 0.  1.
         15    1    1    2    0    0  0.81779456637E+01 -0.49688821313E+01  0.49842215683E+01  0.10934750960E+02  0.17770000000E+01 0.  1.
</event>
<event>
 6    1  0.1697564E-002  0.1830651E+03  0.7546771E-02  0.1068006E+00
        -11   -1    0    0    0    0  0.00000000000E+00  0.00000000000E+00  0.18250000000E+03  0.18250000000E+03  0.00000000000E+00 0. -1.
         11   -1    0    0    0    0 -0.00000000000E+00 -0.00000000000E+00 -0.18250000000E+03  0.18250000000E+03  0.00000000000E+00 0.  1.
        -11    1    1    2    0    0  0.10319334792E+01 -0.20245407453E+01  0.10175253912E+03  0.10177790954E+03  0.00000000000E+00 0. -1.
         11    1    1    2    0    0  0.83775847282E+00 -0.41859529128E+01 -0.18188477372E+03  0.18193486459E+03  0.00000000000E+00 0.  1.
        -15    1    1    2    0    0 -0.39912258498E+01 -0.15216246281E+01  0.16822040371E+02  0.17446604155E+02  0.17770000000E+01 0.  1.
         15    1    1    2    0    0  0.21215338977E+01  0.77321182862E+01  0.63310194227E+02  0.63840621718E+02  0.17770000000E+01 0. -1.
</event>
<event>
 6    1  0.1697564E-002  0.1942504E+03  0.7546771E-02  0.1059468E+00
        -11   -1    0    0    0    0  0.00000000000E+00  0.00000000000E+00  0.18250000000E+03  0.18250000000E+03  0.00000000000E+00 0. -1.
         11   -1    0    0    0    0 -0.00000000000E+00 -0.00000000000E+00 -0.18250000000E+03  0.18250000000E+03  0.00000000000E+00 0.  1.
        -11    1    1    2    0    0 -0.29133171258E+01  0.33502065020E+01  0.17069189386E+03  0.17074962351E+03  0.00000000000E+00 0. -1.
         11    1    1    2    0    0 -0.15177722386E+01 -0.26036094276E+01 -0.16740840659E+03  0.16743553091E+03  0.00000000000E+00 0.  1.
        -15    1    1    2    0    0  0.29451768448E+01  0.43629429627E+01 -0.13810571898E+02  0.14886200425E+02  0.17770000000E+01 0.  1.
         15    1    1    2    0    0  0.14859125196E+01 -0.51095400371E+01  0.10527084632E+02  0.11928645156E+02  0.17770000000E+01 0. -1.
</event>
<event>
 6    1  0.1697564E-002  0.1840741E+03  0.7546771E-02  0.1067209E+00
        -11   -1    0    0    0    0  0.00000000000E+00  0.00000000000E+00  0.18250000000E+03  0.18250000000E+03  0.00000000000E+00 0.  1.
         11   -1    0    0    0    0 -0.00000000000E+00 -0.00000000000E+00 -0.18250000000E+03  0.18250000000E+03  0.00000000000E+00 0.  1.
        -11    1    1    2    0    0 -0.49192574449E+01 -0.33163450133E+01  0.18082860575E+03  0.18092590168E+03  0.00000000000E+00 0.  1.
         11    1    1    2    0    0  0.18819537954E+01 -0.13339334561E+01 -0.15671961671E+03  0.15673659238E+03  0.00000000000E+00 0.  1.
        -15    1    1    2    0    0 -0.35430570002E+01 -0.31653761651E-02 -0.12356256177E+02  0.12976442449E+02  0.17770000000E+01 0. -1.
         15    1    1    2    0    0  0.65803606498E+01  0.46534438455E+01 -0.11752732870E+02  0.14361063499E+02  0.17770000000E+01 0. -1.
</event>
<event>
 6    1  0.1697564E-002  0.1897600E+03  0.7546771E-02  0.1062818E+00
        -11   -1    0    0    0    0  0.00000000000E+00  0.00000000000E+00  0.18250000000E+03  0.18250000000E+03  0.00000000000E+00 0.  1.
         11   -1    0    0    0    0 -0.00000000000E+00 -0.00000000000E+00 -0.18250000000E+03  0.18250000000E+03  0.00000000000E+00 0.  1.
        -11    1    1    2    0    0  0.13083945573E+01 -0.28290999030E+01  0.17521227204E+03  0.17523999537E+03  0.00000000000E+00 0.  1.
         11    1    1    2    0    0 -0.70136902096E+00  0.22658522769E+01 -0.17431480438E+03  0.17433094112E+03  0.00000000000E+00 0.  1.
        -15    1    1    2    0    0 -0.41401540117E+01 -0.57776651142E+01  0.16929095458E+01  0.75197048574E+01  0.17770000000E+01 0.  1.
         15    1    1    2    0    0  0.35331284754E+01  0.63409127403E+01 -0.25903772072E+01  0.79093586516E+01  0.17770000000E+01 0. -1.
</event>
<event>
 6    1  0.1697564E-002  0.1847838E+03  0.7546771E-02  0.1066651E+00
        -11   -1    0    0    0    0  0.00000000000E+00  0.00000000000E+00  0.18250000000E+03  0.18250000000E+03  0.00000000000E+00 0. -1.
         11   -1    0    0    0    0 -0.00000000000E+00 -0.00000000000E+00 -0.18250000000E+03  0.18250000000E+03  0.00000000000E+00 0. -1.
        -11    1    1    2    0    0  0.10172335145E+01 -0.22602298977E+01  0.18019917942E+03  0.18021622476E+03  0.00000000000E+00 0. -1.
         11    1    1    2    0    0  0.99160038352E+00  0.22816370993E+01 -0.16786371898E+03  0.16788215298E+03  0.00000000000E+00 0. -1.
        -15    1    1    2    0    0 -0.60598392901E+01 -0.21102379169E+01 -0.68900316825E+01  0.95814937183E+01  0.17770000000E+01 0.  1.
         15    1    1    2    0    0  0.40510053921E+01  0.20888307153E+01 -0.54454287584E+01  0.73201285376E+01  0.17770000000E+01 0. -1.
</event>
<event>
 6    1  0.1697564E-002  0.1911892E+03  0.7546771E-02  0.1061741E+00
        -11   -1    0    0    0    0  0.00000000000E+00  0.00000000000E+00  0.18250000000E+03  0.18250000000E+03  0.00000000000E+00 0.  1.
         11   -1    0    0    0    0 -0.00000000000E+00 -0.00000000000E+00 -0.18250000000E+03  0.18250000000E+03  0.00000000000E+00 0. -1.
        -11    1    1    2    0    0 -0.14376790559E+01  0.35865505792E+01  0.17376779663E+03  0.17381075172E+03  0.00000000000E+00 0.  1.
         11    1    1    2    0    0  0.38232603277E+01 -0.22975981957E+01 -0.15502808056E+03  0.15509223720E+03  0.00000000000E+00 0. -1.
        -15    1    1    2    0    0  0.12379626480E+02 -0.18648218089E+01 -0.16891078638E+02  0.21099738830E+02  0.17770000000E+01 0. -1.
         15    1    1    2    0    0 -0.14765207752E+02  0.57586942532E+00 -0.18486374340E+01  0.14997272249E+02  0.17770000000E+01 0.  1.
</event>
<event>
 6    1  0.1697564E-002  0.1837508E+03  0.7546771E-02  0.1067464E+00
        -11   -1    0    0    0    0  0.00000000000E+00  0.00000000000E+00  0.18250000000E+03  0.18250000000E+03  0.00000000000E+00 0. -1.
         11   -1    0    0    0    0 -0.00000000000E+00 -0.00000000000E+00 -0.18250000000E+03  0.18250000000E+03  0.00000000000E+00 0.  1.
        -11    1    1    2    0    0 -0.34615652424E+01  0.73941118581E+01  0.11931516331E+03  0.11959416173E+03  0.00000000000E+00 0. -1.
         11    1    1    2    0    0  0.13456217003E+00 -0.30865991144E+01 -0.18122289480E+03  0.18124922841E+03  0.00000000000E+00 0.  1.
        -15    1    1    2    0    0  0.67659967684E+01 -0.34284129654E+01  0.58218498579E+02  0.58737415959E+02  0.17770000000E+01 0. -1.
         15    1    1    2    0    0 -0.34389936961E+01 -0.87909977826E+00  0.36892329107E+01  0.54191939005E+01  0.17770000000E+01 0.  1.
</event>
<event>
 6    1  0.1697564E-002  0.1866025E+03  0.7546771E-02  0.1065235E+00
        -11   -1    0    0    0    0  0.00000000000E+00  0.00000000000E+00  0.18250000000E+03  0.18250000000E+03  0.00000000000E+00 0. -1.
         11   -1    0    0    0    0 -0.00000000000E+00 -0.00000000000E+00 -0.18250000000E+03  0.18250000000E+03  0.00000000000E+00 0. -1.
        -11    1    1    2    0    0  0.14962872701E+01  0.37362296866E+01  0.17835209408E+03  0.17839749929E+03  0.00000000000E+00 0. -1.
         11    1    1    2    0    0 -0.54225401617E+00 -0.63692981397E+01 -0.17197627569E+03  0.17209503595E+03  0.00000000000E+00 0. -1.
        -15    1    1    2    0    0  0.36753024470E+01  0.38282993962E+01  0.85204925392E+00  0.56610459524E+01  0.17770000000E+01 0.  1.
         15    1    1    2    0    0 -0.46293357009E+01 -0.11952309430E+01 -0.72278676522E+01  0.88464188142E+01  0.17770000000E+01 0. -1.
</event>
<event>
 6    1  0.1697564E-002  0.1828512E+03  0.7546771E-02  0.1068176E+00
        -11   -1    0    0    0    0  0.00000000000E+00  0.00000000000E+00  0.18250000000E+03  0.18250000000E+03  0.00000000000E+00 0. -1.
         11   -1    0    0    0    0 -0.00000000000E+00 -0.00000000000E+00 -0.18250000000E+03  0.18250000000E+03  0.00000000000E+00 0.  1.
        -11    1    1    2    0    0  0.65894985124E+01  0.17143342411E+01  0.18202149829E+03  0.18214880255E+03  0.00000000000E+00 0. -1.
         11    1    1    2    0    0 -0.14638898579E+01  0.33882715423E+01 -0.91123534020E+02  0.91198255520E+02  0.00000000000E+00 0.  1.
        -15    1    1    2    0    0 -0.44407637076E+01 -0.14308988551E+01 -0.76764335250E+02  0.76926515255E+02  0.17770000000E+01 0.  1.
         15    1    1    2    0    0 -0.68484494691E+00 -0.36717069283E+01 -0.14133629017E+02  0.14726426673E+02  0.17770000000E+01 0. -1.
</event>
<event>
 6    1  0.1697564E-002  0.1849366E+03  0.7546771E-02  0.1066532E+00
        -11   -1    0    0    0    0  0.00000000000E+00  0.00000000000E+00  0.18250000000E+03  0.18250000000E+03  0.00000000000E+00 0. -1.
         11   -1    0    0    0    0 -0.00000000000E+00 -0.00000000000E+00 -0.18250000000E+03  0.18250000000E+03  0.00000000000E+00 0.  1.
        -11    1    1    2    0    0 -0.27984811579E+01  0.27324176411E+01  0.18002089152E+03  0.18006337492E+03  0.00000000000E+00 0. -1.
         11    1    1    2    0    0  0.14299683081E+01 -0.12342455764E+01 -0.11769370862E+03  0.11770886636E+03  0.00000000000E+00 0.  1.
        -15    1    1    2    0    0  0.18587628700E+01 -0.17655817620E+01  0.14384058772E+01  0.34349699901E+01  0.17770000000E+01 0. -1.
         15    1    1    2    0    0 -0.49025002025E+00  0.26740969724E+00 -0.63765588779E+02  0.63792788733E+02  0.17770000000E+01 0.  1.
</event>
<event>
 6    1  0.1871440E-002  0.2155661E+03  0.7546771E-02  0.1044811E+00
        -11   -1    0    0    0    0  0.00000000000E+00  0.00000000000E+00  0.18250000000E+03  0.18250000000E+03  0.00000000000E+00 0.  1.
         11   -1    0    0    0    0 -0.00000000000E+00 -0.00000000000E+00 -0.18250000000E+03  0.18250000000E+03  0.00000000000E+00 0. -1.
        -11    1    1    2    0    0 -0.54844991852E+01  0.13729863922E+02  0.13659818512E+03  0.13739597182E+03  0.00000000000E+00 0.  1.
         11    1    1    2    0    0 -0.93246950264E+01 -0.11205466293E+02 -0.14872114147E+03  0.14943389954E+03  0.00000000000E+00 0. -1.
        -15    1    1    2    0    0 -0.42148209494E+00  0.11118991004E+02 -0.29599884608E+02  0.31672077701E+02  0.17770000000E+01 0. -1.
         15    1    1    2    0    0  0.15230676307E+02 -0.13643388633E+02  0.41722840957E+02  0.46498050934E+02  0.17770000000E+01 0.  1.
</event>
<event>
 6    1  0.1697564E-002  0.1872910E+03  0.7546771E-02  0.1064704E+00
        -11   -1    0    0    0    0  0.00000000000E+00  0.00000000000E+00  0.18250000000E+03  0.18250000000E+03  0.00000000000E+00 0.  1.
         11   -1    0    0    0    0 -0.00000000000E+00 -0.00000000000E+00 -0.18250000000E+03  0.18250000000E+03  0.00000000000E+00 0. -1.
        -11    1    1    2    0    0 -0.46555715881E+01  0.22795308671E+02  0.17617946833E+03  0.17770904734E+03  0.00000000000E+00 0.  1.
         11    1    1    2    0    0  0.26669168857E+01  0.41693687357E+01 -0.11071922783E+03  0.11082979515E+03  0.00000000000E+00 0. -1.
        -15    1    1    2    0    0 -0.58893763407E+01 -0.27951121057E+02 -0.60511325233E+02  0.66938241181E+02  0.17770000000E+01 0.  1.
         15    1    1    2    0    0  0.78780310430E+01  0.98644365081E+00 -0.49489152704E+01  0.95229163361E+01  0.17770000000E+01 0. -1.
</event>
<event>
 6    1  0.1697564E-002  0.1832909E+03  0.7546771E-02  0.1067827E+00
        -11   -1    0    0    0    0  0.00000000000E+00  0.00000000000E+00  0.18250000000E+03  0.18250000000E+03  0.00000000000E+00 0. -1.
         11   -1    0    0    0    0 -0.00000000000E+00 -0.00000000000E+00 -0.18250000000E+03  0.18250000000E+03  0.00000000000E+00 0. -1.
        -11    1    1    2    0    0 -0.19683113419E+01  0.29994634022E+01  0.45298101726E+02  0.45439949937E+02  0.00000000000E+00 0. -1.
         11    1    1    2    0    0  0.17574968514E+01  0.18898743636E+01 -0.18169078904E+03  0.18170911712E+03  0.00000000000E+00 0. -1.
        -15    1    1    2    0    0  0.28803945079E+01 -0.69828467031E+01  0.13103839959E+03  0.13126795769E+03  0.17770000000E+01 0. -1.
         15    1    1    2    0    0 -0.26695800174E+01  0.20935089373E+01  0.53542877270E+01  0.65829752546E+01  0.17770000000E+01 0.  1.
</event>
<event>
 6    1  0.1697564E-002  0.1827583E+03  0.7546771E-02  0.1068249E+00
        -11   -1    0    0    0    0  0.00000000000E+00  0.00000000000E+00  0.18250000000E+03  0.18250000000E+03  0.00000000000E+00 0.  1.
         11   -1    0    0    0    0 -0.00000000000E+00 -0.00000000000E+00 -0.18250000000E+03  0.18250000000E+03  0.00000000000E+00 0. -1.
        -11    1    1    2    0    0  0.31127536831E+01 -0.70459328849E+00  0.18221379256E+03  0.18224174024E+03  0.00000000000E+00 0.  1.
         11    1    1    2    0    0 -0.17490278392E+01 -0.26317854001E+01 -0.10509216790E+03  0.10513966495E+03  0.00000000000E+00 0. -1.
        -15    1    1    2    0    0  0.15394213544E+01  0.78477970089E+00 -0.82147545296E+01  0.85805371782E+01  0.17770000000E+01 0.  1.
         15    1    1    2    0    0 -0.29031471983E+01  0.25515989876E+01 -0.68906870132E+02  0.69038057631E+02  0.17770000000E+01 0. -1.
</event>
<event>
 6    1  0.2582096E-002  0.1838056E+03  0.7546771E-02  0.1067420E+00
        -11   -1    0    0    0    0  0.00000000000E+00  0.00000000000E+00  0.18250000000E+03  0.18250000000E+03  0.00000000000E+00 0.  1.
         11   -1    0    0    0    0 -0.00000000000E+00 -0.00000000000E+00 -0.18250000000E+03  0.18250000000E+03  0.00000000000E+00 0. -1.
        -11    1    1    2    0    0  0.17269382206E+01 -0.15609447489E+01  0.16023542971E+03  0.16025233788E+03  0.00000000000E+00 0.  1.
         11    1    1    2    0    0 -0.50432278337E+01  0.23617610323E+01 -0.18110878147E+03  0.18119437847E+03  0.00000000000E+00 0. -1.
        -15    1    1    2    0    0  0.43311710447E+01 -0.18926030748E+01  0.37912923288E+01  0.63144766640E+01  0.17770000000E+01 0. -1.
         15    1    1    2    0    0 -0.10148814316E+01  0.10917867914E+01  0.17082059435E+02  0.17238806985E+02  0.17770000000E+01 0.  1.
</event>
<event>
 6    1  0.1697564E-002  0.1843345E+03  0.7546771E-02  0.1067004E+00
        -11   -1    0    0    0    0  0.00000000000E+00  0.00000000000E+00  0.18250000000E+03  0.18250000000E+03  0.00000000000E+00 0.  1.
         11   -1    0    0    0    0 -0.00000000000E+00 -0.00000000000E+00 -0.18250000000E+03  0.18250000000E+03  0.00000000000E+00 0.  1.
        -11    1    1    2    0    0 -0.11645570548E+01  0.68966826950E+01  0.18053009559E+03  0.18066553583E+03  0.00000000000E+00 0.  1.
         11    1    1    2    0    0 -0.14280479470E+00 -0.23492031313E+01 -0.15068917602E+03  0.15070755428E+03  0.00000000000E+00 0.  1.
        -15    1    1    2    0    0  0.75601846158E+00 -0.92416520988E+01 -0.13145533457E+02  0.16184637046E+02  0.17770000000E+01 0.  1.
         15    1    1    2    0    0  0.55134338791E+00  0.46941725351E+01 -0.16695386113E+02  0.17442272838E+02  0.17770000000E+01 0.  1.
</event>
<event>
 6    1  0.1697564E-002  0.1783613E+03  0.7546771E-02  0.1071798E+00
        -11   -1    0    0    0    0  0.00000000000E+00  0.00000000000E+00  0.18250000000E+03  0.18250000000E+03  0.00000000000E+00 0. -1.
         11   -1    0    0    0    0 -0.00000000000E+00 -0.00000000000E+00 -0.18250000000E+03  0.18250000000E+03  0.00000000000E+00 0. -1.
        -11    1    1    2    0    0 -0.11378527813E+01 -0.46916125046E+01  0.17772485491E+03  0.17779041029E+03  0.00000000000E+00 0. -1.
         11    1    1    2    0    0  0.29072755087E+01  0.65009759606E+00 -0.17893664387E+03  0.17896144109E+03  0.00000000000E+00 0. -1.
        -15    1    1    2    0    0 -0.11743030034E+01  0.13509049998E+01 -0.23214007006E+01  0.34279092863E+01  0.17770000000E+01 0.  1.
         15    1    1    2    0    0 -0.59511972394E+00  0.26906099088E+01  0.35331896535E+01  0.48202393400E+01  0.17770000000E+01 0. -1.
</event>
<event>
 6    1  0.1697564E-002  0.1942771E+03  0.7546771E-02  0.1059448E+00
        -11   -1    0    0    0    0  0.00000000000E+00  0.00000000000E+00  0.18250000000E+03  0.18250000000E+03  0.00000000000E+00 0.  1.
         11   -1    0    0    0    0 -0.00000000000E+00 -0.00000000000E+00 -0.18250000000E+03  0.18250000000E+03  0.00000000000E+00 0. -1.
        -11    1    1    2    0    0  0.61985710619E+01  0.41806675288E+01  0.17055913027E+03  0.17072292518E+03  0.00000000000E+00 0.  1.
         11    1    1    2    0    0 -0.71781158984E+00 -0.23190404492E+01 -0.15393932953E+03  0.15395846965E+03  0.00000000000E+00 0. -1.
        -15    1    1    2    0    0  0.12475815277E+02  0.99511022011E+00  0.35253160563E+01  0.13123330121E+02  0.17770000000E+01 0.  1.
         15    1    1    2    0    0 -0.17956574749E+02 -0.28567372997E+01 -0.20145116801E+02  0.27195275043E+02  0.17770000000E+01 0. -1.
</event>
<event>
 6    1  0.1697564E-002  0.1833027E+03  0.7546771E-02  0.1067818E+00
        -11   -1    0    0    0    0  0.00000000000E+00  0.00000000000E+00  0.18250000000E+03  0.18250000000E+03  0.00000000000E+00 0. -1.
         11   -1    0    0    0    0 -0.00000000000E+00 -0.00000000000E+00 -0.18250000000E+03  0.18250000000E+03  0.00000000000E+00 0.  1.
        -11    1    1    2    0    0  0.16128265729E+01  0.42173706813E+00  0.72222928392E+02  0.72242165369E+02  0.00000000000E+00 0. -1.
         11    1    1    2    0    0 -0.24124723622E+01  0.11517189188E+02 -0.18131582902E+03  0.18169726339E+03  0.00000000000E+00 0.  1.
        -15    1    1    2    0    0  0.45858546637E+01 -0.20435348701E+00  0.66534678448E+02  0.66716512113E+02  0.17770000000E+01 0. -1.
         15    1    1    2    0    0 -0.37862088744E+01 -0.11734572769E+02  0.42558222181E+02  0.44344059128E+02  0.17770000000E+01 0.  1.
</event>
<event>
 6    1  0.1697564E-002  0.1828092E+03  0.7546771E-02  0.1068209E+00
        -11   -1    0    0    0    0  0.00000000000E+00  0.00000000000E+00  0.18250000000E+03  0.18250000000E+03  0.00000000000E+00 0.  1.
         11   -1    0    0    0    0 -0.00000000000E+00 -0.00000000000E+00 -0.18250000000E+03  0.18250000000E+03  0.00000000000E+00 0. -1.
        -11    1    1    2    0    0  0.41937297491E+01  0.42756473614E+00  0.18214205811E+03  0.18219083268E+03  0.00000000000E+00 0.  1.
         11    1    1    2    0    0  0.23836419611E+01 -0.13851366520E+01 -0.98040341726E+02  0.98079095419E+02  0.00000000000E+00 0. -1.
        -15    1    1    2    0    0 -0.15444504899E+01  0.56380724773E+00 -0.63731981512E+01  0.68175207813E+01  0.17770000000E+01 0.  1.
         15    1    1    2    0    0 -0.50329212203E+01  0.39376466816E+00 -0.77728518231E+02  0.77912551120E+02  0.17770000000E+01 0. -1.
</event>
<event>
 6    1  0.1697564E-002  0.1826687E+03  0.7546771E-02  0.1068321E+00
        -11   -1    0    0    0    0  0.00000000000E+00  0.00000000000E+00  0.18250000000E+03  0.18250000000E+03  0.00000000000E+00 0.  1.
         11   -1    0    0    0    0 -0.00000000000E+00 -0.00000000000E+00 -0.18250000000E+03  0.18250000000E+03  0.00000000000E+00 0.  1.
        -11    1    1    2    0    0  0.29058143772E+01  0.80198717907E+00  0.54399818963E+02  0.54483274900E+02  0.00000000000E+00 0.  1.
         11    1    1    2    0    0  0.18697566550E+01  0.39044271471E+01 -0.18227986587E+03  0.18233126458E+03  0.00000000000E+00 0.  1.
        -15    1    1    2    0    0 -0.54717931275E+00 -0.91076001546E+00  0.62675255904E+02  0.62709443632E+02  0.17770000000E+01 0. -1.
         15    1    1    2    0    0 -0.42283917194E+01 -0.37956543107E+01  0.65204791007E+02  0.65476016887E+02  0.17770000000E+01 0.  1.
</event>
<event>
 6    1  0.1697564E-002  0.1877538E+03  0.7546771E-02  0.1064348E+00
        -11   -1    0    0    0    0  0.00000000000E+00  0.00000000000E+00  0.18250000000E+03  0.18250000000E+03  0.00000000000E+00 0.  1.
         11   -1    0    0    0    0 -0.00000000000E+00 -0.00000000000E+00 -0.18250000000E+03  0.18250000000E+03  0.00000000000E+00 0.  1.
        -11    1    1    2    0    0  0.25324358906E+01  0.25282105154E+01  0.12279693858E+03  0.12284906677E+03  0.00000000000E+00 0.  1.
         11    1    1    2    0    0  0.19669351333E+01 -0.34093981274E+01 -0.17720253125E+03  0.17724624089E+03  0.00000000000E+00 0.  1.
        -15    1    1    2    0    0  0.86797691331E+01  0.61937756353E+01  0.25482612783E+01  0.11106422168E+02  0.17770000000E+01 0.  1.
         15    1    1    2    0    0 -0.13179140157E+02 -0.53125880233E+01  0.51857331384E+02  0.53798270177E+02  0.17770000000E+01 0. -1.
</event>
<event>
 6    1  0.1697564E-002  0.1887037E+03  0.7546771E-02  0.1063621E+00
        -11   -1    0    0    0    0  0.00000000000E+00  0.00000000000E+00  0.18250000000E+03  0.18250000000E+03  0.00000000000E+00 0. -1.
         11   -1    0    0    0    0 -0.00000000000E+00 -0.00000000000E+00 -0.18250000000E+03  0.18250000000E+03  0.00000000000E+00 0.  1.
        -11    1    1    2    0    0  0.66076457047E+00 -0.64268496756E+01  0.17617785952E+03  0.17629628241E+03  0.00000000000E+00 0. -1.
         11    1    1    2    0    0  0.92650915487E+00  0.75730301814E+00 -0.72668187856E+02  0.72678039691E+02  0.00000000000E+00 0.  1.
        -15    1    1    2    0    0 -0.18830675056E+01  0.56613508993E+00 -0.10857836976E+03  0.10861071108E+03  0.17770000000E+01 0.  1.
         15    1    1    2    0    0  0.29579378029E+00  0.51034115675E+01  0.50686980915E+01  0.74149668192E+01  0.17770000000E+01 0.  1.
</event>
<event>
 6    1  0.1697564E-002  0.1839482E+03  0.7546771E-02  0.1067308E+00
        -11   -1    0    0    0    0  0.00000000000E+00  0.00000000000E+00  0.18250000000E+03  0.18250000000E+03  0.00000000000E+00 0. -1.
         11   -1    0    0    0    0 -0.00000000000E+00 -0.00000000000E+00 -0.18250000000E+03  0.18250000000E+03  0.00000000000E+00 0.  1.
        -11    1    1    2    0    0  0.22970327853E+01 -0.11967724685E+01  0.18103329291E+03  0.18105182066E+03  0.00000000000E+00 0. -1.
         11    1    1    2    0    0  0.26078353289E+01 -0.66042985259E+01 -0.15901591942E+03  0.15917437040E+03  0.00000000000E+00 0.  1.
        -15    1    1    2    0    0 -0.38060404600E+01  0.61902795660E+01 -0.20277929311E+02  0.21613830092E+02  0.17770000000E+01 0.  1.
         15    1    1    2    0    0 -0.10988276542E+01  0.16107914284E+01 -0.17394441780E+01  0.31599788429E+01  0.17770000000E+01 0. -1.
</event>
<event>
 6    1  0.1697564E-002  0.1832169E+03  0.7546771E-02  0.1067886E+00
        -11   -1    0    0    0    0  0.00000000000E+00  0.00000000000E+00  0.18250000000E+03  0.18250000000E+03  0.00000000000E+00 0. -1.
         11   -1    0    0    0    0 -0.00000000000E+00 -0.00000000000E+00 -0.18250000000E+03  0.18250000000E+03  0.00000000000E+00 0.  1.
        -11    1    1    2    0    0  0.42035162051E+01  0.20865270559E+02  0.18053269235E+03  0.18178306321E+03  0.00000000000E+00 0. -1.
         11    1    1    2    0    0 -0.36310839962E+01  0.45375462552E+00 -0.16907719732E+02  0.17299180639E+02  0.00000000000E+00 0.  1.
        -15    1    1    2    0    0  0.78982964220E+01 -0.12042502509E+02 -0.99168305856E+02  0.10022432623E+03  0.17770000000E+01 0.  1.
         15    1    1    2    0    0 -0.84707286309E+01 -0.92765226756E+01 -0.64456666757E+02  0.65693429922E+02  0.17770000000E+01 0. -1.
</event>
<event>
 6    1  0.1697564E-002  0.1890862E+03  0.7546771E-02  0.1063330E+00
        -11   -1    0    0    0    0  0.00000000000E+00  0.00000000000E+00  0.18250000000E+03  0.18250000000E+03  0.00000000000E+00 0. -1.
         11   -1    0    0    0    0 -0.00000000000E+00 -0.00000000000E+00 -0.18250000000E+03  0.18250000000E+03  0.00000000000E+00 0.  1.
        -11    1    1    2    0    0  0.91290881899E+00  0.34272631132E+01  0.17587800790E+03  0.17591376637E+03  0.00000000000E+00 0. -1.
         11    1    1    2    0    0  0.23641318523E+01  0.20418920704E+01 -0.17069386294E+03  0.17072244518E+03  0.00000000000E+00 0.  1.
        -15    1    1    2    0    0 -0.11583046446E+01 -0.43845508178E+01  0.54577606533E+01  0.73151101067E+01  0.17770000000E+01 0. -1.
         15    1    1    2    0    0 -0.21187360267E+01 -0.10846043658E+01 -0.10641905616E+02  0.11048678343E+02  0.17770000000E+01 0.  1.
</event>
<event>
 6    1  0.1697564E-002  0.1826391E+03  0.7546771E-02  0.1068344E+00
        -11   -1    0    0    0    0  0.00000000000E+00  0.00000000000E+00  0.18250000000E+03  0.18250000000E+03  0.00000000000E+00 0. -1.
         11   -1    0    0    0    0 -0.00000000000E+00 -0.00000000000E+00 -0.18250000000E+03  0.18250000000E+03  0.00000000000E+00 0. -1.
        -11    1    1    2    0    0 -0.21398487657E+00  0.21801686164E+01  0.84388469360E+02  0.84416898105E+02  0.00000000000E+00 0. -1.
         11    1    1    2    0    0 -0.26118434151E+01 -0.14303423476E+01 -0.18233658101E+03  0.18236089597E+03  0.00000000000E+00 0. -1.
        -15    1    1    2    0    0 -0.70116987748E+00 -0.60241519655E+00  0.66026350692E+02  0.66056727575E+02  0.17770000000E+01 0.  1.
         15    1    1    2    0    0  0.35269981691E+01 -0.14741107219E+00  0.31921760955E+02  0.32165478351E+02  0.17770000000E+01 0.  1.
</event>
<event>
 6    1  0.1697564E-002  0.1855855E+03  0.7546771E-02  0.1066025E+00
        -11   -1    0    0    0    0  0.00000000000E+00  0.00000000000E+00  0.18250000000E+03  0.18250000000E+03  0.00000000000E+00 0. -1.
         11   -1    0    0    0    0 -0.00000000000E+00 -0.00000000000E+00 -0.18250000000E+03  0.18250000000E+03  0.00000000000E+00 0. -1.
        -11    1    1    2    0    0 -0.63703139974E+01 -0.63181029185E+01  0.17919006515E+03  0.17941454449E+03  0.00000000000E+00 0. -1.
         11    1    1    2    0    0 -0.24658697997E+01  0.13143474039E+01 -0.16518329796E+03  0.16520693069E+03  0.00000000000E+00 0. -1.
        -15    1    1    2    0    0 -0.11666007158E+00 -0.11523975150E+01 -0.70335598050E+01  0.73464496279E+01  0.17770000000E+01 0. -1.
         15    1    1    2    0    0  0.89528438687E+01  0.61561530296E+01 -0.69732073846E+01  0.13032075187E+02  0.17770000000E+01 0.  1.
</event>
<event>
 6    1  0.1697564E-002  0.1846739E+03  0.7546771E-02  0.1066737E+00
        -11   -1    0    0    0    0  0.00000000000E+00  0.00000000000E+00  0.18250000000E+03  0.18250000000E+03  0.00000000000E+00 0.  1.
         11   -1    0    0    0    0 -0.00000000000E+00 -0.00000000000E+00 -0.18250000000E+03  0.18250000000E+03  0.00000000000E+00 0.  1.
        -11    1    1    2    0    0 -0.31440282801E+00  0.21401104412E+01  0.15453711339E+03  0.15455225115E+03  0.00000000000E+00 0.  1.
         11    1    1    2    0    0 -0.78858756756E+01  0.35643402189E+01 -0.18011831709E+03  0.18032609270E+03  0.00000000000E+00 0.  1.
        -15    1    1    2    0    0 -0.28481865575E+00  0.12041618871E+01 -0.81686090838E-01  0.21669169653E+01  0.17770000000E+01 0.  1.
         15    1    1    2    0    0  0.84850971593E+01 -0.69086125472E+01  0.25662889796E+02  0.27954739183E+02  0.17770000000E+01 0.  1.
</event>
<event>
 6    1  0.1697564E-002  0.1852526E+03  0.7546771E-02  0.1066285E+00
        -11   -1    0    0    0    0  0.00000000000E+00  0.00000000000E+00  0.18250000000E+03  0.18250000000E+03  0.00000000000E+00 0.  1.
         11   -1    0    0    0    0 -0.00000000000E+00 -0.00000000000E+00 -0.18250000000E+03  0.18250000000E+03  0.00000000000E+00 0.  1.
        -11    1    1    2    0    0 -0.20164342930E+01 -0.50696535972E+01  0.17966461287E+03  0.17974743534E+03  0.00000000000E+00 0.  1.
         11    1    1    2    0    0  0.89159854822E+01  0.67561265112E+01 -0.14157440550E+03  0.14201567637E+03  0.00000000000E+00 0.  1.
        -15    1    1    2    0    0 -0.58187518289E+01  0.53351528194E+01 -0.53805949816E+01  0.97175233372E+01  0.17770000000E+01 0. -1.
         15    1    1    2    0    0 -0.10807993603E+01 -0.70216257334E+01 -0.32709612387E+02  0.33519364951E+02  0.17770000000E+01 0.  1.
</event>
<event>
 6    1  0.1697564E-002  0.1747963E+03  0.7546771E-02  0.1074758E+00
        -11   -1    0    0    0    0  0.00000000000E+00  0.00000000000E+00  0.18250000000E+03  0.18250000000E+03  0.00000000000E+00 0. -1.
         11   -1    0    0    0    0 -0.00000000000E+00 -0.00000000000E+00 -0.18250000000E+03  0.18250000000E+03  0.00000000000E+00 0.  1.
        -11    1    1    2    0    0  0.64348812834E+01  0.57089090050E+00  0.17660488072E+03  0.17672299655E+03  0.00000000000E+00 0. -1.
         11    1    1    2    0    0  0.56555422652E+01 -0.17484223649E+00 -0.17300478327E+03  0.17309728699E+03  0.00000000000E+00 0.  1.
        -15    1    1    2    0    0 -0.86444514655E+01 -0.30264945874E+01 -0.98016497563E-01  0.93302490246E+01  0.17770000000E+01 0.  1.
         15    1    1    2    0    0 -0.34459720831E+01  0.26304459234E+01 -0.35020809504E+01  0.58494674404E+01  0.17770000000E+01 0. -1.
</event>
<event>
 6    1  0.1697564E-002  0.1886297E+03  0.7546771E-02  0.1063678E+00
        -11   -1    0    0    0    0  0.00000000000E+00  0.00000000000E+00  0.18250000000E+03  0.18250000000E+03  0.00000000000E+00 0. -1.
         11   -1    0    0    0    0 -0.00000000000E+00 -0.00000000000E+00 -0.18250000000E+03  0.18250000000E+03  0.00000000000E+00 0.  1.
        -11    1    1    2    0    0 -0.38475021452E+01 -0.13287197963E+01  0.16268855314E+03  0.16273946691E+03  0.00000000000E+00 0. -1.
         11    1    1    2    0    0  0.36535608706E+01 -0.67986254651E+00 -0.17633116126E+03  0.17637031823E+03  0.00000000000E+00 0.  1.
        -15    1    1    2    0    0  0.57846247442E+01 -0.28182395928E+01 -0.32080051516E+01  0.74063070343E+01  0.17770000000E+01 0. -1.
         15    1    1    2    0    0 -0.55906834696E+01  0.48268219356E+01  0.16850613274E+02  0.18483907822E+02  0.17770000000E+01 0.  1.
</event>
<event>
 6    1  0.1697564E-002  0.1844382E+03  0.7546771E-02  0.1066922E+00
        -11   -1    0    0    0    0  0.00000000000E+00  0.00000000000E+00  0.18250000000E+03  0.18250000000E+03  0.00000000000E+00 0. -1.
         11   -1    0    0    0    0 -0.00000000000E+00 -0.00000000000E+00 -0.18250000000E+03  0.18250000000E+03  0.00000000000E+00 0. -1.
        -11    1    1    2    0    0  0.16451812459E+01 -0.17992207835E-01  0.30513700578E+02  0.30558024610E+02  0.00000000000E+00 0. -1.
         11    1    1    2    0    0  0.13278310980E+01 -0.73258628719E+01 -0.18040828753E+03  0.18056184983E+03  0.00000000000E+00 0. -1.
        -15    1    1    2    0    0 -0.79134066683E+01  0.11060580463E+02  0.14536995918E+03  0.14601555125E+03  0.17770000000E+01 0. -1.
         15    1    1    2    0    0  0.49403943244E+01 -0.37167253828E+01  0.45246277761E+01  0.78645743155E+01  0.17770000000E+01 0.  1.
</event>
<event>
 6    1  0.1697564E-002  0.1829272E+03  0.7546771E-02  0.1068115E+00
        -11   -1    0    0    0    0  0.00000000000E+00  0.00000000000E+00  0.18250000000E+03  0.18250000000E+03  0.00000000000E+00 0. -1.
         11   -1    0    0    0    0 -0.00000000000E+00 -0.00000000000E+00 -0.18250000000E+03  0.18250000000E+03  0.00000000000E+00 0. -1.
        -11    1    1    2    0    0 -0.45379747112E+00 -0.27312732985E+01  0.18205172015E+03  0.18207277280E+03  0.00000000000E+00 0. -1.
         11    1    1    2    0    0  0.34060570730E+01  0.50584542591E+00 -0.97196335559E+02  0.97257312067E+02  0.00000000000E+00 0. -1.
        -15    1    1    2    0    0  0.18780740292E+01 -0.33419951022E+00 -0.52935043548E+01  0.59006583299E+01  0.17770000000E+01 0.  1.
         15    1    1    2    0    0 -0.48303336311E+01  0.25596273828E+01 -0.79561880236E+02  0.79769256803E+02  0.17770000000E+01 0. -1.
</event>
<event>
 6    1  0.1697564E-002  0.1707178E+03  0.7546771E-02  0.1078240E+00
        -11   -1    0    0    0    0  0.00000000000E+00  0.00000000000E+00  0.18250000000E+03  0.18250000000E+03  0.00000000000E+00 0.  1.
         11   -1    0    0    0    0 -0.00000000000E+00 -0.00000000000E+00 -0.18250000000E+03  0.18250000000E+03  0.00000000000E+00 0. -1.
        -11    1    1    2    0    0  0.65777628775E+00  0.25230223941E+01  0.17257749480E+03  0.17259719008E+03  0.00000000000E+00 0.  1.
         11    1    1    2    0    0  0.10930750023E+02 -0.61647286993E+01 -0.16861102527E+03  0.16907738766E+03  0.00000000000E+00 0. -1.
        -15    1    1    2    0    0 -0.63573644812E+00  0.16676002166E+01  0.70981000785E+01  0.75316535395E+01  0.17770000000E+01 0. -1.
         15    1    1    2    0    0 -0.10952789863E+02  0.19741060885E+01 -0.11064569611E+02  0.15793768718E+02  0.17770000000E+01 0.  1.
</event>
<event>
 6    1  0.1697564E-002  0.1920023E+03  0.7546771E-02  0.1061133E+00
        -11   -1    0    0    0    0  0.00000000000E+00  0.00000000000E+00  0.18250000000E+03  0.18250000000E+03  0.00000000000E+00 0.  1.
         11   -1    0    0    0    0 -0.00000000000E+00 -0.00000000000E+00 -0.18250000000E+03  0.18250000000E+03  0.00000000000E+00 0. -1.
        -11    1    1    2    0    0 -0.20683006508E+02  0.10419266098E+02  0.14048641258E+03  0.14238251291E+03  0.00000000000E+00 0.  1.
         11    1    1    2    0    0  0.43794538897E+01  0.29301770245E+00 -0.17294198168E+03  0.17299767196E+03  0.00000000000E+00 0. -1.
        -15    1    1    2    0    0  0.14570880298E+02  0.56039516949E+00  0.34860701601E+02  0.37829232619E+02  0.17770000000E+01 0.  1.
         15    1    1    2    0    0  0.17326723196E+01 -0.11272678970E+02 -0.24051324995E+01  0.11790582507E+02  0.17770000000E+01 0. -1.
</event>
<event>
 6    1  0.1697564E-002  0.1838336E+03  0.7546771E-02  0.1067398E+00
        -11   -1    0    0    0    0  0.00000000000E+00  0.00000000000E+00  0.18250000000E+03  0.18250000000E+03  0.00000000000E+00 0. -1.
         11   -1    0    0    0    0 -0.00000000000E+00 -0.00000000000E+00 -0.18250000000E+03  0.18250000000E+03  0.00000000000E+00 0. -1.
        -11    1    1    2    0    0  0.32006669324E+01 -0.20339743779E+01  0.62438694009E+02  0.62553751528E+02  0.00000000000E+00 0. -1.
         11    1    1    2    0    0 -0.55773731379E+01  0.45836805468E+00 -0.18107999079E+03  0.18116644352E+03  0.00000000000E+00 0. -1.
        -15    1    1    2    0    0  0.68684641411E+00  0.39344400767E+01  0.11765637719E+03  0.11773755731E+03  0.17770000000E+01 0. -1.
         15    1    1    2    0    0  0.16898597914E+01 -0.23588337534E+01  0.98491958918E+00  0.35422476464E+01  0.17770000000E+01 0.  1.
</event>
<event>
 6    1  0.1697564E-002  0.1877913E+03  0.7546771E-02  0.1064319E+00
        -11   -1    0    0    0    0  0.00000000000E+00  0.00000000000E+00  0.18250000000E+03  0.18250000000E+03  0.00000000000E+00 0.  1.
         11   -1    0    0    0    0 -0.00000000000E+00 -0.00000000000E+00 -0.18250000000E+03  0.18250000000E+03  0.00000000000E+00 0. -1.
        -11    1    1    2    0    0 -0.29516011658E+01  0.13912445526E+01  0.17717867636E+03  0.17720872119E+03  0.00000000000E+00 0.  1.
         11    1    1    2    0    0 -0.39145803934E+01 -0.71724281515E+01 -0.16525301633E+03  0.16545490948E+03  0.00000000000E+00 0. -1.
        -15    1    1    2    0    0  0.37137628722E+01  0.34824008428E+01 -0.15715109973E+02  0.16614498511E+02  0.17770000000E+01 0.  1.
         15    1    1    2    0    0  0.31524186871E+01  0.22987827560E+01  0.37894499479E+01  0.57218708169E+01  0.17770000000E+01 0.  1.
</event>
<event>
 6    1  0.1697564E-002  0.1784945E+03  0.7546771E-02  0.1071689E+00
        -11   -1    0    0    0    0  0.00000000000E+00  0.00000000000E+00  0.18250000000E+03  0.18250000000E+03  0.00000000000E+00 0.  1.
         11   -1    0    0    0    0 -0.00000000000E+00 -0.00000000000E+00 -0.18250000000E+03  0.18250000000E+03  0.00000000000E+00 0.  1.
        -11    1    1    2    0    0  0.25640769226E+01  0.56467543368E+00  0.17782181777E+03  0.17784119946E+03  0.00000000000E+00 0.  1.
         11    1    1    2    0    0  0.67947542917E+00  0.37284207496E+01 -0.17915076206E+03  0.17919084339E+03  0.00000000000E+00 0.  1.
        -15    1    1    2    0    0 -0.26710070195E+01 -0.53486233903E-01  0.29976638431E+00  0.32225344312E+01  0.17770000000E+01 0. -1.
         15    1    1    2    0    0 -0.57254533229E+00 -0.42396099493E+01  0.10291779008E+01  0.47454227242E+01  0.17770000000E+01 0.  1.
</event>
<event>
 6    1  0.1730029E-002  0.1703641E+03  0.7546771E-02  0.1078548E+00
        -11   -1    0    0    0    0  0.00000000000E+00  0.00000000000E+00  0.18250000000E+03  0.18250000000E+03  0.00000000000E+00 0.  1.
         11   -1    0    0    0    0 -0.00000000000E+00 -0.00000000000E+00 -0.18250000000E+03  0.18250000000E+03  0.00000000000E+00 0.  1.
        -11    1    1    2    0    0  0.33993430728E+01 -0.20122235924E+01  0.16718970075E+03  0.16723636152E+03  0.00000000000E+00 0.  1.
         11    1    1    2    0    0  0.64405832234E+01 -0.17852391341E+01 -0.17358636751E+03  0.17371498259E+03  0.00000000000E+00 0.  1.
        -15    1    1    2    0    0 -0.82502585872E+01  0.33123963558E+01 -0.63519397080E+01  0.11069941437E+02  0.17770000000E+01 0. -1.
         15    1    1    2    0    0 -0.15896677089E+01  0.48506637066E+00  0.12748606467E+02  0.12978714446E+02  0.17770000000E+01 0.  1.
</event>
<event>
 6    1  0.1697564E-002  0.1844354E+03  0.7546771E-02  0.1066925E+00
        -11   -1    0    0    0    0  0.00000000000E+00  0.00000000000E+00  0.18250000000E+03  0.18250000000E+03  0.00000000000E+00 0.  1.
         11   -1    0    0    0    0 -0.00000000000E+00 -0.00000000000E+00 -0.18250000000E+03  0.18250000000E+03  0.00000000000E+00 0.  1.
        -11    1    1    2    0    0 -0.19538050289E+01  0.81145155760E+00  0.13182139043E+03  0.13183836613E+03  0.00000000000E+00 0.  1.
         11    1    1    2    0    0 -0.24281890020E+00  0.29910907719E+01 -0.18053963892E+03  0.18056457794E+03  0.00000000000E+00 0.  1.
        -15    1    1    2    0    0 -0.49317047314E+00 -0.37361448182E+01  0.41590533795E+00  0.41872068815E+01  0.17770000000E+01 0.  1.
         15    1    1    2    0    0  0.26897944023E+01 -0.66397511322E-01  0.48302343152E+02  0.48409849055E+02  0.17770000000E+01 0.  1.
</event>
<event>
 6    1  0.1697564E-002  0.1868479E+03  0.7546771E-02  0.1065046E+00
        -11   -1    0    0    0    0  0.00000000000E+00  0.00000000000E+00  0.18250000000E+03  0.18250000000E+03  0.00000000000E+00 0.  1.
         11   -1    0    0    0    0 -0.00000000000E+00 -0.00000000000E+00 -0.18250000000E+03  0.18250000000E+03  0.00000000000E+00 0. -1.
        -11    1    1    2    0    0  0.26461198537E+01  0.88049890333E+00  0.17813029819E+03  0.17815212702E+03  0.00000000000E+00 0.  1.
         11    1    1    2    0    0  0.60725113451E+01 -0.13869799573E+01 -0.17135618125E+03  0.17146935575E+03  0.00000000000E+00 0. -1.
        -15    1    1    2    0    0 -0.66395892211E+01 -0.21188304296E+01 -0.85661043771E+01  0.11185234044E+02  0.17770000000E+01 0.  1.
         15    1    1    2    0    0 -0.20790419777E+01  0.26253114836E+01  0.17919874334E+01  0.41932831877E+01  0.17770000000E+01 0. -1.
</event>
<event>
 6    1  0.1697564E-002  0.1854077E+03  0.7546771E-02  0.1066164E+00
        -11   -1    0    0    0    0  0.00000000000E+00  0.00000000000E+00  0.18250000000E+03  0.18250000000E+03  0.00000000000E+00 0. -1.
         11   -1    0    0    0    0 -0.00000000000E+00 -0.00000000000E+00 -0.18250000000E+03  0.18250000000E+03  0.00000000000E+00 0.  1.
        -11    1    1    2    0    0  0.38878355102E+01  0.57197571669E+01  0.17945912893E+03  0.17959234350E+03  0.00000000000E+00 0. -1.
         11    1    1    2    0    0 -0.22586630378E+01 -0.45771006733E+00 -0.11955336255E+03  0.11957557256E+03  0.00000000000E+00 0.  1.
        -15    1    1    2    0    0 -0.35874717199E+00 -0.10650997993E+02 -0.58958887864E+02  0.59940642681E+02  0.17770000000E+01 0. -1.
         15    1    1    2    0    0 -0.12704253004E+01  0.53889508939E+01 -0.94687851327E+00  0.58914412582E+01  0.17770000000E+01 0. -1.
</event>
<event>
 6    1  0.1697564E-002  0.1863731E+03  0.7546771E-02  0.1065413E+00
        -11   -1    0    0    0    0  0.00000000000E+00  0.00000000000E+00  0.18250000000E+03  0.18250000000E+03  0.00000000000E+00 0. -1.
         11   -1    0    0    0    0 -0.00000000000E+00 -0.00000000000E+00 -0.18250000000E+03  0.18250000000E+03  0.00000000000E+00 0. -1.
        -11    1    1    2    0    0 -0.22367118711E+01 -0.32793184105E+00  0.16248400895E+03  0.16249973411E+03  0.00000000000E+00 0. -1.
         11    1    1    2    0    0  0.30361003568E+01 -0.82452599517E+01 -0.17841066406E+03  0.17862689402E+03  0.00000000000E+00 0. -1.
        -15    1    1    2    0    0  0.26901845390E+01  0.56368989148E-01  0.13917944282E+02  0.14286608147E+02  0.17770000000E+01 0.  1.
         15    1    1    2    0    0 -0.34895730246E+01  0.85168228036E+01  0.20087108259E+01  0.95867637263E+01  0.17770000000E+01 0.  1.
</event>
<event>
 6    1  0.1697564E-002  0.1837907E+03  0.7546771E-02  0.1067432E+00
        -11   -1    0    0    0    0  0.00000000000E+00  0.00000000000E+00  0.18250000000E+03  0.18250000000E+03  0.00000000000E+00 0. -1.
         11   -1    0    0    0    0 -0.00000000000E+00 -0.00000000000E+00 -0.18250000000E+03  0.18250000000E+03  0.00000000000E+00 0. -1.
        -11    1    1    2    0    0  0.17421570649E+01  0.44346886659E+01  0.18114663737E+03  0.18120928730E+03  0.00000000000E+00 0. -1.
         11    1    1    2    0    0  0.21674916313E+01 -0.28659989739E+01 -0.11674726871E+03  0.11680255443E+03  0.00000000000E+00 0. -1.
        -15    1    1    2    0    0 -0.10831842907E+02  0.49774390012E+00 -0.39733990081E+02  0.41225286737E+02  0.17770000000E+01 0.  1.
         15    1    1    2    0    0  0.69221942110E+01 -0.20664335922E+01 -0.24665378574E+02  0.25762871534E+02  0.17770000000E+01 0. -1.
</event>
<event>
 6    1  0.1697564E-002  0.1849049E+03  0.7546771E-02  0.1066556E+00
        -11   -1    0    0    0    0  0.00000000000E+00  0.00000000000E+00  0.18250000000E+03  0.18250000000E+03  0.00000000000E+00 0.  1.
         11   -1    0    0    0    0 -0.00000000000E+00 -0.00000000000E+00 -0.18250000000E+03  0.18250000000E+03  0.00000000000E+00 0. -1.
        -11    1    1    2    0    0 -0.13359406862E+01 -0.19947112661E+01  0.15727456477E+03  0.15729288710E+03  0.00000000000E+00 0.  1.
         11    1    1    2    0    0 -0.10257848628E+02 -0.34981647543E+00 -0.17980241079E+03  0.18009512141E+03  0.00000000000E+00 0. -1.
        -15    1    1    2    0    0  0.79325693888E+01  0.19202282616E+00  0.51279586218E+01  0.96133354514E+01  0.17770000000E+01 0. -1.
         15    1    1    2    0    0  0.36612199253E+01  0.21525049154E+01  0.17399887396E+02  0.17998656037E+02  0.17770000000E+01 0.  1.
</event>
<event>
 6    1  0.1697564E-002  0.1829853E+03  0.7546771E-02  0.1068069E+00
        -11   -1    0    0    0    0  0.00000000000E+00  0.00000000000E+00  0.18250000000E+03  0.18250000000E+03  0.00000000000E+00 0.  1.
         11   -1    0    0    0    0 -0.00000000000E+00 -0.00000000000E+00 -0.18250000000E+03  0.18250000000E+03  0.00000000000E+00 0. -1.
        -11    1    1    2    0    0 -0.34551794525E+01  0.54299306653E+00  0.18198107415E+03  0.18201468198E+03  0.00000000000E+00 0.  1.
         11    1    1    2    0    0 -0.20255274597E+01 -0.17256130039E+01 -0.12019487944E+03  0.12022433009E+03  0.00000000000E+00 0. -1.
        -15    1    1    2    0    0  0.68985305313E+01 -0.49983942118E+00 -0.29537015496E+02  0.30388033440E+02  0.17770000000E+01 0. -1.
         15    1    1    2    0    0 -0.14178236192E+01  0.16824593586E+01 -0.32249179218E+02  0.32372954492E+02  0.17770000000E+01 0.  1.
</event>
<event>
 6    1  0.1697564E-002  0.1843470E+03  0.7546771E-02  0.1066994E+00
        -11   -1    0    0    0    0  0.00000000000E+00  0.00000000000E+00  0.18250000000E+03  0.18250000000E+03  0.00000000000E+00 0. -1.
         11   -1    0    0    0    0 -0.00000000000E+00 -0.00000000000E+00 -0.18250000000E+03  0.18250000000E+03  0.00000000000E+00 0. -1.
        -11    1    1    2    0    0 -0.21218578309E+01  0.24568302084E+01  0.15706027818E+03  0.15709382317E+03  0.00000000000E+00 0. -1.
         11    1    1    2    0    0  0.14513701137E+00  0.26944831066E+01 -0.18063283546E+03  0.18065298932E+03  0.00000000000E+00 0. -1.
        -15    1    1    2    0    0  0.11424890997E+01 -0.88912341187E+01  0.18636716835E+02  0.20756788501E+02  0.17770000000E+01 0.  1.
         15    1    1    2    0    0  0.83423171979E+00  0.37399208037E+01  0.49358404489E+01  0.64963990116E+01  0.17770000000E+01 0.  1.
</event>
<event>
 6    1  0.1697564E-002  0.1857644E+03  0.7546771E-02  0.1065886E+00
        -11   -1    0    0    0    0  0.00000000000E+00  0.00000000000E+00  0.18250000000E+03  0.18250000000E+03  0.00000000000E+00 0. -1.
         11   -1    0    0    0    0 -0.00000000000E+00 -0.00000000000E+00 -0.18250000000E+03  0.18250000000E+03  0.00000000000E+00 0. -1.
        -11    1    1    2    0    0 -0.94447221228E+01  0.25905062041E+01  0.15020822629E+03  0.15052715617E+03  0.00000000000E+00 0. -1.
         11    1    1    2    0    0  0.35118159447E+01  0.26502634051E-01 -0.17920115040E+03  0.17923555969E+03  0.00000000000E+00 0. -1.
        -15    1    1    2    0    0  0.74034777003E+01 -0.55685036356E+00  0.30747865043E+02  0.31681390407E+02  0.17770000000E+01 0.  1.
         15    1    1    2    0    0 -0.14705715222E+01 -0.20601584746E+01 -0.17549409373E+01  0.35558937323E+01  0.17770000000E+01 0. -1.
</event>
<event>
 6    1  0.1697564E-002  0.1772381E+03  0.7546771E-02  0.1072722E+00
        -11   -1    0    0    0    0  0.00000000000E+00  0.00000000000E+00  0.18250000000E+03  0.18250000000E+03  0.00000000000E+00 0.  1.
         11   -1    0    0    0    0 -0.00000000000E+00 -0.00000000000E+00 -0.18250000000E+03  0.18250000000E+03  0.00000000000E+00 0. -1.
        -11    1    1    2    0    0  0.69751598616E+00  0.28592003677E+01  0.17769725350E+03  0.17772162349E+03  0.00000000000E+00 0.  1.
         11    1    1    2    0    0 -0.66075270729E+00  0.52826429676E+01 -0.17676906879E+03  0.17684921994E+03  0.00000000000E+00 0. -1.
        -15    1    1    2    0    0 -0.57349753094E+00 -0.24425417117E+01  0.20905418568E+01  0.37179300271E+01  0.17770000000E+01 0.  1.
         15    1    1    2    0    0  0.53673425207E+00 -0.56993016237E+01 -0.30187265614E+01  0.67112265427E+01  0.17770000000E+01 0. -1.
</event>
<event>
 6    1  0.1697564E-002  0.1897437E+03  0.7546771E-02  0.1062831E+00
        -11   -1    0    0    0    0  0.00000000000E+00  0.00000000000E+00  0.18250000000E+03  0.18250000000E+03  0.00000000000E+00 0. -1.
         11   -1    0    0    0    0 -0.00000000000E+00 -0.00000000000E+00 -0.18250000000E+03  0.18250000000E+03  0.00000000000E+00 0.  1.
        -11    1    1    2    0    0  0.20535979749E+01 -0.35341813819E+01  0.17520859872E+03  0.17525627170E+03  0.00000000000E+00 0. -1.
         11    1    1    2    0    0 -0.40370837469E+01  0.26770286013E+00 -0.17252950845E+03  0.17257694225E+03  0.00000000000E+00 0.  1.
        -15    1    1    2    0    0 -0.24168947923E+01 -0.43131691809E+01 -0.56769095540E+01  0.77349751069E+01  0.17770000000E+01 0.  1.
         15    1    1    2    0    0  0.44003805643E+01  0.75796477026E+01  0.29978192787E+01  0.94318109520E+01  0.17770000000E+01 0. -1.
</event>
<event>
 6    1  0.1697564E-002  0.1835554E+03  0.7546771E-02  0.1067618E+00
        -11   -1    0    0    0    0  0.00000000000E+00  0.00000000000E+00  0.18250000000E+03  0.18250000000E+03  0.00000000000E+00 0. -1.
         11   -1    0    0    0    0 -0.00000000000E+00 -0.00000000000E+00 -0.18250000000E+03  0.18250000000E+03  0.00000000000E+00 0.  1.
        -11    1    1    2    0    0 -0.46143945318E+01 -0.50750299953E+01  0.18131491638E+03  0.18144461267E+03  0.00000000000E+00 0. -1.
         11    1    1    2    0    0  0.13734734145E+01  0.16732154637E+01 -0.87770503472E+02  0.87797194483E+02  0.00000000000E+00 0.  1.
        -15    1    1    2    0    0 -0.72146283896E+01  0.36374838377E+01 -0.23469329010E+02  0.24884719903E+02  0.17770000000E+01 0. -1.
         15    1    1    2    0    0  0.10455549507E+02 -0.23566930610E+00 -0.70075083893E+02  0.70873472944E+02  0.17770000000E+01 0.  1.
</event>
<event>
 6    1  0.1697564E-002  0.1844460E+03  0.7546771E-02  0.1066916E+00
        -11   -1    0    0    0    0  0.00000000000E+00  0.00000000000E+00  0.18250000000E+03  0.18250000000E+03  0.00000000000E+00 0. -1.
         11   -1    0    0    0    0 -0.00000000000E+00 -0.00000000000E+00 -0.18250000000E+03  0.18250000000E+03  0.00000000000E+00 0.  1.
        -11    1    1    2    0    0  0.97477953179E+00 -0.49047800918E+01  0.17495758599E+03  0.17502903747E+03  0.00000000000E+00 0. -1.
         11    1    1    2    0    0 -0.26568359746E+01 -0.86969065961E+00 -0.18053233476E+03  0.18055397817E+03  0.00000000000E+00 0.  1.
        -15    1    1    2    0    0  0.40337992017E+00  0.42734956608E+01  0.47336443708E+01  0.66325408821E+01  0.17770000000E+01 0. -1.
         15    1    1    2    0    0  0.12786765227E+01  0.15009750906E+01  0.84110439535E+00  0.27844434769E+01  0.17770000000E+01 0.  1.
</event>
<event>
 6    1  0.1697564E-002  0.1828188E+03  0.7546771E-02  0.1068201E+00
        -11   -1    0    0    0    0  0.00000000000E+00  0.00000000000E+00  0.18250000000E+03  0.18250000000E+03  0.00000000000E+00 0. -1.
         11   -1    0    0    0    0 -0.00000000000E+00 -0.00000000000E+00 -0.18250000000E+03  0.18250000000E+03  0.00000000000E+00 0. -1.
        -11    1    1    2    0    0  0.22840896609E+01 -0.16111561032E+01  0.12485771582E+03  0.12488899907E+03  0.00000000000E+00 0. -1.
         11    1    1    2    0    0 -0.45314138620E+01 -0.52754990651E+00 -0.18212402710E+03  0.18218115509E+03  0.00000000000E+00 0. -1.
        -15    1    1    2    0    0  0.49007044239E+01  0.13965415888E+01  0.39001794609E+02  0.39373404018E+02  0.17770000000E+01 0.  1.
         15    1    1    2    0    0 -0.26533802227E+01  0.74216442083E+00  0.18264516681E+02  0.18556441826E+02  0.17770000000E+01 0.  1.
</event>
<event>
 6    1  0.1697564E-002  0.1856330E+03  0.7546771E-02  0.1065988E+00
        -11   -1    0    0    0    0  0.00000000000E+00  0.00000000000E+00  0.18250000000E+03  0.18250000000E+03  0.00000000000E+00 0. -1.
         11   -1    0    0    0    0 -0.00000000000E+00 -0.00000000000E+00 -0.18250000000E+03  0.18250000000E+03  0.00000000000E+00 0. -1.
        -11    1    1    2    0    0  0.15152942966E+01  0.17575148300E+01  0.14375778130E+03  0.14377650942E+03  0.00000000000E+00 0. -1.
         11    1    1    2    0    0 -0.10946025021E+02 -0.77415376157E+00 -0.17903102411E+03  0.17936700470E+03  0.00000000000E+00 0. -1.
        -15    1    1    2    0    0 -0.18907790314E+01 -0.38005290922E+01  0.27131910414E+02  0.27519399675E+02  0.17770000000E+01 0. -1.
         15    1    1    2    0    0  0.11321509756E+02  0.28171680238E+01  0.81413323969E+01  0.14337086211E+02  0.17770000000E+01 0. -1.
</event>
<event>
 6    1  0.1697564E-002  0.1829374E+03  0.7546771E-02  0.1068107E+00
        -11   -1    0    0    0    0  0.00000000000E+00  0.00000000000E+00  0.18250000000E+03  0.18250000000E+03  0.00000000000E+00 0. -1.
         11   -1    0    0    0    0 -0.00000000000E+00 -0.00000000000E+00 -0.18250000000E+03  0.18250000000E+03  0.00000000000E+00 0. -1.
        -11    1    1    2    0    0  0.49208996874E+01 -0.16913244144E+01  0.18198817687E+03  0.18206255065E+03  0.00000000000E+00 0. -1.
         11    1    1    2    0    0 -0.16259258553E+01  0.29311084064E+01 -0.13699863516E+03  0.13703963320E+03  0.00000000000E+00 0. -1.
        -15    1    1    2    0    0 -0.54472733785E+01  0.35332303265E+00 -0.32394971655E+02  0.32899689086E+02  0.17770000000E+01 0. -1.
         15    1    1    2    0    0  0.21522995464E+01 -0.15931070246E+01 -0.12594570046E+02  0.12998127057E+02  0.17770000000E+01 0.  1.
</event>
<event>
 6    1  0.1697564E-002  0.1867764E+03  0.7546771E-02  0.1065101E+00
        -11   -1    0    0    0    0  0.00000000000E+00  0.00000000000E+00  0.18250000000E+03  0.18250000000E+03  0.00000000000E+00 0. -1.
         11   -1    0    0    0    0 -0.00000000000E+00 -0.00000000000E+00 -0.18250000000E+03  0.18250000000E+03  0.00000000000E+00 0. -1.
        -11    1    1    2    0    0  0.14655482359E+01 -0.22707658245E+02  0.15166735380E+03  0.15336483229E+03  0.00000000000E+00 0. -1.
         11    1    1    2    0    0 -0.22890557521E+01  0.68642208092E+01 -0.17807666636E+03  0.17822361349E+03  0.00000000000E+00 0. -1.
        -15    1    1    2    0    0  0.45644066632E+01  0.16883574406E+01  0.10554953832E+02  0.11757939379E+02  0.17770000000E+01 0.  1.
         15    1    1    2    0    0 -0.37408991470E+01  0.14155079995E+02  0.15854358732E+02  0.21653614846E+02  0.17770000000E+01 0. -1.
</event>
<event>
 6    1  0.1697564E-002  0.1833758E+03  0.7546771E-02  0.1067760E+00
        -11   -1    0    0    0    0  0.00000000000E+00  0.00000000000E+00  0.18250000000E+03  0.18250000000E+03  0.00000000000E+00 0.  1.
         11   -1    0    0    0    0 -0.00000000000E+00 -0.00000000000E+00 -0.18250000000E+03  0.18250000000E+03  0.00000000000E+00 0. -1.
        -11    1    1    2    0    0  0.34781670069E+00  0.27252012373E+01  0.12168558209E+03  0.12171659126E+03  0.00000000000E+00 0.  1.
         11    1    1    2    0    0  0.28625750762E+01 -0.64655584721E+01 -0.18148648738E+03  0.18162418034E+03  0.00000000000E+00 0. -1.
        -15    1    1    2    0    0 -0.37914322765E+01 -0.29855954056E+01  0.45019266519E+02  0.45312038418E+02  0.17770000000E+01 0.  1.
         15    1    1    2    0    0  0.58104049965E+00  0.67259526405E+01  0.14781638764E+02  0.16347189989E+02  0.17770000000E+01 0. -1.
</event>
<event>
 6    1  0.1697564E-002  0.1839144E+03  0.7546771E-02  0.1067334E+00
        -11   -1    0    0    0    0  0.00000000000E+00  0.00000000000E+00  0.18250000000E+03  0.18250000000E+03  0.00000000000E+00 0.  1.
         11   -1    0    0    0    0 -0.00000000000E+00 -0.00000000000E+00 -0.18250000000E+03  0.18250000000E+03  0.00000000000E+00 0.  1.
        -11    1    1    2    0    0 -0.13865661467E+01 -0.26030492681E+01  0.17205736478E+03  0.17208264063E+03  0.00000000000E+00 0.  1.
         11    1    1    2    0    0  0.33747607103E+01 -0.78599711060E+00 -0.18105239832E+03  0.18108555364E+03  0.00000000000E+00 0.  1.
        -15    1    1    2    0    0  0.26382819701E+00  0.31581938976E+01  0.80004314260E+01  0.87868325360E+01  0.17770000000E+01 0.  1.
         15    1    1    2    0    0 -0.22520227605E+01  0.23085248107E+00  0.99460210629E+00  0.30449731907E+01  0.17770000000E+01 0. -1.
</event>
<event>
 6    1  0.1697564E-002  0.1831961E+03  0.7546771E-02  0.1067902E+00
        -11   -1    0    0    0    0  0.00000000000E+00  0.00000000000E+00  0.18250000000E+03  0.18250000000E+03  0.00000000000E+00 0. -1.
         11   -1    0    0    0    0 -0.00000000000E+00 -0.00000000000E+00 -0.18250000000E+03  0.18250000000E+03  0.00000000000E+00 0. -1.
        -11    1    1    2    0    0  0.15462174621E+01 -0.25492061447E+01  0.15628792632E+03  0.15631636240E+03  0.00000000000E+00 0. -1.
         11    1    1    2    0    0  0.40191841921E-01 -0.24679394818E+01 -0.18178717957E+03  0.18180393559E+03  0.00000000000E+00 0. -1.
        -15    1    1    2    0    0 -0.13942397912E+01  0.36362694170E+00  0.26863461100E+01  0.35285001872E+01  0.17770000000E+01 0.  1.
         15    1    1    2    0    0 -0.19216951279E+00  0.46535186848E+01  0.22812907143E+02  0.23351201823E+02  0.17770000000E+01 0. -1.
</event>
<event>
 6    1  0.1697564E-002  0.1845826E+03  0.7546771E-02  0.1066809E+00
        -11   -1    0    0    0    0  0.00000000000E+00  0.00000000000E+00  0.18250000000E+03  0.18250000000E+03  0.00000000000E+00 0.  1.
         11   -1    0    0    0    0 -0.00000000000E+00 -0.00000000000E+00 -0.18250000000E+03  0.18250000000E+03  0.00000000000E+00 0. -1.
        -11    1    1    2    0    0  0.30755390030E+01 -0.26229589085E+01  0.15627591005E+03  0.15632817698E+03  0.00000000000E+00 0.  1.
         11    1    1    2    0    0 -0.15445677279E+01  0.20434639845E+01 -0.18039924324E+03  0.18041742819E+03  0.00000000000E+00 0. -1.
        -15    1    1    2    0    0 -0.13721819726E+01  0.22609577721E+01  0.25324641888E+02  0.25524302717E+02  0.17770000000E+01 0. -1.
         15    1    1    2    0    0 -0.15878930243E+00 -0.16814628481E+01 -0.12013087082E+01  0.27300921165E+01  0.17770000000E+01 0. -1.
</event>
<event>
 6    1  0.1697564E-002  0.1183134E+03  0.7546771E-02  0.1135449E+00
        -11   -1    0    0    0    0  0.00000000000E+00  0.00000000000E+00  0.18250000000E+03  0.18250000000E+03  0.00000000000E+00 0.  1.
         11   -1    0    0    0    0 -0.00000000000E+00 -0.00000000000E+00 -0.18250000000E+03  0.18250000000E+03  0.00000000000E+00 0. -1.
        -11    1    1    2    0    0  0.20147282907E+01  0.43569008986E+01  0.59451468258E+02  0.59644939380E+02  0.00000000000E+00 0.  1.
         11    1    1    2    0    0 -0.86575533682E+01 -0.11871239025E+02 -0.66805008764E+02  0.68401672072E+02  0.00000000000E+00 0. -1.
        -15    1    1    2    0    0  0.38203635833E+01  0.12969495080E+02 -0.11431071129E+03  0.11512123794E+03  0.17770000000E+01 0. -1.
         15    1    1    2    0    0  0.28224614941E+01 -0.54551569528E+01  0.12166425180E+03  0.12183215060E+03  0.17770000000E+01 0.  1.
</event>
<event>
 6    1  0.1697564E-002  0.1835313E+03  0.7546771E-02  0.1067637E+00
        -11   -1    0    0    0    0  0.00000000000E+00  0.00000000000E+00  0.18250000000E+03  0.18250000000E+03  0.00000000000E+00 0.  1.
         11   -1    0    0    0    0 -0.00000000000E+00 -0.00000000000E+00 -0.18250000000E+03  0.18250000000E+03  0.00000000000E+00 0. -1.
        -11    1    1    2    0    0 -0.68446362200E+01  0.81046032868E+00  0.98996366675E+02  0.99236014157E+02  0.00000000000E+00 0.  1.
         11    1    1    2    0    0  0.26845865296E+01  0.45795179242E+01 -0.18139108689E+03  0.18146874495E+03  0.00000000000E+00 0. -1.
        -15    1    1    2    0    0 -0.14929208188E+01  0.50753128422E+01  0.20690640570E+02  0.21430071144E+02  0.17770000000E+01 0. -1.
         15    1    1    2    0    0  0.56529705092E+01 -0.10465291095E+02  0.61704079649E+02  0.62865169750E+02  0.17770000000E+01 0.  1.
</event>
<event>
 6    1  0.1697564E-002  0.1864057E+03  0.7546771E-02  0.1065388E+00
        -11   -1    0    0    0    0  0.00000000000E+00  0.00000000000E+00  0.18250000000E+03  0.18250000000E+03  0.00000000000E+00 0. -1.
         11   -1    0    0    0    0 -0.00000000000E+00 -0.00000000000E+00 -0.18250000000E+03  0.18250000000E+03  0.00000000000E+00 0.  1.
        -11    1    1    2    0    0 -0.12623435358E+00  0.24736066675E+01  0.17857710008E+03  0.17859427577E+03  0.00000000000E+00 0. -1.
         11    1    1    2    0    0 -0.45761354798E+01  0.24106533465E+01 -0.17340720127E+03  0.17348432125E+03  0.00000000000E+00 0.  1.
        -15    1    1    2    0    0 -0.77981245286E+00 -0.56162946950E+01 -0.34116542658E+01  0.68518601410E+01  0.17770000000E+01 0. -1.
         15    1    1    2    0    0  0.54821822862E+01  0.73203468100E+00 -0.17582445408E+01  0.60695428377E+01  0.17770000000E+01 0. -1.
</event>
<event>
 6    1  0.1697564E-002  0.1834844E+03  0.7546771E-02  0.1067674E+00
        -11   -1    0    0    0    0  0.00000000000E+00  0.00000000000E+00  0.18250000000E+03  0.18250000000E+03  0.00000000000E+00 0. -1.
         11   -1    0    0    0    0 -0.00000000000E+00 -0.00000000000E+00 -0.18250000000E+03  0.18250000000E+03  0.00000000000E+00 0.  1.
        -11    1    1    2    0    0 -0.13734425954E+01  0.34789410826E+01  0.18147706300E+03  0.18151560200E+03  0.00000000000E+00 0. -1.
         11    1    1    2    0    0 -0.30244443180E+01 -0.46373465619E+00 -0.12612992810E+03  0.12616703640E+03  0.00000000000E+00 0.  1.
        -15    1    1    2    0    0 -0.44067502755E+01  0.10237756303E+01 -0.14230784300E+02  0.15037969122E+02  0.17770000000E+01 0.  1.
         15    1    1    2    0    0  0.88046371890E+01 -0.40389820568E+01 -0.41116350600E+02  0.42279392471E+02  0.17770000000E+01 0. -1.
</event>
<event>
 6    1  0.1697564E-002  0.1848039E+03  0.7546771E-02  0.1066636E+00
        -11   -1    0    0    0    0  0.00000000000E+00  0.00000000000E+00  0.18250000000E+03  0.18250000000E+03  0.00000000000E+00 0.  1.
         11   -1    0    0    0    0 -0.00000000000E+00 -0.00000000000E+00 -0.18250000000E+03  0.18250000000E+03  0.00000000000E+00 0.  1.
        -11    1    1    2    0    0 -0.36594091605E+01  0.20917098570E+01  0.10732356377E+03  0.10740630273E+03  0.00000000000E+00 0.  1.
         11    1    1    2    0    0  0.55797947176E+01  0.75920446143E+01 -0.17994956670E+03  0.18019605935E+03  0.00000000000E+00 0.  1.
        -15    1    1    2    0    0  0.31971965996E+01  0.10714399973E+01  0.59354895776E+02  0.59477150498E+02  0.17770000000E+01 0.  1.
         15    1    1    2    0    0 -0.51175821567E+01 -0.10755194469E+02  0.13271107159E+02  0.17920487421E+02  0.17770000000E+01 0.  1.
</event>
<event>
 6    1  0.1697564E-002  0.1927236E+03  0.7546771E-02  0.1060596E+00
        -11   -1    0    0    0    0  0.00000000000E+00  0.00000000000E+00  0.18250000000E+03  0.18250000000E+03  0.00000000000E+00 0.  1.
         11   -1    0    0    0    0 -0.00000000000E+00 -0.00000000000E+00 -0.18250000000E+03  0.18250000000E+03  0.00000000000E+00 0.  1.
        -11    1    1    2    0    0  0.12565034242E+02 -0.67181942989E+01  0.17168617111E+03  0.17227639295E+03  0.00000000000E+00 0.  1.
         11    1    1    2    0    0  0.18415587729E+01 -0.26844256321E+01 -0.15874569401E+03  0.15877906929E+03  0.00000000000E+00 0.  1.
        -15    1    1    2    0    0 -0.89971249477E+01  0.93863923348E+01  0.58078481823E+01  0.14350660190E+02  0.17770000000E+01 0.  1.
         15    1    1    2    0    0 -0.54094680669E+01  0.16227596247E-01 -0.18748325280E+02  0.19593877562E+02  0.17770000000E+01 0. -1.
</event>
<event>
 6    1  0.1697564E-002  0.1842443E+03  0.7546771E-02  0.1067075E+00
        -11   -1    0    0    0    0  0.00000000000E+00  0.00000000000E+00  0.18250000000E+03  0.18250000000E+03  0.00000000000E+00 0.  1.
         11   -1    0    0    0    0 -0.00000000000E+00 -0.00000000000E+00 -0.18250000000E+03  0.18250000000E+03  0.00000000000E+00 0.  1.
        -11    1    1    2    0    0  0.48454149734E+01  0.10973208959E+01  0.18068736325E+03  0.18075565108E+03  0.00000000000E+00 0.  1.
         11    1    1    2    0    0  0.20821080179E+01 -0.18660674973E+01 -0.15641670654E+03  0.15644169350E+03  0.00000000000E+00 0.  1.
        -15    1    1    2    0    0 -0.28130531778E+01  0.22227356618E+01 -0.22364960806E+02  0.22720101735E+02  0.17770000000E+01 0.  1.
         15    1    1    2    0    0 -0.41144698135E+01 -0.14539890605E+01 -0.19056959034E+01  0.50825536801E+01  0.17770000000E+01 0. -1.
</event>
<event>
 6    1  0.1697564E-002  0.1836015E+03  0.7546771E-02  0.1067581E+00
        -11   -1    0    0    0    0  0.00000000000E+00  0.00000000000E+00  0.18250000000E+03  0.18250000000E+03  0.00000000000E+00 0.  1.
         11   -1    0    0    0    0 -0.00000000000E+00 -0.00000000000E+00 -0.18250000000E+03  0.18250000000E+03  0.00000000000E+00 0. -1.
        -11    1    1    2    0    0  0.10717688526E+01  0.27865883963E+01  0.18137388614E+03  0.18139845737E+03  0.00000000000E+00 0.  1.
         11    1    1    2    0    0 -0.14221330683E+01 -0.38688557965E+01 -0.17455067258E+03  0.17459933507E+03  0.00000000000E+00 0. -1.
        -15    1    1    2    0    0  0.11677564577E+01  0.15005062982E+01 -0.64663747449E+01  0.69704308071E+01  0.17770000000E+01 0. -1.
         15    1    1    2    0    0 -0.81739224199E+00 -0.41823889804E+00 -0.35683881165E+00  0.20317767571E+01  0.17770000000E+01 0.  1.
</event>
<event>
 6    1  0.1697564E-002  0.1843207E+03  0.7546771E-02  0.1067015E+00
        -11   -1    0    0    0    0  0.00000000000E+00  0.00000000000E+00  0.18250000000E+03  0.18250000000E+03  0.00000000000E+00 0. -1.
         11   -1    0    0    0    0 -0.00000000000E+00 -0.00000000000E+00 -0.18250000000E+03  0.18250000000E+03  0.00000000000E+00 0. -1.
        -11    1    1    2    0    0 -0.12029965498E+01 -0.35155261448E+01  0.16665860322E+03  0.16670001845E+03  0.00000000000E+00 0. -1.
         11    1    1    2    0    0  0.97962804166E+00 -0.29598696116E+01 -0.18065241939E+03  0.18067932126E+03  0.00000000000E+00 0. -1.
        -15    1    1    2    0    0 -0.12272773414E+01  0.43684665511E+01  0.20661909043E+01  0.52930693868E+01  0.17770000000E+01 0. -1.
         15    1    1    2    0    0  0.14506458495E+01  0.21069292054E+01  0.11927625261E+02  0.12327590902E+02  0.17770000000E+01 0.  1.
</event>
<event>
 6    1  0.1697564E-002  0.1771730E+03  0.7546771E-02  0.1072776E+00
        -11   -1    0    0    0    0  0.00000000000E+00  0.00000000000E+00  0.18250000000E+03  0.18250000000E+03  0.00000000000E+00 0. -1.
         11   -1    0    0    0    0 -0.00000000000E+00 -0.00000000000E+00 -0.18250000000E+03  0.18250000000E+03  0.00000000000E+00 0.  1.
        -11    1    1    2    0    0  0.17732296568E+01  0.16928525922E+01  0.17705057250E+03  0.17706754451E+03  0.00000000000E+00 0. -1.
         11    1    1    2    0    0 -0.50466427829E+00  0.23850091189E+01 -0.17728750020E+03  0.17730426019E+03  0.00000000000E+00 0.  1.
        -15    1    1    2    0    0  0.29748110413E+01  0.10613359533E+01  0.78803113419E+00  0.37087271139E+01  0.17770000000E+01 0.  1.
         15    1    1    2    0    0 -0.42433764198E+01 -0.51391976643E+01 -0.55110344125E+00  0.69194681931E+01  0.17770000000E+01 0. -1.
</event>
<event>
 6    1  0.1697564E-002  0.1828079E+03  0.7546771E-02  0.1068210E+00
        -11   -1    0    0    0    0  0.00000000000E+00  0.00000000000E+00  0.18250000000E+03  0.18250000000E+03  0.00000000000E+00 0. -1.
         11   -1    0    0    0    0 -0.00000000000E+00 -0.00000000000E+00 -0.18250000000E+03  0.18250000000E+03  0.00000000000E+00 0. -1.
        -11    1    1    2    0    0 -0.18830224922E+01  0.46194252689E+00  0.79540670937E+02  0.79564297883E+02  0.00000000000E+00 0. -1.
         11    1    1    2    0    0  0.43538122797E+01  0.18345237724E-01 -0.18214004525E+03  0.18219207475E+03  0.00000000000E+00 0. -1.
        -15    1    1    2    0    0 -0.40267130315E+01 -0.18402128196E+00  0.15556251652E+02  0.16167961409E+02  0.17770000000E+01 0.  1.
         15    1    1    2    0    0  0.15559232440E+01 -0.29626648265E+00  0.87043122659E+02  0.87075665959E+02  0.17770000000E+01 0. -1.
</event>
<event>
 6    1  0.1697564E-002  0.1876531E+03  0.7546771E-02  0.1064425E+00
        -11   -1    0    0    0    0  0.00000000000E+00  0.00000000000E+00  0.18250000000E+03  0.18250000000E+03  0.00000000000E+00 0. -1.
         11   -1    0    0    0    0 -0.00000000000E+00 -0.00000000000E+00 -0.18250000000E+03  0.18250000000E+03  0.00000000000E+00 0. -1.
        -11    1    1    2    0    0 -0.73011257229E+01  0.20046572052E+01  0.17718517497E+03  0.17734686723E+03  0.00000000000E+00 0. -1.
         11    1    1    2    0    0 -0.34231030878E+01  0.36655430399E+01 -0.13032572036E+03  0.13042218840E+03  0.00000000000E+00 0. -1.
        -15    1    1    2    0    0  0.81817000531E+01 -0.27354385181E+01  0.12817186939E+01  0.89007511737E+01  0.17770000000E+01 0. -1.
         15    1    1    2    0    0  0.25425287576E+01 -0.29347617270E+01 -0.48141173302E+02  0.48330193200E+02  0.17770000000E+01 0. -1.
</event>
<event>
 6    1  0.1697564E-002  0.1836227E+03  0.7546771E-02  0.1067565E+00
        -11   -1    0    0    0    0  0.00000000000E+00  0.00000000000E+00  0.18250000000E+03  0.18250000000E+03  0.00000000000E+00 0.  1.
         11   -1    0    0    0    0 -0.00000000000E+00 -0.00000000000E+00 -0.18250000000E+03  0.18250000000E+03  0.00000000000E+00 0.  1.
        -11    1    1    2    0    0  0.32029939191E+00 -0.92504636474E+00  0.13659550233E+02  0.13694583420E+02  0.00000000000E+00 0.  1.
         11    1    1    2    0    0  0.39064100211E+01 -0.34030627069E+01 -0.18130331830E+03  0.18137732522E+03  0.00000000000E+00 0.  1.
        -15    1    1    2    0    0  0.14025965119E+00  0.61987699052E+01  0.16275713352E+03  0.16288488776E+03  0.17770000000E+01 0.  1.
         15    1    1    2    0    0 -0.43669690642E+01 -0.18706608336E+01  0.48866345508E+01  0.70432036031E+01  0.17770000000E+01 0. -1.
</event>
<event>
 6    1  0.1697564E-002  0.1851481E+03  0.7546771E-02  0.1066366E+00
        -11   -1    0    0    0    0  0.00000000000E+00  0.00000000000E+00  0.18250000000E+03  0.18250000000E+03  0.00000000000E+00 0.  1.
         11   -1    0    0    0    0 -0.00000000000E+00 -0.00000000000E+00 -0.18250000000E+03  0.18250000000E+03  0.00000000000E+00 0. -1.
        -11    1    1    2    0    0  0.21125714617E+01 -0.22301284566E+01  0.74429864448E+02  0.74493228906E+02  0.00000000000E+00 0.  1.
         11    1    1    2    0    0 -0.24966517306E+01  0.19846527531E+01 -0.17982363228E+03  0.17985191365E+03  0.00000000000E+00 0. -1.
        -15    1    1    2    0    0  0.59692732060E+01  0.16025302535E+01  0.10435106595E+03  0.10454904600E+03  0.17770000000E+01 0.  1.
         15    1    1    2    0    0 -0.55851929370E+01 -0.13570545500E+01  0.10427018850E+01  0.61058114462E+01  0.17770000000E+01 0. -1.
</event>
<event>
 6    1  0.1697564E-002  0.1840078E+03  0.7546771E-02  0.1067261E+00
        -11   -1    0    0    0    0  0.00000000000E+00  0.00000000000E+00  0.18250000000E+03  0.18250000000E+03  0.00000000000E+00 0.  1.
         11   -1    0    0    0    0 -0.00000000000E+00 -0.00000000000E+00 -0.18250000000E+03  0.18250000000E+03  0.00000000000E+00 0. -1.
        -11    1    1    2    0    0  0.12802702202E+01 -0.38003450118E+01  0.18094779707E+03  0.18099222905E+03  0.00000000000E+00 0.  1.
         11    1    1    2    0    0 -0.37934274883E+01 -0.18177038205E+01 -0.16764736865E+03  0.16770013225E+03  0.00000000000E+00 0. -1.
        -15    1    1    2    0    0  0.55727225268E+00  0.43728298192E+01 -0.30458917983E+01  0.56451199135E+01  0.17770000000E+01 0.  1.
         15    1    1    2    0    0  0.19558850154E+01  0.12452190131E+01 -0.10254536616E+02  0.10662518783E+02  0.17770000000E+01 0.  1.
</event>
<event>
 6    1  0.1697564E-002  0.1852064E+03  0.7546771E-02  0.1066321E+00
        -11   -1    0    0    0    0  0.00000000000E+00  0.00000000000E+00  0.18250000000E+03  0.18250000000E+03  0.00000000000E+00 0.  1.
         11   -1    0    0    0    0 -0.00000000000E+00 -0.00000000000E+00 -0.18250000000E+03  0.18250000000E+03  0.00000000000E+00 0. -1.
        -11    1    1    2    0    0  0.35846728755E+01 -0.23539603645E+01  0.17974245619E+03  0.17979360825E+03  0.00000000000E+00 0.  1.
         11    1    1    2    0    0  0.21382630012E+01  0.19945503367E+01 -0.16878695277E+03  0.16881227984E+03  0.00000000000E+00 0. -1.
        -15    1    1    2    0    0 -0.19734579006E+01  0.22153635881E+01  0.10030292140E+01  0.36008566365E+01  0.17770000000E+01 0. -1.
         15    1    1    2    0    0 -0.37494779762E+01 -0.18559535603E+01 -0.11958532640E+02  0.12793255279E+02  0.17770000000E+01 0. -1.
</event>
<event>
 6    1  0.1697564E-002  0.1861087E+03  0.7546771E-02  0.1065618E+00
        -11   -1    0    0    0    0  0.00000000000E+00  0.00000000000E+00  0.18250000000E+03  0.18250000000E+03  0.00000000000E+00 0.  1.
         11   -1    0    0    0    0 -0.00000000000E+00 -0.00000000000E+00 -0.18250000000E+03  0.18250000000E+03  0.00000000000E+00 0. -1.
        -11    1    1    2    0    0 -0.73081986245E+01 -0.25759417590E+01  0.17872343164E+03  0.17889133646E+03  0.00000000000E+00 0.  1.
         11    1    1    2    0    0  0.42033171663E+00 -0.16488644304E+01 -0.98563556999E+01  0.10002158784E+02  0.00000000000E+00 0. -1.
        -15    1    1    2    0    0  0.36859861440E+01  0.21893397669E+01  0.20959197823E+01  0.50921813796E+01  0.17770000000E+01 0.  1.
         15    1    1    2    0    0  0.32018807638E+01  0.20354664225E+01 -0.17096299572E+03  0.17101432338E+03  0.17770000000E+01 0. -1.
</event>
<event>
 6    1  0.1697564E-002  0.1858939E+03  0.7546771E-02  0.1065785E+00
        -11   -1    0    0    0    0  0.00000000000E+00  0.00000000000E+00  0.18250000000E+03  0.18250000000E+03  0.00000000000E+00 0. -1.
         11   -1    0    0    0    0 -0.00000000000E+00 -0.00000000000E+00 -0.18250000000E+03  0.18250000000E+03  0.00000000000E+00 0.  1.
        -11    1    1    2    0    0  0.44328951727E+01  0.25498902464E+00  0.16213880766E+03  0.16219959472E+03  0.00000000000E+00 0. -1.
         11    1    1    2    0    0 -0.35940597056E+01 -0.46713925533E+01 -0.17900905266E+03  0.17910605827E+03  0.00000000000E+00 0.  1.
        -15    1    1    2    0    0 -0.27947620187E+01  0.42176084742E+01 -0.11465274222E+01  0.54837186391E+01  0.17770000000E+01 0. -1.
         15    1    1    2    0    0  0.19559265517E+01  0.19879505445E+00  0.18016772427E+02  0.18210628376E+02  0.17770000000E+01 0.  1.
</event>
<event>
 6    1  0.1697564E-002  0.1841762E+03  0.7546771E-02  0.1067128E+00
        -11   -1    0    0    0    0  0.00000000000E+00  0.00000000000E+00  0.18250000000E+03  0.18250000000E+03  0.00000000000E+00 0. -1.
         11   -1    0    0    0    0 -0.00000000000E+00 -0.00000000000E+00 -0.18250000000E+03  0.18250000000E+03  0.00000000000E+00 0.  1.
        -11    1    1    2    0    0  0.19459153081E+01  0.18692179629E+01  0.18080362452E+03  0.18082375730E+03  0.00000000000E+00 0. -1.
         11    1    1    2    0    0  0.21066050860E+01 -0.21415789217E+01 -0.17229411966E+03  0.17232030587E+03  0.00000000000E+00 0.  1.
        -15    1    1    2    0    0 -0.25434447878E+01  0.31603234200E+01 -0.56018064196E+01  0.71410587219E+01  0.17770000000E+01 0.  1.
         15    1    1    2    0    0 -0.15090756063E+01 -0.28879624612E+01 -0.29076984436E+01  0.47148781110E+01  0.17770000000E+01 0.  1.
</event>
<event>
 6    1  0.1697564E-002  0.1881867E+03  0.7546771E-02  0.1064016E+00
        -11   -1    0    0    0    0  0.00000000000E+00  0.00000000000E+00  0.18250000000E+03  0.18250000000E+03  0.00000000000E+00 0. -1.
         11   -1    0    0    0    0 -0.00000000000E+00 -0.00000000000E+00 -0.18250000000E+03  0.18250000000E+03  0.00000000000E+00 0. -1.
        -11    1    1    2    0    0 -0.24212860694E+01  0.24965851696E+01  0.17677905044E+03  0.17681325809E+03  0.00000000000E+00 0. -1.
         11    1    1    2    0    0 -0.17845848504E+01 -0.29654737108E+01 -0.17146277241E+03  0.17149769998E+03  0.00000000000E+00 0. -1.
        -15    1    1    2    0    0  0.15572906795E+01 -0.35744724169E+01  0.41166141196E+01  0.59419061024E+01  0.17770000000E+01 0.  1.
         15    1    1    2    0    0  0.26485802403E+01  0.40433609581E+01 -0.94328921510E+01  0.10747135826E+02  0.17770000000E+01 0.  1.
</event>
<event>
 6    1  0.1697564E-002  0.1833890E+03  0.7546771E-02  0.1067749E+00
        -11   -1    0    0    0    0  0.00000000000E+00  0.00000000000E+00  0.18250000000E+03  0.18250000000E+03  0.00000000000E+00 0. -1.
         11   -1    0    0    0    0 -0.00000000000E+00 -0.00000000000E+00 -0.18250000000E+03  0.18250000000E+03  0.00000000000E+00 0.  1.
        -11    1    1    2    0    0  0.16363900368E+01 -0.30553102894E+01  0.18157795919E+03  0.18161103479E+03  0.00000000000E+00 0. -1.
         11    1    1    2    0    0  0.51767181594E+00 -0.24998047957E+01 -0.14317761068E+03  0.14320036735E+03  0.00000000000E+00 0.  1.
        -15    1    1    2    0    0 -0.74798323082E-01  0.98150878466E+00 -0.31014330153E+02  0.31080787605E+02  0.17770000000E+01 0.  1.
         15    1    1    2    0    0 -0.20792635297E+01  0.45736063004E+01 -0.73860183607E+01  0.91078102550E+01  0.17770000000E+01 0.  1.
</event>
<event>
 6    1  0.1697564E-002  0.1848626E+03  0.7546771E-02  0.1066590E+00
        -11   -1    0    0    0    0  0.00000000000E+00  0.00000000000E+00  0.18250000000E+03  0.18250000000E+03  0.00000000000E+00 0.  1.
         11   -1    0    0    0    0 -0.00000000000E+00 -0.00000000000E+00 -0.18250000000E+03  0.18250000000E+03  0.00000000000E+00 0. -1.
        -11    1    1    2    0    0  0.31285820908E+01  0.24021995471E+01  0.11517923191E+03  0.11524675289E+03  0.00000000000E+00 0.  1.
         11    1    1    2    0    0 -0.75465489974E+01 -0.39011918504E+01 -0.17993700542E+03  0.18013743536E+03  0.00000000000E+00 0. -1.
        -15    1    1    2    0    0 -0.15868050671E+00 -0.31098490891E+01  0.62367258440E+02  0.62470224869E+02  0.17770000000E+01 0.  1.
         15    1    1    2    0    0  0.45766474133E+01  0.46088413924E+01  0.23905150735E+01  0.71455868788E+01  0.17770000000E+01 0.  1.
</event>
<event>
 6    1  0.1697564E-002  0.1831661E+03  0.7546771E-02  0.1067926E+00
        -11   -1    0    0    0    0  0.00000000000E+00  0.00000000000E+00  0.18250000000E+03  0.18250000000E+03  0.00000000000E+00 0. -1.
         11   -1    0    0    0    0 -0.00000000000E+00 -0.00000000000E+00 -0.18250000000E+03  0.18250000000E+03  0.00000000000E+00 0.  1.
        -11    1    1    2    0    0 -0.47540711310E+01 -0.28370203681E+01  0.18174958313E+03  0.18183388256E+03  0.00000000000E+00 0. -1.
         11    1    1    2    0    0 -0.23401967406E+01  0.15678999099E+01 -0.12296494019E+03  0.12299720057E+03  0.00000000000E+00 0.  1.
        -15    1    1    2    0    0  0.68918907153E+01  0.19150818971E+01 -0.19629247374E+02  0.20967374127E+02  0.17770000000E+01 0. -1.
         15    1    1    2    0    0  0.20237715627E+00 -0.64596143896E+00 -0.39155395566E+02  0.39201542746E+02  0.17770000000E+01 0. -1.
</event>
<event>
 6    1  0.1697564E-002  0.1766744E+03  0.7546771E-02  0.1073189E+00
        -11   -1    0    0    0    0  0.00000000000E+00  0.00000000000E+00  0.18250000000E+03  0.18250000000E+03  0.00000000000E+00 0. -1.
         11   -1    0    0    0    0 -0.00000000000E+00 -0.00000000000E+00 -0.18250000000E+03  0.18250000000E+03  0.00000000000E+00 0. -1.
        -11    1    1    2    0    0  0.38739957695E+01 -0.89659958885E+00  0.17770177836E+02  0.18209639051E+02  0.00000000000E+00 0. -1.
         11    1    1    2    0    0 -0.10883581052E+02  0.31824616312E+02 -0.17539943795E+03  0.17859513255E+03  0.00000000000E+00 0. -1.
        -15    1    1    2    0    0 -0.68309757451E+01 -0.36775125042E+02  0.14020258360E+03  0.14511717414E+03  0.17770000000E+01 0. -1.
         15    1    1    2    0    0  0.13840561028E+02  0.58471083187E+01  0.17426676509E+02  0.23078054260E+02  0.17770000000E+01 0.  1.
</event>
<event>
 6    1  0.1697564E-002  0.1826273E+03  0.7546771E-02  0.1068354E+00
        -11   -1    0    0    0    0  0.00000000000E+00  0.00000000000E+00  0.18250000000E+03  0.18250000000E+03  0.00000000000E+00 0.  1.
         11   -1    0    0    0    0 -0.00000000000E+00 -0.00000000000E+00 -0.18250000000E+03  0.18250000000E+03  0.00000000000E+00 0.  1.
        -11    1    1    2    0    0 -0.15701091159E+01  0.57496352223E+00  0.12312588740E+03  0.12313724040E+03  0.00000000000E+00 0.  1.
         11    1    1    2    0    0  0.36032189413E+00  0.24687289488E+01 -0.18235562260E+03  0.18237268860E+03  0.00000000000E+00 0.  1.
        -15    1    1    2    0    0 -0.20357194469E+00 -0.20891722605E+01  0.41367869236E+02  0.41459189770E+02  0.17770000000E+01 0. -1.
         15    1    1    2    0    0  0.14133591664E+01 -0.95452021052E+00  0.17861865969E+02  0.18030881228E+02  0.17770000000E+01 0.  1.
</event>
<event>
 6    1  0.1697564E-002  0.1835475E+03  0.7546771E-02  0.1067624E+00
        -11   -1    0    0    0    0  0.00000000000E+00  0.00000000000E+00  0.18250000000E+03  0.18250000000E+03  0.00000000000E+00 0.  1.
         11   -1    0    0    0    0 -0.00000000000E+00 -0.00000000000E+00 -0.18250000000E+03  0.18250000000E+03  0.00000000000E+00 0.  1.
        -11    1    1    2    0    0 -0.57125902432E+01 -0.27919009951E+01  0.13506559390E+03  0.13521517317E+03  0.00000000000E+00 0.  1.
         11    1    1    2    0    0 -0.13415251210E+00 -0.29228095482E+01 -0.18142888405E+03  0.18145247526E+03  0.00000000000E+00 0.  1.
        -15    1    1    2    0    0  0.69407921728E+01  0.44623818854E+01  0.18176804722E+02  0.20040993163E+02  0.17770000000E+01 0.  1.
         15    1    1    2    0    0 -0.10940494175E+01  0.12523286579E+01  0.28186485419E+02  0.28291358406E+02  0.17770000000E+01 0. -1.
</event>
<event>
 6    1  0.1697564E-002  0.1859443E+03  0.7546771E-02  0.1065746E+00
        -11   -1    0    0    0    0  0.00000000000E+00  0.00000000000E+00  0.18250000000E+03  0.18250000000E+03  0.00000000000E+00 0.  1.
         11   -1    0    0    0    0 -0.00000000000E+00 -0.00000000000E+00 -0.18250000000E+03  0.18250000000E+03  0.00000000000E+00 0.  1.
        -11    1    1    2    0    0  0.27262749586E+01 -0.75184889182E+01  0.17887705129E+03  0.17905574475E+03  0.00000000000E+00 0.  1.
         11    1    1    2    0    0 -0.43369236325E+01 -0.63155725879E+00 -0.16038391331E+03  0.16044378274E+03  0.00000000000E+00 0.  1.
        -15    1    1    2    0    0 -0.57764144802E+01  0.69604744170E+00 -0.10700898985E+02  0.12309281635E+02  0.17770000000E+01 0. -1.
         15    1    1    2    0    0  0.73870631541E+01  0.74539987353E+01 -0.77922389904E+01  0.13191190874E+02  0.17770000000E+01 0. -1.
</event>
<event>
 6    1  0.1697564E-002  0.1828131E+03  0.7546771E-02  0.1068206E+00
        -11   -1    0    0    0    0  0.00000000000E+00  0.00000000000E+00  0.18250000000E+03  0.18250000000E+03  0.00000000000E+00 0.  1.
         11   -1    0    0    0    0 -0.00000000000E+00 -0.00000000000E+00 -0.18250000000E+03  0.18250000000E+03  0.00000000000E+00 0. -1.
        -11    1    1    2    0    0 -0.21690839538E+01 -0.25943754751E+01  0.18215553876E+03  0.18218692602E+03  0.00000000000E+00 0.  1.
         11    1    1    2    0    0  0.20593513927E+01  0.12698377168E+01 -0.16077909911E+03  0.16079730137E+03  0.00000000000E+00 0. -1.
        -15    1    1    2    0    0 -0.11515996536E+01  0.13142488014E+01 -0.61754964358E+01  0.66594231660E+01  0.17770000000E+01 0. -1.
         15    1    1    2    0    0  0.12613322147E+01  0.10288956873E-01 -0.15200943212E+02  0.15356349447E+02  0.17770000000E+01 0.  1.
</event>
<event>
 6    1  0.1697564E-002  0.1865333E+03  0.7546771E-02  0.1065289E+00
        -11   -1    0    0    0    0  0.00000000000E+00  0.00000000000E+00  0.18250000000E+03  0.18250000000E+03  0.00000000000E+00 0.  1.
         11   -1    0    0    0    0 -0.00000000000E+00 -0.00000000000E+00 -0.18250000000E+03  0.18250000000E+03  0.00000000000E+00 0. -1.
        -11    1    1    2    0    0  0.80696448719E+00  0.26480989231E+01  0.17844526268E+03  0.17846673469E+03  0.00000000000E+00 0.  1.
         11    1    1    2    0    0 -0.17420697029E+01  0.24269661426E+01 -0.17033000616E+03  0.17035620321E+03  0.00000000000E+00 0. -1.
        -15    1    1    2    0    0  0.50945868027E+01 -0.53134521862E+01 -0.85637068718E+00  0.76209375131E+01  0.17770000000E+01 0. -1.
         15    1    1    2    0    0 -0.41594815870E+01  0.23838712051E+00 -0.72588858280E+01  0.85561245874E+01  0.17770000000E+01 0.  1.
</event>
<event>
 6    1  0.1697564E-002  0.1832649E+03  0.7546771E-02  0.1067848E+00
        -11   -1    0    0    0    0  0.00000000000E+00  0.00000000000E+00  0.18250000000E+03  0.18250000000E+03  0.00000000000E+00 0.  1.
         11   -1    0    0    0    0 -0.00000000000E+00 -0.00000000000E+00 -0.18250000000E+03  0.18250000000E+03  0.00000000000E+00 0.  1.
        -11    1    1    2    0    0  0.55480540009E+01  0.22601057042E+01  0.71689692841E+02  0.71939565197E+02  0.00000000000E+00 0.  1.
         11    1    1    2    0    0 -0.30784852972E+01  0.65169170865E+01 -0.18159213536E+03  0.18173511192E+03  0.00000000000E+00 0.  1.
        -15    1    1    2    0    0 -0.58815787058E+01 -0.59844029297E+01  0.99716623760E+02  0.10008480819E+03  0.17770000000E+01 0.  1.
         15    1    1    2    0    0  0.34120100020E+01 -0.27926198610E+01  0.10185818757E+02  0.11240514699E+02  0.17770000000E+01 0. -1.
</event>
<event>
 6    1  0.1697564E-002  0.1922867E+03  0.7546771E-02  0.1060921E+00
        -11   -1    0    0    0    0  0.00000000000E+00  0.00000000000E+00  0.18250000000E+03  0.18250000000E+03  0.00000000000E+00 0.  1.
         11   -1    0    0    0    0 -0.00000000000E+00 -0.00000000000E+00 -0.18250000000E+03  0.18250000000E+03  0.00000000000E+00 0. -1.
        -11    1    1    2    0    0 -0.14673169561E+02 -0.30289545554E+01  0.17206226216E+03  0.17271334208E+03  0.00000000000E+00 0.  1.
         11    1    1    2    0    0 -0.13812232225E+01 -0.12767851948E+02 -0.14800631703E+03  0.14856243032E+03  0.00000000000E+00 0. -1.
        -15    1    1    2    0    0  0.17686067769E+02  0.20870886146E+02 -0.25996143341E+02  0.37780260444E+02  0.17770000000E+01 0. -1.
         15    1    1    2    0    0 -0.16316749850E+01 -0.50740796428E+01  0.19401982092E+01  0.59439671574E+01  0.17770000000E+01 0.  1.
</event>
<event>
 6    1  0.1697564E-002  0.1891067E+03  0.7546771E-02  0.1063314E+00
        -11   -1    0    0    0    0  0.00000000000E+00  0.00000000000E+00  0.18250000000E+03  0.18250000000E+03  0.00000000000E+00 0. -1.
         11   -1    0    0    0    0 -0.00000000000E+00 -0.00000000000E+00 -0.18250000000E+03  0.18250000000E+03  0.00000000000E+00 0.  1.
        -11    1    1    2    0    0 -0.37057850791E+01 -0.15263630504E+01  0.12125550999E+03  0.12132172654E+03  0.00000000000E+00 0. -1.
         11    1    1    2    0    0 -0.23240368313E+01 -0.13728744561E+01 -0.17587255438E+03  0.17589326683E+03  0.00000000000E+00 0.  1.
        -15    1    1    2    0    0 -0.97155952110E+01  0.19318244834E+01 -0.84157422821E+00  0.10099045119E+02  0.17770000000E+01 0. -1.
         15    1    1    2    0    0  0.15745417121E+02  0.96741302307E+00  0.55458618612E+02  0.57685961513E+02  0.17770000000E+01 0.  1.
</event>
<event>
 6    1  0.1697564E-002  0.1837491E+03  0.7546771E-02  0.1067465E+00
        -11   -1    0    0    0    0  0.00000000000E+00  0.00000000000E+00  0.18250000000E+03  0.18250000000E+03  0.00000000000E+00 0. -1.
         11   -1    0    0    0    0 -0.00000000000E+00 -0.00000000000E+00 -0.18250000000E+03  0.18250000000E+03  0.00000000000E+00 0.  1.
        -11    1    1    2    0    0  0.45119559073E+01  0.20286380891E+01  0.60830030656E+02  0.61030858983E+02  0.00000000000E+00 0. -1.
         11    1    1    2    0    0 -0.35796826354E+01  0.81641841522E+01 -0.18103150399E+03  0.18125085784E+03  0.00000000000E+00 0.  1.
        -15    1    1    2    0    0  0.68687488634E+01 -0.44909140068E+01  0.98950422200E+02  0.99306051186E+02  0.17770000000E+01 0. -1.
         15    1    1    2    0    0 -0.78010221353E+01 -0.57019082345E+01  0.21251051129E+02  0.23412231995E+02  0.17770000000E+01 0.  1.
</event>
<event>
 6    1  0.1697564E-002  0.1839821E+03  0.7546771E-02  0.1067281E+00
        -11   -1    0    0    0    0  0.00000000000E+00  0.00000000000E+00  0.18250000000E+03  0.18250000000E+03  0.00000000000E+00 0. -1.
         11   -1    0    0    0    0 -0.00000000000E+00 -0.00000000000E+00 -0.18250000000E+03  0.18250000000E+03  0.00000000000E+00 0. -1.
        -11    1    1    2    0    0 -0.60151822056E+01 -0.44237553562E+01  0.18086385333E+03  0.18101791478E+03  0.00000000000E+00 0. -1.
         11    1    1    2    0    0 -0.33407318757E+01  0.82355077593E+01 -0.11983236139E+03  0.12016147017E+03  0.00000000000E+00 0. -1.
        -15    1    1    2    0    0 -0.17703473382E+01 -0.23549242049E+01 -0.37837396178E+02  0.37993500447E+02  0.17770000000E+01 0. -1.
         15    1    1    2    0    0  0.11126261419E+02 -0.14568281982E+01 -0.23194095762E+02  0.25827114604E+02  0.17770000000E+01 0.  1.
</event>
<event>
 6    1  0.1697564E-002  0.1842995E+03  0.7546771E-02  0.1067031E+00
        -11   -1    0    0    0    0  0.00000000000E+00  0.00000000000E+00  0.18250000000E+03  0.18250000000E+03  0.00000000000E+00 0.  1.
         11   -1    0    0    0    0 -0.00000000000E+00 -0.00000000000E+00 -0.18250000000E+03  0.18250000000E+03  0.00000000000E+00 0.  1.
        -11    1    1    2    0    0 -0.40418228618E+01 -0.64357157674E+00  0.18065418247E+03  0.18070053724E+03  0.00000000000E+00 0.  1.
         11    1    1    2    0    0 -0.48098404097E+00 -0.25150174954E+01 -0.17418087827E+03  0.17419969866E+03  0.00000000000E+00 0.  1.
        -15    1    1    2    0    0  0.26278570023E+01  0.10040195549E+01 -0.68164426179E+00  0.33964769380E+01  0.17770000000E+01 0. -1.
         15    1    1    2    0    0  0.18949499005E+01  0.21545695172E+01 -0.57916599318E+01  0.67032871560E+01  0.17770000000E+01 0.  1.
</event>
<event>
 6    1  0.1697564E-002  0.1838590E+03  0.7546771E-02  0.1067378E+00
        -11   -1    0    0    0    0  0.00000000000E+00  0.00000000000E+00  0.18250000000E+03  0.18250000000E+03  0.00000000000E+00 0. -1.
         11   -1    0    0    0    0 -0.00000000000E+00 -0.00000000000E+00 -0.18250000000E+03  0.18250000000E+03  0.00000000000E+00 0. -1.
        -11    1    1    2    0    0  0.13600960886E+00  0.49710774118E+01  0.18107268300E+03  0.18114095792E+03  0.00000000000E+00 0. -1.
         11    1    1    2    0    0  0.12077274105E+01 -0.37393540596E+01 -0.85931924217E+02  0.86021723849E+02  0.00000000000E+00 0. -1.
        -15    1    1    2    0    0  0.57238958577E+01  0.73808713543E+01 -0.24124584560E+02  0.25930552538E+02  0.17770000000E+01 0.  1.
         15    1    1    2    0    0 -0.70676328770E+01 -0.86125947066E+01 -0.71016174221E+02  0.71906765690E+02  0.17770000000E+01 0. -1.
</event>
<event>
 6    1  0.1697564E-002  0.1857279E+03  0.7546771E-02  0.1065914E+00
        -11   -1    0    0    0    0  0.00000000000E+00  0.00000000000E+00  0.18250000000E+03  0.18250000000E+03  0.00000000000E+00 0.  1.
         11   -1    0    0    0    0 -0.00000000000E+00 -0.00000000000E+00 -0.18250000000E+03  0.18250000000E+03  0.00000000000E+00 0. -1.
        -11    1    1    2    0    0  0.33911846863E+01 -0.14947621676E+02  0.17861562876E+03  0.17927206800E+03  0.00000000000E+00 0.  1.
         11    1    1    2    0    0  0.12553193856E+01 -0.17340312248E+01 -0.14558336267E+03  0.14559910088E+03  0.00000000000E+00 0. -1.
        -15    1    1    2    0    0 -0.56613588492E+01  0.12219575443E+02 -0.32458609670E+02  0.35186475793E+02  0.17770000000E+01 0. -1.
         15    1    1    2    0    0  0.10148547773E+01  0.44620774574E+01 -0.57365642738E+00  0.49423553243E+01  0.17770000000E+01 0.  1.
</event>
<event>
 6    1  0.1697564E-002  0.1877229E+03  0.7546771E-02  0.1064372E+00
        -11   -1    0    0    0    0  0.00000000000E+00  0.00000000000E+00  0.18250000000E+03  0.18250000000E+03  0.00000000000E+00 0. -1.
         11   -1    0    0    0    0 -0.00000000000E+00 -0.00000000000E+00 -0.18250000000E+03  0.18250000000E+03  0.00000000000E+00 0. -1.
        -11    1    1    2    0    0  0.13172636114E+02 -0.32512985685E+01  0.16156850792E+03  0.16213720127E+03  0.00000000000E+00 0. -1.
         11    1    1    2    0    0  0.10931282826E+01  0.29837574119E+01 -0.17724858729E+03  0.17727706968E+03  0.00000000000E+00 0. -1.
        -15    1    1    2    0    0  0.25295074718E+01  0.71532024085E+00  0.14161448566E+01  0.34746634875E+01  0.17770000000E+01 0.  1.
         15    1    1    2    0    0 -0.16795271869E+02 -0.44777908431E+00  0.14263934515E+02  0.22111065558E+02  0.17770000000E+01 0. -1.
</event>
<event>
 6    1  0.1697564E-002  0.1776555E+03  0.7546771E-02  0.1072378E+00
        -11   -1    0    0    0    0  0.00000000000E+00  0.00000000000E+00  0.18250000000E+03  0.18250000000E+03  0.00000000000E+00 0.  1.
         11   -1    0    0    0    0 -0.00000000000E+00 -0.00000000000E+00 -0.18250000000E+03  0.18250000000E+03  0.00000000000E+00 0.  1.
        -11    1    1    2    0    0 -0.23707042989E+01 -0.12229185972E+01  0.17683061096E+03  0.17685073012E+03  0.00000000000E+00 0.  1.
         11    1    1    2    0    0 -0.39437760243E+01  0.94346582603E+00 -0.17847430093E+03  0.17852036183E+03  0.00000000000E+00 0.  1.
        -15    1    1    2    0    0  0.50506904828E+01  0.19348521153E+00 -0.17133035600E+01  0.56249487970E+01  0.17770000000E+01 0. -1.
         15    1    1    2    0    0  0.12637898404E+01  0.85967559651E-01  0.33569935244E+01  0.40039592537E+01  0.17770000000E+01 0.  1.
</event>
<event>
 6    1  0.1697564E-002  0.1830210E+03  0.7546771E-02  0.1068041E+00
        -11   -1    0    0    0    0  0.00000000000E+00  0.00000000000E+00  0.18250000000E+03  0.18250000000E+03  0.00000000000E+00 0.  1.
         11   -1    0    0    0    0 -0.00000000000E+00 -0.00000000000E+00 -0.18250000000E+03  0.18250000000E+03  0.00000000000E+00 0.  1.
        -11    1    1    2    0    0 -0.27502008060E+01 -0.26944892891E+01  0.18193829857E+03  0.18197903276E+03  0.00000000000E+00 0.  1.
         11    1    1    2    0    0 -0.93613545256E+00 -0.22581889298E+01 -0.13169100117E+03  0.13171368781E+03  0.00000000000E+00 0.  1.
        -15    1    1    2    0    0  0.55426068491E+01  0.44541481926E+01 -0.29561802699E+02  0.30456819181E+02  0.17770000000E+01 0.  1.
         15    1    1    2    0    0 -0.18562705905E+01  0.49853002619E+00 -0.20685494697E+02  0.20850460248E+02  0.17770000000E+01 0. -1.
</event>
<event>
 6    1  0.1697564E-002  0.2154963E+03  0.7546771E-02  0.1044856E+00
        -11   -1    0    0    0    0  0.00000000000E+00  0.00000000000E+00  0.18250000000E+03  0.18250000000E+03  0.00000000000E+00 0. -1.
         11   -1    0    0    0    0 -0.00000000000E+00 -0.00000000000E+00 -0.18250000000E+03  0.18250000000E+03  0.00000000000E+00 0. -1.
        -11    1    1    2    0    0 -0.53545053912E+01 -0.14633764253E+02  0.13360657171E+03  0.13451220684E+03  0.00000000000E+00 0. -1.
         11    1    1    2    0    0 -0.23123452941E+01 -0.16629221976E+01 -0.14947655314E+03  0.14950368621E+03  0.00000000000E+00 0. -1.
        -15    1    1    2    0    0  0.67549216440E+01  0.52396856869E+01 -0.31299631516E+02  0.32494737029E+02  0.17770000000E+01 0.  1.
         15    1    1    2    0    0  0.91192904129E+00  0.11057000763E+02  0.47169612947E+02  0.48489369918E+02  0.17770000000E+01 0. -1.
</event>
<event>
 6    1  0.1697564E-002  0.1861901E+03  0.7546771E-02  0.1065555E+00
        -11   -1    0    0    0    0  0.00000000000E+00  0.00000000000E+00  0.18250000000E+03  0.18250000000E+03  0.00000000000E+00 0.  1.
         11   -1    0    0    0    0 -0.00000000000E+00 -0.00000000000E+00 -0.18250000000E+03  0.18250000000E+03  0.00000000000E+00 0.  1.
        -11    1    1    2    0    0 -0.27949389339E+01 -0.43109908784E+01  0.17873604865E+03  0.17880987504E+03  0.00000000000E+00 0.  1.
         11    1    1    2    0    0 -0.23171175375E+01  0.17030342768E+01 -0.17343540880E+03  0.17345924705E+03  0.00000000000E+00 0.  1.
        -15    1    1    2    0    0  0.14234193409E+01  0.52976428922E+01 -0.36637705026E+00  0.57778113483E+01  0.17770000000E+01 0.  1.
         15    1    1    2    0    0  0.36886371305E+01 -0.26896862906E+01 -0.49342627977E+01  0.69530665593E+01  0.17770000000E+01 0.  1.
</event>
<event>
 6    1  0.1997915E-002  0.1156610E+03  0.7546771E-02  0.1139191E+00
        -11   -1    0    0    0    0  0.00000000000E+00  0.00000000000E+00  0.18250000000E+03  0.18250000000E+03  0.00000000000E+00 0. -1.
         11   -1    0    0    0    0 -0.00000000000E+00 -0.00000000000E+00 -0.18250000000E+03  0.18250000000E+03  0.00000000000E+00 0.  1.
        -11    1    1    2    0    0 -0.13676640731E+02  0.10610339306E+01  0.13830299834E+03  0.13898163780E+03  0.00000000000E+00 0. -1.
         11    1    1    2    0    0 -0.86821696346E+01 -0.69733843418E+01 -0.81877005127E+02  0.82630818266E+02  0.00000000000E+00 0.  1.
        -15    1    1    2    0    0  0.49352107446E+00  0.15960053928E+02 -0.95838332341E+02  0.97175668556E+02  0.17770000000E+01 0.  1.
         15    1    1    2    0    0  0.21865289292E+02 -0.10047703517E+02  0.39412339128E+02  0.46211875382E+02  0.17770000000E+01 0. -1.
</event>
<event>
 6    1  0.1697564E-002  0.1826247E+03  0.7546771E-02  0.1068356E+00
        -11   -1    0    0    0    0  0.00000000000E+00  0.00000000000E+00  0.18250000000E+03  0.18250000000E+03  0.00000000000E+00 0.  1.
         11   -1    0    0    0    0 -0.00000000000E+00 -0.00000000000E+00 -0.18250000000E+03  0.18250000000E+03  0.00000000000E+00 0.  1.
        -11    1    1    2    0    0 -0.20761312113E+01  0.48712507735E+00  0.79200808299E+02  0.79229512474E+02  0.00000000000E+00 0.  1.
         11    1    1    2    0    0  0.13285961677E+00  0.30434181267E+01 -0.18234989558E+03  0.18237533951E+03  0.00000000000E+00 0.  1.
        -15    1    1    2    0    0  0.21217585246E+01  0.38944057994E-01  0.59372185738E+02  0.59436668347E+02  0.17770000000E+01 0. -1.
         15    1    1    2    0    0 -0.17848693008E+00 -0.35694872620E+01  0.43776901541E+02  0.43958479664E+02  0.17770000000E+01 0.  1.
</event>
<event>
 6    1  0.1697564E-002  0.1513240E+03  0.7546771E-02  0.1096394E+00
        -11   -1    0    0    0    0  0.00000000000E+00  0.00000000000E+00  0.18250000000E+03  0.18250000000E+03  0.00000000000E+00 0.  1.
         11   -1    0    0    0    0 -0.00000000000E+00 -0.00000000000E+00 -0.18250000000E+03  0.18250000000E+03  0.00000000000E+00 0. -1.
        -11    1    1    2    0    0 -0.74544355581E+01  0.11866544169E+02  0.16377758588E+03  0.16437603572E+03  0.00000000000E+00 0.  1.
         11    1    1    2    0    0 -0.26028883572E+02 -0.47997642979E+01 -0.13872663801E+03  0.14122896519E+03  0.00000000000E+00 0. -1.
        -15    1    1    2    0    0  0.20197574895E+02 -0.71369959435E+01  0.86161694823E+01  0.23157608864E+02  0.17770000000E+01 0. -1.
         15    1    1    2    0    0  0.13285744235E+02  0.70216072177E-01 -0.33667117360E+02  0.36237390227E+02  0.17770000000E+01 0.  1.
</event>
<event>
 6    1  0.1697564E-002  0.1844615E+03  0.7546771E-02  0.1066904E+00
        -11   -1    0    0    0    0  0.00000000000E+00  0.00000000000E+00  0.18250000000E+03  0.18250000000E+03  0.00000000000E+00 0. -1.
         11   -1    0    0    0    0 -0.00000000000E+00 -0.00000000000E+00 -0.18250000000E+03  0.18250000000E+03  0.00000000000E+00 0.  1.
        -11    1    1    2    0    0 -0.24962212145E+01 -0.59397038627E+00  0.17234765237E+03  0.17236675201E+03  0.00000000000E+00 0. -1.
         11    1    1    2    0    0  0.26973161497E+01 -0.11910831609E-01 -0.18051831517E+03  0.18053846617E+03  0.00000000000E+00 0.  1.
        -15    1    1    2    0    0  0.22974393031E+01  0.10757275833E+01  0.84311521321E+01  0.89820639310E+01  0.17770000000E+01 0. -1.
         15    1    1    2    0    0 -0.24985342383E+01 -0.46984636546E+00 -0.26048933888E+00  0.31127178868E+01  0.17770000000E+01 0. -1.
</event>
<event>
 6    1  0.1697564E-002  0.1828364E+03  0.7546771E-02  0.1068187E+00
        -11   -1    0    0    0    0  0.00000000000E+00  0.00000000000E+00  0.18250000000E+03  0.18250000000E+03  0.00000000000E+00 0.  1.
         11   -1    0    0    0    0 -0.00000000000E+00 -0.00000000000E+00 -0.18250000000E+03  0.18250000000E+03  0.00000000000E+00 0. -1.
        -11    1    1    2    0    0 -0.27700430131E+01 -0.90760979745E-01  0.18214253284E+03  0.18216361778E+03  0.00000000000E+00 0.  1.
         11    1    1    2    0    0 -0.12257729873E+01  0.24184722414E+01 -0.39621995552E+02  0.39714657986E+02  0.00000000000E+00 0. -1.
        -15    1    1    2    0    0  0.17135670225E+01 -0.29356063564E+01 -0.12677018358E+02  0.13244569456E+02  0.17770000000E+01 0.  1.
         15    1    1    2    0    0  0.22822489779E+01  0.60789509477E+00 -0.12984351893E+03  0.12987715478E+03  0.17770000000E+01 0. -1.
</event>
<event>
 6    1  0.1697564E-002  0.1908013E+03  0.7546771E-02  0.1062032E+00
        -11   -1    0    0    0    0  0.00000000000E+00  0.00000000000E+00  0.18250000000E+03  0.18250000000E+03  0.00000000000E+00 0. -1.
         11   -1    0    0    0    0 -0.00000000000E+00 -0.00000000000E+00 -0.18250000000E+03  0.18250000000E+03  0.00000000000E+00 0.  1.
        -11    1    1    2    0    0 -0.11317734582E+01 -0.42956165083E+01  0.17414202323E+03  0.17419867246E+03  0.00000000000E+00 0. -1.
         11    1    1    2    0    0 -0.12077494499E+01 -0.61024365704E+01 -0.16442098142E+03  0.16453862015E+03  0.00000000000E+00 0.  1.
        -15    1    1    2    0    0  0.30331732370E+01  0.34262023140E+01 -0.15970279534E+02  0.16707679659E+02  0.17770000000E+01 0.  1.
         15    1    1    2    0    0 -0.69365032882E+00  0.69718507646E+01  0.62492377247E+01  0.95550277343E+01  0.17770000000E+01 0. -1.
</event>
<event>
 6    1  0.1697564E-002  0.1852127E+03  0.7546771E-02  0.1066316E+00
        -11   -1    0    0    0    0  0.00000000000E+00  0.00000000000E+00  0.18250000000E+03  0.18250000000E+03  0.00000000000E+00 0.  1.
         11   -1    0    0    0    0 -0.00000000000E+00 -0.00000000000E+00 -0.18250000000E+03  0.18250000000E+03  0.00000000000E+00 0.  1.
        -11    1    1    2    0    0  0.61006424485E+01 -0.71650131711E+01  0.14208278926E+03  0.14239408083E+03  0.00000000000E+00 0.  1.
         11    1    1    2    0    0  0.34313785955E+01  0.21179665409E+00 -0.17975443648E+03  0.17978730948E+03  0.00000000000E+00 0.  1.
        -15    1    1    2    0    0 -0.13389607236E+02  0.46343832536E+01  0.20536406831E+02  0.25013213000E+02  0.17770000000E+01 0.  1.
         15    1    1    2    0    0  0.38575861916E+01  0.23188332634E+01  0.17135240386E+02  0.17805396682E+02  0.17770000000E+01 0.  1.
</event>
<event>
 6    1  0.1697564E-002  0.1842592E+03  0.7546771E-02  0.1067063E+00
        -11   -1    0    0    0    0  0.00000000000E+00  0.00000000000E+00  0.18250000000E+03  0.18250000000E+03  0.00000000000E+00 0.  1.
         11   -1    0    0    0    0 -0.00000000000E+00 -0.00000000000E+00 -0.18250000000E+03  0.18250000000E+03  0.00000000000E+00 0. -1.
        -11    1    1    2    0    0 -0.35447033830E+01 -0.14751526440E+01  0.16660013299E+03  0.16664436777E+03  0.00000000000E+00 0.  1.
         11    1    1    2    0    0 -0.16805388049E+01  0.47292027506E+01 -0.18067105826E+03  0.18074075595E+03  0.00000000000E+00 0. -1.
        -15    1    1    2    0    0 -0.15570763489E+01 -0.18114093482E+01  0.20180656979E+01  0.35966663376E+01  0.17770000000E+01 0.  1.
         15    1    1    2    0    0  0.67823185368E+01 -0.14426407584E+01  0.12052859576E+02  0.14018209945E+02  0.17770000000E+01 0. -1.
</event>
<event>
 6    1  0.1697564E-002  0.1748328E+03  0.7546771E-02  0.1074727E+00
        -11   -1    0    0    0    0  0.00000000000E+00  0.00000000000E+00  0.18250000000E+03  0.18250000000E+03  0.00000000000E+00 0. -1.
         11   -1    0    0    0    0 -0.00000000000E+00 -0.00000000000E+00 -0.18250000000E+03  0.18250000000E+03  0.00000000000E+00 0. -1.
        -11    1    1    2    0    0  0.36819014201E+01 -0.63560199744E+00  0.17483162638E+03  0.17487154706E+03  0.00000000000E+00 0. -1.
         11    1    1    2    0    0  0.49194675899E+01 -0.12675181916E+01 -0.17483123946E+03  0.17490503153E+03  0.00000000000E+00 0. -1.
        -15    1    1    2    0    0 -0.77461095943E+01  0.59299136710E+01  0.23071493884E+01  0.10180705147E+02  0.17770000000E+01 0.  1.
         15    1    1    2    0    0 -0.85525941577E+00 -0.40267934820E+01 -0.23075363103E+01  0.50427162559E+01  0.17770000000E+01 0. -1.
</event>
<event>
 6    1  0.1697564E-002  0.1850887E+03  0.7546771E-02  0.1066413E+00
        -11   -1    0    0    0    0  0.00000000000E+00  0.00000000000E+00  0.18250000000E+03  0.18250000000E+03  0.00000000000E+00 0. -1.
         11   -1    0    0    0    0 -0.00000000000E+00 -0.00000000000E+00 -0.18250000000E+03  0.18250000000E+03  0.00000000000E+00 0.  1.
        -11    1    1    2    0    0  0.21308390024E+01  0.12744400506E+01  0.15499266661E+03  0.15501255231E+03  0.00000000000E+00 0. -1.
         11    1    1    2    0    0 -0.25512650794E+01  0.23238256989E+01 -0.17987821490E+03  0.17991131514E+03  0.00000000000E+00 0.  1.
        -15    1    1    2    0    0 -0.10493711532E+01 -0.24243164276E+01  0.26716915819E+02  0.26905943764E+02  0.17770000000E+01 0. -1.
         15    1    1    2    0    0  0.14697972302E+01 -0.11739493219E+01 -0.18313675261E+01  0.31701887836E+01  0.17770000000E+01 0. -1.
</event>
<event>
 6    1  0.1697564E-002  0.1849250E+03  0.7546771E-02  0.1066541E+00
        -11   -1    0    0    0    0  0.00000000000E+00  0.00000000000E+00  0.18250000000E+03  0.18250000000E+03  0.00000000000E+00 0. -1.
         11   -1    0    0    0    0 -0.00000000000E+00 -0.00000000000E+00 -0.18250000000E+03  0.18250000000E+03  0.00000000000E+00 0.  1.
        -11    1    1    2    0    0  0.99542440157E+00  0.20130506642E+00  0.64738898329E+02  0.64746863633E+02  0.00000000000E+00 0. -1.
         11    1    1    2    0    0 -0.85673945017E+01 -0.46544401178E+01 -0.17981086906E+03  0.18007501963E+03  0.00000000000E+00 0.  1.
        -15    1    1    2    0    0  0.54953547859E+01 -0.19104218892E+01  0.11269029113E+03  0.11285436669E+03  0.17770000000E+01 0.  1.
         15    1    1    2    0    0  0.20766153143E+01  0.63635569406E+01  0.23816795976E+01  0.73237500507E+01  0.17770000000E+01 0. -1.
</event>
<event>
 6    1  0.1697564E-002  0.9468320E+02  0.7546771E-02  0.1173346E+00
        -11   -1    0    0    0    0  0.00000000000E+00  0.00000000000E+00  0.18250000000E+03  0.18250000000E+03  0.00000000000E+00 0.  1.
         11   -1    0    0    0    0 -0.00000000000E+00 -0.00000000000E+00 -0.18250000000E+03  0.18250000000E+03  0.00000000000E+00 0. -1.
        -11    1    1    2    0    0  0.82939522379E+01 -0.53119330149E+02  0.66783177585E+02  0.85734740260E+02  0.00000000000E+00 0.  1.
         11    1    1    2    0    0 -0.55369467720E+00 -0.24744887672E+01 -0.81190827187E+02  0.81230413589E+02  0.00000000000E+00 0. -1.
        -15    1    1    2    0    0 -0.15662508130E+02  0.38022447996E+02  0.10112639708E+03  0.10918208016E+03  0.17770000000E+01 0.  1.
         15    1    1    2    0    0  0.79222505692E+01  0.17571370920E+02 -0.86718747481E+02  0.88852765988E+02  0.17770000000E+01 0. -1.
</event>
<event>
 6    1  0.1697564E-002  0.1826686E+03  0.7546771E-02  0.1068321E+00
        -11   -1    0    0    0    0  0.00000000000E+00  0.00000000000E+00  0.18250000000E+03  0.18250000000E+03  0.00000000000E+00 0.  1.
         11   -1    0    0    0    0 -0.00000000000E+00 -0.00000000000E+00 -0.18250000000E+03  0.18250000000E+03  0.00000000000E+00 0.  1.
        -11    1    1    2    0    0  0.18040520997E+01  0.80666417178E+00  0.93141584719E+02  0.93162546739E+02  0.00000000000E+00 0.  1.
         11    1    1    2    0    0  0.21621387166E+01 -0.22432797495E+01 -0.18230475964E+03  0.18233138111E+03  0.00000000000E+00 0.  1.
        -15    1    1    2    0    0 -0.61957570449E+00 -0.11070818773E+01  0.54504637968E+02  0.54548352802E+02  0.17770000000E+01 0.  1.
         15    1    1    2    0    0 -0.33466151117E+01  0.25436974551E+01  0.34658536956E+02  0.34957719353E+02  0.17770000000E+01 0. -1.
</event>
<event>
 6    1  0.1697564E-002  0.1827418E+03  0.7546771E-02  0.1068263E+00
        -11   -1    0    0    0    0  0.00000000000E+00  0.00000000000E+00  0.18250000000E+03  0.18250000000E+03  0.00000000000E+00 0.  1.
         11   -1    0    0    0    0 -0.00000000000E+00 -0.00000000000E+00 -0.18250000000E+03  0.18250000000E+03  0.00000000000E+00 0.  1.
        -11    1    1    2    0    0  0.68250806949E+00  0.20319253774E+00  0.26937642687E+02  0.26947053606E+02  0.00000000000E+00 0.  1.
         11    1    1    2    0    0  0.30461973905E+01 -0.17046192745E+01 -0.18222478233E+03  0.18225821337E+03  0.00000000000E+00 0.  1.
        -15    1    1    2    0    0 -0.79104167643E+00  0.60424602390E-01  0.14150781054E+03  0.14152119124E+03  0.17770000000E+01 0.  1.
         15    1    1    2    0    0 -0.29376637836E+01  0.14410021344E+01  0.13779329099E+02  0.14273541784E+02  0.17770000000E+01 0. -1.
</event>
<event>
 6    1  0.1697564E-002  0.1528447E+03  0.7546771E-02  0.1094865E+00
        -11   -1    0    0    0    0  0.00000000000E+00  0.00000000000E+00  0.18250000000E+03  0.18250000000E+03  0.00000000000E+00 0.  1.
         11   -1    0    0    0    0 -0.00000000000E+00 -0.00000000000E+00 -0.18250000000E+03  0.18250000000E+03  0.00000000000E+00 0.  1.
        -11    1    1    2    0    0  0.19860727782E+01 -0.67186958797E+00  0.29184433552E+02  0.29259648931E+02  0.00000000000E+00 0.  1.
         11    1    1    2    0    0 -0.78123843015E+01 -0.35697687748E+01 -0.16415816215E+03  0.16438272049E+03  0.00000000000E+00 0.  1.
        -15    1    1    2    0    0 -0.20007602286E+02 -0.34835259352E+01  0.14198428004E+03  0.14344034513E+03  0.17770000000E+01 0.  1.
         15    1    1    2    0    0  0.25833913809E+02  0.77251642980E+01 -0.70105514494E+01  0.27917285448E+02  0.17770000000E+01 0. -1.
</event>
<event>
 6    1  0.1697564E-002  0.1362758E+03  0.7546771E-02  0.1112677E+00
        -11   -1    0    0    0    0  0.00000000000E+00  0.00000000000E+00  0.18250000000E+03  0.18250000000E+03  0.00000000000E+00 0.  1.
         11   -1    0    0    0    0 -0.00000000000E+00 -0.00000000000E+00 -0.18250000000E+03  0.18250000000E+03  0.00000000000E+00 0.  1.
        -11    1    1    2    0    0  0.69231764531E+00 -0.18642727924E+01  0.14471107580E+03  0.14472473968E+03  0.00000000000E+00 0.  1.
         11    1    1    2    0    0  0.40716234861E+01 -0.99082816882E+00 -0.50951033404E+02  0.51123063907E+02  0.00000000000E+00 0.  1.
        -15    1    1    2    0    0  0.49991664371E+01  0.20562101050E+02  0.33838151681E+02  0.39949592024E+02  0.17770000000E+01 0.  1.
         15    1    1    2    0    0 -0.97631075686E+01 -0.17707000089E+02 -0.12759819407E+03  0.12920260439E+03  0.17770000000E+01 0. -1.
</event>
<event>
 6    1  0.1697564E-002  0.1840570E+03  0.7546771E-02  0.1067222E+00
        -11   -1    0    0    0    0  0.00000000000E+00  0.00000000000E+00  0.18250000000E+03  0.18250000000E+03  0.00000000000E+00 0. -1.
         11   -1    0    0    0    0 -0.00000000000E+00 -0.00000000000E+00 -0.18250000000E+03  0.18250000000E+03  0.00000000000E+00 0. -1.
        -11    1    1    2    0    0  0.70195931594E+00  0.35702643133E+01  0.18090644431E+03  0.18094303282E+03  0.00000000000E+00 0. -1.
         11    1    1    2    0    0 -0.23828591203E+01 -0.77421086844E+00 -0.15617944103E+03  0.15619953655E+03  0.00000000000E+00 0. -1.
        -15    1    1    2    0    0 -0.18954733723E+01 -0.12732569993E+01 -0.13473873894E+00  0.28965300308E+01  0.17770000000E+01 0. -1.
         15    1    1    2    0    0  0.35763731767E+01 -0.15227964456E+01 -0.24592264542E+02  0.24960900593E+02  0.17770000000E+01 0.  1.
</event>
<event>
 6    1  0.1697564E-002  0.1760231E+03  0.7546771E-02  0.1073731E+00
        -11   -1    0    0    0    0  0.00000000000E+00  0.00000000000E+00  0.18250000000E+03  0.18250000000E+03  0.00000000000E+00 0. -1.
         11   -1    0    0    0    0 -0.00000000000E+00 -0.00000000000E+00 -0.18250000000E+03  0.18250000000E+03  0.00000000000E+00 0. -1.
        -11    1    1    2    0    0  0.24962345026E+01 -0.28231313530E+00  0.17724550993E+03  0.17726331171E+03  0.00000000000E+00 0. -1.
         11    1    1    2    0    0  0.34727948880E+00  0.34247027708E+01 -0.17478308073E+03  0.17481697430E+03  0.00000000000E+00 0. -1.
        -15    1    1    2    0    0 -0.22618577648E+01 -0.20177322099E+01  0.44506979875E+01  0.56704219768E+01  0.17770000000E+01 0.  1.
         15    1    1    2    0    0 -0.58165622657E+00 -0.11246574256E+01 -0.69131271834E+01  0.72492920168E+01  0.17770000000E+01 0.  1.
</event>
<event>
 6    1  0.1697564E-002  0.1885662E+03  0.7546771E-02  0.1063726E+00
        -11   -1    0    0    0    0  0.00000000000E+00  0.00000000000E+00  0.18250000000E+03  0.18250000000E+03  0.00000000000E+00 0. -1.
         11   -1    0    0    0    0 -0.00000000000E+00 -0.00000000000E+00 -0.18250000000E+03  0.18250000000E+03  0.00000000000E+00 0.  1.
        -11    1    1    2    0    0  0.86763165563E+01 -0.58162090216E+00  0.17621934095E+03  0.17643376343E+03  0.00000000000E+00 0. -1.
         11    1    1    2    0    0  0.42502610218E+01 -0.18746064407E+01 -0.16327895490E+03  0.16334502130E+03  0.00000000000E+00 0.  1.
        -15    1    1    2    0    0  0.31238681664E+01  0.27923631045E+01 -0.42592472221E-01  0.45514159497E+01  0.17770000000E+01 0.  1.
         15    1    1    2    0    0 -0.16050445744E+02 -0.33613576166E+00 -0.12897793578E+02  0.20669799323E+02  0.17770000000E+01 0. -1.
</event>
<event>
 6    1  0.1697564E-002  0.1864787E+03  0.7546771E-02  0.1065331E+00
        -11   -1    0    0    0    0  0.00000000000E+00  0.00000000000E+00  0.18250000000E+03  0.18250000000E+03  0.00000000000E+00 0.  1.
         11   -1    0    0    0    0 -0.00000000000E+00 -0.00000000000E+00 -0.18250000000E+03  0.18250000000E+03  0.00000000000E+00 0.  1.
        -11    1    1    2    0    0 -0.29360331256E+02 -0.15784760986E+02  0.17538148523E+03  0.17852129591E+03  0.00000000000E+00 0.  1.
         11    1    1    2    0    0  0.67127910462E+01 -0.91701514648E+01 -0.75744595460E+02  0.76592408128E+02  0.00000000000E+00 0.  1.
        -15    1    1    2    0    0  0.53192557987E+01  0.25502984728E+02 -0.77068870632E+02  0.81372386359E+02  0.17770000000E+01 0.  1.
         15    1    1    2    0    0  0.17328284411E+02 -0.54807227661E+00 -0.22568019141E+02  0.28513909602E+02  0.17770000000E+01 0. -1.
</event>
<event>
 6    1  0.1697564E-002  0.1832335E+03  0.7546771E-02  0.1067872E+00
        -11   -1    0    0    0    0  0.00000000000E+00  0.00000000000E+00  0.18250000000E+03  0.18250000000E+03  0.00000000000E+00 0.  1.
         11   -1    0    0    0    0 -0.00000000000E+00 -0.00000000000E+00 -0.18250000000E+03  0.18250000000E+03  0.00000000000E+00 0.  1.
        -11    1    1    2    0    0 -0.39736734563E+01  0.28098147818E+01  0.18170132368E+03  0.18176648802E+03  0.00000000000E+00 0.  1.
         11    1    1    2    0    0 -0.40731942069E+01 -0.79812242098E+01 -0.11383023506E+03  0.11418236845E+03  0.00000000000E+00 0.  1.
        -15    1    1    2    0    0  0.24637254616E+01 -0.20438457657E+00 -0.66257973680E+01  0.72918197980E+01  0.17770000000E+01 0.  1.
         15    1    1    2    0    0  0.55831422016E+01  0.53757940046E+01 -0.61245291257E+02  0.61759323735E+02  0.17770000000E+01 0. -1.
</event>
<event>
 6    1  0.1697564E-002  0.1840008E+03  0.7546771E-02  0.1067266E+00
        -11   -1    0    0    0    0  0.00000000000E+00  0.00000000000E+00  0.18250000000E+03  0.18250000000E+03  0.00000000000E+00 0. -1.
         11   -1    0    0    0    0 -0.00000000000E+00 -0.00000000000E+00 -0.18250000000E+03  0.18250000000E+03  0.00000000000E+00 0. -1.
        -11    1    1    2    0    0 -0.29948416497E+01 -0.16530824716E+01  0.16358699644E+03  0.16362275870E+03  0.00000000000E+00 0. -1.
         11    1    1    2    0    0 -0.36915134275E+01 -0.20355802692E+01 -0.18095012914E+03  0.18099922678E+03  0.00000000000E+00 0. -1.
        -15    1    1    2    0    0  0.44178240141E+01  0.38990016068E+01  0.16078200869E+02  0.17215854749E+02  0.17770000000E+01 0. -1.
         15    1    1    2    0    0  0.22685310630E+01 -0.21033886600E+00  0.12849318304E+01  0.31621597732E+01  0.17770000000E+01 0.  1.
</event>
<event>
 6    1  0.1697564E-002  0.1831264E+03  0.7546771E-02  0.1067957E+00
        -11   -1    0    0    0    0  0.00000000000E+00  0.00000000000E+00  0.18250000000E+03  0.18250000000E+03  0.00000000000E+00 0.  1.
         11   -1    0    0    0    0 -0.00000000000E+00 -0.00000000000E+00 -0.18250000000E+03  0.18250000000E+03  0.00000000000E+00 0.  1.
        -11    1    1    2    0    0  0.28543988758E+01 -0.20245563643E+01  0.16162048802E+03  0.16165836993E+03  0.00000000000E+00 0.  1.
         11    1    1    2    0    0 -0.23266215767E+01 -0.17318083256E+01 -0.18185042996E+03  0.18187355829E+03  0.00000000000E+00 0.  1.
        -15    1    1    2    0    0  0.26372773803E-01  0.25573258195E+01  0.39101385602E+01  0.49987521873E+01  0.17770000000E+01 0. -1.
         15    1    1    2    0    0 -0.55415007283E+00  0.11990388703E+01  0.16319803382E+02  0.16469319596E+02  0.17770000000E+01 0.  1.
</event>
<event>
 6    1  0.1697564E-002  0.1856394E+03  0.7546771E-02  0.1065983E+00
        -11   -1    0    0    0    0  0.00000000000E+00  0.00000000000E+00  0.18250000000E+03  0.18250000000E+03  0.00000000000E+00 0. -1.
         11   -1    0    0    0    0 -0.00000000000E+00 -0.00000000000E+00 -0.18250000000E+03  0.18250000000E+03  0.00000000000E+00 0. -1.
        -11    1    1    2    0    0 -0.13709571277E+01  0.18692342245E+01  0.17161987834E+03  0.17163553303E+03  0.00000000000E+00 0. -1.
         11    1    1    2    0    0 -0.31068677348E+00 -0.65545013426E+01 -0.17924048696E+03  0.17936055915E+03  0.00000000000E+00 0. -1.
        -15    1    1    2    0    0 -0.41209206711E+01  0.30252417886E+01  0.29146389582E+01  0.61471069874E+01  0.17770000000E+01 0. -1.
         15    1    1    2    0    0  0.58025645723E+01  0.16600253295E+01  0.47059696662E+01  0.78568008254E+01  0.17770000000E+01 0.  1.
</event>
<event>
 6    1  0.1697564E-002  0.1851821E+03  0.7546771E-02  0.1066340E+00
        -11   -1    0    0    0    0  0.00000000000E+00  0.00000000000E+00  0.18250000000E+03  0.18250000000E+03  0.00000000000E+00 0.  1.
         11   -1    0    0    0    0 -0.00000000000E+00 -0.00000000000E+00 -0.18250000000E+03  0.18250000000E+03  0.00000000000E+00 0.  1.
        -11    1    1    2    0    0  0.29078595635E+01  0.13155997565E+01  0.17978955454E+03  0.17981788113E+03  0.00000000000E+00 0.  1.
         11    1    1    2    0    0  0.28366053449E+00  0.29033866919E+01 -0.17027984509E+03  0.17030483188E+03  0.00000000000E+00 0.  1.
        -15    1    1    2    0    0 -0.14410962733E+01  0.64896315903E+00  0.13378916700E+01  0.27286617180E+01  0.17770000000E+01 0.  1.
         15    1    1    2    0    0 -0.17504238247E+01 -0.48679496074E+01 -0.10847601119E+02  0.12148625271E+02  0.17770000000E+01 0.  1.
</event>
<event>
 6    1  0.1697564E-002  0.1834385E+03  0.7546771E-02  0.1067710E+00
        -11   -1    0    0    0    0  0.00000000000E+00  0.00000000000E+00  0.18250000000E+03  0.18250000000E+03  0.00000000000E+00 0. -1.
         11   -1    0    0    0    0 -0.00000000000E+00 -0.00000000000E+00 -0.18250000000E+03  0.18250000000E+03  0.00000000000E+00 0.  1.
        -11    1    1    2    0    0 -0.65363221688E+01 -0.34526630157E+00  0.18144352164E+03  0.18156154401E+03  0.00000000000E+00 0. -1.
         11    1    1    2    0    0 -0.29283001922E+01 -0.93888248162E+00 -0.67362994422E+02  0.67433148079E+02  0.00000000000E+00 0.  1.
        -15    1    1    2    0    0  0.86382442119E+00 -0.40353017648E+01 -0.85815906214E+02  0.85933447163E+02  0.17770000000E+01 0. -1.
         15    1    1    2    0    0  0.86007979398E+01  0.53194505479E+01 -0.28264621006E+02  0.30071860750E+02  0.17770000000E+01 0. -1.
</event>
<event>
 6    1  0.1697564E-002  0.1875769E+03  0.7546771E-02  0.1064484E+00
        -11   -1    0    0    0    0  0.00000000000E+00  0.00000000000E+00  0.18250000000E+03  0.18250000000E+03  0.00000000000E+00 0. -1.
         11   -1    0    0    0    0 -0.00000000000E+00 -0.00000000000E+00 -0.18250000000E+03  0.18250000000E+03  0.00000000000E+00 0.  1.
        -11    1    1    2    0    0  0.12293083646E+02 -0.14349929126E+01  0.17699088985E+03  0.17742309376E+03  0.00000000000E+00 0. -1.
         11    1    1    2    0    0 -0.34224367810E+01 -0.30998673945E+01 -0.84204294320E+02  0.84330809515E+02  0.00000000000E+00 0.  1.
        -15    1    1    2    0    0  0.54214154762E+00 -0.91555843120E+01 -0.83712677356E+02  0.84232349609E+02  0.17770000000E+01 0.  1.
         15    1    1    2    0    0 -0.94127884126E+01  0.13690444619E+02 -0.90739181689E+01  0.19013747119E+02  0.17770000000E+01 0. -1.
</event>
<event>
 6    1  0.1697564E-002  0.1825763E+03  0.7546771E-02  0.1068394E+00
        -11   -1    0    0    0    0  0.00000000000E+00  0.00000000000E+00  0.18250000000E+03  0.18250000000E+03  0.00000000000E+00 0.  1.
         11   -1    0    0    0    0 -0.00000000000E+00 -0.00000000000E+00 -0.18250000000E+03  0.18250000000E+03  0.00000000000E+00 0. -1.
        -11    1    1    2    0    0 -0.70955771272E-01 -0.75198587440E+00  0.31121343398E+02  0.31130508064E+02  0.00000000000E+00 0.  1.
         11    1    1    2    0    0 -0.34341707900E+01  0.31442148879E+01 -0.18236430211E+03  0.18242373284E+03  0.00000000000E+00 0. -1.
        -15    1    1    2    0    0  0.54731707337E+00  0.56348305488E+00  0.14775700329E+02  0.14902889597E+02  0.17770000000E+01 0.  1.
         15    1    1    2    0    0  0.29578094879E+01 -0.29557120684E+01  0.13646725839E+03  0.13654286950E+03  0.17770000000E+01 0.  1.
</event>
<event>
 6    1  0.1697564E-002  0.1862528E+03  0.7546771E-02  0.1065506E+00
        -11   -1    0    0    0    0  0.00000000000E+00  0.00000000000E+00  0.18250000000E+03  0.18250000000E+03  0.00000000000E+00 0. -1.
         11   -1    0    0    0    0 -0.00000000000E+00 -0.00000000000E+00 -0.18250000000E+03  0.18250000000E+03  0.00000000000E+00 0. -1.
        -11    1    1    2    0    0 -0.81816306665E+01 -0.54835749887E+00  0.17855896531E+03  0.17874715066E+03  0.00000000000E+00 0. -1.
         11    1    1    2    0    0  0.34000559083E+01  0.19168182882E+00 -0.16772701148E+03  0.16776157934E+03  0.00000000000E+00 0. -1.
        -15    1    1    2    0    0 -0.29802854343E+01 -0.16639625344E+00 -0.98580659063E+01  0.10452223754E+02  0.17770000000E+01 0. -1.
         15    1    1    2    0    0  0.77618601926E+01  0.52307192349E+00 -0.97388791969E+00  0.80390462473E+01  0.17770000000E+01 0. -1.
</event>
<event>
 6    1  0.1697564E-002  0.1836115E+03  0.7546771E-02  0.1067573E+00
        -11   -1    0    0    0    0  0.00000000000E+00  0.00000000000E+00  0.18250000000E+03  0.18250000000E+03  0.00000000000E+00 0.  1.
         11   -1    0    0    0    0 -0.00000000000E+00 -0.00000000000E+00 -0.18250000000E+03  0.18250000000E+03  0.00000000000E+00 0.  1.
        -11    1    1    2    0    0  0.26886862973E+00  0.27941739461E+01  0.18136679186E+03  0.18138851366E+03  0.00000000000E+00 0.  1.
         11    1    1    2    0    0  0.28845927488E+01 -0.11098007502E+01 -0.17369644777E+03  0.17372394337E+03  0.00000000000E+00 0.  1.
        -15    1    1    2    0    0 -0.18624549878E+01  0.72397791376E+00 -0.50147778189E+01  0.56831864455E+01  0.17770000000E+01 0.  1.
         15    1    1    2    0    0 -0.12910063908E+01 -0.24083511096E+01 -0.26555662722E+01  0.42043565256E+01  0.17770000000E+01 0.  1.
</event>
<event>
 6    1  0.1697564E-002  0.1833651E+03  0.7546771E-02  0.1067768E+00
        -11   -1    0    0    0    0  0.00000000000E+00  0.00000000000E+00  0.18250000000E+03  0.18250000000E+03  0.00000000000E+00 0.  1.
         11   -1    0    0    0    0 -0.00000000000E+00 -0.00000000000E+00 -0.18250000000E+03  0.18250000000E+03  0.00000000000E+00 0. -1.
        -11    1    1    2    0    0 -0.21190834362E+01 -0.23786500592E+01  0.13744106414E+03  0.13747797861E+03  0.00000000000E+00 0.  1.
         11    1    1    2    0    0 -0.13433764635E+01  0.33300597729E+01 -0.18159938226E+03  0.18163487990E+03  0.00000000000E+00 0. -1.
        -15    1    1    2    0    0  0.13057817998E+01 -0.31219026387E+01  0.38544327355E+01  0.54282338662E+01  0.17770000000E+01 0.  1.
         15    1    1    2    0    0  0.21566781000E+01  0.21704929249E+01  0.40303885386E+02  0.40458907625E+02  0.17770000000E+01 0.  1.
</event>
<event>
 6    1  0.1697564E-002  0.1826710E+03  0.7546771E-02  0.1068319E+00
        -11   -1    0    0    0    0  0.00000000000E+00  0.00000000000E+00  0.18250000000E+03  0.18250000000E+03  0.00000000000E+00 0.  1.
         11   -1    0    0    0    0 -0.00000000000E+00 -0.00000000000E+00 -0.18250000000E+03  0.18250000000E+03  0.00000000000E+00 0. -1.
        -11    1    1    2    0    0 -0.12113220807E+01  0.10316788085E+01  0.69691433293E+02  0.69709594295E+02  0.00000000000E+00 0.  1.
         11    1    1    2    0    0 -0.23281895513E+01 -0.36481322475E+01 -0.18227763651E+03  0.18232900512E+03  0.00000000000E+00 0. -1.
        -15    1    1    2    0    0  0.30991822629E+00 -0.23796829266E+01  0.38195402917E+02  0.38311949482E+02  0.17770000000E+01 0.  1.
         15    1    1    2    0    0  0.32295934057E+01  0.49961363657E+01  0.74390800300E+02  0.74649451106E+02  0.17770000000E+01 0.  1.
</event>
<event>
 6    1  0.1697564E-002  0.1826822E+03  0.7546771E-02  0.1068310E+00
        -11   -1    0    0    0    0  0.00000000000E+00  0.00000000000E+00  0.18250000000E+03  0.18250000000E+03  0.00000000000E+00 0. -1.
         11   -1    0    0    0    0 -0.00000000000E+00 -0.00000000000E+00 -0.18250000000E+03  0.18250000000E+03  0.00000000000E+00 0.  1.
        -11    1    1    2    0    0 -0.34412632469E+01 -0.21342222833E+01  0.74949401214E+02  0.75058709953E+02  0.00000000000E+00 0. -1.
         11    1    1    2    0    0 -0.31024456274E+01  0.71028348823E+00 -0.18229003875E+03  0.18231782113E+03  0.00000000000E+00 0.  1.
        -15    1    1    2    0    0  0.39535999060E+01  0.11391975528E+01  0.73359909555E+02  0.73496685519E+02  0.17770000000E+01 0. -1.
         15    1    1    2    0    0  0.25901089684E+01  0.28474124225E+00  0.33980727984E+02  0.34126783402E+02  0.17770000000E+01 0. -1.
</event>
<event>
 6    1  0.1697564E-002  0.1831414E+03  0.7546771E-02  0.1067945E+00
        -11   -1    0    0    0    0  0.00000000000E+00  0.00000000000E+00  0.18250000000E+03  0.18250000000E+03  0.00000000000E+00 0. -1.
         11   -1    0    0    0    0 -0.00000000000E+00 -0.00000000000E+00 -0.18250000000E+03  0.18250000000E+03  0.00000000000E+00 0. -1.
        -11    1    1    2    0    0  0.64256450448E+01  0.64403425981E+01  0.18163089331E+03  0.18185859433E+03  0.00000000000E+00 0. -1.
         11    1    1    2    0    0 -0.19722566253E+01  0.12838537860E+01 -0.10057115885E+03  0.10059868821E+03  0.00000000000E+00 0. -1.
        -15    1    1    2    0    0  0.15331693272E+01 -0.16990116298E+01 -0.37079811971E+01  0.47057520400E+01  0.17770000000E+01 0. -1.
         15    1    1    2    0    0 -0.59865577466E+01 -0.60251847543E+01 -0.77351753260E+02  0.77836965423E+02  0.17770000000E+01 0. -1.
</event>
<event>
 6    1  0.1697564E-002  0.8380302E+02  0.7546771E-02  0.1195227E+00
        -11   -1    0    0    0    0  0.00000000000E+00  0.00000000000E+00  0.18250000000E+03  0.18250000000E+03  0.00000000000E+00 0.  1.
         11   -1    0    0    0    0 -0.00000000000E+00 -0.00000000000E+00 -0.18250000000E+03  0.18250000000E+03  0.00000000000E+00 0.  1.
        -11    1    1    2    0    0  0.33680827281E+01  0.89435493785E-01  0.88254403034E+02  0.88318693575E+02  0.00000000000E+00 0.  1.
         11    1    1    2    0    0 -0.21072310205E+02  0.30045901149E+02 -0.11878296208E+03  0.12432292835E+03  0.00000000000E+00 0.  1.
        -15    1    1    2    0    0  0.81539750339E+02 -0.19861765303E+02  0.10213512932E+02  0.84561777309E+02  0.17770000000E+01 0. -1.
         15    1    1    2    0    0 -0.63835522862E+02 -0.10273571340E+02  0.20315046117E+02  0.67796600762E+02  0.17770000000E+01 0.  1.
</event>
<event>
 6    1  0.1697564E-002  0.1831245E+03  0.7546771E-02  0.1067959E+00
        -11   -1    0    0    0    0  0.00000000000E+00  0.00000000000E+00  0.18250000000E+03  0.18250000000E+03  0.00000000000E+00 0. -1.
         11   -1    0    0    0    0 -0.00000000000E+00 -0.00000000000E+00 -0.18250000000E+03  0.18250000000E+03  0.00000000000E+00 0.  1.
        -11    1    1    2    0    0 -0.34488604179E+01 -0.10947516504E+01  0.18183954808E+03  0.18187554637E+03  0.00000000000E+00 0. -1.
         11    1    1    2    0    0  0.21542200992E+01  0.12365792287E+01 -0.16349320335E+03  0.16351207091E+03  0.00000000000E+00 0.  1.
        -15    1    1    2    0    0  0.28998072771E+01  0.64688033053E+00 -0.53405455223E+01  0.63644710606E+01  0.17770000000E+01 0. -1.
         15    1    1    2    0    0 -0.16051669584E+01 -0.78870790879E+00 -0.13005799212E+02  0.13247911657E+02  0.17770000000E+01 0. -1.
</event>
<event>
 6    1  0.1697564E-002  0.1850315E+03  0.7546771E-02  0.1066457E+00
        -11   -1    0    0    0    0  0.00000000000E+00  0.00000000000E+00  0.18250000000E+03  0.18250000000E+03  0.00000000000E+00 0. -1.
         11   -1    0    0    0    0 -0.00000000000E+00 -0.00000000000E+00 -0.18250000000E+03  0.18250000000E+03  0.00000000000E+00 0. -1.
        -11    1    1    2    0    0 -0.12254887306E+01  0.21288771712E+01  0.17995178533E+03  0.17996854999E+03  0.00000000000E+00 0. -1.
         11    1    1    2    0    0 -0.45675585324E+01 -0.43131600162E+01 -0.16350005907E+03  0.16362070547E+03  0.00000000000E+00 0. -1.
        -15    1    1    2    0    0  0.71708310356E+01 -0.29208809049E+01 -0.11330844959E+02  0.13838285280E+02  0.17770000000E+01 0. -1.
         15    1    1    2    0    0 -0.13777837727E+01  0.51051637499E+01 -0.51208813004E+01  0.75724592657E+01  0.17770000000E+01 0.  1.
</event>
<event>
 6    1  0.1697564E-002  0.1831224E+03  0.7546771E-02  0.1067960E+00
        -11   -1    0    0    0    0  0.00000000000E+00  0.00000000000E+00  0.18250000000E+03  0.18250000000E+03  0.00000000000E+00 0. -1.
         11   -1    0    0    0    0 -0.00000000000E+00 -0.00000000000E+00 -0.18250000000E+03  0.18250000000E+03  0.00000000000E+00 0. -1.
        -11    1    1    2    0    0 -0.65776853294E+01  0.23430466642E+01  0.11737688017E+03  0.11758438591E+03  0.00000000000E+00 0. -1.
         11    1    1    2    0    0  0.23459620540E+01 -0.10913096042E+01 -0.18185919680E+03  0.18187760158E+03  0.00000000000E+00 0. -1.
        -15    1    1    2    0    0  0.16982880299E+01 -0.94847693770E+00  0.60137687800E+02  0.60195373690E+02  0.17770000000E+01 0.  1.
         15    1    1    2    0    0  0.25334352455E+01 -0.30326012232E+00  0.43446288370E+01  0.53426388215E+01  0.17770000000E+01 0. -1.
</event>
<event>
 6    1  0.1697564E-002  0.1789426E+03  0.7546771E-02  0.1071322E+00
        -11   -1    0    0    0    0  0.00000000000E+00  0.00000000000E+00  0.18250000000E+03  0.18250000000E+03  0.00000000000E+00 0. -1.
         11   -1    0    0    0    0 -0.00000000000E+00 -0.00000000000E+00 -0.18250000000E+03  0.18250000000E+03  0.00000000000E+00 0. -1.
        -11    1    1    2    0    0  0.30830250192E+01  0.38257032119E+01  0.17777953928E+03  0.17784742235E+03  0.00000000000E+00 0. -1.
         11    1    1    2    0    0 -0.39566004512E+01  0.97502495615E+00 -0.18003193299E+03  0.18007804490E+03  0.00000000000E+00 0. -1.
        -15    1    1    2    0    0  0.60564404840E+00 -0.51410587611E+00  0.12688395460E+01  0.23235301502E+01  0.17770000000E+01 0. -1.
         15    1    1    2    0    0  0.26793138358E+00 -0.42866222920E+01  0.98355415597E+00  0.47510025972E+01  0.17770000000E+01 0.  1.
</event>
<event>
 6    1  0.1697564E-002  0.1648195E+03  0.7546771E-02  0.1083470E+00
        -11   -1    0    0    0    0  0.00000000000E+00  0.00000000000E+00  0.18250000000E+03  0.18250000000E+03  0.00000000000E+00 0.  1.
         11   -1    0    0    0    0 -0.00000000000E+00 -0.00000000000E+00 -0.18250000000E+03  0.18250000000E+03  0.00000000000E+00 0. -1.
        -11    1    1    2    0    0 -0.28943041086E+01  0.14482114076E+01  0.16221739163E+03  0.16224967322E+03  0.00000000000E+00 0.  1.
         11    1    1    2    0    0 -0.13392661789E+01  0.84403667638E+01 -0.16738738417E+03  0.16760539909E+03  0.00000000000E+00 0. -1.
        -15    1    1    2    0    0  0.91885937481E+00 -0.95384516668E+00  0.18516886914E+02  0.18649046977E+02  0.17770000000E+01 0.  1.
         15    1    1    2    0    0  0.33147109126E+01 -0.89347330047E+01 -0.13346894372E+02  0.16495880718E+02  0.17770000000E+01 0. -1.
</event>
<event>
 6    1  0.1697564E-002  0.1835102E+03  0.7546771E-02  0.1067654E+00
        -11   -1    0    0    0    0  0.00000000000E+00  0.00000000000E+00  0.18250000000E+03  0.18250000000E+03  0.00000000000E+00 0.  1.
         11   -1    0    0    0    0 -0.00000000000E+00 -0.00000000000E+00 -0.18250000000E+03  0.18250000000E+03  0.00000000000E+00 0.  1.
        -11    1    1    2    0    0 -0.44365801684E+01  0.34417421580E+01  0.97445491572E+02  0.97607134270E+02  0.00000000000E+00 0.  1.
         11    1    1    2    0    0  0.72405475701E+01  0.10268185944E+01 -0.18134244887E+03  0.18148984447E+03  0.00000000000E+00 0.  1.
        -15    1    1    2    0    0 -0.37036736982E+01 -0.92936252420E+00  0.37083489627E+01  0.56116392074E+01  0.17770000000E+01 0.  1.
         15    1    1    2    0    0  0.89970629654E+00 -0.35391982282E+01  0.80188608335E+02  0.80291382048E+02  0.17770000000E+01 0. -1.
</event>
<event>
 6    1  0.1697564E-002  0.1829223E+03  0.7546771E-02  0.1068119E+00
        -11   -1    0    0    0    0  0.00000000000E+00  0.00000000000E+00  0.18250000000E+03  0.18250000000E+03  0.00000000000E+00 0. -1.
         11   -1    0    0    0    0 -0.00000000000E+00 -0.00000000000E+00 -0.18250000000E+03  0.18250000000E+03  0.00000000000E+00 0. -1.
        -11    1    1    2    0    0 -0.21905726270E+01  0.20821163400E+01  0.18205258126E+03  0.18207766519E+03  0.00000000000E+00 0. -1.
         11    1    1    2    0    0 -0.21021431358E+01 -0.20283104017E+01 -0.13364602119E+03  0.13367794144E+03  0.00000000000E+00 0. -1.
        -15    1    1    2    0    0 -0.61715216520E+00 -0.23537933236E+00 -0.30728092913E+01  0.36105631369E+01  0.17770000000E+01 0. -1.
         15    1    1    2    0    0  0.49098679281E+01  0.18157339406E+00 -0.45333750784E+02  0.45633830226E+02  0.17770000000E+01 0.  1.
</event>
<event>
 6    1  0.1697564E-002  0.1828156E+03  0.7546771E-02  0.1068204E+00
        -11   -1    0    0    0    0  0.00000000000E+00  0.00000000000E+00  0.18250000000E+03  0.18250000000E+03  0.00000000000E+00 0. -1.
         11   -1    0    0    0    0 -0.00000000000E+00 -0.00000000000E+00 -0.18250000000E+03  0.18250000000E+03  0.00000000000E+00 0. -1.
        -11    1    1    2    0    0 -0.38251935200E+01 -0.55233571558E+01  0.18206043391E+03  0.18218436040E+03  0.00000000000E+00 0. -1.
         11    1    1    2    0    0 -0.18784468538E+01 -0.91128219301E+00 -0.47013037838E+02  0.47059374460E+02  0.00000000000E+00 0. -1.
        -15    1    1    2    0    0 -0.28817227134E+01  0.11791381043E+01 -0.40258545954E+02  0.40417854270E+02  0.17770000000E+01 0. -1.
         15    1    1    2    0    0  0.85853630871E+01  0.52555012445E+01 -0.94788850114E+02  0.95338410872E+02  0.17770000000E+01 0.  1.
</event>
<event>
 6    1  0.1697564E-002  0.1887113E+03  0.7546771E-02  0.1063615E+00
        -11   -1    0    0    0    0  0.00000000000E+00  0.00000000000E+00  0.18250000000E+03  0.18250000000E+03  0.00000000000E+00 0.  1.
         11   -1    0    0    0    0 -0.00000000000E+00 -0.00000000000E+00 -0.18250000000E+03  0.18250000000E+03  0.00000000000E+00 0. -1.
        -11    1    1    2    0    0  0.92695594212E+00 -0.56502613330E+01  0.17619565769E+03  0.17628866806E+03  0.00000000000E+00 0.  1.
         11    1    1    2    0    0 -0.22523201032E+00 -0.64517391145E+01 -0.16428777572E+03  0.16441456419E+03  0.00000000000E+00 0. -1.
        -15    1    1    2    0    0 -0.20936206705E+01  0.39996771001E+01 -0.14664068289E+02  0.15445817952E+02  0.17770000000E+01 0. -1.
         15    1    1    2    0    0  0.13918967387E+01  0.81023233474E+01  0.27561863254E+01  0.88509497918E+01  0.17770000000E+01 0.  1.
</event>
<event>
 6    1  0.1697564E-002  0.1830780E+03  0.7546771E-02  0.1067996E+00
        -11   -1    0    0    0    0  0.00000000000E+00  0.00000000000E+00  0.18250000000E+03  0.18250000000E+03  0.00000000000E+00 0. -1.
         11   -1    0    0    0    0 -0.00000000000E+00 -0.00000000000E+00 -0.18250000000E+03  0.18250000000E+03  0.00000000000E+00 0.  1.
        -11    1    1    2    0    0 -0.14183597223E+01 -0.16794111704E+01  0.59624842833E+02  0.59665350490E+02  0.00000000000E+00 0. -1.
         11    1    1    2    0    0  0.38419575380E+00 -0.60191746095E+01 -0.18182202225E+03  0.18192203232E+03  0.00000000000E+00 0.  1.
        -15    1    1    2    0    0  0.25450038015E+01 -0.21116046009E+01  0.77553290528E+02  0.77644101638E+02  0.17770000000E+01 0. -1.
         15    1    1    2    0    0 -0.15108398330E+01  0.98101903808E+01  0.44643888884E+02  0.45768515554E+02  0.17770000000E+01 0. -1.
</event>
<event>
 6    1  0.1697564E-002  0.1843756E+03  0.7546771E-02  0.1066972E+00
        -11   -1    0    0    0    0  0.00000000000E+00  0.00000000000E+00  0.18250000000E+03  0.18250000000E+03  0.00000000000E+00 0. -1.
         11   -1    0    0    0    0 -0.00000000000E+00 -0.00000000000E+00 -0.18250000000E+03  0.18250000000E+03  0.00000000000E+00 0.  1.
        -11    1    1    2    0    0  0.25255066129E+01  0.44465202067E+00  0.18060623916E+03  0.18062444331E+03  0.00000000000E+00 0. -1.
         11    1    1    2    0    0  0.16955515599E+01 -0.18093205479E+01 -0.11494560460E+03  0.11497234690E+03  0.00000000000E+00 0.  1.
        -15    1    1    2    0    0 -0.71056177377E+01 -0.23700030629E+01 -0.66363685472E+01  0.10163947779E+02  0.17770000000E+01 0.  1.
         15    1    1    2    0    0  0.28845595649E+01  0.37346715901E+01 -0.59024266012E+02  0.59239262006E+02  0.17770000000E+01 0. -1.
</event>
<event>
 6    1  0.1697564E-002  0.1832369E+03  0.7546771E-02  0.1067870E+00
        -11   -1    0    0    0    0  0.00000000000E+00  0.00000000000E+00  0.18250000000E+03  0.18250000000E+03  0.00000000000E+00 0.  1.
         11   -1    0    0    0    0 -0.00000000000E+00 -0.00000000000E+00 -0.18250000000E+03  0.18250000000E+03  0.00000000000E+00 0.  1.
        -11    1    1    2    0    0  0.12133761377E+01 -0.13289582318E+01  0.10411196599E+03  0.10412751737E+03  0.00000000000E+00 0.  1.
         11    1    1    2    0    0  0.34313204810E+01  0.11402374299E+02 -0.18137264706E+03  0.18176310187E+03  0.00000000000E+00 0.  1.
        -15    1    1    2    0    0  0.37665096358E+01 -0.61921763788E+00  0.20542027824E+02  0.20969088236E+02  0.17770000000E+01 0.  1.
         15    1    1    2    0    0 -0.84112062545E+01 -0.94541984290E+01  0.56718653250E+02  0.58140292518E+02  0.17770000000E+01 0.  1.
</event>
<event>
 6    1  0.1697564E-002  0.1885706E+03  0.7546771E-02  0.1063723E+00
        -11   -1    0    0    0    0  0.00000000000E+00  0.00000000000E+00  0.18250000000E+03  0.18250000000E+03  0.00000000000E+00 0.  1.
         11   -1    0    0    0    0 -0.00000000000E+00 -0.00000000000E+00 -0.18250000000E+03  0.18250000000E+03  0.00000000000E+00 0. -1.
        -11    1    1    2    0    0  0.24274127275E+01  0.26930251473E+01  0.17639210362E+03  0.17642935962E+03  0.00000000000E+00 0.  1.
         11    1    1    2    0    0  0.90204774892E+01 -0.41200453693E+01 -0.13629706673E+03  0.13665736053E+03  0.00000000000E+00 0. -1.
        -15    1    1    2    0    0  0.81407376577E+00  0.21006669095E+01 -0.39379937888E+02  0.39484335560E+02  0.17770000000E+01 0.  1.
         15    1    1    2    0    0 -0.12261963982E+02 -0.67364668756E+00 -0.71509899604E+00  0.12428944289E+02  0.17770000000E+01 0. -1.
</event>
<event>
 6    1  0.1697564E-002  0.1840437E+03  0.7546771E-02  0.1067233E+00
        -11   -1    0    0    0    0  0.00000000000E+00  0.00000000000E+00  0.18250000000E+03  0.18250000000E+03  0.00000000000E+00 0. -1.
         11   -1    0    0    0    0 -0.00000000000E+00 -0.00000000000E+00 -0.18250000000E+03  0.18250000000E+03  0.00000000000E+00 0. -1.
        -11    1    1    2    0    0  0.42859016536E+01  0.17767225016E+01  0.18089680233E+03  0.18095628972E+03  0.00000000000E+00 0. -1.
         11    1    1    2    0    0  0.54427369726E+01 -0.33485451749E+01 -0.35486484827E+02  0.36057270361E+02  0.00000000000E+00 0. -1.
        -15    1    1    2    0    0 -0.55516192582E+01  0.12322519471E+01 -0.58429524117E+01  0.83448632784E+01  0.17770000000E+01 0.  1.
         15    1    1    2    0    0 -0.41770193680E+01  0.33957072620E+00 -0.13956736509E+03  0.13964157664E+03  0.17770000000E+01 0. -1.
</event>
<event>
 6    1  0.1697564E-002  0.1050139E+03  0.7546771E-02  0.1155415E+00
        -11   -1    0    0    0    0  0.00000000000E+00  0.00000000000E+00  0.18250000000E+03  0.18250000000E+03  0.00000000000E+00 0. -1.
         11   -1    0    0    0    0 -0.00000000000E+00 -0.00000000000E+00 -0.18250000000E+03  0.18250000000E+03  0.00000000000E+00 0. -1.
        -11    1    1    2    0    0 -0.20620332521E+01 -0.34998283821E+01  0.97256505855E+02  0.97341300129E+02  0.00000000000E+00 0. -1.
         11    1    1    2    0    0 -0.33089022271E+01  0.11536114731E+01 -0.12967699724E+03  0.12972433568E+03  0.00000000000E+00 0. -1.
        -15    1    1    2    0    0  0.49212493806E+01  0.84729967181E+01  0.84690818449E+02  0.85274279987E+02  0.17770000000E+01 0.  1.
         15    1    1    2    0    0  0.44968609858E+00 -0.61267798092E+01 -0.52270327064E+02  0.52660084208E+02  0.17770000000E+01 0. -1.
</event>
<event>
 6    1  0.1697564E-002  0.1985848E+03  0.7546771E-02  0.1056327E+00
        -11   -1    0    0    0    0  0.00000000000E+00  0.00000000000E+00  0.18250000000E+03  0.18250000000E+03  0.00000000000E+00 0. -1.
         11   -1    0    0    0    0 -0.00000000000E+00 -0.00000000000E+00 -0.18250000000E+03  0.18250000000E+03  0.00000000000E+00 0. -1.
        -11    1    1    2    0    0 -0.31560531651E+01  0.35061697016E+01  0.16634835269E+03  0.16641522869E+03  0.00000000000E+00 0. -1.
         11    1    1    2    0    0  0.13228354279E+02 -0.53228814538E+01 -0.15845591448E+03  0.15909619498E+03  0.00000000000E+00 0. -1.
        -15    1    1    2    0    0 -0.12820622810E+02  0.25776655915E+01 -0.21634276701E+02  0.25341909685E+02  0.17770000000E+01 0. -1.
         15    1    1    2    0    0  0.27483216953E+01 -0.76095383928E+00  0.13741838491E+02  0.14146666639E+02  0.17770000000E+01 0.  1.
</event>
<event>
 6    1  0.1697564E-002  0.1826889E+03  0.7546771E-02  0.1068305E+00
        -11   -1    0    0    0    0  0.00000000000E+00  0.00000000000E+00  0.18250000000E+03  0.18250000000E+03  0.00000000000E+00 0.  1.
         11   -1    0    0    0    0 -0.00000000000E+00 -0.00000000000E+00 -0.18250000000E+03  0.18250000000E+03  0.00000000000E+00 0.  1.
        -11    1    1    2    0    0 -0.22974452434E+01 -0.23515994372E+01  0.12853450826E+03  0.12857654564E+03  0.00000000000E+00 0.  1.
         11    1    1    2    0    0  0.10099025115E+01  0.23516635801E+01 -0.18229312389E+03  0.18231108919E+03  0.00000000000E+00 0.  1.
        -15    1    1    2    0    0  0.22202180307E+01  0.18804280801E+01  0.27697483775E+02  0.27906517417E+02  0.17770000000E+01 0. -1.
         15    1    1    2    0    0 -0.93267529880E+00 -0.18804922230E+01  0.26061131852E+02  0.26205847756E+02  0.17770000000E+01 0.  1.
</event>
<event>
 6    1  0.1697564E-002  0.1873420E+03  0.7546771E-02  0.1064665E+00
        -11   -1    0    0    0    0  0.00000000000E+00  0.00000000000E+00  0.18250000000E+03  0.18250000000E+03  0.00000000000E+00 0. -1.
         11   -1    0    0    0    0 -0.00000000000E+00 -0.00000000000E+00 -0.18250000000E+03  0.18250000000E+03  0.00000000000E+00 0. -1.
        -11    1    1    2    0    0 -0.35979823086E+01 -0.50425351890E+01  0.17754997727E+03  0.17765800592E+03  0.00000000000E+00 0. -1.
         11    1    1    2    0    0 -0.18175359724E+01  0.99904584749E+01 -0.89458435087E+02  0.90032906794E+02  0.00000000000E+00 0. -1.
        -15    1    1    2    0    0 -0.12279524942E+01  0.53967251263E+01  0.21640446971E+01  0.62026871490E+01  0.17770000000E+01 0.  1.
         15    1    1    2    0    0  0.66434707753E+01 -0.10344648412E+02 -0.90255586879E+02  0.91106400141E+02  0.17770000000E+01 0. -1.
</event>
<event>
 6    1  0.1697564E-002  0.2006396E+03  0.7546771E-02  0.1054868E+00
        -11   -1    0    0    0    0  0.00000000000E+00  0.00000000000E+00  0.18250000000E+03  0.18250000000E+03  0.00000000000E+00 0. -1.
         11   -1    0    0    0    0 -0.00000000000E+00 -0.00000000000E+00 -0.18250000000E+03  0.18250000000E+03  0.00000000000E+00 0. -1.
        -11    1    1    2    0    0  0.10086100575E+01 -0.39536174253E+01  0.78629042671E+02  0.78734838136E+02  0.00000000000E+00 0. -1.
         11    1    1    2    0    0  0.26007959595E+02  0.44440666193E+02 -0.15608640911E+03  0.16436043892E+03  0.00000000000E+00 0. -1.
        -15    1    1    2    0    0 -0.12324313213E+02  0.20633195191E+02  0.27543848828E+01  0.24256170453E+02  0.17770000000E+01 0. -1.
         15    1    1    2    0    0 -0.14692256439E+02 -0.61120243959E+02  0.74702981556E+02  0.97648552489E+02  0.17770000000E+01 0.  1.
</event>
<event>
 6    1  0.1697564E-002  0.1831012E+03  0.7546771E-02  0.1067977E+00
        -11   -1    0    0    0    0  0.00000000000E+00  0.00000000000E+00  0.18250000000E+03  0.18250000000E+03  0.00000000000E+00 0. -1.
         11   -1    0    0    0    0 -0.00000000000E+00 -0.00000000000E+00 -0.18250000000E+03  0.18250000000E+03  0.00000000000E+00 0. -1.
        -11    1    1    2    0    0 -0.11976373355E+01 -0.87680183025E+00  0.56505147706E+02  0.56524639176E+02  0.00000000000E+00 0. -1.
         11    1    1    2    0    0  0.36027508060E+01 -0.56214468355E+00 -0.18186220388E+03  0.18189875487E+03  0.00000000000E+00 0. -1.
        -15    1    1    2    0    0 -0.76307234022E+01 -0.34332998383E+01  0.40098739871E+02  0.41001001886E+02  0.17770000000E+01 0.  1.
         15    1    1    2    0    0  0.52256099318E+01  0.48722463521E+01  0.85258316308E+02  0.85575604072E+02  0.17770000000E+01 0. -1.
</event>
<event>
 6    1  0.1697564E-002  0.1845840E+03  0.7546771E-02  0.1066808E+00
        -11   -1    0    0    0    0  0.00000000000E+00  0.00000000000E+00  0.18250000000E+03  0.18250000000E+03  0.00000000000E+00 0.  1.
         11   -1    0    0    0    0 -0.00000000000E+00 -0.00000000000E+00 -0.18250000000E+03  0.18250000000E+03  0.00000000000E+00 0.  1.
        -11    1    1    2    0    0 -0.21404185933E+01 -0.19230608667E+00  0.15391427756E+03  0.15392927990E+03  0.00000000000E+00 0.  1.
         11    1    1    2    0    0  0.59030837080E+01 -0.44995736438E+01 -0.18026327700E+03  0.18041602366E+03  0.00000000000E+00 0.  1.
        -15    1    1    2    0    0  0.20447646959E+01 -0.31605197515E+01  0.25833749751E+01  0.48991328848E+01  0.17770000000E+01 0.  1.
         15    1    1    2    0    0 -0.58074298106E+01  0.78523994820E+01  0.23765624465E+02  0.25755563551E+02  0.17770000000E+01 0. -1.
</event>
<event>
 6    1  0.1697564E-002  0.1853783E+03  0.7546771E-02  0.1066186E+00
        -11   -1    0    0    0    0  0.00000000000E+00  0.00000000000E+00  0.18250000000E+03  0.18250000000E+03  0.00000000000E+00 0.  1.
         11   -1    0    0    0    0 -0.00000000000E+00 -0.00000000000E+00 -0.18250000000E+03  0.18250000000E+03  0.00000000000E+00 0.  1.
        -11    1    1    2    0    0  0.40758596607E+01 -0.79980092332E+01  0.17939722229E+03  0.17962166949E+03  0.00000000000E+00 0.  1.
         11    1    1    2    0    0  0.16484030277E+01  0.14304174907E+01 -0.14773744255E+03  0.14775356259E+03  0.00000000000E+00 0.  1.
        -15    1    1    2    0    0 -0.62318499482E+01 -0.41411067860E+01 -0.21159063233E+02  0.22513293963E+02  0.17770000000E+01 0. -1.
         15    1    1    2    0    0  0.50758725972E+00  0.10708698529E+02 -0.10500716510E+02  0.15111473959E+02  0.17770000000E+01 0.  1.
</event>
<event>
 6    1  0.1697564E-002  0.1830423E+03  0.7546771E-02  0.1068024E+00
        -11   -1    0    0    0    0  0.00000000000E+00  0.00000000000E+00  0.18250000000E+03  0.18250000000E+03  0.00000000000E+00 0.  1.
         11   -1    0    0    0    0 -0.00000000000E+00 -0.00000000000E+00 -0.18250000000E+03  0.18250000000E+03  0.00000000000E+00 0. -1.
        -11    1    1    2    0    0  0.16969084029E+01 -0.24111776484E+01  0.12556978464E+03  0.12560439518E+03  0.00000000000E+00 0.  1.
         11    1    1    2    0    0 -0.56470653929E+01  0.13655266165E+01 -0.18186495070E+03  0.18195772670E+03  0.00000000000E+00 0. -1.
        -15    1    1    2    0    0  0.45318101366E+01  0.15065902278E+01  0.11234478063E+02  0.12336058672E+02  0.17770000000E+01 0. -1.
         15    1    1    2    0    0 -0.58165314661E+00 -0.46093919585E+00  0.45060688002E+02  0.45101819448E+02  0.17770000000E+01 0.  1.
</event>
<event>
 6    1  0.1697564E-002  0.1894579E+03  0.7546771E-02  0.1063047E+00
        -11   -1    0    0    0    0  0.00000000000E+00  0.00000000000E+00  0.18250000000E+03  0.18250000000E+03  0.00000000000E+00 0.  1.
         11   -1    0    0    0    0 -0.00000000000E+00 -0.00000000000E+00 -0.18250000000E+03  0.18250000000E+03  0.00000000000E+00 0.  1.
        -11    1    1    2    0    0 -0.19310054290E+01 -0.64719136837E+01  0.14271501913E+03  0.14287473931E+03  0.00000000000E+00 0.  1.
         11    1    1    2    0    0  0.58914666638E+01  0.54089906085E+01 -0.17535977146E+03  0.17554206335E+03  0.00000000000E+00 0.  1.
        -15    1    1    2    0    0  0.41440301676E+01  0.55852659694E+01  0.35883274280E+02  0.36594197409E+02  0.17770000000E+01 0.  1.
         15    1    1    2    0    0 -0.81044914024E+01 -0.45223428942E+01 -0.32385219506E+01  0.99889999284E+01  0.17770000000E+01 0. -1.
</event>
<event>
 6    1  0.1697564E-002  0.1886168E+03  0.7546771E-02  0.1063687E+00
        -11   -1    0    0    0    0  0.00000000000E+00  0.00000000000E+00  0.18250000000E+03  0.18250000000E+03  0.00000000000E+00 0.  1.
         11   -1    0    0    0    0 -0.00000000000E+00 -0.00000000000E+00 -0.18250000000E+03  0.18250000000E+03  0.00000000000E+00 0.  1.
        -11    1    1    2    0    0 -0.64003896872E+01 -0.32976195974E+01  0.17623618516E+03  0.17638319717E+03  0.00000000000E+00 0.  1.
         11    1    1    2    0    0 -0.18960270851E+01 -0.24373290081E+01 -0.15786906599E+03  0.15789926373E+03  0.00000000000E+00 0.  1.
        -15    1    1    2    0    0  0.77573475997E+01  0.35700595258E+01  0.29520902638E+01  0.92083838281E+01  0.17770000000E+01 0.  1.
         15    1    1    2    0    0  0.53906917261E+00  0.21648890797E+01 -0.21319209438E+02  0.21509155269E+02  0.17770000000E+01 0.  1.
</event>
<event>
 6    1  0.1697564E-002  0.1829058E+03  0.7546771E-02  0.1068132E+00
        -11   -1    0    0    0    0  0.00000000000E+00  0.00000000000E+00  0.18250000000E+03  0.18250000000E+03  0.00000000000E+00 0.  1.
         11   -1    0    0    0    0 -0.00000000000E+00 -0.00000000000E+00 -0.18250000000E+03  0.18250000000E+03  0.00000000000E+00 0. -1.
        -11    1    1    2    0    0 -0.23155996878E+00  0.31847989758E+01  0.76246310612E+02  0.76313147271E+02  0.00000000000E+00 0.  1.
         11    1    1    2    0    0 -0.66480044089E+01  0.28139509472E+01 -0.18195099910E+03  0.18209415245E+03  0.00000000000E+00 0. -1.
        -15    1    1    2    0    0  0.28481387218E+00 -0.20430979912E+01  0.61513460195E+01  0.67269722160E+01  0.17770000000E+01 0. -1.
         15    1    1    2    0    0  0.65947505055E+01 -0.39556519317E+01  0.99553342468E+02  0.99865728065E+02  0.17770000000E+01 0.  1.
</event>
<event>
 6    1  0.1697564E-002  0.1867206E+03  0.7546771E-02  0.1065144E+00
        -11   -1    0    0    0    0  0.00000000000E+00  0.00000000000E+00  0.18250000000E+03  0.18250000000E+03  0.00000000000E+00 0. -1.
         11   -1    0    0    0    0 -0.00000000000E+00 -0.00000000000E+00 -0.18250000000E+03  0.18250000000E+03  0.00000000000E+00 0.  1.
        -11    1    1    2    0    0  0.70614002284E+01 -0.16087805668E+01  0.17813222989E+03  0.17827939554E+03  0.00000000000E+00 0. -1.
         11    1    1    2    0    0  0.25543249170E+01  0.26079776093E+01 -0.17068950085E+03  0.17072853254E+03  0.00000000000E+00 0.  1.
        -15    1    1    2    0    0 -0.81611636802E+01 -0.36083805075E+01 -0.16652669831E+01  0.92496402972E+01  0.17770000000E+01 0. -1.
         15    1    1    2    0    0 -0.14545614652E+01  0.26091834650E+01 -0.57774620580E+01  0.67424316268E+01  0.17770000000E+01 0.  1.
</event>
<event>
 6    1  0.1697564E-002  0.1863183E+03  0.7546771E-02  0.1065455E+00
        -11   -1    0    0    0    0  0.00000000000E+00  0.00000000000E+00  0.18250000000E+03  0.18250000000E+03  0.00000000000E+00 0.  1.
         11   -1    0    0    0    0 -0.00000000000E+00 -0.00000000000E+00 -0.18250000000E+03  0.18250000000E+03  0.00000000000E+00 0.  1.
        -11    1    1    2    0    0 -0.21848272559E+01 -0.23773884198E+01  0.17865253896E+03  0.17868171457E+03  0.00000000000E+00 0.  1.
         11    1    1    2    0    0 -0.29573743578E+01 -0.15981511663E+01 -0.16638602803E+03  0.16641998219E+03  0.00000000000E+00 0.  1.
        -15    1    1    2    0    0  0.62402330108E+01  0.80179263503E+01 -0.53500550239E+01  0.11619314470E+02  0.17770000000E+01 0. -1.
         15    1    1    2    0    0 -0.10980313970E+01 -0.40423867642E+01 -0.69164559067E+01  0.82789887673E+01  0.17770000000E+01 0.  1.
</event>
<event>
 6    1  0.1697564E-002  0.1855889E+03  0.7546771E-02  0.1066022E+00
        -11   -1    0    0    0    0  0.00000000000E+00  0.00000000000E+00  0.18250000000E+03  0.18250000000E+03  0.00000000000E+00 0. -1.
         11   -1    0    0    0    0 -0.00000000000E+00 -0.00000000000E+00 -0.18250000000E+03  0.18250000000E+03  0.00000000000E+00 0.  1.
        -11    1    1    2    0    0 -0.35370554083E+01 -0.63936056060E+00  0.16605675871E+03  0.16609565514E+03  0.00000000000E+00 0. -1.
         11    1    1    2    0    0 -0.42490622210E+01 -0.30323126090E+01 -0.17933513546E+03  0.17941109291E+03  0.00000000000E+00 0.  1.
        -15    1    1    2    0    0  0.82989473684E+01  0.66303942023E+01  0.10369154899E+02  0.14950309596E+02  0.17770000000E+01 0.  1.
         15    1    1    2    0    0 -0.51282973904E+00 -0.29587210327E+01  0.29092218469E+01  0.45429423555E+01  0.17770000000E+01 0.  1.
</event>
<event>
 6    1  0.1697564E-002  0.1459432E+03  0.7546771E-02  0.1101967E+00
        -11   -1    0    0    0    0  0.00000000000E+00  0.00000000000E+00  0.18250000000E+03  0.18250000000E+03  0.00000000000E+00 0. -1.
         11   -1    0    0    0    0 -0.00000000000E+00 -0.00000000000E+00 -0.18250000000E+03  0.18250000000E+03  0.00000000000E+00 0.  1.
        -11    1    1    2    0    0  0.74556327668E+02 -0.40407984023E+02  0.69839982481E+02  0.10985933880E+03  0.00000000000E+00 0. -1.
         11    1    1    2    0    0  0.21987370243E+00  0.15735807351E+01 -0.10707501422E+03  0.10708680204E+03  0.00000000000E+00 0.  1.
        -15    1    1    2    0    0 -0.32549084941E+02 -0.15415639288E+02 -0.33628757960E+02  0.49306550844E+02  0.17770000000E+01 0. -1.
         15    1    1    2    0    0 -0.42227116429E+02  0.54250042576E+02  0.70863789697E+02  0.98747308321E+02  0.17770000000E+01 0.  1.
</event>
<event>
 6    1  0.1697564E-002  0.1759767E+03  0.7546771E-02  0.1073769E+00
        -11   -1    0    0    0    0  0.00000000000E+00  0.00000000000E+00  0.18250000000E+03  0.18250000000E+03  0.00000000000E+00 0. -1.
         11   -1    0    0    0    0 -0.00000000000E+00 -0.00000000000E+00 -0.18250000000E+03  0.18250000000E+03  0.00000000000E+00 0.  1.
        -11    1    1    2    0    0 -0.19578336754E+01 -0.22870378799E+01  0.17533257161E+03  0.17535841675E+03  0.00000000000E+00 0. -1.
         11    1    1    2    0    0  0.78780104630E+01 -0.53569704168E-01 -0.17647875233E+03  0.17665451011E+03  0.00000000000E+00 0.  1.
        -15    1    1    2    0    0 -0.32964988768E+01  0.12990139386E+01 -0.47659358363E+01  0.61988882433E+01  0.17770000000E+01 0.  1.
         15    1    1    2    0    0 -0.26236779108E+01  0.10415936455E+01  0.59121165532E+01  0.67881849003E+01  0.17770000000E+01 0. -1.
</event>
<event>
 6    1  0.1697564E-002  0.1958380E+03  0.7546771E-02  0.1058307E+00
        -11   -1    0    0    0    0  0.00000000000E+00  0.00000000000E+00  0.18250000000E+03  0.18250000000E+03  0.00000000000E+00 0. -1.
         11   -1    0    0    0    0 -0.00000000000E+00 -0.00000000000E+00 -0.18250000000E+03  0.18250000000E+03  0.00000000000E+00 0.  1.
        -11    1    1    2    0    0 -0.14671794403E+02 -0.76283341990E+01  0.16835181097E+03  0.16916200900E+03  0.00000000000E+00 0. -1.
         11    1    1    2    0    0 -0.24888801386E+01 -0.67029310884E+01 -0.14450046244E+03  0.14467725272E+03  0.00000000000E+00 0.  1.
        -15    1    1    2    0    0  0.12796991382E+02  0.17759148988E+02 -0.33400826575E+02  0.39974032897E+02  0.17770000000E+01 0.  1.
         15    1    1    2    0    0  0.43636831590E+01 -0.34278837003E+01  0.95494780452E+01  0.11186705382E+02  0.17770000000E+01 0. -1.
</event>
<event>
 6    1  0.1697564E-002  0.1825971E+03  0.7546771E-02  0.1068378E+00
        -11   -1    0    0    0    0  0.00000000000E+00  0.00000000000E+00  0.18250000000E+03  0.18250000000E+03  0.00000000000E+00 0.  1.
         11   -1    0    0    0    0 -0.00000000000E+00 -0.00000000000E+00 -0.18250000000E+03  0.18250000000E+03  0.00000000000E+00 0. -1.
        -11    1    1    2    0    0  0.12048638555E+01 -0.97548623523E+00  0.11183000356E+03  0.11184074823E+03  0.00000000000E+00 0.  1.
         11    1    1    2    0    0  0.17503548118E+01  0.21473930546E+01 -0.18238183658E+03  0.18240287650E+03  0.00000000000E+00 0. -1.
        -15    1    1    2    0    0 -0.21224346016E+01  0.47653754994E+00  0.35453573744E+02  0.35564665567E+02  0.17770000000E+01 0. -1.
         15    1    1    2    0    0 -0.83278406571E+00 -0.16484443693E+01  0.35098259282E+02  0.35191709703E+02  0.17770000000E+01 0.  1.
</event>
<event>
 6    1  0.1697564E-002  0.1829057E+03  0.7546771E-02  0.1068132E+00
        -11   -1    0    0    0    0  0.00000000000E+00  0.00000000000E+00  0.18250000000E+03  0.18250000000E+03  0.00000000000E+00 0. -1.
         11   -1    0    0    0    0 -0.00000000000E+00 -0.00000000000E+00 -0.18250000000E+03  0.18250000000E+03  0.00000000000E+00 0. -1.
        -11    1    1    2    0    0  0.59405338871E+01 -0.34517063927E+01  0.61413333913E+02  0.61796454609E+02  0.00000000000E+00 0. -1.
         11    1    1    2    0    0 -0.39022336725E+01 -0.75917565100E+00 -0.18205087348E+03  0.18209427314E+03  0.00000000000E+00 0. -1.
        -15    1    1    2    0    0 -0.11148811562E+01 -0.27103835607E+01  0.44348023241E+02  0.44480265663E+02  0.17770000000E+01 0. -1.
         15    1    1    2    0    0 -0.92341905834E+00  0.69212656044E+01  0.76289516327E+02  0.76629006588E+02  0.17770000000E+01 0. -1.
</event>
<event>
 6    1  0.1697564E-002  0.1849639E+03  0.7546771E-02  0.1066510E+00
        -11   -1    0    0    0    0  0.00000000000E+00  0.00000000000E+00  0.18250000000E+03  0.18250000000E+03  0.00000000000E+00 0. -1.
         11   -1    0    0    0    0 -0.00000000000E+00 -0.00000000000E+00 -0.18250000000E+03  0.18250000000E+03  0.00000000000E+00 0.  1.
        -11    1    1    2    0    0 -0.58512582386E-01  0.35824724529E+01  0.11254302612E+03  0.11260004556E+03  0.00000000000E+00 0. -1.
         11    1    1    2    0    0  0.31775182401E-01 -0.36385699998E+01 -0.17999933926E+03  0.18003611398E+03  0.00000000000E+00 0.  1.
        -15    1    1    2    0    0 -0.52548102691E+01  0.88630956226E+01  0.55615336555E+02  0.56589671178E+02  0.17770000000E+01 0. -1.
         15    1    1    2    0    0  0.52815476690E+01 -0.88069980758E+01  0.11840976588E+02  0.15774169279E+02  0.17770000000E+01 0.  1.
</event>
<event>
 6    1  0.1697564E-002  0.1866996E+03  0.7546771E-02  0.1065160E+00
        -11   -1    0    0    0    0  0.00000000000E+00  0.00000000000E+00  0.18250000000E+03  0.18250000000E+03  0.00000000000E+00 0. -1.
         11   -1    0    0    0    0 -0.00000000000E+00 -0.00000000000E+00 -0.18250000000E+03  0.18250000000E+03  0.00000000000E+00 0. -1.
        -11    1    1    2    0    0 -0.51010442802E+01 -0.13510028906E+01  0.13417569063E+03  0.13427941695E+03  0.00000000000E+00 0. -1.
         11    1    1    2    0    0 -0.42806692388E+01  0.16346549595E+01 -0.17824152445E+03  0.17830041297E+03  0.00000000000E+00 0. -1.
        -15    1    1    2    0    0  0.57521873002E+01  0.26516958323E+01  0.46430307382E+02  0.46894032906E+02  0.17770000000E+01 0. -1.
         15    1    1    2    0    0  0.36295262188E+01 -0.29353479012E+01 -0.23644735589E+01  0.55261371757E+01  0.17770000000E+01 0.  1.
</event>
<event>
 6    1  0.1697564E-002  0.1826363E+03  0.7546771E-02  0.1068346E+00
        -11   -1    0    0    0    0  0.00000000000E+00  0.00000000000E+00  0.18250000000E+03  0.18250000000E+03  0.00000000000E+00 0.  1.
         11   -1    0    0    0    0 -0.00000000000E+00 -0.00000000000E+00 -0.18250000000E+03  0.18250000000E+03  0.00000000000E+00 0.  1.
        -11    1    1    2    0    0 -0.17859210907E+01 -0.65950284378E-01  0.90982836851E+02  0.91000387170E+02  0.00000000000E+00 0.  1.
         11    1    1    2    0    0  0.45254579558E+00 -0.30236417255E+01 -0.18233807015E+03  0.18236369988E+03  0.00000000000E+00 0.  1.
        -15    1    1    2    0    0 -0.33290984296E+00  0.35845838538E+01  0.73363487767E+02  0.73473254568E+02  0.17770000000E+01 0.  1.
         15    1    1    2    0    0  0.16662851381E+01 -0.49499184390E+00  0.17991745535E+02  0.18162658382E+02  0.17770000000E+01 0.  1.
</event>
<event>
 6    1  0.1697564E-002  0.1828946E+03  0.7546771E-02  0.1068141E+00
        -11   -1    0    0    0    0  0.00000000000E+00  0.00000000000E+00  0.18250000000E+03  0.18250000000E+03  0.00000000000E+00 0.  1.
         11   -1    0    0    0    0 -0.00000000000E+00 -0.00000000000E+00 -0.18250000000E+03  0.18250000000E+03  0.00000000000E+00 0.  1.
        -11    1    1    2    0    0 -0.34319260618E+01  0.15879417416E+00  0.18207301555E+03  0.18210542640E+03  0.00000000000E+00 0.  1.
         11    1    1    2    0    0  0.17215330920E+01  0.20053035998E+01 -0.15875273327E+03  0.15877473112E+03  0.00000000000E+00 0.  1.
        -15    1    1    2    0    0  0.14984912268E+01 -0.26386786128E+01 -0.20099805515E+02  0.20405097684E+02  0.17770000000E+01 0. -1.
         15    1    1    2    0    0  0.21190174302E+00  0.47458083886E+00 -0.32204767649E+01  0.37147447981E+01  0.17770000000E+01 0.  1.
</event>
<event>
 6    1  0.1697564E-002  0.8982892E+02  0.7546771E-02  0.1182678E+00
        -11   -1    0    0    0    0  0.00000000000E+00  0.00000000000E+00  0.18250000000E+03  0.18250000000E+03  0.00000000000E+00 0.  1.
         11   -1    0    0    0    0 -0.00000000000E+00 -0.00000000000E+00 -0.18250000000E+03  0.18250000000E+03  0.00000000000E+00 0.  1.
        -11    1    1    2    0    0 -0.29081252347E+01  0.10902932252E+01  0.13318279166E+03  0.13321899987E+03  0.00000000000E+00 0.  1.
         11    1    1    2    0    0  0.50116339091E+01  0.12431556366E+02 -0.99915486219E+02  0.10081053742E+03  0.00000000000E+00 0.  1.
        -15    1    1    2    0    0 -0.40247627252E+01  0.51915458210E+02  0.92129562082E+01  0.52909827133E+02  0.17770000000E+01 0. -1.
         15    1    1    2    0    0  0.19212540509E+01 -0.65437307801E+02 -0.42480261645E+02  0.78060635584E+02  0.17770000000E+01 0.  1.
</event>
<event>
 6    1  0.1697564E-002  0.1832865E+03  0.7546771E-02  0.1067830E+00
        -11   -1    0    0    0    0  0.00000000000E+00  0.00000000000E+00  0.18250000000E+03  0.18250000000E+03  0.00000000000E+00 0. -1.
         11   -1    0    0    0    0 -0.00000000000E+00 -0.00000000000E+00 -0.18250000000E+03  0.18250000000E+03  0.00000000000E+00 0.  1.
        -11    1    1    2    0    0 -0.41950941604E+01  0.39666185700E+00  0.85062920213E+02  0.85167226976E+02  0.00000000000E+00 0. -1.
         11    1    1    2    0    0 -0.38881224487E+01  0.12922774646E+01 -0.18166728025E+03  0.18171347828E+03  0.00000000000E+00 0.  1.
        -15    1    1    2    0    0  0.85689358280E+01 -0.33550828788E+01  0.94190721701E+02  0.94655866304E+02  0.17770000000E+01 0. -1.
         15    1    1    2    0    0 -0.48571921898E+00  0.16661435572E+01  0.24136383356E+01  0.34634284355E+01  0.17770000000E+01 0. -1.
</event>
<event>
 6    1  0.1697564E-002  0.1828270E+03  0.7546771E-02  0.1068195E+00
        -11   -1    0    0    0    0  0.00000000000E+00  0.00000000000E+00  0.18250000000E+03  0.18250000000E+03  0.00000000000E+00 0.  1.
         11   -1    0    0    0    0 -0.00000000000E+00 -0.00000000000E+00 -0.18250000000E+03  0.18250000000E+03  0.00000000000E+00 0.  1.
        -11    1    1    2    0    0 -0.18957999211E+01 -0.11080003503E+01  0.97916651881E+02  0.97941270349E+02  0.00000000000E+00 0.  1.
         11    1    1    2    0    0  0.31597081961E+01 -0.70438747784E+01 -0.18200933199E+03  0.18217298608E+03  0.00000000000E+00 0.  1.
        -15    1    1    2    0    0 -0.28866193992E+00  0.88950612081E+01  0.74636258815E+02  0.75185998022E+02  0.17770000000E+01 0.  1.
         15    1    1    2    0    0 -0.97524633511E+00 -0.74318607939E+00  0.94564212928E+01  0.96997455446E+01  0.17770000000E+01 0.  1.
</event>
<event>
 6    1  0.1697564E-002  0.1835695E+03  0.7546771E-02  0.1067607E+00
        -11   -1    0    0    0    0  0.00000000000E+00  0.00000000000E+00  0.18250000000E+03  0.18250000000E+03  0.00000000000E+00 0. -1.
         11   -1    0    0    0    0 -0.00000000000E+00 -0.00000000000E+00 -0.18250000000E+03  0.18250000000E+03  0.00000000000E+00 0. -1.
        -11    1    1    2    0    0  0.41246921150E+01  0.27783212545E+01  0.15237309286E+03  0.15245422783E+03  0.00000000000E+00 0. -1.
         11    1    1    2    0    0 -0.58228349304E+01 -0.26152180728E+01 -0.18131818517E+03  0.18143050748E+03  0.00000000000E+00 0. -1.
        -15    1    1    2    0    0 -0.27345462892E+01 -0.10532654198E+01  0.23776004069E+02  0.24021723709E+02  0.17770000000E+01 0. -1.
         15    1    1    2    0    0  0.44326891046E+01  0.89016223814E+00  0.51690882383E+01  0.70935409862E+01  0.17770000000E+01 0.  1.
</event>
<event>
 6    1  0.1697564E-002  0.1895730E+03  0.7546771E-02  0.1062960E+00
        -11   -1    0    0    0    0  0.00000000000E+00  0.00000000000E+00  0.18250000000E+03  0.18250000000E+03  0.00000000000E+00 0. -1.
         11   -1    0    0    0    0 -0.00000000000E+00 -0.00000000000E+00 -0.18250000000E+03  0.18250000000E+03  0.00000000000E+00 0.  1.
        -11    1    1    2    0    0 -0.30050930628E+01  0.13384946830E+01  0.17539614399E+03  0.17542699187E+03  0.00000000000E+00 0. -1.
         11    1    1    2    0    0  0.43994157362E+01  0.86614659176E+00 -0.17062203974E+03  0.17068094654E+03  0.00000000000E+00 0.  1.
        -15    1    1    2    0    0 -0.94776962667E+00  0.15596829627E+01  0.64381151463E+01  0.69237225426E+01  0.17770000000E+01 0.  1.
         15    1    1    2    0    0 -0.44655304680E+00 -0.37643242374E+01 -0.11212219396E+02  0.11968339040E+02  0.17770000000E+01 0. -1.
</event>
<event>
 6    1  0.1697564E-002  0.1874674E+03  0.7546771E-02  0.1064568E+00
        -11   -1    0    0    0    0  0.00000000000E+00  0.00000000000E+00  0.18250000000E+03  0.18250000000E+03  0.00000000000E+00 0. -1.
         11   -1    0    0    0    0 -0.00000000000E+00 -0.00000000000E+00 -0.18250000000E+03  0.18250000000E+03  0.00000000000E+00 0.  1.
        -11    1    1    2    0    0  0.11823989705E+02 -0.55220593425E+01  0.17705235355E+03  0.17753263297E+03  0.00000000000E+00 0. -1.
         11    1    1    2    0    0 -0.87977201497E+00 -0.80767095632E+01 -0.16043926253E+03  0.16064483868E+03  0.00000000000E+00 0.  1.
        -15    1    1    2    0    0 -0.10819131864E+02  0.69834906134E+01 -0.14874817630E+02  0.19754510472E+02  0.17770000000E+01 0. -1.
         15    1    1    2    0    0 -0.12508582613E+00  0.66152782923E+01 -0.17382733902E+01  0.70680178783E+01  0.17770000000E+01 0.  1.
</event>
<event>
 6    1  0.1697564E-002  0.1645323E+03  0.7546771E-02  0.1083731E+00
        -11   -1    0    0    0    0  0.00000000000E+00  0.00000000000E+00  0.18250000000E+03  0.18250000000E+03  0.00000000000E+00 0. -1.
         11   -1    0    0    0    0 -0.00000000000E+00 -0.00000000000E+00 -0.18250000000E+03  0.18250000000E+03  0.00000000000E+00 0. -1.
        -11    1    1    2    0    0  0.64773185424E+01  0.18697835271E+00  0.16616907580E+03  0.16629537688E+03  0.00000000000E+00 0. -1.
         11    1    1    2    0    0 -0.25679005023E+01 -0.13022459053E+02 -0.16252180465E+03  0.16306291896E+03  0.00000000000E+00 0. -1.
        -15    1    1    2    0    0 -0.49629668095E+01  0.18259571844E+02 -0.14114330546E+02  0.23673087235E+02  0.17770000000E+01 0.  1.
         15    1    1    2    0    0  0.10535487694E+01 -0.54240911436E+01  0.10467059396E+02  0.11968616927E+02  0.17770000000E+01 0. -1.
</event>
<event>
 6    1  0.1697564E-002  0.1831488E+03  0.7546771E-02  0.1067940E+00
        -11   -1    0    0    0    0  0.00000000000E+00  0.00000000000E+00  0.18250000000E+03  0.18250000000E+03  0.00000000000E+00 0. -1.
         11   -1    0    0    0    0 -0.00000000000E+00 -0.00000000000E+00 -0.18250000000E+03  0.18250000000E+03  0.00000000000E+00 0.  1.
        -11    1    1    2    0    0 -0.29939678053E+01 -0.11703990099E+01  0.18182277560E+03  0.18185119027E+03  0.00000000000E+00 0. -1.
         11    1    1    2    0    0  0.19723333411E+01 -0.23793897222E+01 -0.16279319008E+03  0.16282252403E+03  0.00000000000E+00 0.  1.
        -15    1    1    2    0    0 -0.17888049442E+01  0.10091659609E+01 -0.10198389619E+02  0.10553820109E+02  0.17770000000E+01 0.  1.
         15    1    1    2    0    0  0.28104394084E+01  0.25406227711E+01 -0.88311959007E+01  0.97724655932E+01  0.17770000000E+01 0.  1.
</event>
<event>
 6    1  0.1697564E-002  0.1827192E+03  0.7546771E-02  0.1068280E+00
        -11   -1    0    0    0    0  0.00000000000E+00  0.00000000000E+00  0.18250000000E+03  0.18250000000E+03  0.00000000000E+00 0. -1.
         11   -1    0    0    0    0 -0.00000000000E+00 -0.00000000000E+00 -0.18250000000E+03  0.18250000000E+03  0.00000000000E+00 0. -1.
        -11    1    1    2    0    0 -0.15123894026E+01  0.33403765495E+01  0.46793511401E+02  0.46936959280E+02  0.00000000000E+00 0. -1.
         11    1    1    2    0    0  0.57829750183E+01 -0.33124440210E+00 -0.18218871679E+03  0.18228077531E+03  0.00000000000E+00 0. -1.
        -15    1    1    2    0    0 -0.24560195153E+00 -0.38286569590E+01  0.10211333439E+03  0.10220083035E+03  0.17770000000E+01 0. -1.
         15    1    1    2    0    0 -0.40249836641E+01  0.81952481158E+00  0.33281870997E+02  0.33581435056E+02  0.17770000000E+01 0.  1.
</event>
<event>
 6    1  0.1697564E-002  0.1834646E+03  0.7546771E-02  0.1067690E+00
        -11   -1    0    0    0    0  0.00000000000E+00  0.00000000000E+00  0.18250000000E+03  0.18250000000E+03  0.00000000000E+00 0. -1.
         11   -1    0    0    0    0 -0.00000000000E+00 -0.00000000000E+00 -0.18250000000E+03  0.18250000000E+03  0.00000000000E+00 0. -1.
        -11    1    1    2    0    0 -0.94528743360E+00 -0.22753925445E+01  0.18151863837E+03  0.18153536034E+03  0.00000000000E+00 0. -1.
         11    1    1    2    0    0  0.11915929379E+01  0.27051965401E+01 -0.17619396693E+03  0.17621876167E+03  0.00000000000E+00 0. -1.
        -15    1    1    2    0    0 -0.16779968639E+01 -0.36903361092E+00 -0.18457565808E+01  0.30848671992E+01  0.17770000000E+01 0.  1.
         15    1    1    2    0    0  0.14316913596E+01 -0.60770384741E-01 -0.34789148560E+01  0.41610107863E+01  0.17770000000E+01 0. -1.
</event>
<event>
 6    1  0.1697564E-002  0.1836444E+03  0.7546771E-02  0.1067547E+00
        -11   -1    0    0    0    0  0.00000000000E+00  0.00000000000E+00  0.18250000000E+03  0.18250000000E+03  0.00000000000E+00 0. -1.
         11   -1    0    0    0    0 -0.00000000000E+00 -0.00000000000E+00 -0.18250000000E+03  0.18250000000E+03  0.00000000000E+00 0. -1.
        -11    1    1    2    0    0 -0.50663196836E+01 -0.90346109556E+01  0.18105951995E+03  0.18135556665E+03  0.00000000000E+00 0. -1.
         11    1    1    2    0    0  0.42434401496E+00 -0.35743264655E+00 -0.36386753399E+02  0.36390983071E+02  0.00000000000E+00 0. -1.
        -15    1    1    2    0    0  0.49194415797E+01  0.11228722149E+02 -0.28785085030E+02  0.31337261459E+02  0.17770000000E+01 0. -1.
         15    1    1    2    0    0 -0.27746591103E+00 -0.18366785472E+01 -0.11588768152E+03  0.11591618882E+03  0.17770000000E+01 0. -1.
</event>
<event>
 6    1  0.1697564E-002  0.1766813E+03  0.7546771E-02  0.1073183E+00
        -11   -1    0    0    0    0  0.00000000000E+00  0.00000000000E+00  0.18250000000E+03  0.18250000000E+03  0.00000000000E+00 0. -1.
         11   -1    0    0    0    0 -0.00000000000E+00 -0.00000000000E+00 -0.18250000000E+03  0.18250000000E+03  0.00000000000E+00 0.  1.
        -11    1    1    2    0    0 -0.82072842817E+00  0.28128289748E+01  0.17505492409E+03  0.17507944497E+03  0.00000000000E+00 0. -1.
         11    1    1    2    0    0  0.22601347740E+01  0.37208794408E+01 -0.17830839374E+03  0.17836153293E+03  0.00000000000E+00 0.  1.
        -15    1    1    2    0    0  0.30060099478E+01 -0.10412541749E+01  0.20292584578E+01  0.41708422353E+01  0.17770000000E+01 0. -1.
         15    1    1    2    0    0 -0.44454162936E+01 -0.54924542407E+01  0.12242111849E+01  0.73881798594E+01  0.17770000000E+01 0. -1.
</event>
<event>
 6    1  0.1697564E-002  0.1926079E+03  0.7546771E-02  0.1060682E+00
        -11   -1    0    0    0    0  0.00000000000E+00  0.00000000000E+00  0.18250000000E+03  0.18250000000E+03  0.00000000000E+00 0.  1.
         11   -1    0    0    0    0 -0.00000000000E+00 -0.00000000000E+00 -0.18250000000E+03  0.18250000000E+03  0.00000000000E+00 0.  1.
        -11    1    1    2    0    0 -0.70075352108E+01 -0.21273924494E+02  0.17093082765E+03  0.17239209162E+03  0.00000000000E+00 0.  1.
         11    1    1    2    0    0 -0.38688405019E+01  0.75585228953E+00 -0.15555236426E+03  0.15560230482E+03  0.00000000000E+00 0.  1.
        -15    1    1    2    0    0  0.13204269898E+02  0.12251655456E+02 -0.20097513767E+02  0.27046692840E+02  0.17770000000E+01 0.  1.
         15    1    1    2    0    0 -0.23278941853E+01  0.82664167483E+01  0.47190503810E+01  0.99589107182E+01  0.17770000000E+01 0. -1.
</event>
<event>
 6    1  0.1697564E-002  0.1862990E+03  0.7546771E-02  0.1065470E+00
        -11   -1    0    0    0    0  0.00000000000E+00  0.00000000000E+00  0.18250000000E+03  0.18250000000E+03  0.00000000000E+00 0. -1.
         11   -1    0    0    0    0 -0.00000000000E+00 -0.00000000000E+00 -0.18250000000E+03  0.18250000000E+03  0.00000000000E+00 0.  1.
        -11    1    1    2    0    0  0.26792950419E+00  0.22510523229E+01  0.10906222357E+03  0.10908578108E+03  0.00000000000E+00 0. -1.
         11    1    1    2    0    0  0.28011263748E+02 -0.32689525679E+01 -0.17646170035E+03  0.17870100346E+03  0.00000000000E+00 0.  1.
        -15    1    1    2    0    0 -0.32362105361E+02  0.49323724444E+00  0.63396284795E+02  0.71202498560E+02  0.17770000000E+01 0. -1.
         15    1    1    2    0    0  0.40829121087E+01  0.52466300051E+00  0.40031919862E+01  0.60107168982E+01  0.17770000000E+01 0.  1.
</event>
<event>
 6    1  0.1697564E-002  0.1827685E+03  0.7546771E-02  0.1068241E+00
        -11   -1    0    0    0    0  0.00000000000E+00  0.00000000000E+00  0.18250000000E+03  0.18250000000E+03  0.00000000000E+00 0. -1.
         11   -1    0    0    0    0 -0.00000000000E+00 -0.00000000000E+00 -0.18250000000E+03  0.18250000000E+03  0.00000000000E+00 0.  1.
        -11    1    1    2    0    0  0.60898550586E+00  0.33662738972E+01  0.18219935542E+03  0.18223146759E+03  0.00000000000E+00 0. -1.
         11    1    1    2    0    0  0.14758908381E+01 -0.25533496572E+01 -0.12651702718E+03  0.12655139673E+03  0.00000000000E+00 0.  1.
        -15    1    1    2    0    0 -0.12226314453E+01 -0.25171383884E+01 -0.11784321676E+02  0.12241682061E+02  0.17770000000E+01 0. -1.
         15    1    1    2    0    0 -0.86224489870E+00  0.17042141484E+01 -0.43898006566E+02  0.43975453625E+02  0.17770000000E+01 0.  1.
</event>
<event>
 6    1  0.1697564E-002  0.1825907E+03  0.7546771E-02  0.1068383E+00
        -11   -1    0    0    0    0  0.00000000000E+00  0.00000000000E+00  0.18250000000E+03  0.18250000000E+03  0.00000000000E+00 0. -1.
         11   -1    0    0    0    0 -0.00000000000E+00 -0.00000000000E+00 -0.18250000000E+03  0.18250000000E+03  0.00000000000E+00 0.  1.
        -11    1    1    2    0    0  0.15685704085E+01  0.44736933965E+00  0.62193510755E+02  0.62214896387E+02  0.00000000000E+00 0. -1.
         11    1    1    2    0    0 -0.41480632880E+00 -0.37850163123E+01 -0.18236953796E+03  0.18240928373E+03  0.00000000000E+00 0.  1.
        -15    1    1    2    0    0 -0.23976698500E+01  0.33512793997E+01  0.95226024432E+02  0.95331701718E+02  0.17770000000E+01 0. -1.
         15    1    1    2    0    0  0.12439057703E+01 -0.13632427017E-01  0.24950002776E+02  0.25044118170E+02  0.17770000000E+01 0. -1.
</event>
<event>
 6    1  0.1697564E-002  0.1833990E+03  0.7546771E-02  0.1067741E+00
        -11   -1    0    0    0    0  0.00000000000E+00  0.00000000000E+00  0.18250000000E+03  0.18250000000E+03  0.00000000000E+00 0. -1.
         11   -1    0    0    0    0 -0.00000000000E+00 -0.00000000000E+00 -0.18250000000E+03  0.18250000000E+03  0.00000000000E+00 0. -1.
        -11    1    1    2    0    0 -0.47320678881E+00  0.58900938282E+01  0.96128277746E+02  0.96309723873E+02  0.00000000000E+00 0. -1.
         11    1    1    2    0    0 -0.17603182056E+01 -0.18628645115E+01 -0.18158295220E+03  0.18160103940E+03  0.00000000000E+00 0. -1.
        -15    1    1    2    0    0  0.77758856386E+01 -0.49661772643E+01  0.68443258078E+02  0.69085198266E+02  0.17770000000E+01 0. -1.
         15    1    1    2    0    0 -0.55423606443E+01  0.93894794762E+00  0.17011416372E+02  0.18004038456E+02  0.17770000000E+01 0. -1.
</event>
<event>
 6    1  0.1697564E-002  0.1882194E+03  0.7546771E-02  0.1063991E+00
        -11   -1    0    0    0    0  0.00000000000E+00  0.00000000000E+00  0.18250000000E+03  0.18250000000E+03  0.00000000000E+00 0.  1.
         11   -1    0    0    0    0 -0.00000000000E+00 -0.00000000000E+00 -0.18250000000E+03  0.18250000000E+03  0.00000000000E+00 0. -1.
        -11    1    1    2    0    0  0.17596068144E-01  0.40564603969E+01  0.17673402077E+03  0.17678056815E+03  0.00000000000E+00 0.  1.
         11    1    1    2    0    0  0.35785846278E+01  0.93543656721E+00 -0.16001508922E+03  0.16005783358E+03  0.00000000000E+00 0. -1.
        -15    1    1    2    0    0  0.31481878965E+00  0.42938508886E+00  0.50184056083E+01  0.53502902981E+01  0.17770000000E+01 0. -1.
         15    1    1    2    0    0 -0.39109994856E+01 -0.54212820530E+01 -0.21737337150E+02  0.22811307974E+02  0.17770000000E+01 0.  1.
</event>
<event>
 6    1  0.1697564E-002  0.1897045E+03  0.7546771E-02  0.1062860E+00
        -11   -1    0    0    0    0  0.00000000000E+00  0.00000000000E+00  0.18250000000E+03  0.18250000000E+03  0.00000000000E+00 0.  1.
         11   -1    0    0    0    0 -0.00000000000E+00 -0.00000000000E+00 -0.18250000000E+03  0.18250000000E+03  0.00000000000E+00 0. -1.
        -11    1    1    2    0    0  0.49679646745E+01  0.66580999373E+01  0.16560299413E+03  0.16581122590E+03  0.00000000000E+00 0.  1.
         11    1    1    2    0    0 -0.43049200344E+01  0.66502668144E+01 -0.17511636299E+03  0.17529546192E+03  0.00000000000E+00 0. -1.
        -15    1    1    2    0    0 -0.95972951326E+00 -0.45571399231E+01 -0.48648556849E+01  0.69651385379E+01  0.17770000000E+01 0. -1.
         15    1    1    2    0    0  0.29668487307E+00 -0.87512268286E+01  0.14378224539E+02  0.16928173641E+02  0.17770000000E+01 0.  1.
</event>
<event>
 6    1  0.1697564E-002  0.1592210E+03  0.7546771E-02  0.1088661E+00
        -11   -1    0    0    0    0  0.00000000000E+00  0.00000000000E+00  0.18250000000E+03  0.18250000000E+03  0.00000000000E+00 0.  1.
         11   -1    0    0    0    0 -0.00000000000E+00 -0.00000000000E+00 -0.18250000000E+03  0.18250000000E+03  0.00000000000E+00 0. -1.
        -11    1    1    2    0    0  0.74937803422E+01  0.35005987344E+01  0.15900111401E+03  0.15921609590E+03  0.00000000000E+00 0.  1.
         11    1    1    2    0    0 -0.44286893979E+01 -0.34016995112E+01 -0.15914268373E+03  0.15924063123E+03  0.00000000000E+00 0. -1.
        -15    1    1    2    0    0  0.18588631165E+02 -0.26933473949E+01 -0.11155767474E+02  0.21918033801E+02  0.17770000000E+01 0. -1.
         15    1    1    2    0    0 -0.21653722109E+02  0.25944481717E+01  0.11297337193E+02  0.24625239068E+02  0.17770000000E+01 0.  1.
</event>
<event>
 6    1  0.1697564E-002  0.1690301E+03  0.7546771E-02  0.1079713E+00
        -11   -1    0    0    0    0  0.00000000000E+00  0.00000000000E+00  0.18250000000E+03  0.18250000000E+03  0.00000000000E+00 0.  1.
         11   -1    0    0    0    0 -0.00000000000E+00 -0.00000000000E+00 -0.18250000000E+03  0.18250000000E+03  0.00000000000E+00 0. -1.
        -11    1    1    2    0    0  0.10376562581E+01 -0.57463464676E+01  0.17254062470E+03  0.17263940570E+03  0.00000000000E+00 0.  1.
         11    1    1    2    0    0 -0.15753819198E+02 -0.12817005793E+01 -0.16514009249E+03  0.16589477305E+03  0.00000000000E+00 0. -1.
        -15    1    1    2    0    0  0.13141749629E+02  0.10096501830E+02  0.15215475107E+01  0.16736719162E+02  0.17770000000E+01 0.  1.
         15    1    1    2    0    0  0.15744133111E+01 -0.30684547828E+01 -0.89220797191E+01  0.97291020933E+01  0.17770000000E+01 0. -1.
</event>
<event>
 6    1  0.1697564E-002  0.1834900E+03  0.7546771E-02  0.1067670E+00
        -11   -1    0    0    0    0  0.00000000000E+00  0.00000000000E+00  0.18250000000E+03  0.18250000000E+03  0.00000000000E+00 0.  1.
         11   -1    0    0    0    0 -0.00000000000E+00 -0.00000000000E+00 -0.18250000000E+03  0.18250000000E+03  0.00000000000E+00 0.  1.
        -11    1    1    2    0    0 -0.34711472179E+00  0.58574009837E+01  0.15028438737E+03  0.15039889203E+03  0.00000000000E+00 0.  1.
         11    1    1    2    0    0 -0.15402643596E+01 -0.21745895573E+01 -0.18149047666E+03  0.18151003931E+03  0.00000000000E+00 0.  1.
        -15    1    1    2    0    0  0.30913336517E+01 -0.46529676532E+01  0.29749537105E+02  0.30321595253E+02  0.17770000000E+01 0. -1.
         15    1    1    2    0    0 -0.12039545704E+01  0.97015622676E+00  0.14565521753E+01  0.27694734068E+01  0.17770000000E+01 0. -1.
</event>
<event>
 6    1  0.1697564E-002  0.1839427E+03  0.7546771E-02  0.1067312E+00
        -11   -1    0    0    0    0  0.00000000000E+00  0.00000000000E+00  0.18250000000E+03  0.18250000000E+03  0.00000000000E+00 0.  1.
         11   -1    0    0    0    0 -0.00000000000E+00 -0.00000000000E+00 -0.18250000000E+03  0.18250000000E+03  0.00000000000E+00 0. -1.
        -11    1    1    2    0    0 -0.15731306920E+01  0.48840375199E+01  0.14021582730E+03  0.14030968174E+03  0.00000000000E+00 0.  1.
         11    1    1    2    0    0 -0.17830013382E+01 -0.24917459739E+01 -0.18103133258E+03  0.18105725963E+03  0.00000000000E+00 0. -1.
        -15    1    1    2    0    0  0.20311466936E+01  0.22252368345E+01  0.12152703997E+01  0.37029511210E+01  0.17770000000E+01 0.  1.
         15    1    1    2    0    0  0.13249853366E+01 -0.46175283804E+01  0.39600234873E+02  0.39930107507E+02  0.17770000000E+01 0.  1.
</event>
<event>
 6    1  0.1697564E-002  0.1847594E+03  0.7546771E-02  0.1066670E+00
        -11   -1    0    0    0    0  0.00000000000E+00  0.00000000000E+00  0.18250000000E+03  0.18250000000E+03  0.00000000000E+00 0.  1.
         11   -1    0    0    0    0 -0.00000000000E+00 -0.00000000000E+00 -0.18250000000E+03  0.18250000000E+03  0.00000000000E+00 0. -1.
        -11    1    1    2    0    0 -0.98753223619E-01 -0.75977873204E+01  0.14310281000E+03  0.14330439754E+03  0.00000000000E+00 0.  1.
         11    1    1    2    0    0  0.27454142005E+01 -0.48058910669E+01 -0.18015557303E+03  0.18024057362E+03  0.00000000000E+00 0. -1.
        -15    1    1    2    0    0 -0.59304758782E+00  0.34028763208E+01  0.28442266672E+02  0.28706297830E+02  0.17770000000E+01 0. -1.
         15    1    1    2    0    0 -0.20536133891E+01  0.90008020665E+01  0.86104963513E+01  0.12748731004E+02  0.17770000000E+01 0. -1.
</event>
<event>
 6    1  0.1697564E-002  0.1850289E+03  0.7546771E-02  0.1066459E+00
        -11   -1    0    0    0    0  0.00000000000E+00  0.00000000000E+00  0.18250000000E+03  0.18250000000E+03  0.00000000000E+00 0.  1.
         11   -1    0    0    0    0 -0.00000000000E+00 -0.00000000000E+00 -0.18250000000E+03  0.18250000000E+03  0.00000000000E+00 0.  1.
        -11    1    1    2    0    0 -0.27545509032E+01 -0.71561797814E+01  0.15876614488E+03  0.15895121019E+03  0.00000000000E+00 0.  1.
         11    1    1    2    0    0 -0.50123033634E+01  0.56169515230E+00 -0.17990044731E+03  0.17997113555E+03  0.00000000000E+00 0.  1.
        -15    1    1    2    0    0  0.39778818850E+01  0.34488063587E+01  0.14973631684E+01  0.57547923550E+01  0.17770000000E+01 0.  1.
         15    1    1    2    0    0  0.37889723815E+01  0.31456782704E+01  0.19636939264E+02  0.20322861908E+02  0.17770000000E+01 0. -1.
</event>
<event>
 6    1  0.1697564E-002  0.1917657E+03  0.7546771E-02  0.1061310E+00
        -11   -1    0    0    0    0  0.00000000000E+00  0.00000000000E+00  0.18250000000E+03  0.18250000000E+03  0.00000000000E+00 0. -1.
         11   -1    0    0    0    0 -0.00000000000E+00 -0.00000000000E+00 -0.18250000000E+03  0.18250000000E+03  0.00000000000E+00 0. -1.
        -11    1    1    2    0    0 -0.47650081684E+01 -0.43016183416E+01  0.17311531136E+03  0.17323429294E+03  0.00000000000E+00 0. -1.
         11    1    1    2    0    0  0.22773871914E+00  0.41492592103E+01 -0.16021570874E+03  0.16026959020E+03  0.00000000000E+00 0. -1.
        -15    1    1    2    0    0  0.65159774512E+01  0.31588317513E+01  0.75766619940E+01  0.10630132462E+02  0.17770000000E+01 0. -1.
         15    1    1    2    0    0 -0.19787080020E+01 -0.30064726199E+01 -0.20476264618E+02  0.20865984393E+02  0.17770000000E+01 0. -1.
</event>
<event>
 6    1  0.1697564E-002  0.1829640E+03  0.7546771E-02  0.1068086E+00
        -11   -1    0    0    0    0  0.00000000000E+00  0.00000000000E+00  0.18250000000E+03  0.18250000000E+03  0.00000000000E+00 0. -1.
         11   -1    0    0    0    0 -0.00000000000E+00 -0.00000000000E+00 -0.18250000000E+03  0.18250000000E+03  0.00000000000E+00 0.  1.
        -11    1    1    2    0    0 -0.16440209622E+01 -0.59975219083E+01  0.18192974957E+03  0.18203600427E+03  0.00000000000E+00 0. -1.
         11    1    1    2    0    0  0.39289681768E+01  0.10246350321E+00 -0.74818706966E+02  0.74921867314E+02  0.00000000000E+00 0.  1.
        -15    1    1    2    0    0 -0.86370527832E+00 -0.13686594425E+01 -0.75103327967E+02  0.75141778101E+02  0.17770000000E+01 0. -1.
         15    1    1    2    0    0 -0.14212419363E+01  0.72637178476E+01 -0.32007714633E+02  0.32900350312E+02  0.17770000000E+01 0.  1.
</event>
<event>
 6    1  0.1697564E-002  0.1836515E+03  0.7546771E-02  0.1067542E+00
        -11   -1    0    0    0    0  0.00000000000E+00  0.00000000000E+00  0.18250000000E+03  0.18250000000E+03  0.00000000000E+00 0. -1.
         11   -1    0    0    0    0 -0.00000000000E+00 -0.00000000000E+00 -0.18250000000E+03  0.18250000000E+03  0.00000000000E+00 0. -1.
        -11    1    1    2    0    0 -0.38849265253E+01 -0.19989378739E+01  0.10866540680E+03  0.10875320244E+03  0.00000000000E+00 0. -1.
         11    1    1    2    0    0  0.36956177514E+01 -0.10643803984E+02 -0.18099813910E+03  0.18134848913E+03  0.00000000000E+00 0. -1.
        -15    1    1    2    0    0 -0.45669187436E+01  0.62503473298E+01  0.14866106551E+02  0.16854745372E+02  0.17770000000E+01 0. -1.
         15    1    1    2    0    0  0.47562275175E+01  0.63923945280E+01  0.57466625747E+02  0.58043563051E+02  0.17770000000E+01 0.  1.
</event>
<event>
 6    1  0.1697564E-002  0.1680683E+03  0.7546771E-02  0.1080560E+00
        -11   -1    0    0    0    0  0.00000000000E+00  0.00000000000E+00  0.18250000000E+03  0.18250000000E+03  0.00000000000E+00 0. -1.
         11   -1    0    0    0    0 -0.00000000000E+00 -0.00000000000E+00 -0.18250000000E+03  0.18250000000E+03  0.00000000000E+00 0. -1.
        -11    1    1    2    0    0 -0.10608175782E+02  0.99991549496E+00  0.16729488851E+03  0.16763386574E+03  0.00000000000E+00 0. -1.
         11    1    1    2    0    0 -0.68555894134E+00 -0.33295673075E+01 -0.16866904256E+03  0.16870329554E+03  0.00000000000E+00 0. -1.
        -15    1    1    2    0    0  0.18740356931E+02 -0.28912410533E+01  0.29219017481E+01  0.19267991373E+02  0.17770000000E+01 0. -1.
         15    1    1    2    0    0 -0.74466222071E+01  0.52208928658E+01 -0.15477476966E+01  0.93948473401E+01  0.17770000000E+01 0.  1.
</event>
<event>
 6    1  0.1697564E-002  0.1827774E+03  0.7546771E-02  0.1068234E+00
        -11   -1    0    0    0    0  0.00000000000E+00  0.00000000000E+00  0.18250000000E+03  0.18250000000E+03  0.00000000000E+00 0.  1.
         11   -1    0    0    0    0 -0.00000000000E+00 -0.00000000000E+00 -0.18250000000E+03  0.18250000000E+03  0.00000000000E+00 0. -1.
        -11    1    1    2    0    0 -0.23592337233E+01  0.15430762929E+01  0.18220078729E+03  0.18222259453E+03  0.00000000000E+00 0.  1.
         11    1    1    2    0    0  0.14918231657E+01  0.19098592603E+01 -0.98772853307E+02  0.98802579162E+02  0.00000000000E+00 0. -1.
        -15    1    1    2    0    0  0.23468451579E+01 -0.62778068900E+00 -0.96929937227E+01  0.10149563887E+02  0.17770000000E+01 0. -1.
         15    1    1    2    0    0 -0.14794346003E+01 -0.28251548642E+01 -0.73734940262E+02  0.73825262419E+02  0.17770000000E+01 0. -1.
</event>
<event>
 6    1  0.1697564E-002  0.1827740E+03  0.7546771E-02  0.1068237E+00
        -11   -1    0    0    0    0  0.00000000000E+00  0.00000000000E+00  0.18250000000E+03  0.18250000000E+03  0.00000000000E+00 0.  1.
         11   -1    0    0    0    0 -0.00000000000E+00 -0.00000000000E+00 -0.18250000000E+03  0.18250000000E+03  0.00000000000E+00 0.  1.
        -11    1    1    2    0    0 -0.27511503298E+01 -0.30589641165E+00  0.18220495999E+03  0.18222598565E+03  0.00000000000E+00 0.  1.
         11    1    1    2    0    0 -0.13074968916E+00  0.30143735301E+01 -0.10977901257E+03  0.10982046778E+03  0.00000000000E+00 0.  1.
        -15    1    1    2    0    0 -0.15802005048E+01 -0.30663668849E+01 -0.36655820758E+02  0.36860637053E+02  0.17770000000E+01 0.  1.
         15    1    1    2    0    0  0.44621005238E+01  0.35788976647E+00 -0.35770126666E+02  0.36092909510E+02  0.17770000000E+01 0.  1.
</event>
<event>
 6    1  0.1697564E-002  0.1840522E+03  0.7546771E-02  0.1067226E+00
        -11   -1    0    0    0    0  0.00000000000E+00  0.00000000000E+00  0.18250000000E+03  0.18250000000E+03  0.00000000000E+00 0. -1.
         11   -1    0    0    0    0 -0.00000000000E+00 -0.00000000000E+00 -0.18250000000E+03  0.18250000000E+03  0.00000000000E+00 0. -1.
        -11    1    1    2    0    0  0.13307202805E+01 -0.24852327874E+01  0.18092579698E+03  0.18094775824E+03  0.00000000000E+00 0. -1.
         11    1    1    2    0    0  0.22269937814E+01  0.46451994491E+01 -0.17400096557E+03  0.17407720528E+03  0.00000000000E+00 0. -1.
        -15    1    1    2    0    0 -0.88418578870E+00 -0.31468689353E+01 -0.28032826363E+01  0.46584000626E+01  0.17770000000E+01 0.  1.
         15    1    1    2    0    0 -0.26735282732E+01  0.98690227355E+00 -0.41215487778E+01  0.53166364228E+01  0.17770000000E+01 0. -1.
</event>
<event>
 6    1  0.1697564E-002  0.1548445E+03  0.7546771E-02  0.1092884E+00
        -11   -1    0    0    0    0  0.00000000000E+00  0.00000000000E+00  0.18250000000E+03  0.18250000000E+03  0.00000000000E+00 0.  1.
         11   -1    0    0    0    0 -0.00000000000E+00 -0.00000000000E+00 -0.18250000000E+03  0.18250000000E+03  0.00000000000E+00 0.  1.
        -11    1    1    2    0    0  0.97508162084E+01 -0.25834012024E+02  0.15917380000E+03  0.16155114732E+03  0.00000000000E+00 0.  1.
         11    1    1    2    0    0 -0.55040365388E+01  0.13971660823E+01 -0.14918210706E+03  0.14929014555E+03  0.00000000000E+00 0.  1.
        -15    1    1    2    0    0  0.14887460918E+02  0.61086460492E+00 -0.17083783130E+02  0.22738140276E+02  0.17770000000E+01 0. -1.
         15    1    1    2    0    0 -0.19134240588E+02  0.23825981337E+02  0.70920901886E+01  0.31420566860E+02  0.17770000000E+01 0.  1.
</event>
<event>
 6    1  0.1697564E-002  0.1841475E+03  0.7546771E-02  0.1067151E+00
        -11   -1    0    0    0    0  0.00000000000E+00  0.00000000000E+00  0.18250000000E+03  0.18250000000E+03  0.00000000000E+00 0.  1.
         11   -1    0    0    0    0 -0.00000000000E+00 -0.00000000000E+00 -0.18250000000E+03  0.18250000000E+03  0.00000000000E+00 0.  1.
        -11    1    1    2    0    0 -0.19366227180E+01 -0.53821405061E+01  0.18076202251E+03  0.18085249992E+03  0.00000000000E+00 0.  1.
         11    1    1    2    0    0  0.16998772570E+01  0.59594685688E+01 -0.12619654867E+03  0.12634861988E+03  0.00000000000E+00 0.  1.
        -15    1    1    2    0    0 -0.93480285883E+00  0.59052592577E+01 -0.56688215762E+01  0.84284761582E+01  0.17770000000E+01 0. -1.
         15    1    1    2    0    0  0.11715483199E+01 -0.64825873204E+01 -0.48896652266E+02  0.49370404045E+02  0.17770000000E+01 0.  1.
</event>
<event>
 6    1  0.1697564E-002  0.1825769E+03  0.7546771E-02  0.1068394E+00
        -11   -1    0    0    0    0  0.00000000000E+00  0.00000000000E+00  0.18250000000E+03  0.18250000000E+03  0.00000000000E+00 0.  1.
         11   -1    0    0    0    0 -0.00000000000E+00 -0.00000000000E+00 -0.18250000000E+03  0.18250000000E+03  0.00000000000E+00 0.  1.
        -11    1    1    2    0    0  0.14317164547E+01  0.25888648823E+01  0.18239907586E+03  0.18242306573E+03  0.00000000000E+00 0.  1.
         11    1    1    2    0    0  0.10670520137E+01  0.15685286199E+01 -0.39051763998E+02  0.39097815200E+02  0.00000000000E+00 0.  1.
        -15    1    1    2    0    0 -0.12783593210E+01 -0.12859459901E+01 -0.65038160083E+02  0.65087693581E+02  0.17770000000E+01 0. -1.
         15    1    1    2    0    0 -0.12204091474E+01 -0.28714475121E+01 -0.78309151781E+02  0.78391425494E+02  0.17770000000E+01 0.  1.
</event>
<event>
 6    1  0.1697564E-002  0.1830922E+03  0.7546771E-02  0.1067984E+00
        -11   -1    0    0    0    0  0.00000000000E+00  0.00000000000E+00  0.18250000000E+03  0.18250000000E+03  0.00000000000E+00 0.  1.
         11   -1    0    0    0    0 -0.00000000000E+00 -0.00000000000E+00 -0.18250000000E+03  0.18250000000E+03  0.00000000000E+00 0. -1.
        -11    1    1    2    0    0 -0.35492055305E+01  0.66683424890E+00  0.18187190475E+03  0.18190775482E+03  0.00000000000E+00 0.  1.
         11    1    1    2    0    0  0.23088392637E+01 -0.12782217752E+01 -0.15491272669E+03  0.15493520414E+03  0.00000000000E+00 0. -1.
        -15    1    1    2    0    0 -0.15796926074E+01 -0.62722672995E+00 -0.27538754629E+01  0.36919373193E+01  0.17770000000E+01 0.  1.
         15    1    1    2    0    0  0.28200588742E+01  0.12386142562E+01 -0.24205302596E+02  0.24465103721E+02  0.17770000000E+01 0.  1.
</event>
<event>
 6    1  0.1697564E-002  0.1723070E+03  0.7546771E-02  0.1076871E+00
        -11   -1    0    0    0    0  0.00000000000E+00  0.00000000000E+00  0.18250000000E+03  0.18250000000E+03  0.00000000000E+00 0. -1.
         11   -1    0    0    0    0 -0.00000000000E+00 -0.00000000000E+00 -0.18250000000E+03  0.18250000000E+03  0.00000000000E+00 0. -1.
        -11    1    1    2    0    0 -0.60898772841E+00  0.52620513284E+00  0.12724550825E+02  0.12749978493E+02  0.00000000000E+00 0. -1.
         11    1    1    2    0    0  0.17910215600E+01  0.36628073311E+01 -0.17696003183E+03  0.17700699642E+03  0.00000000000E+00 0. -1.
        -15    1    1    2    0    0 -0.17628044301E+01 -0.60953139742E+01 -0.35171386083E+01  0.74691582452E+01  0.17770000000E+01 0.  1.
         15    1    1    2    0    0  0.58077059855E+00  0.19063015103E+01  0.16775261961E+03  0.16777386684E+03  0.17770000000E+01 0. -1.
</event>
<event>
 6    1  0.1697564E-002  0.1873207E+03  0.7546771E-02  0.1064681E+00
        -11   -1    0    0    0    0  0.00000000000E+00  0.00000000000E+00  0.18250000000E+03  0.18250000000E+03  0.00000000000E+00 0. -1.
         11   -1    0    0    0    0 -0.00000000000E+00 -0.00000000000E+00 -0.18250000000E+03  0.18250000000E+03  0.00000000000E+00 0. -1.
        -11    1    1    2    0    0  0.19630203587E+01 -0.76473811306E+01  0.17750379403E+03  0.17767929757E+03  0.00000000000E+00 0. -1.
         11    1    1    2    0    0 -0.46826826331E+01  0.75133603079E+00 -0.16924587402E+03  0.16931230875E+03  0.00000000000E+00 0. -1.
        -15    1    1    2    0    0  0.53596571880E+01  0.69347042436E+01 -0.10737559168E+02  0.13973866824E+02  0.17770000000E+01 0.  1.
         15    1    1    2    0    0 -0.26399949135E+01 -0.38659143819E-01  0.24796391497E+01  0.40345268602E+01  0.17770000000E+01 0. -1.
</event>
<event>
 6    1  0.1697564E-002  0.1885924E+03  0.7546771E-02  0.1063706E+00
        -11   -1    0    0    0    0  0.00000000000E+00  0.00000000000E+00  0.18250000000E+03  0.18250000000E+03  0.00000000000E+00 0. -1.
         11   -1    0    0    0    0 -0.00000000000E+00 -0.00000000000E+00 -0.18250000000E+03  0.18250000000E+03  0.00000000000E+00 0. -1.
        -11    1    1    2    0    0 -0.16271255610E+02 -0.25792196940E+01  0.15917333894E+03  0.16002361689E+03  0.00000000000E+00 0. -1.
         11    1    1    2    0    0  0.54206419959E+00 -0.26932290649E+01 -0.17638618272E+03  0.17640757572E+03  0.00000000000E+00 0. -1.
        -15    1    1    2    0    0  0.34665022813E+01 -0.41420757073E+01  0.46172864289E+00  0.57047656894E+01  0.17770000000E+01 0. -1.
         15    1    1    2    0    0  0.12262689130E+02  0.94145244662E+01  0.16751115137E+02  0.22864041702E+02  0.17770000000E+01 0.  1.
</event>
<event>
 6    1  0.1697564E-002  0.1840210E+03  0.7546771E-02  0.1067250E+00
        -11   -1    0    0    0    0  0.00000000000E+00  0.00000000000E+00  0.18250000000E+03  0.18250000000E+03  0.00000000000E+00 0.  1.
         11   -1    0    0    0    0 -0.00000000000E+00 -0.00000000000E+00 -0.18250000000E+03  0.18250000000E+03  0.00000000000E+00 0.  1.
        -11    1    1    2    0    0  0.62138191924E+00 -0.42766759087E+01  0.18092737845E+03  0.18097898315E+03  0.00000000000E+00 0.  1.
         11    1    1    2    0    0  0.55086111000E+01  0.23466269143E+01 -0.16666383823E+03  0.16677135974E+03  0.00000000000E+00 0.  1.
        -15    1    1    2    0    0 -0.33548185132E+01  0.24702040954E+01 -0.12847489261E+02  0.13622497012E+02  0.17770000000E+01 0.  1.
         15    1    1    2    0    0 -0.27751745060E+01 -0.54015510101E+00 -0.14160509516E+01  0.36271600970E+01  0.17770000000E+01 0. -1.
</event>
<event>
 6    1  0.1697564E-002  0.1828420E+03  0.7546771E-02  0.1068183E+00
        -11   -1    0    0    0    0  0.00000000000E+00  0.00000000000E+00  0.18250000000E+03  0.18250000000E+03  0.00000000000E+00 0. -1.
         11   -1    0    0    0    0 -0.00000000000E+00 -0.00000000000E+00 -0.18250000000E+03  0.18250000000E+03  0.00000000000E+00 0.  1.
        -11    1    1    2    0    0 -0.53169900155E+01  0.62095897390E+01  0.18197444819E+03  0.18215797864E+03  0.00000000000E+00 0. -1.
         11    1    1    2    0    0 -0.21941606250E+01 -0.13439603574E+01 -0.81997120169E+02  0.82037480985E+02  0.00000000000E+00 0.  1.
        -15    1    1    2    0    0  0.26469217175E+01 -0.47514443450E+01 -0.24910570573E+02  0.25559277635E+02  0.17770000000E+01 0.  1.
         15    1    1    2    0    0  0.48642289230E+01 -0.11418503661E+00 -0.75066757452E+02  0.75245262738E+02  0.17770000000E+01 0. -1.
</event>
<event>
 6    1  0.1697564E-002  0.1837386E+03  0.7546771E-02  0.1067473E+00
        -11   -1    0    0    0    0  0.00000000000E+00  0.00000000000E+00  0.18250000000E+03  0.18250000000E+03  0.00000000000E+00 0. -1.
         11   -1    0    0    0    0 -0.00000000000E+00 -0.00000000000E+00 -0.18250000000E+03  0.18250000000E+03  0.00000000000E+00 0.  1.
        -11    1    1    2    0    0  0.55211789856E+01 -0.89890023374E+01  0.18095412136E+03  0.18126135721E+03  0.00000000000E+00 0. -1.
         11    1    1    2    0    0 -0.86611701823E+00 -0.94894539264E+00 -0.85659132519E+02  0.85668767004E+02  0.00000000000E+00 0.  1.
        -15    1    1    2    0    0 -0.22884812560E+00  0.40135205397E+01 -0.85762009903E+02  0.85874564280E+02  0.17770000000E+01 0.  1.
         15    1    1    2    0    0 -0.44262138418E+01  0.59244271904E+01 -0.95329789332E+01  0.12195311511E+02  0.17770000000E+01 0. -1.
</event>
<event>
 6    1  0.1697564E-002  0.1830712E+03  0.7546771E-02  0.1068001E+00
        -11   -1    0    0    0    0  0.00000000000E+00  0.00000000000E+00  0.18250000000E+03  0.18250000000E+03  0.00000000000E+00 0. -1.
         11   -1    0    0    0    0 -0.00000000000E+00 -0.00000000000E+00 -0.18250000000E+03  0.18250000000E+03  0.00000000000E+00 0.  1.
        -11    1    1    2    0    0 -0.76360049307E+01 -0.33316761791E+01  0.18173796854E+03  0.18192882632E+03  0.00000000000E+00 0. -1.
         11    1    1    2    0    0 -0.39767263253E+01 -0.34822781868E+01 -0.87311963971E+02  0.87471822126E+02  0.00000000000E+00 0.  1.
        -15    1    1    2    0    0  0.21879488719E+01 -0.46577905407E+00 -0.20800196709E+02  0.20995475287E+02  0.17770000000E+01 0.  1.
         15    1    1    2    0    0  0.94247823840E+01  0.72797334200E+01 -0.73625807861E+02  0.74603876266E+02  0.17770000000E+01 0.  1.
</event>
<event>
 6    1  0.1697564E-002  0.1827688E+03  0.7546771E-02  0.1068241E+00
        -11   -1    0    0    0    0  0.00000000000E+00  0.00000000000E+00  0.18250000000E+03  0.18250000000E+03  0.00000000000E+00 0.  1.
         11   -1    0    0    0    0 -0.00000000000E+00 -0.00000000000E+00 -0.18250000000E+03  0.18250000000E+03  0.00000000000E+00 0. -1.
        -11    1    1    2    0    0 -0.20735531317E+01  0.13337349203E+01  0.18221457061E+03  0.18223124928E+03  0.00000000000E+00 0.  1.
         11    1    1    2    0    0  0.13089931492E+01  0.17503589285E+01 -0.55781891985E+02  0.55824696084E+02  0.00000000000E+00 0. -1.
        -15    1    1    2    0    0 -0.15403313805E+01 -0.19035009569E+01 -0.11621950993E+03  0.11625888419E+03  0.17770000000E+01 0. -1.
         15    1    1    2    0    0  0.23048913630E+01 -0.11805928920E+01 -0.10213168692E+02  0.10685170448E+02  0.17770000000E+01 0. -1.
</event>
<event>
 6    1  0.1697564E-002  0.1850212E+03  0.7546771E-02  0.1066465E+00
        -11   -1    0    0    0    0  0.00000000000E+00  0.00000000000E+00  0.18250000000E+03  0.18250000000E+03  0.00000000000E+00 0.  1.
         11   -1    0    0    0    0 -0.00000000000E+00 -0.00000000000E+00 -0.18250000000E+03  0.18250000000E+03  0.00000000000E+00 0. -1.
        -11    1    1    2    0    0  0.36659643540E+01  0.29216333343E+01  0.17991773447E+03  0.17997879434E+03  0.00000000000E+00 0.  1.
         11    1    1    2    0    0 -0.31741633553E+01  0.78293457697E+00 -0.17033475604E+03  0.17036612755E+03  0.00000000000E+00 0. -1.
        -15    1    1    2    0    0  0.32546220873E+01 -0.24468154412E+01 -0.93073213401E+01  0.10313264772E+02  0.17770000000E+01 0.  1.
         15    1    1    2    0    0 -0.37464230860E+01 -0.12577524700E+01 -0.27565708626E+00  0.43418133360E+01  0.17770000000E+01 0. -1.
</event>
<event>
 6    1  0.1744560E-002  0.1685549E+03  0.7546771E-02  0.1080131E+00
        -11   -1    0    0    0    0  0.00000000000E+00  0.00000000000E+00  0.18250000000E+03  0.18250000000E+03  0.00000000000E+00 0.  1.
         11   -1    0    0    0    0 -0.00000000000E+00 -0.00000000000E+00 -0.18250000000E+03  0.18250000000E+03  0.00000000000E+00 0. -1.
        -11    1    1    2    0    0 -0.30262608044E-01  0.26267268977E+01  0.17212311435E+03  0.17214315875E+03  0.00000000000E+00 0.  1.
         11    1    1    2    0    0  0.12414541184E+02 -0.67496953151E+01 -0.16469586019E+03  0.16530095458E+03  0.00000000000E+00 0. -1.
        -15    1    1    2    0    0 -0.11218177711E+02  0.99999672169E+00 -0.15148529030E+02  0.18960041281E+02  0.17770000000E+01 0.  1.
         15    1    1    2    0    0 -0.11661008642E+01  0.31229716957E+01  0.77212748732E+01  0.85958453980E+01  0.17770000000E+01 0. -1.
</event>
<event>
 6    1  0.1697564E-002  0.1830467E+03  0.7546771E-02  0.1068020E+00
        -11   -1    0    0    0    0  0.00000000000E+00  0.00000000000E+00  0.18250000000E+03  0.18250000000E+03  0.00000000000E+00 0.  1.
         11   -1    0    0    0    0 -0.00000000000E+00 -0.00000000000E+00 -0.18250000000E+03  0.18250000000E+03  0.00000000000E+00 0. -1.
        -11    1    1    2    0    0  0.35537593939E+01  0.11778445387E+01  0.18191477724E+03  0.18195329813E+03  0.00000000000E+00 0.  1.
         11    1    1    2    0    0 -0.18110568940E+01  0.17929602048E+01 -0.12276522575E+03  0.12279167434E+03  0.00000000000E+00 0. -1.
        -15    1    1    2    0    0 -0.45335550111E+01 -0.35608318298E+01 -0.18325100187E+02  0.19292477037E+02  0.17770000000E+01 0.  1.
         15    1    1    2    0    0  0.27908525112E+01  0.59002708626E+00 -0.40824451304E+02  0.40962550494E+02  0.17770000000E+01 0. -1.
</event>
<event>
 6    1  0.1697564E-002  0.1833301E+03  0.7546771E-02  0.1067796E+00
        -11   -1    0    0    0    0  0.00000000000E+00  0.00000000000E+00  0.18250000000E+03  0.18250000000E+03  0.00000000000E+00 0. -1.
         11   -1    0    0    0    0 -0.00000000000E+00 -0.00000000000E+00 -0.18250000000E+03  0.18250000000E+03  0.00000000000E+00 0. -1.
        -11    1    1    2    0    0 -0.71697291680E+01  0.20688604853E+00  0.12478211427E+03  0.12498809488E+03  0.00000000000E+00 0. -1.
         11    1    1    2    0    0 -0.17699314425E+01 -0.36338032603E+01 -0.18162492773E+03  0.18166989722E+03  0.00000000000E+00 0. -1.
        -15    1    1    2    0    0  0.74973749456E+01  0.27292175787E+00  0.48795183321E+02  0.49400534022E+02  0.17770000000E+01 0. -1.
         15    1    1    2    0    0  0.14422856649E+01  0.31539954539E+01  0.80476301382E+01  0.89414738776E+01  0.17770000000E+01 0.  1.
</event>
<event>
 6    1  0.1697564E-002  0.1762507E+03  0.7546771E-02  0.1073541E+00
        -11   -1    0    0    0    0  0.00000000000E+00  0.00000000000E+00  0.18250000000E+03  0.18250000000E+03  0.00000000000E+00 0. -1.
         11   -1    0    0    0    0 -0.00000000000E+00 -0.00000000000E+00 -0.18250000000E+03  0.18250000000E+03  0.00000000000E+00 0.  1.
        -11    1    1    2    0    0  0.40053097866E+01 -0.13904870938E+01  0.12303036576E+02  0.13013096089E+02  0.00000000000E+00 0. -1.
         11    1    1    2    0    0 -0.47764243590E+01  0.90143188592E+00 -0.18172024602E+03  0.18178524314E+03  0.00000000000E+00 0.  1.
        -15    1    1    2    0    0  0.60599457712E+01 -0.53052721930E+01  0.90966846110E+02  0.91339989468E+02  0.17770000000E+01 0.  1.
         15    1    1    2    0    0 -0.52888311988E+01  0.57943274009E+01  0.78450363332E+02  0.78861671308E+02  0.17770000000E+01 0. -1.
</event>
<event>
 6    1  0.1697564E-002  0.1844834E+03  0.7546771E-02  0.1066887E+00
        -11   -1    0    0    0    0  0.00000000000E+00  0.00000000000E+00  0.18250000000E+03  0.18250000000E+03  0.00000000000E+00 0.  1.
         11   -1    0    0    0    0 -0.00000000000E+00 -0.00000000000E+00 -0.18250000000E+03  0.18250000000E+03  0.00000000000E+00 0. -1.
        -11    1    1    2    0    0  0.15543730740E+01 -0.59814464121E+01  0.18041073920E+03  0.18051656045E+03  0.00000000000E+00 0.  1.
         11    1    1    2    0    0 -0.28393015370E+01  0.38705949880E+01 -0.13432277098E+03  0.13440851886E+03  0.00000000000E+00 0. -1.
        -15    1    1    2    0    0 -0.13959880977E+01  0.10022113571E+02 -0.31914848399E+02  0.33527702285E+02  0.17770000000E+01 0. -1.
         15    1    1    2    0    0  0.26809165607E+01 -0.79112621464E+01 -0.14173119827E+02  0.16547218406E+02  0.17770000000E+01 0.  1.
</event>
<event>
 6    1  0.1697564E-002  0.1837000E+03  0.7546771E-02  0.1067504E+00
        -11   -1    0    0    0    0  0.00000000000E+00  0.00000000000E+00  0.18250000000E+03  0.18250000000E+03  0.00000000000E+00 0. -1.
         11   -1    0    0    0    0 -0.00000000000E+00 -0.00000000000E+00 -0.18250000000E+03  0.18250000000E+03  0.00000000000E+00 0. -1.
        -11    1    1    2    0    0  0.38103284604E+01 -0.62519369318E+00  0.18125891091E+03  0.18130003379E+03  0.00000000000E+00 0. -1.
         11    1    1    2    0    0  0.19727441133E+01  0.61016145157E+00 -0.82005124523E+02  0.82031118878E+02  0.00000000000E+00 0. -1.
        -15    1    1    2    0    0 -0.71563581390E+01  0.23565417368E+00 -0.10209945403E+02  0.12596416508E+02  0.17770000000E+01 0. -1.
         15    1    1    2    0    0  0.13732855653E+01 -0.22062193207E+00 -0.89043840980E+02  0.89072430823E+02  0.17770000000E+01 0. -1.
</event>
<event>
 6    1  0.1697564E-002  0.1832133E+03  0.7546771E-02  0.1067888E+00
        -11   -1    0    0    0    0  0.00000000000E+00  0.00000000000E+00  0.18250000000E+03  0.18250000000E+03  0.00000000000E+00 0.  1.
         11   -1    0    0    0    0 -0.00000000000E+00 -0.00000000000E+00 -0.18250000000E+03  0.18250000000E+03  0.00000000000E+00 0. -1.
        -11    1    1    2    0    0  0.24462176416E+01  0.44197623091E+01  0.14153916344E+03  0.14162928041E+03  0.00000000000E+00 0.  1.
         11    1    1    2    0    0  0.54251818977E+00 -0.37038912693E+01 -0.18174811927E+03  0.18178666617E+03  0.00000000000E+00 0. -1.
        -15    1    1    2    0    0 -0.42481271578E+01 -0.42540521110E+01  0.20291026194E+02  0.21237396656E+02  0.17770000000E+01 0. -1.
         15    1    1    2    0    0  0.12593913264E+01  0.35381810712E+01  0.19917929636E+02  0.20346656771E+02  0.17770000000E+01 0.  1.
</event>
<event>
 6    1  0.1697564E-002  0.1842048E+03  0.7546771E-02  0.1067106E+00
        -11   -1    0    0    0    0  0.00000000000E+00  0.00000000000E+00  0.18250000000E+03  0.18250000000E+03  0.00000000000E+00 0.  1.
         11   -1    0    0    0    0 -0.00000000000E+00 -0.00000000000E+00 -0.18250000000E+03  0.18250000000E+03  0.00000000000E+00 0. -1.
        -11    1    1    2    0    0  0.27120362084E+01  0.20663298111E+01  0.82261002358E+02  0.82331630423E+02  0.00000000000E+00 0.  1.
         11    1    1    2    0    0  0.27079457501E+01  0.29642987250E+01 -0.18075065544E+03  0.18079524186E+03  0.00000000000E+00 0. -1.
        -15    1    1    2    0    0 -0.21323928100E+01 -0.51139802562E+01  0.97919059028E+02  0.98091792435E+02  0.17770000000E+01 0.  1.
         15    1    1    2    0    0 -0.32875891484E+01  0.83351720087E-01  0.57059405657E+00  0.37813352795E+01  0.17770000000E+01 0. -1.
</event>
<event>
 6    1  0.1697564E-002  0.1878244E+03  0.7546771E-02  0.1064294E+00
        -11   -1    0    0    0    0  0.00000000000E+00  0.00000000000E+00  0.18250000000E+03  0.18250000000E+03  0.00000000000E+00 0.  1.
         11   -1    0    0    0    0 -0.00000000000E+00 -0.00000000000E+00 -0.18250000000E+03  0.18250000000E+03  0.00000000000E+00 0.  1.
        -11    1    1    2    0    0  0.17593242025E+02  0.71039746703E+01  0.17615677320E+03  0.17717561166E+03  0.00000000000E+00 0.  1.
         11    1    1    2    0    0 -0.90966271971E+00  0.41486067034E+00 -0.25126416504E+02  0.25146299965E+02  0.00000000000E+00 0.  1.
        -15    1    1    2    0    0 -0.74650991842E+01  0.11518865762E+02 -0.44060347754E+01  0.14525248559E+02  0.17770000000E+01 0. -1.
         15    1    1    2    0    0 -0.92184801212E+01 -0.19037701102E+02 -0.14662432192E+03  0.14815283982E+03  0.17770000000E+01 0.  1.
</event>
<event>
 6    1  0.1697564E-002  0.1834991E+03  0.7546771E-02  0.1067662E+00
        -11   -1    0    0    0    0  0.00000000000E+00  0.00000000000E+00  0.18250000000E+03  0.18250000000E+03  0.00000000000E+00 0.  1.
         11   -1    0    0    0    0 -0.00000000000E+00 -0.00000000000E+00 -0.18250000000E+03  0.18250000000E+03  0.00000000000E+00 0.  1.
        -11    1    1    2    0    0  0.26618921593E+01 -0.45905501220E+01  0.13901076290E+03  0.13911200891E+03  0.00000000000E+00 0.  1.
         11    1    1    2    0    0 -0.59782992110E+01 -0.38679647980E+01 -0.18136115338E+03  0.18150087925E+03  0.00000000000E+00 0.  1.
        -15    1    1    2    0    0  0.98689826272E+00  0.47779581202E+01  0.36558638984E+02  0.36925528640E+02  0.17770000000E+01 0.  1.
         15    1    1    2    0    0  0.23295087889E+01  0.36805567997E+01  0.57917514927E+01  0.74615832038E+01  0.17770000000E+01 0. -1.
</event>
<event>
 6    1  0.1697564E-002  0.1849076E+03  0.7546771E-02  0.1066554E+00
        -11   -1    0    0    0    0  0.00000000000E+00  0.00000000000E+00  0.18250000000E+03  0.18250000000E+03  0.00000000000E+00 0. -1.
         11   -1    0    0    0    0 -0.00000000000E+00 -0.00000000000E+00 -0.18250000000E+03  0.18250000000E+03  0.00000000000E+00 0.  1.
        -11    1    1    2    0    0  0.19021534590E+01 -0.27686434805E+01  0.12644652241E+03  0.12649113251E+03  0.00000000000E+00 0. -1.
         11    1    1    2    0    0 -0.85502004228E+01 -0.15467255740E+01 -0.17988266405E+03  0.18009239604E+03  0.00000000000E+00 0.  1.
        -15    1    1    2    0    0 -0.59097503701E+01  0.82013059573E+01  0.25617228385E+02  0.27596860110E+02  0.17770000000E+01 0. -1.
         15    1    1    2    0    0  0.12557797334E+02 -0.38859369028E+01  0.27818913253E+02  0.30819611338E+02  0.17770000000E+01 0.  1.
</event>
<event>
 6    1  0.1697564E-002  0.2052972E+03  0.7546771E-02  0.1051630E+00
        -11   -1    0    0    0    0  0.00000000000E+00  0.00000000000E+00  0.18250000000E+03  0.18250000000E+03  0.00000000000E+00 0.  1.
         11   -1    0    0    0    0 -0.00000000000E+00 -0.00000000000E+00 -0.18250000000E+03  0.18250000000E+03  0.00000000000E+00 0. -1.
        -11    1    1    2    0    0 -0.28663965557E+01 -0.10185950757E+01  0.15967386934E+03  0.15970284379E+03  0.00000000000E+00 0.  1.
         11    1    1    2    0    0 -0.93930009615E+01  0.60475155171E+00 -0.15003077612E+03  0.15032573956E+03  0.00000000000E+00 0. -1.
        -15    1    1    2    0    0  0.19174002879E+02  0.22914854572E+02 -0.93685447983E+01  0.31363359309E+02  0.17770000000E+01 0. -1.
         15    1    1    2    0    0 -0.69146053623E+01 -0.22501011048E+02 -0.27454841531E+00  0.23608057339E+02  0.17770000000E+01 0.  1.
</event>
<event>
 6    1  0.1697564E-002  0.1970313E+03  0.7546771E-02  0.1057442E+00
        -11   -1    0    0    0    0  0.00000000000E+00  0.00000000000E+00  0.18250000000E+03  0.18250000000E+03  0.00000000000E+00 0.  1.
         11   -1    0    0    0    0 -0.00000000000E+00 -0.00000000000E+00 -0.18250000000E+03  0.18250000000E+03  0.00000000000E+00 0. -1.
        -11    1    1    2    0    0 -0.15524645034E+01  0.15809390991E+01  0.15664885542E+03  0.15666452508E+03  0.00000000000E+00 0.  1.
         11    1    1    2    0    0  0.25604303888E+01  0.68264346471E+01 -0.16781037402E+03  0.16796868054E+03  0.00000000000E+00 0. -1.
        -15    1    1    2    0    0 -0.12625342372E+01 -0.67114321870E+01 -0.13685335811E+02  0.15397514733E+02  0.17770000000E+01 0.  1.
         15    1    1    2    0    0  0.25456835176E+00 -0.16959415591E+01  0.24846854411E+02  0.24969279644E+02  0.17770000000E+01 0. -1.
</event>
<event>
 6    1  0.1697564E-002  0.1876353E+03  0.7546771E-02  0.1064439E+00
        -11   -1    0    0    0    0  0.00000000000E+00  0.00000000000E+00  0.18250000000E+03  0.18250000000E+03  0.00000000000E+00 0.  1.
         11   -1    0    0    0    0 -0.00000000000E+00 -0.00000000000E+00 -0.18250000000E+03  0.18250000000E+03  0.00000000000E+00 0.  1.
        -11    1    1    2    0    0  0.21871614860E+01  0.20113727935E+01  0.91127445495E+02  0.91175877393E+02  0.00000000000E+00 0.  1.
         11    1    1    2    0    0  0.19714391669E+01 -0.10728995309E+02 -0.17702893374E+03  0.17736471265E+03  0.00000000000E+00 0.  1.
        -15    1    1    2    0    0 -0.72962382434E+00  0.93590575647E+01 -0.87546401251E+00  0.95941896824E+01  0.17770000000E+01 0. -1.
         15    1    1    2    0    0 -0.34289768285E+01 -0.64143504868E+00  0.86776952257E+02  0.86865220273E+02  0.17770000000E+01 0.  1.
</event>
<event>
 6    1  0.1697564E-002  0.1826117E+03  0.7546771E-02  0.1068366E+00
        -11   -1    0    0    0    0  0.00000000000E+00  0.00000000000E+00  0.18250000000E+03  0.18250000000E+03  0.00000000000E+00 0. -1.
         11   -1    0    0    0    0 -0.00000000000E+00 -0.00000000000E+00 -0.18250000000E+03  0.18250000000E+03  0.00000000000E+00 0.  1.
        -11    1    1    2    0    0  0.17071829732E+00 -0.10017964185E+01  0.71832286010E+02  0.71839474206E+02  0.00000000000E+00 0. -1.
         11    1    1    2    0    0  0.11795589012E+01 -0.29455074964E+01 -0.18236070829E+03  0.18238830911E+03  0.00000000000E+00 0.  1.
        -15    1    1    2    0    0 -0.74623517948E+00  0.23817349780E+01  0.95272700597E+02  0.95321953067E+02  0.17770000000E+01 0. -1.
         15    1    1    2    0    0 -0.60404201904E+00  0.15655689369E+01  0.15255721679E+02  0.15450263616E+02  0.17770000000E+01 0.  1.
</event>
<event>
 6    1  0.1697564E-002  0.1970350E+03  0.7546771E-02  0.1057440E+00
        -11   -1    0    0    0    0  0.00000000000E+00  0.00000000000E+00  0.18250000000E+03  0.18250000000E+03  0.00000000000E+00 0.  1.
         11   -1    0    0    0    0 -0.00000000000E+00 -0.00000000000E+00 -0.18250000000E+03  0.18250000000E+03  0.00000000000E+00 0. -1.
        -11    1    1    2    0    0 -0.20082171498E+01  0.13146423218E+01  0.16794787825E+03  0.16796502919E+03  0.00000000000E+00 0.  1.
         11    1    1    2    0    0 -0.64604816260E+01 -0.20299541401E+01 -0.15218427683E+03  0.15233487011E+03  0.00000000000E+00 0. -1.
        -15    1    1    2    0    0  0.78227301809E+01 -0.87486406179E+00  0.13286533006E+02  0.15545101574E+02  0.17770000000E+01 0.  1.
         15    1    1    2    0    0  0.64596859484E+00  0.15901758801E+01 -0.29050134433E+02  0.29154999131E+02  0.17770000000E+01 0.  1.
</event>
<event>
 6    1  0.1697564E-002  0.1863063E+03  0.7546771E-02  0.1065465E+00
        -11   -1    0    0    0    0  0.00000000000E+00  0.00000000000E+00  0.18250000000E+03  0.18250000000E+03  0.00000000000E+00 0.  1.
         11   -1    0    0    0    0 -0.00000000000E+00 -0.00000000000E+00 -0.18250000000E+03  0.18250000000E+03  0.00000000000E+00 0.  1.
        -11    1    1    2    0    0  0.36560663576E+01 -0.69087585434E+01  0.16311554500E+03  0.16330272130E+03  0.00000000000E+00 0.  1.
         11    1    1    2    0    0 -0.16261173257E+01  0.80208861278E+01 -0.17850615385E+03  0.17869366479E+03  0.00000000000E+00 0.  1.
        -15    1    1    2    0    0  0.29000988823E+01 -0.17143936165E+01 -0.23633956271E+01  0.44825313038E+01  0.17770000000E+01 0.  1.
         15    1    1    2    0    0 -0.49300479142E+01  0.60226603207E+00  0.17754004482E+02  0.18521082607E+02  0.17770000000E+01 0. -1.
</event>
<event>
 6    1  0.1697564E-002  0.1834403E+03  0.7546771E-02  0.1067709E+00
        -11   -1    0    0    0    0  0.00000000000E+00  0.00000000000E+00  0.18250000000E+03  0.18250000000E+03  0.00000000000E+00 0. -1.
         11   -1    0    0    0    0 -0.00000000000E+00 -0.00000000000E+00 -0.18250000000E+03  0.18250000000E+03  0.00000000000E+00 0. -1.
        -11    1    1    2    0    0 -0.27229275233E+01 -0.71505572148E+00  0.18153783423E+03  0.18155966209E+03  0.00000000000E+00 0. -1.
         11    1    1    2    0    0 -0.29102800152E+01 -0.18549978924E+01 -0.14985356969E+03  0.14989330570E+03  0.00000000000E+00 0. -1.
        -15    1    1    2    0    0  0.29289075172E+01  0.55458864321E+01 -0.21164322258E+02  0.22145465026E+02  0.17770000000E+01 0.  1.
         15    1    1    2    0    0  0.27043000213E+01 -0.29758328182E+01 -0.10519942288E+02  0.11401567186E+02  0.17770000000E+01 0. -1.
</event>
<event>
 6    1  0.1697564E-002  0.1870071E+03  0.7546771E-02  0.1064923E+00
        -11   -1    0    0    0    0  0.00000000000E+00  0.00000000000E+00  0.18250000000E+03  0.18250000000E+03  0.00000000000E+00 0. -1.
         11   -1    0    0    0    0 -0.00000000000E+00 -0.00000000000E+00 -0.18250000000E+03  0.18250000000E+03  0.00000000000E+00 0.  1.
        -11    1    1    2    0    0  0.43746255326E+01  0.12929193101E+01  0.16614821955E+03  0.16621082952E+03  0.00000000000E+00 0. -1.
         11    1    1    2    0    0  0.11527861518E+01  0.22192020303E+01 -0.17797531504E+03  0.17799288339E+03  0.00000000000E+00 0.  1.
        -15    1    1    2    0    0 -0.75305240041E+01 -0.48021465284E+01  0.14284095048E+02  0.16939967633E+02  0.17770000000E+01 0. -1.
         15    1    1    2    0    0  0.20031123197E+01  0.12900251881E+01 -0.24569995545E+01  0.38563194580E+01  0.17770000000E+01 0. -1.
</event>
<event>
 6    1  0.1697564E-002  0.1842571E+03  0.7546771E-02  0.1067065E+00
        -11   -1    0    0    0    0  0.00000000000E+00  0.00000000000E+00  0.18250000000E+03  0.18250000000E+03  0.00000000000E+00 0. -1.
         11   -1    0    0    0    0 -0.00000000000E+00 -0.00000000000E+00 -0.18250000000E+03  0.18250000000E+03  0.00000000000E+00 0.  1.
        -11    1    1    2    0    0 -0.25579591398E+01 -0.29480290964E+00  0.18072452541E+03  0.18074286749E+03  0.00000000000E+00 0. -1.
         11    1    1    2    0    0  0.11093310265E+01 -0.19692629080E+01 -0.16451547777E+03  0.16453100327E+03  0.00000000000E+00 0.  1.
        -15    1    1    2    0    0  0.11629094703E+01 -0.34554050293E+01 -0.11204740104E+02  0.11916212157E+02  0.17770000000E+01 0.  1.
         15    1    1    2    0    0  0.28571864296E+00  0.57194708470E+01 -0.50043075377E+01  0.78099170831E+01  0.17770000000E+01 0. -1.
</event>
<event>
 6    1  0.1697564E-002  0.1829917E+03  0.7546771E-02  0.1068064E+00
        -11   -1    0    0    0    0  0.00000000000E+00  0.00000000000E+00  0.18250000000E+03  0.18250000000E+03  0.00000000000E+00 0. -1.
         11   -1    0    0    0    0 -0.00000000000E+00 -0.00000000000E+00 -0.18250000000E+03  0.18250000000E+03  0.00000000000E+00 0. -1.
        -11    1    1    2    0    0  0.29271536215E+01 -0.70318828682E+00  0.13362774415E+03  0.13366165011E+03  0.00000000000E+00 0. -1.
         11    1    1    2    0    0 -0.70884015186E-01 -0.29613762355E+01 -0.18198421271E+03  0.18200831972E+03  0.00000000000E+00 0. -1.
        -15    1    1    2    0    0  0.24198866506E+01 -0.13313821735E+00  0.15827631189E+02  0.16110407048E+02  0.17770000000E+01 0.  1.
         15    1    1    2    0    0 -0.52761562569E+01  0.37977027397E+01  0.32528837364E+02  0.33219623120E+02  0.17770000000E+01 0. -1.
</event>
<event>
 6    1  0.1697564E-002  0.1828999E+03  0.7546771E-02  0.1068137E+00
        -11   -1    0    0    0    0  0.00000000000E+00  0.00000000000E+00  0.18250000000E+03  0.18250000000E+03  0.00000000000E+00 0. -1.
         11   -1    0    0    0    0 -0.00000000000E+00 -0.00000000000E+00 -0.18250000000E+03  0.18250000000E+03  0.00000000000E+00 0.  1.
        -11    1    1    2    0    0  0.22403658728E+01 -0.23210294337E+01  0.28889908877E+02  0.29069455650E+02  0.00000000000E+00 0. -1.
         11    1    1    2    0    0 -0.30593504390E+01 -0.21197105797E+01 -0.18206204607E+03  0.18210008626E+03  0.00000000000E+00 0.  1.
        -15    1    1    2    0    0  0.88390529160E+00  0.30837729726E+01  0.14939991944E+03  0.14944492163E+03  0.17770000000E+01 0. -1.
         15    1    1    2    0    0 -0.64920725435E-01  0.13569670408E+01  0.37722177499E+01  0.43855364556E+01  0.17770000000E+01 0.  1.
</event>
<event>
 6    1  0.1697564E-002  0.1826698E+03  0.7546771E-02  0.1068320E+00
        -11   -1    0    0    0    0  0.00000000000E+00  0.00000000000E+00  0.18250000000E+03  0.18250000000E+03  0.00000000000E+00 0.  1.
         11   -1    0    0    0    0 -0.00000000000E+00 -0.00000000000E+00 -0.18250000000E+03  0.18250000000E+03  0.00000000000E+00 0.  1.
        -11    1    1    2    0    0  0.28964969011E+01  0.40754042343E+00  0.93280989463E+02  0.93326838469E+02  0.00000000000E+00 0.  1.
         11    1    1    2    0    0 -0.34223245932E+01  0.16554009952E+01 -0.18229057426E+03  0.18233021176E+03  0.00000000000E+00 0.  1.
        -15    1    1    2    0    0 -0.29776879722E+01 -0.68527951766E+00  0.38285016236E+02  0.38447840393E+02  0.17770000000E+01 0. -1.
         15    1    1    2    0    0  0.35035156643E+01 -0.13776619010E+01  0.50724568557E+02  0.50895109378E+02  0.17770000000E+01 0.  1.
</event>
<event>
 6    1  0.1697564E-002  0.1857304E+03  0.7546771E-02  0.1065912E+00
        -11   -1    0    0    0    0  0.00000000000E+00  0.00000000000E+00  0.18250000000E+03  0.18250000000E+03  0.00000000000E+00 0. -1.
         11   -1    0    0    0    0 -0.00000000000E+00 -0.00000000000E+00 -0.18250000000E+03  0.18250000000E+03  0.00000000000E+00 0.  1.
        -11    1    1    2    0    0  0.65898211187E+01 -0.18689980184E+01  0.17913872263E+03  0.17926963168E+03  0.00000000000E+00 0. -1.
         11    1    1    2    0    0 -0.97194994389E+00 -0.66403560224E+01 -0.16058764656E+03  0.16072781726E+03  0.00000000000E+00 0.  1.
        -15    1    1    2    0    0 -0.50563079959E+01  0.68672179526E+01 -0.20215562167E+02  0.22012533150E+02  0.17770000000E+01 0. -1.
         15    1    1    2    0    0 -0.56156317889E+00  0.16421360882E+01  0.16644860916E+01  0.29900179072E+01  0.17770000000E+01 0.  1.
</event>
<event>
 6    1  0.1697564E-002  0.1863216E+03  0.7546771E-02  0.1065453E+00
        -11   -1    0    0    0    0  0.00000000000E+00  0.00000000000E+00  0.18250000000E+03  0.18250000000E+03  0.00000000000E+00 0.  1.
         11   -1    0    0    0    0 -0.00000000000E+00 -0.00000000000E+00 -0.18250000000E+03  0.18250000000E+03  0.00000000000E+00 0.  1.
        -11    1    1    2    0    0 -0.29701926237E+01  0.36333868781E+01  0.15768769970E+03  0.15775751703E+03  0.00000000000E+00 0.  1.
         11    1    1    2    0    0 -0.30232554994E+00  0.71202015149E+01 -0.17853618379E+03  0.17867836353E+03  0.00000000000E+00 0.  1.
        -15    1    1    2    0    0 -0.57696039573E+01 -0.12633359856E+01  0.51478007279E+01  0.80337991617E+01  0.17770000000E+01 0.  1.
         15    1    1    2    0    0  0.90421221309E+01 -0.94902524073E+01  0.15700683365E+02  0.20530320273E+02  0.17770000000E+01 0. -1.
</event>
<event>
 6    1  0.1697564E-002  0.1778981E+03  0.7546771E-02  0.1072178E+00
        -11   -1    0    0    0    0  0.00000000000E+00  0.00000000000E+00  0.18250000000E+03  0.18250000000E+03  0.00000000000E+00 0.  1.
         11   -1    0    0    0    0 -0.00000000000E+00 -0.00000000000E+00 -0.18250000000E+03  0.18250000000E+03  0.00000000000E+00 0. -1.
        -11    1    1    2    0    0 -0.43594524118E+01  0.13116980272E+01  0.17824786287E+03  0.17830598979E+03  0.00000000000E+00 0.  1.
         11    1    1    2    0    0  0.30425049663E+00  0.27170458423E+01 -0.17751579158E+03  0.17753684453E+03  0.00000000000E+00 0. -1.
        -15    1    1    2    0    0  0.60501291895E+00 -0.29013426349E+01 -0.29532078805E+01  0.45456567736E+01  0.17770000000E+01 0.  1.
         15    1    1    2    0    0  0.34501889962E+01 -0.11274012345E+01  0.22211365909E+01  0.46115089080E+01  0.17770000000E+01 0. -1.
</event>
<event>
 6    1  0.1697564E-002  0.1903635E+03  0.7546771E-02  0.1062362E+00
        -11   -1    0    0    0    0  0.00000000000E+00  0.00000000000E+00  0.18250000000E+03  0.18250000000E+03  0.00000000000E+00 0.  1.
         11   -1    0    0    0    0 -0.00000000000E+00 -0.00000000000E+00 -0.18250000000E+03  0.18250000000E+03  0.00000000000E+00 0.  1.
        -11    1    1    2    0    0 -0.13731901356E+01 -0.96392818990E+00  0.10570314395E+03  0.10571645780E+03  0.00000000000E+00 0.  1.
         11    1    1    2    0    0  0.26028988620E+01 -0.16771886223E+01 -0.17460904581E+03  0.17463649940E+03  0.00000000000E+00 0.  1.
        -15    1    1    2    0    0 -0.21134334576E+01  0.16853534509E+01 -0.75216292575E+01  0.81877746013E+01  0.17770000000E+01 0.  1.
         15    1    1    2    0    0  0.88372473115E+00  0.95576336128E+00  0.76427531110E+02  0.76459268200E+02  0.17770000000E+01 0.  1.
</event>
<event>
 6    1  0.1697564E-002  0.1831074E+03  0.7546771E-02  0.1067972E+00
        -11   -1    0    0    0    0  0.00000000000E+00  0.00000000000E+00  0.18250000000E+03  0.18250000000E+03  0.00000000000E+00 0. -1.
         11   -1    0    0    0    0 -0.00000000000E+00 -0.00000000000E+00 -0.18250000000E+03  0.18250000000E+03  0.00000000000E+00 0. -1.
        -11    1    1    2    0    0  0.51918108274E+00  0.11914557835E+01  0.18364137617E+02  0.18410069698E+02  0.00000000000E+00 0. -1.
         11    1    1    2    0    0 -0.21079881990E+01 -0.18982406275E+01 -0.18187052734E+03  0.18189264869E+03  0.00000000000E+00 0. -1.
        -15    1    1    2    0    0  0.33695714533E+01  0.73518381621E+01  0.33911333981E+02  0.34907589970E+02  0.17770000000E+01 0.  1.
         15    1    1    2    0    0 -0.17807643370E+01 -0.66450533180E+01  0.12959505574E+03  0.12978969164E+03  0.17770000000E+01 0. -1.
</event>
<event>
 6    1  0.1697564E-002  0.1856356E+03  0.7546771E-02  0.1065986E+00
        -11   -1    0    0    0    0  0.00000000000E+00  0.00000000000E+00  0.18250000000E+03  0.18250000000E+03  0.00000000000E+00 0.  1.
         11   -1    0    0    0    0 -0.00000000000E+00 -0.00000000000E+00 -0.18250000000E+03  0.18250000000E+03  0.00000000000E+00 0. -1.
        -11    1    1    2    0    0 -0.71152611584E+01 -0.11743989571E+01  0.17921932721E+03  0.17936435934E+03  0.00000000000E+00 0.  1.
         11    1    1    2    0    0 -0.11912120968E+01  0.55058516174E+01 -0.13715036709E+03  0.13726600664E+03  0.00000000000E+00 0. -1.
        -15    1    1    2    0    0  0.11873716662E+02 -0.39454034782E+01 -0.10173191953E+02  0.16223529810E+02  0.17770000000E+01 0. -1.
         15    1    1    2    0    0 -0.35672434066E+01 -0.38604918214E+00 -0.31895768172E+02  0.32146104208E+02  0.17770000000E+01 0.  1.
</event>
<event>
 6    1  0.1697564E-002  0.1837595E+03  0.7546771E-02  0.1067457E+00
        -11   -1    0    0    0    0  0.00000000000E+00  0.00000000000E+00  0.18250000000E+03  0.18250000000E+03  0.00000000000E+00 0.  1.
         11   -1    0    0    0    0 -0.00000000000E+00 -0.00000000000E+00 -0.18250000000E+03  0.18250000000E+03  0.00000000000E+00 0. -1.
        -11    1    1    2    0    0  0.35407662805E+01 -0.20550949878E+01  0.33048744393E+02  0.33301350531E+02  0.00000000000E+00 0.  1.
         11    1    1    2    0    0 -0.68561266319E+01 -0.32652090275E+01 -0.18108131307E+03  0.18124047563E+03  0.00000000000E+00 0. -1.
        -15    1    1    2    0    0  0.97812390489E+01  0.13122479490E+02  0.98797544110E+02  0.10015979511E+03  0.17770000000E+01 0.  1.
         15    1    1    2    0    0 -0.64658786975E+01 -0.78021754746E+01  0.49235024570E+02  0.50298378730E+02  0.17770000000E+01 0. -1.
</event>
<event>
 6    1  0.1697564E-002  0.1836094E+03  0.7546771E-02  0.1067575E+00
        -11   -1    0    0    0    0  0.00000000000E+00  0.00000000000E+00  0.18250000000E+03  0.18250000000E+03  0.00000000000E+00 0. -1.
         11   -1    0    0    0    0 -0.00000000000E+00 -0.00000000000E+00 -0.18250000000E+03  0.18250000000E+03  0.00000000000E+00 0.  1.
        -11    1    1    2    0    0 -0.34141897629E+01 -0.48100610515E+00  0.15102876905E+03  0.15106812085E+03  0.00000000000E+00 0. -1.
         11    1    1    2    0    0 -0.26202696345E+01  0.15177426794E+01 -0.18136534511E+03  0.18139062203E+03  0.00000000000E+00 0.  1.
        -15    1    1    2    0    0 -0.99438633992E+00  0.12410770345E+01  0.17396360445E+01  0.29518026638E+01  0.17770000000E+01 0. -1.
         15    1    1    2    0    0  0.70288457374E+01 -0.22778136088E+01  0.28596940017E+02  0.29589454449E+02  0.17770000000E+01 0. -1.
</event>
<event>
 6    1  0.1697564E-002  0.1772624E+03  0.7546771E-02  0.1072702E+00
        -11   -1    0    0    0    0  0.00000000000E+00  0.00000000000E+00  0.18250000000E+03  0.18250000000E+03  0.00000000000E+00 0. -1.
         11   -1    0    0    0    0 -0.00000000000E+00 -0.00000000000E+00 -0.18250000000E+03  0.18250000000E+03  0.00000000000E+00 0. -1.
        -11    1    1    2    0    0  0.59889286735E+01  0.36633697249E+01  0.17733530829E+03  0.17747422097E+03  0.00000000000E+00 0. -1.
         11    1    1    2    0    0 -0.33439210679E+01  0.42672621878E+01 -0.17706632511E+03  0.17714930094E+03  0.00000000000E+00 0. -1.
        -15    1    1    2    0    0 -0.34491766658E+01 -0.69608486134E+01 -0.11006442519E+01  0.80448356018E+01  0.17770000000E+01 0.  1.
         15    1    1    2    0    0  0.80416906020E+00 -0.96978329933E+00  0.83166108139E+00  0.23316424853E+01  0.17770000000E+01 0. -1.
</event>
<event>
 6    1  0.1697564E-002  0.1832507E+03  0.7546771E-02  0.1067859E+00
        -11   -1    0    0    0    0  0.00000000000E+00  0.00000000000E+00  0.18250000000E+03  0.18250000000E+03  0.00000000000E+00 0. -1.
         11   -1    0    0    0    0 -0.00000000000E+00 -0.00000000000E+00 -0.18250000000E+03  0.18250000000E+03  0.00000000000E+00 0.  1.
        -11    1    1    2    0    0 -0.20088090519E+01 -0.52737931157E+01  0.12324806116E+03  0.12337719719E+03  0.00000000000E+00 0. -1.
         11    1    1    2    0    0  0.28295881588E+01  0.59877589947E+00 -0.18172633377E+03  0.18174934797E+03  0.00000000000E+00 0.  1.
        -15    1    1    2    0    0 -0.35621343624E+00  0.61275181175E+01  0.56343771742E+02  0.56704953130E+02  0.17770000000E+01 0. -1.
         15    1    1    2    0    0 -0.46456567069E+00 -0.14525009013E+01  0.21345008646E+01  0.31685017077E+01  0.17770000000E+01 0.  1.
</event>
<event>
 6    1  0.1697564E-002  0.1957815E+03  0.7546771E-02  0.1058348E+00
        -11   -1    0    0    0    0  0.00000000000E+00  0.00000000000E+00  0.18250000000E+03  0.18250000000E+03  0.00000000000E+00 0. -1.
         11   -1    0    0    0    0 -0.00000000000E+00 -0.00000000000E+00 -0.18250000000E+03  0.18250000000E+03  0.00000000000E+00 0.  1.
        -11    1    1    2    0    0 -0.15036822007E+01  0.14523171798E+02  0.16858738840E+03  0.16921847153E+03  0.00000000000E+00 0. -1.
         11    1    1    2    0    0 -0.10023690646E+01 -0.32965752258E+00 -0.52573356063E+02  0.52583944180E+02  0.00000000000E+00 0.  1.
        -15    1    1    2    0    0 -0.82843952199E+01 -0.11238728410E+02 -0.12678648013E+03  0.12756531461E+03  0.17770000000E+01 0.  1.
         15    1    1    2    0    0  0.10790446485E+02 -0.29547858656E+01  0.10772447790E+02  0.15632269677E+02  0.17770000000E+01 0. -1.
</event>
<event>
 6    1  0.1697564E-002  0.1906474E+03  0.7546771E-02  0.1062148E+00
        -11   -1    0    0    0    0  0.00000000000E+00  0.00000000000E+00  0.18250000000E+03  0.18250000000E+03  0.00000000000E+00 0. -1.
         11   -1    0    0    0    0 -0.00000000000E+00 -0.00000000000E+00 -0.18250000000E+03  0.18250000000E+03  0.00000000000E+00 0. -1.
        -11    1    1    2    0    0 -0.15631317799E+01 -0.44822832156E+01  0.17428796290E+03  0.17435259750E+03  0.00000000000E+00 0. -1.
         11    1    1    2    0    0  0.36847242718E+01  0.97632037620E+01 -0.15037897507E+03  0.15074061657E+03  0.00000000000E+00 0. -1.
        -15    1    1    2    0    0 -0.62545619217E+01 -0.86616995313E+00  0.62714584427E+01  0.90751702584E+01  0.17770000000E+01 0. -1.
         15    1    1    2    0    0  0.41329694299E+01 -0.44147505933E+01 -0.30180446272E+02  0.30831615677E+02  0.17770000000E+01 0.  1.
</event>
<event>
 6    1  0.1697564E-002  0.1842118E+03  0.7546771E-02  0.1067100E+00
        -11   -1    0    0    0    0  0.00000000000E+00  0.00000000000E+00  0.18250000000E+03  0.18250000000E+03  0.00000000000E+00 0.  1.
         11   -1    0    0    0    0 -0.00000000000E+00 -0.00000000000E+00 -0.18250000000E+03  0.18250000000E+03  0.00000000000E+00 0.  1.
        -11    1    1    2    0    0  0.11073547690E+01  0.28544185987E+01  0.16262108383E+03  0.16264990269E+03  0.00000000000E+00 0.  1.
         11    1    1    2    0    0 -0.28165982333E+01 -0.53888005320E+00 -0.18076542010E+03  0.18078816533E+03  0.00000000000E+00 0.  1.
        -15    1    1    2    0    0 -0.18218675188E+01  0.14573354836E+01  0.14944368139E+02  0.15229408919E+02  0.17770000000E+01 0.  1.
         15    1    1    2    0    0  0.35311109831E+01 -0.37728740291E+01  0.31999681362E+01  0.63325230586E+01  0.17770000000E+01 0. -1.
</event>
<event>
 6    1  0.1697564E-002  0.1414247E+03  0.7546771E-02  0.1106855E+00
        -11   -1    0    0    0    0  0.00000000000E+00  0.00000000000E+00  0.18250000000E+03  0.18250000000E+03  0.00000000000E+00 0.  1.
         11   -1    0    0    0    0 -0.00000000000E+00 -0.00000000000E+00 -0.18250000000E+03  0.18250000000E+03  0.00000000000E+00 0. -1.
        -11    1    1    2    0    0 -0.20412547212E+02  0.27441844237E+02  0.14414576326E+03  0.14814765595E+03  0.00000000000E+00 0.  1.
         11    1    1    2    0    0 -0.74849470045E+00 -0.61735116361E+01 -0.13625609598E+03  0.13639793321E+03  0.00000000000E+00 0. -1.
        -15    1    1    2    0    0  0.22659724141E+02  0.24972284876E+02 -0.32299581509E+01  0.33921504517E+02  0.17770000000E+01 0. -1.
         15    1    1    2    0    0 -0.14986822283E+01 -0.46240617477E+02 -0.46597091224E+01  0.46532906326E+02  0.17770000000E+01 0.  1.
</event>
<event>
 6    1  0.1697564E-002  0.1878999E+03  0.7546771E-02  0.1064236E+00
        -11   -1    0    0    0    0  0.00000000000E+00  0.00000000000E+00  0.18250000000E+03  0.18250000000E+03  0.00000000000E+00 0.  1.
         11   -1    0    0    0    0 -0.00000000000E+00 -0.00000000000E+00 -0.18250000000E+03  0.18250000000E+03  0.00000000000E+00 0. -1.
        -11    1    1    2    0    0 -0.43284117522E+00 -0.28310461856E+01  0.17707689175E+03  0.17710005016E+03  0.00000000000E+00 0.  1.
         11    1    1    2    0    0 -0.11026225815E+02  0.16928137408E+00 -0.15643080012E+03  0.15681900885E+03  0.00000000000E+00 0. -1.
        -15    1    1    2    0    0  0.59871402020E+01  0.11217333784E+02 -0.10129650837E+02  0.16353653418E+02  0.17770000000E+01 0.  1.
         15    1    1    2    0    0  0.54719267884E+01 -0.85555689727E+01 -0.10516440797E+02  0.14727287573E+02  0.17770000000E+01 0. -1.
</event>
<event>
 6    1  0.1697564E-002  0.1846585E+03  0.7546771E-02  0.1066750E+00
        -11   -1    0    0    0    0  0.00000000000E+00  0.00000000000E+00  0.18250000000E+03  0.18250000000E+03  0.00000000000E+00 0.  1.
         11   -1    0    0    0    0 -0.00000000000E+00 -0.00000000000E+00 -0.18250000000E+03  0.18250000000E+03  0.00000000000E+00 0.  1.
        -11    1    1    2    0    0 -0.99991545771E+00  0.34860426144E+01  0.15498099750E+03  0.15502342375E+03  0.00000000000E+00 0.  1.
         11    1    1    2    0    0 -0.52756906717E+00 -0.58511825478E+01 -0.18024578849E+03  0.18034150641E+03  0.00000000000E+00 0.  1.
        -15    1    1    2    0    0  0.56365907332E+01 -0.29431412471E+01  0.19572449422E+02  0.20656034007E+02  0.17770000000E+01 0. -1.
         15    1    1    2    0    0 -0.41091062083E+01  0.53082811805E+01  0.56923415646E+01  0.89790358286E+01  0.17770000000E+01 0.  1.
</event>
<event>
 6    1  0.1697564E-002  0.1891958E+03  0.7546771E-02  0.1063246E+00
        -11   -1    0    0    0    0  0.00000000000E+00  0.00000000000E+00  0.18250000000E+03  0.18250000000E+03  0.00000000000E+00 0. -1.
         11   -1    0    0    0    0 -0.00000000000E+00 -0.00000000000E+00 -0.18250000000E+03  0.18250000000E+03  0.00000000000E+00 0. -1.
        -11    1    1    2    0    0 -0.24773189260E+01  0.15001760085E+01  0.16900841949E+03  0.16903323193E+03  0.00000000000E+00 0. -1.
         11    1    1    2    0    0  0.30078916458E+01  0.44221435785E+01 -0.17572284422E+03  0.17580421140E+03  0.00000000000E+00 0. -1.
        -15    1    1    2    0    0 -0.15248423627E+01 -0.23257477791E+01 -0.59701540585E+01  0.68216358335E+01  0.17770000000E+01 0. -1.
         15    1    1    2    0    0  0.99426964290E+00 -0.35965718080E+01  0.12684578787E+02  0.13340920841E+02  0.17770000000E+01 0.  1.
</event>
<event>
 6    1  0.1697564E-002  0.1829599E+03  0.7546771E-02  0.1068089E+00
        -11   -1    0    0    0    0  0.00000000000E+00  0.00000000000E+00  0.18250000000E+03  0.18250000000E+03  0.00000000000E+00 0. -1.
         11   -1    0    0    0    0 -0.00000000000E+00 -0.00000000000E+00 -0.18250000000E+03  0.18250000000E+03  0.00000000000E+00 0. -1.
        -11    1    1    2    0    0 -0.43177953301E+01 -0.10326985762E+01  0.10462364070E+03  0.10471779226E+03  0.00000000000E+00 0. -1.
         11    1    1    2    0    0 -0.50441115519E+01 -0.16404620639E+01 -0.18196276701E+03  0.18204005810E+03  0.00000000000E+00 0. -1.
        -15    1    1    2    0    0  0.18364676487E+00  0.10229219331E+01  0.21855510937E+02  0.21952247784E+02  0.17770000000E+01 0.  1.
         15    1    1    2    0    0  0.91782601171E+01  0.16502387070E+01  0.55483615373E+02  0.56289901851E+02  0.17770000000E+01 0. -1.
</event>
<event>
 6    1  0.1772639E-002  0.2025047E+03  0.7546771E-02  0.1053560E+00
        -11   -1    0    0    0    0  0.00000000000E+00  0.00000000000E+00  0.18250000000E+03  0.18250000000E+03  0.00000000000E+00 0.  1.
         11   -1    0    0    0    0 -0.00000000000E+00 -0.00000000000E+00 -0.18250000000E+03  0.18250000000E+03  0.00000000000E+00 0. -1.
        -11    1    1    2    0    0  0.37212509318E+02 -0.19397964008E+02  0.15698305620E+03  0.16249532852E+03  0.00000000000E+00 0.  1.
         11    1    1    2    0    0  0.47142014062E+01  0.32919726432E-01 -0.11711467891E+03  0.11720952518E+03  0.00000000000E+00 0. -1.
        -15    1    1    2    0    0 -0.72347736368E-01  0.23100598577E+01 -0.39958126526E+02  0.40064338448E+02  0.17770000000E+01 0. -1.
         15    1    1    2    0    0 -0.41854362988E+02  0.17054984424E+02  0.89749236778E-01  0.45230807850E+02  0.17770000000E+01 0.  1.
</event>
<event>
 6    1  0.1697564E-002  0.1828181E+03  0.7546771E-02  0.1068202E+00
        -11   -1    0    0    0    0  0.00000000000E+00  0.00000000000E+00  0.18250000000E+03  0.18250000000E+03  0.00000000000E+00 0.  1.
         11   -1    0    0    0    0 -0.00000000000E+00 -0.00000000000E+00 -0.18250000000E+03  0.18250000000E+03  0.00000000000E+00 0. -1.
        -11    1    1    2    0    0 -0.41736001407E+01  0.18350374996E+01  0.18212484520E+03  0.18218190234E+03  0.00000000000E+00 0.  1.
         11    1    1    2    0    0 -0.11213157524E+01 -0.10880410993E+01 -0.64899396399E+02  0.64918201110E+02  0.00000000000E+00 0. -1.
        -15    1    1    2    0    0  0.40820535086E+01 -0.33339204616E+01 -0.24920695879E+02  0.25533840263E+02  0.17770000000E+01 0.  1.
         15    1    1    2    0    0  0.12128623844E+01  0.25869240612E+01 -0.92304752927E+02  0.92366056283E+02  0.17770000000E+01 0. -1.
</event>
<event>
 6    1  0.1697564E-002  0.1843955E+03  0.7546771E-02  0.1066956E+00
        -11   -1    0    0    0    0  0.00000000000E+00  0.00000000000E+00  0.18250000000E+03  0.18250000000E+03  0.00000000000E+00 0.  1.
         11   -1    0    0    0    0 -0.00000000000E+00 -0.00000000000E+00 -0.18250000000E+03  0.18250000000E+03  0.00000000000E+00 0. -1.
        -11    1    1    2    0    0 -0.33716957307E+01 -0.38926166689E+01  0.14705788035E+03  0.14714802401E+03  0.00000000000E+00 0.  1.
         11    1    1    2    0    0 -0.14636162078E+01 -0.74193295968E+01 -0.18044615257E+03  0.18060454757E+03  0.00000000000E+00 0. -1.
        -15    1    1    2    0    0 -0.25537056125E+01  0.16679497069E+01  0.12780519317E+02  0.13259067523E+02  0.17770000000E+01 0.  1.
         15    1    1    2    0    0  0.73890175510E+01  0.96439965588E+01  0.20607752907E+02  0.23988360904E+02  0.17770000000E+01 0. -1.
</event>
<event>
 6    1  0.1697564E-002  0.1849639E+03  0.7546771E-02  0.1066510E+00
        -11   -1    0    0    0    0  0.00000000000E+00  0.00000000000E+00  0.18250000000E+03  0.18250000000E+03  0.00000000000E+00 0.  1.
         11   -1    0    0    0    0 -0.00000000000E+00 -0.00000000000E+00 -0.18250000000E+03  0.18250000000E+03  0.00000000000E+00 0.  1.
        -11    1    1    2    0    0  0.36489148458E+01 -0.28125194579E+01  0.17997709683E+03  0.18003605258E+03  0.00000000000E+00 0.  1.
         11    1    1    2    0    0  0.35071903891E+01  0.58271821043E+00 -0.15631275063E+03  0.15635317699E+03  0.00000000000E+00 0.  1.
        -15    1    1    2    0    0 -0.70445955556E+01  0.13186513685E+01 -0.31976962793E+01  0.80466240417E+01  0.17770000000E+01 0. -1.
         15    1    1    2    0    0 -0.11150967929E+00  0.91114987893E+00 -0.20466649924E+02  0.20564146387E+02  0.17770000000E+01 0.  1.
</event>
<event>
 6    1  0.1697564E-002  0.1832488E+03  0.7546771E-02  0.1067860E+00
        -11   -1    0    0    0    0  0.00000000000E+00  0.00000000000E+00  0.18250000000E+03  0.18250000000E+03  0.00000000000E+00 0. -1.
         11   -1    0    0    0    0 -0.00000000000E+00 -0.00000000000E+00 -0.18250000000E+03  0.18250000000E+03  0.00000000000E+00 0.  1.
        -11    1    1    2    0    0  0.25091640708E+01  0.46044398170E+00  0.18173327384E+03  0.18175117808E+03  0.00000000000E+00 0. -1.
         11    1    1    2    0    0  0.38930015920E+01 -0.14620942305E+01 -0.99426870636E+02  0.99513796960E+02  0.00000000000E+00 0.  1.
        -15    1    1    2    0    0  0.20205835293E+01  0.74776668267E+00 -0.35872866840E+01  0.45462366375E+01  0.17770000000E+01 0.  1.
         15    1    1    2    0    0 -0.84227491921E+01  0.25388356615E+00 -0.78719116521E+02  0.79188788321E+02  0.17770000000E+01 0.  1.
</event>
<event>
 6    1  0.1697564E-002  0.1907516E+03  0.7546771E-02  0.1062070E+00
        -11   -1    0    0    0    0  0.00000000000E+00  0.00000000000E+00  0.18250000000E+03  0.18250000000E+03  0.00000000000E+00 0. -1.
         11   -1    0    0    0    0 -0.00000000000E+00 -0.00000000000E+00 -0.18250000000E+03  0.18250000000E+03  0.00000000000E+00 0.  1.
        -11    1    1    2    0    0  0.44370516561E+00 -0.11259328020E+02  0.17388368847E+03  0.17424840446E+03  0.00000000000E+00 0. -1.
         11    1    1    2    0    0 -0.79514497684E+01 -0.92773540941E+00 -0.11563943218E+03  0.11591619611E+03  0.00000000000E+00 0.  1.
        -15    1    1    2    0    0  0.97530037661E+01 -0.15741667501E+02 -0.27496358561E+02  0.33198322869E+02  0.17770000000E+01 0. -1.
         15    1    1    2    0    0 -0.22452591632E+01  0.27928730931E+02 -0.30747897730E+02  0.41637076553E+02  0.17770000000E+01 0.  1.
</event>
<event>
 6    1  0.1697564E-002  0.1847732E+03  0.7546771E-02  0.1066660E+00
        -11   -1    0    0    0    0  0.00000000000E+00  0.00000000000E+00  0.18250000000E+03  0.18250000000E+03  0.00000000000E+00 0. -1.
         11   -1    0    0    0    0 -0.00000000000E+00 -0.00000000000E+00 -0.18250000000E+03  0.18250000000E+03  0.00000000000E+00 0.  1.
        -11    1    1    2    0    0 -0.88539824676E-02 -0.22612400635E+01  0.15306467790E+03  0.15308138001E+03  0.00000000000E+00 0. -1.
         11    1    1    2    0    0  0.50181784383E+01  0.38156933654E+01 -0.18011646502E+03  0.18022675329E+03  0.00000000000E+00 0.  1.
        -15    1    1    2    0    0 -0.15472988490E+01  0.64686626730E+01  0.73752457416E+01  0.10089088624E+02  0.17770000000E+01 0.  1.
         15    1    1    2    0    0 -0.34620256068E+01 -0.80231159749E+01  0.19676541378E+02  0.21602778082E+02  0.17770000000E+01 0. -1.
</event>
<event>
 6    1  0.1697564E-002  0.1960467E+03  0.7546771E-02  0.1058155E+00
        -11   -1    0    0    0    0  0.00000000000E+00  0.00000000000E+00  0.18250000000E+03  0.18250000000E+03  0.00000000000E+00 0. -1.
         11   -1    0    0    0    0 -0.00000000000E+00 -0.00000000000E+00 -0.18250000000E+03  0.18250000000E+03  0.00000000000E+00 0.  1.
        -11    1    1    2    0    0 -0.66519556081E+01  0.23376187211E+01  0.16880616483E+03  0.16895334936E+03  0.00000000000E+00 0. -1.
         11    1    1    2    0    0 -0.35332455675E+01 -0.39116812122E+01 -0.15690215204E+03  0.15699066975E+03  0.00000000000E+00 0.  1.
        -15    1    1    2    0    0 -0.89485330763E+01 -0.99332761669E+01  0.41511079116E+00  0.13493563858E+02  0.17770000000E+01 0. -1.
         15    1    1    2    0    0  0.19133734252E+02  0.11507338658E+02 -0.12319123587E+02  0.25562417029E+02  0.17770000000E+01 0.  1.
</event>
<event>
 6    1  0.1697564E-002  0.1833525E+03  0.7546771E-02  0.1067778E+00
        -11   -1    0    0    0    0  0.00000000000E+00  0.00000000000E+00  0.18250000000E+03  0.18250000000E+03  0.00000000000E+00 0.  1.
         11   -1    0    0    0    0 -0.00000000000E+00 -0.00000000000E+00 -0.18250000000E+03  0.18250000000E+03  0.00000000000E+00 0.  1.
        -11    1    1    2    0    0 -0.11668668166E+01 -0.37615247435E+01  0.18160475477E+03  0.18164745415E+03  0.00000000000E+00 0.  1.
         11    1    1    2    0    0 -0.21375680593E+01  0.89006188613E+00 -0.16296830224E+03  0.16298475064E+03  0.00000000000E+00 0.  1.
        -15    1    1    2    0    0  0.33063463042E+01 -0.93937069821E+00 -0.70513309734E+01  0.80432170609E+01  0.17770000000E+01 0.  1.
         15    1    1    2    0    0 -0.19114282837E-02  0.38108335556E+01 -0.11585121552E+02  0.12324578144E+02  0.17770000000E+01 0. -1.
</event>
<event>
 6    1  0.1697564E-002  0.1246721E+03  0.7546771E-02  0.1126904E+00
        -11   -1    0    0    0    0  0.00000000000E+00  0.00000000000E+00  0.18250000000E+03  0.18250000000E+03  0.00000000000E+00 0. -1.
         11   -1    0    0    0    0 -0.00000000000E+00 -0.00000000000E+00 -0.18250000000E+03  0.18250000000E+03  0.00000000000E+00 0.  1.
        -11    1    1    2    0    0  0.47451226500E+02  0.14405759839E+02  0.13099918448E+03  0.14007116459E+03  0.00000000000E+00 0. -1.
         11    1    1    2    0    0  0.11798018531E+01 -0.18628543074E+01 -0.22210041253E+02  0.22319231417E+02  0.00000000000E+00 0.  1.
        -15    1    1    2    0    0 -0.79137393906E+02  0.14226241979E+02  0.61911489775E+01  0.80663505563E+02  0.17770000000E+01 0.  1.
         15    1    1    2    0    0  0.30506365552E+02 -0.26769147511E+02 -0.11498029221E+03  0.12194609843E+03  0.17770000000E+01 0. -1.
</event>
<event>
 6    1  0.1697564E-002  0.1856510E+03  0.7546771E-02  0.1065974E+00
        -11   -1    0    0    0    0  0.00000000000E+00  0.00000000000E+00  0.18250000000E+03  0.18250000000E+03  0.00000000000E+00 0. -1.
         11   -1    0    0    0    0 -0.00000000000E+00 -0.00000000000E+00 -0.18250000000E+03  0.18250000000E+03  0.00000000000E+00 0. -1.
        -11    1    1    2    0    0  0.12564671950E+01  0.35109325188E+01  0.17931026677E+03  0.17934903715E+03  0.00000000000E+00 0. -1.
         11    1    1    2    0    0  0.42748297351E+00 -0.34932602657E+01 -0.17733385698E+03  0.17736877526E+03  0.00000000000E+00 0. -1.
        -15    1    1    2    0    0  0.15477629471E+00 -0.24582217375E+01  0.14443990040E+01  0.33631573402E+01  0.17770000000E+01 0.  1.
         15    1    1    2    0    0 -0.18387264632E+01  0.24405494844E+01 -0.34208087953E+01  0.49190302506E+01  0.17770000000E+01 0. -1.
</event>
<event>
 6    1  0.1697564E-002  0.1886898E+03  0.7546771E-02  0.1063632E+00
        -11   -1    0    0    0    0  0.00000000000E+00  0.00000000000E+00  0.18250000000E+03  0.18250000000E+03  0.00000000000E+00 0.  1.
         11   -1    0    0    0    0 -0.00000000000E+00 -0.00000000000E+00 -0.18250000000E+03  0.18250000000E+03  0.00000000000E+00 0.  1.
        -11    1    1    2    0    0  0.30800245881E+01 -0.82746074143E-02  0.17628327386E+03  0.17631017913E+03  0.00000000000E+00 0.  1.
         11    1    1    2    0    0 -0.40117903831E+01 -0.16266356123E+01 -0.17301942762E+03  0.17307357609E+03  0.00000000000E+00 0.  1.
        -15    1    1    2    0    0  0.38856804435E+01  0.14479270774E+01 -0.83372931211E+01  0.94796197666E+01  0.17770000000E+01 0. -1.
         15    1    1    2    0    0 -0.29539146486E+01  0.18698314228E+00  0.50734468784E+01  0.61366250232E+01  0.17770000000E+01 0. -1.
</event>
<event>
 6    1  0.1697564E-002  0.1858114E+03  0.7546771E-02  0.1065849E+00
        -11   -1    0    0    0    0  0.00000000000E+00  0.00000000000E+00  0.18250000000E+03  0.18250000000E+03  0.00000000000E+00 0.  1.
         11   -1    0    0    0    0 -0.00000000000E+00 -0.00000000000E+00 -0.18250000000E+03  0.18250000000E+03  0.00000000000E+00 0. -1.
        -11    1    1    2    0    0  0.19240887230E+01  0.22135244792E+01  0.17916464063E+03  0.17918864434E+03  0.00000000000E+00 0.  1.
         11    1    1    2    0    0  0.25754969684E+01  0.20686627588E+00 -0.16833504150E+03  0.16835486977E+03  0.00000000000E+00 0. -1.
        -15    1    1    2    0    0  0.54968317399E+00 -0.25169712884E+01 -0.11629576123E+02  0.12043341142E+02  0.17770000000E+01 0. -1.
         15    1    1    2    0    0 -0.50492688653E+01  0.96580533309E-01  0.79997699507E+00  0.54131447483E+01  0.17770000000E+01 0.  1.
</event>
<event>
 6    1  0.1697564E-002  0.1836734E+03  0.7546771E-02  0.1067525E+00
        -11   -1    0    0    0    0  0.00000000000E+00  0.00000000000E+00  0.18250000000E+03  0.18250000000E+03  0.00000000000E+00 0.  1.
         11   -1    0    0    0    0 -0.00000000000E+00 -0.00000000000E+00 -0.18250000000E+03  0.18250000000E+03  0.00000000000E+00 0. -1.
        -11    1    1    2    0    0  0.29222536975E+01  0.41009408360E+01  0.18125669963E+03  0.18132663467E+03  0.00000000000E+00 0.  1.
         11    1    1    2    0    0  0.14878408435E+01  0.65579286008E+01 -0.12558355217E+03  0.12576346319E+03  0.00000000000E+00 0. -1.
        -15    1    1    2    0    0 -0.47084289956E+01 -0.98794896944E+01 -0.54513874144E+02  0.55629972348E+02  0.17770000000E+01 0. -1.
         15    1    1    2    0    0  0.29833445457E+00 -0.77937974243E+00 -0.11592733101E+01  0.22799297878E+01  0.17770000000E+01 0.  1.
</event>
<event>
 6    1  0.1697564E-002  0.1840872E+03  0.7546771E-02  0.1067198E+00
        -11   -1    0    0    0    0  0.00000000000E+00  0.00000000000E+00  0.18250000000E+03  0.18250000000E+03  0.00000000000E+00 0. -1.
         11   -1    0    0    0    0 -0.00000000000E+00 -0.00000000000E+00 -0.18250000000E+03  0.18250000000E+03  0.00000000000E+00 0. -1.
        -11    1    1    2    0    0 -0.11817710283E+00  0.57472138609E+01  0.18082145421E+03  0.18091280423E+03  0.00000000000E+00 0. -1.
         11    1    1    2    0    0  0.90209858174E+00 -0.21069292220E+01 -0.14202924668E+03  0.14204773791E+03  0.00000000000E+00 0. -1.
        -15    1    1    2    0    0 -0.17358576495E+01  0.14562313044E+01 -0.35560485625E+02  0.35676878763E+02  0.17770000000E+01 0. -1.
         15    1    1    2    0    0  0.95193617062E+00 -0.50965159434E+01 -0.32317219053E+01  0.63625790924E+01  0.17770000000E+01 0.  1.
</event>
<event>
 6    1  0.1697564E-002  0.1830127E+03  0.7546771E-02  0.1068047E+00
        -11   -1    0    0    0    0  0.00000000000E+00  0.00000000000E+00  0.18250000000E+03  0.18250000000E+03  0.00000000000E+00 0.  1.
         11   -1    0    0    0    0 -0.00000000000E+00 -0.00000000000E+00 -0.18250000000E+03  0.18250000000E+03  0.00000000000E+00 0. -1.
        -11    1    1    2    0    0 -0.40791840693E+01  0.19924091622E+01  0.93049327494E+02  0.93160006355E+02  0.00000000000E+00 0.  1.
         11    1    1    2    0    0 -0.10759698861E+01  0.34477828868E+01 -0.18195148801E+03  0.18198733172E+03  0.00000000000E+00 0. -1.
        -15    1    1    2    0    0 -0.38908950031E+00 -0.10919375323E+01  0.31784611777E+01  0.38215262229E+01  0.17770000000E+01 0. -1.
         15    1    1    2    0    0  0.55442434557E+01 -0.43482545167E+01  0.85723699338E+02  0.86031135701E+02  0.17770000000E+01 0.  1.
</event>
<event>
 6    1  0.1697564E-002  0.1745083E+03  0.7546771E-02  0.1075000E+00
        -11   -1    0    0    0    0  0.00000000000E+00  0.00000000000E+00  0.18250000000E+03  0.18250000000E+03  0.00000000000E+00 0. -1.
         11   -1    0    0    0    0 -0.00000000000E+00 -0.00000000000E+00 -0.18250000000E+03  0.18250000000E+03  0.00000000000E+00 0. -1.
        -11    1    1    2    0    0 -0.12189919560E+01  0.22228964398E+01  0.17337214050E+03  0.17339067539E+03  0.00000000000E+00 0. -1.
         11    1    1    2    0    0  0.49134280939E+01 -0.11104823794E+01 -0.17558205122E+03  0.17565429587E+03  0.00000000000E+00 0. -1.
        -15    1    1    2    0    0  0.71184368573E+00 -0.41027642733E+01 -0.50470677891E+01  0.67801193487E+01  0.17770000000E+01 0. -1.
         15    1    1    2    0    0 -0.44062798236E+01  0.29903502129E+01  0.72569785095E+01  0.91749093929E+01  0.17770000000E+01 0.  1.
</event>
<event>
 6    1  0.1697564E-002  0.1786533E+03  0.7546771E-02  0.1071559E+00
        -11   -1    0    0    0    0  0.00000000000E+00  0.00000000000E+00  0.18250000000E+03  0.18250000000E+03  0.00000000000E+00 0. -1.
         11   -1    0    0    0    0 -0.00000000000E+00 -0.00000000000E+00 -0.18250000000E+03  0.18250000000E+03  0.00000000000E+00 0.  1.
        -11    1    1    2    0    0 -0.25959692922E+01  0.39386382062E+01  0.17979517498E+03  0.17985704566E+03  0.00000000000E+00 0. -1.
         11    1    1    2    0    0 -0.15055646066E+01 -0.22617394492E+01 -0.17746378739E+03  0.17748458532E+03  0.00000000000E+00 0.  1.
        -15    1    1    2    0    0  0.16555583994E+01  0.97351550056E+00  0.59771029675E+00  0.26839509389E+01  0.17770000000E+01 0. -1.
         15    1    1    2    0    0  0.24459754995E+01 -0.26504142576E+01 -0.29290978827E+01  0.49744180853E+01  0.17770000000E+01 0.  1.
</event>
<event>
 6    1  0.1697564E-002  0.1865891E+03  0.7546771E-02  0.1065246E+00
        -11   -1    0    0    0    0  0.00000000000E+00  0.00000000000E+00  0.18250000000E+03  0.18250000000E+03  0.00000000000E+00 0. -1.
         11   -1    0    0    0    0 -0.00000000000E+00 -0.00000000000E+00 -0.18250000000E+03  0.18250000000E+03  0.00000000000E+00 0.  1.
        -11    1    1    2    0    0  0.14809224809E+01 -0.15479110557E+01  0.11673767817E+03  0.11675733238E+03  0.00000000000E+00 0. -1.
         11    1    1    2    0    0  0.83773707446E+01  0.12091152171E+02 -0.17780347410E+03  0.17841090690E+03  0.00000000000E+00 0.  1.
        -15    1    1    2    0    0 -0.14314700942E+02  0.67502453138E+01  0.29027723196E+02  0.33109559312E+02  0.17770000000E+01 0.  1.
         15    1    1    2    0    0  0.44564077167E+01 -0.17293486429E+02  0.32038072731E+02  0.36722201403E+02  0.17770000000E+01 0. -1.
</event>
<event>
 6    1  0.1697564E-002  0.1829197E+03  0.7546771E-02  0.1068121E+00
        -11   -1    0    0    0    0  0.00000000000E+00  0.00000000000E+00  0.18250000000E+03  0.18250000000E+03  0.00000000000E+00 0.  1.
         11   -1    0    0    0    0 -0.00000000000E+00 -0.00000000000E+00 -0.18250000000E+03  0.18250000000E+03  0.00000000000E+00 0.  1.
        -11    1    1    2    0    0  0.29049258848E+01  0.20077551091E+01  0.18204609972E+03  0.18208034517E+03  0.00000000000E+00 0.  1.
         11    1    1    2    0    0 -0.13901898357E+01  0.17635154755E+01 -0.14848132221E+03  0.14849830187E+03  0.00000000000E+00 0.  1.
        -15    1    1    2    0    0 -0.21638589695E+01 -0.18749705624E+01 -0.75359956984E+01  0.82551051124E+01  0.17770000000E+01 0.  1.
         15    1    1    2    0    0  0.64912292044E+00 -0.18963000223E+01 -0.26028781815E+02  0.26166247841E+02  0.17770000000E+01 0.  1.
</event>
<event>
 6    1  0.1697564E-002  0.1830089E+03  0.7546771E-02  0.1068050E+00
        -11   -1    0    0    0    0  0.00000000000E+00  0.00000000000E+00  0.18250000000E+03  0.18250000000E+03  0.00000000000E+00 0.  1.
         11   -1    0    0    0    0 -0.00000000000E+00 -0.00000000000E+00 -0.18250000000E+03  0.18250000000E+03  0.00000000000E+00 0. -1.
        -11    1    1    2    0    0 -0.57288725412E+00  0.34069279566E+01  0.79279549370E+02  0.79354787544E+02  0.00000000000E+00 0.  1.
         11    1    1    2    0    0  0.94018853926E+01  0.32724831006E+01 -0.18171864404E+03  0.18199112667E+03  0.00000000000E+00 0. -1.
        -15    1    1    2    0    0  0.86155032991E+00 -0.53155034103E+01  0.29507635722E+02  0.30047547993E+02  0.17770000000E+01 0. -1.
         15    1    1    2    0    0 -0.96905484684E+01 -0.13639076468E+01  0.72931458944E+02  0.73606537797E+02  0.17770000000E+01 0.  1.
</event>
<event>
 6    1  0.1697564E-002  0.1866530E+03  0.7546771E-02  0.1065196E+00
        -11   -1    0    0    0    0  0.00000000000E+00  0.00000000000E+00  0.18250000000E+03  0.18250000000E+03  0.00000000000E+00 0.  1.
         11   -1    0    0    0    0 -0.00000000000E+00 -0.00000000000E+00 -0.18250000000E+03  0.18250000000E+03  0.00000000000E+00 0.  1.
        -11    1    1    2    0    0 -0.27858913334E+00  0.29530063766E+01  0.10488830801E+03  0.10493023880E+03  0.00000000000E+00 0.  1.
         11    1    1    2    0    0  0.24537574848E+01  0.13814753021E+01 -0.17832476447E+03  0.17834699612E+03  0.00000000000E+00 0.  1.
        -15    1    1    2    0    0  0.63274608174E+01  0.41627778085E+01  0.67943653804E+02  0.68387596103E+02  0.17770000000E+01 0.  1.
         15    1    1    2    0    0 -0.85026291688E+01 -0.84972594872E+01  0.54928026588E+01  0.13335168976E+02  0.17770000000E+01 0. -1.
</event>
<event>
 6    1  0.1697564E-002  0.1866608E+03  0.7546771E-02  0.1065190E+00
        -11   -1    0    0    0    0  0.00000000000E+00  0.00000000000E+00  0.18250000000E+03  0.18250000000E+03  0.00000000000E+00 0.  1.
         11   -1    0    0    0    0 -0.00000000000E+00 -0.00000000000E+00 -0.18250000000E+03  0.18250000000E+03  0.00000000000E+00 0. -1.
        -11    1    1    2    0    0 -0.29863633506E+01  0.15071061843E+00  0.17831411977E+03  0.17833918916E+03  0.00000000000E+00 0.  1.
         11    1    1    2    0    0  0.15082609367E+01 -0.18079317402E+01 -0.15727695348E+03  0.15729457576E+03  0.00000000000E+00 0. -1.
        -15    1    1    2    0    0  0.18615214579E+01  0.42298379615E+01  0.25502459149E+01  0.55694052236E+01  0.17770000000E+01 0.  1.
         15    1    1    2    0    0 -0.38341904395E+00 -0.25726168397E+01 -0.23587412204E+02  0.23796829853E+02  0.17770000000E+01 0. -1.
</event>
<event>
 6    1  0.1697564E-002  0.1838993E+03  0.7546771E-02  0.1067346E+00
        -11   -1    0    0    0    0  0.00000000000E+00  0.00000000000E+00  0.18250000000E+03  0.18250000000E+03  0.00000000000E+00 0. -1.
         11   -1    0    0    0    0 -0.00000000000E+00 -0.00000000000E+00 -0.18250000000E+03  0.18250000000E+03  0.00000000000E+00 0. -1.
        -11    1    1    2    0    0 -0.28010146754E+01  0.15590370974E+00  0.16857923226E+03  0.16860257275E+03  0.00000000000E+00 0. -1.
         11    1    1    2    0    0 -0.36222078719E+00  0.33115216037E+01 -0.18107008779E+03  0.18110072908E+03  0.00000000000E+00 0. -1.
        -15    1    1    2    0    0  0.54481298529E+00 -0.48347851355E+01  0.90412749659E+01  0.10419901655E+02  0.17770000000E+01 0.  1.
         15    1    1    2    0    0  0.26184224773E+01  0.13673598221E+01  0.34495805713E+01  0.48767965172E+01  0.17770000000E+01 0. -1.
</event>
<event>
 6    1  0.1697564E-002  0.1555248E+03  0.7546771E-02  0.1092217E+00
        -11   -1    0    0    0    0  0.00000000000E+00  0.00000000000E+00  0.18250000000E+03  0.18250000000E+03  0.00000000000E+00 0. -1.
         11   -1    0    0    0    0 -0.00000000000E+00 -0.00000000000E+00 -0.18250000000E+03  0.18250000000E+03  0.00000000000E+00 0.  1.
        -11    1    1    2    0    0  0.10572613137E+02  0.21213907727E+02  0.15608635577E+03  0.15787577549E+03  0.00000000000E+00 0. -1.
         11    1    1    2    0    0 -0.60481143985E+01  0.67462266998E+01 -0.15420052983E+03  0.15446648395E+03  0.00000000000E+00 0.  1.
        -15    1    1    2    0    0  0.50867522441E+00 -0.19602696382E+01 -0.20220191930E+02  0.20398904339E+02  0.17770000000E+01 0. -1.
         15    1    1    2    0    0 -0.50331739626E+01 -0.25999864789E+02  0.18334365994E+02  0.32258836225E+02  0.17770000000E+01 0.  1.
</event>
<event>
 6    1  0.1697564E-002  0.1859213E+03  0.7546771E-02  0.1065764E+00
        -11   -1    0    0    0    0  0.00000000000E+00  0.00000000000E+00  0.18250000000E+03  0.18250000000E+03  0.00000000000E+00 0. -1.
         11   -1    0    0    0    0 -0.00000000000E+00 -0.00000000000E+00 -0.18250000000E+03  0.18250000000E+03  0.00000000000E+00 0.  1.
        -11    1    1    2    0    0 -0.48858385798E+01 -0.25703296157E+01  0.17899355335E+03  0.17907867030E+03  0.00000000000E+00 0. -1.
         11    1    1    2    0    0 -0.54849678272E+01 -0.29779738652E+00 -0.16422642501E+03  0.16431826504E+03  0.00000000000E+00 0.  1.
        -15    1    1    2    0    0  0.98649862461E+01 -0.22529319887E+01 -0.10454967911E+02  0.14658026443E+02  0.17770000000E+01 0. -1.
         15    1    1    2    0    0  0.50582016102E+00  0.51210589909E+01 -0.43121604316E+01  0.69450382152E+01  0.17770000000E+01 0.  1.
</event>
<event>
 6    1  0.1697564E-002  0.1841483E+03  0.7546771E-02  0.1067150E+00
        -11   -1    0    0    0    0  0.00000000000E+00  0.00000000000E+00  0.18250000000E+03  0.18250000000E+03  0.00000000000E+00 0. -1.
         11   -1    0    0    0    0 -0.00000000000E+00 -0.00000000000E+00 -0.18250000000E+03  0.18250000000E+03  0.00000000000E+00 0.  1.
        -11    1    1    2    0    0 -0.13234291285E+02  0.27780226457E+01  0.18034546405E+03  0.18085173563E+03  0.00000000000E+00 0. -1.
         11    1    1    2    0    0 -0.39526907106E+01  0.87732650246E+01 -0.27393778199E+02  0.29034686619E+02  0.00000000000E+00 0.  1.
        -15    1    1    2    0    0  0.10553285201E+02 -0.11088218721E+02 -0.61430222881E+02  0.63333643786E+02  0.17770000000E+01 0.  1.
         15    1    1    2    0    0  0.66336967948E+01 -0.46306894890E+00 -0.91521462971E+02  0.91779933969E+02  0.17770000000E+01 0. -1.
</event>
<event>
 6    1  0.1697564E-002  0.1825849E+03  0.7546771E-02  0.1068387E+00
        -11   -1    0    0    0    0  0.00000000000E+00  0.00000000000E+00  0.18250000000E+03  0.18250000000E+03  0.00000000000E+00 0.  1.
         11   -1    0    0    0    0 -0.00000000000E+00 -0.00000000000E+00 -0.18250000000E+03  0.18250000000E+03  0.00000000000E+00 0.  1.
        -11    1    1    2    0    0 -0.45054222409E+00 -0.24019613533E+00  0.15852208078E+02  0.15860428223E+02  0.00000000000E+00 0.  1.
         11    1    1    2    0    0 -0.24098176170E+01 -0.20381715523E+01 -0.18238779424E+03  0.18241510039E+03  0.00000000000E+00 0.  1.
        -15    1    1    2    0    0  0.18317179621E+01 -0.73039030372E+00  0.12535381236E+03  0.12538191522E+03  0.17770000000E+01 0.  1.
         15    1    1    2    0    0  0.10286418790E+01  0.30087579913E+01  0.41181773793E+02  0.41342556168E+02  0.17770000000E+01 0. -1.
</event>
<event>
 6    1  0.1697564E-002  0.1838879E+03  0.7546771E-02  0.1067355E+00
        -11   -1    0    0    0    0  0.00000000000E+00  0.00000000000E+00  0.18250000000E+03  0.18250000000E+03  0.00000000000E+00 0. -1.
         11   -1    0    0    0    0 -0.00000000000E+00 -0.00000000000E+00 -0.18250000000E+03  0.18250000000E+03  0.00000000000E+00 0. -1.
        -11    1    1    2    0    0  0.49966152032E+01  0.60479973142E+01  0.18094215977E+03  0.18111214652E+03  0.00000000000E+00 0. -1.
         11    1    1    2    0    0  0.18333369124E+00  0.28647170993E+01 -0.10275482732E+03  0.10279491599E+03  0.00000000000E+00 0. -1.
        -15    1    1    2    0    0 -0.85262260699E+01  0.28153040286E+01 -0.31055237247E+02  0.32376039863E+02  0.17770000000E+01 0.  1.
         15    1    1    2    0    0  0.33462771755E+01 -0.11728018442E+02 -0.47132095198E+02  0.48716897625E+02  0.17770000000E+01 0. -1.
</event>
<event>
 6    1  0.1697564E-002  0.1829901E+03  0.7546771E-02  0.1068065E+00
        -11   -1    0    0    0    0  0.00000000000E+00  0.00000000000E+00  0.18250000000E+03  0.18250000000E+03  0.00000000000E+00 0. -1.
         11   -1    0    0    0    0 -0.00000000000E+00 -0.00000000000E+00 -0.18250000000E+03  0.18250000000E+03  0.00000000000E+00 0. -1.
        -11    1    1    2    0    0  0.35254910646E+01  0.65348343799E+00  0.18197454456E+03  0.18200986511E+03  0.00000000000E+00 0. -1.
         11    1    1    2    0    0 -0.31474346270E+01 -0.24096853983E+01 -0.10341652750E+03  0.10349246876E+03  0.00000000000E+00 0. -1.
        -15    1    1    2    0    0  0.11838407532E+01  0.48677604461E+01 -0.68513468921E+02  0.68719354793E+02  0.17770000000E+01 0. -1.
         15    1    1    2    0    0 -0.15618971909E+01 -0.31115584858E+01 -0.10044548141E+02  0.10778311343E+02  0.17770000000E+01 0.  1.
</event>
<event>
 6    1  0.1697564E-002  0.1829133E+03  0.7546771E-02  0.1068126E+00
        -11   -1    0    0    0    0  0.00000000000E+00  0.00000000000E+00  0.18250000000E+03  0.18250000000E+03  0.00000000000E+00 0.  1.
         11   -1    0    0    0    0 -0.00000000000E+00 -0.00000000000E+00 -0.18250000000E+03  0.18250000000E+03  0.00000000000E+00 0. -1.
        -11    1    1    2    0    0  0.71481507076E+01 -0.36761135215E+01  0.18190917538E+03  0.18208667705E+03  0.00000000000E+00 0.  1.
         11    1    1    2    0    0 -0.89485629394E+00 -0.11186339442E+01 -0.98044234994E+02  0.98054699659E+02  0.00000000000E+00 0. -1.
        -15    1    1    2    0    0 -0.85696514073E+01  0.46094017658E+01 -0.69345093885E+02  0.70047021955E+02  0.17770000000E+01 0. -1.
         15    1    1    2    0    0  0.23163569937E+01  0.18534569979E+00 -0.14519846504E+02  0.14811601340E+02  0.17770000000E+01 0. -1.
</event>
<event>
 6    1  0.1697564E-002  0.1882039E+03  0.7546771E-02  0.1064003E+00
        -11   -1    0    0    0    0  0.00000000000E+00  0.00000000000E+00  0.18250000000E+03  0.18250000000E+03  0.00000000000E+00 0.  1.
         11   -1    0    0    0    0 -0.00000000000E+00 -0.00000000000E+00 -0.18250000000E+03  0.18250000000E+03  0.00000000000E+00 0.  1.
        -11    1    1    2    0    0 -0.60013406833E+01  0.12813516630E+01  0.16968193949E+03  0.16979286952E+03  0.00000000000E+00 0.  1.
         11    1    1    2    0    0 -0.14367433461E+01  0.70413679008E+01 -0.17665003101E+03  0.17679614970E+03  0.00000000000E+00 0.  1.
        -15    1    1    2    0    0  0.22902731879E+01 -0.58847019334E+01 -0.26642537770E+01  0.70803280509E+01  0.17770000000E+01 0.  1.
         15    1    1    2    0    0  0.51478108414E+01 -0.24380176305E+01  0.96323452964E+01  0.11330652732E+02  0.17770000000E+01 0.  1.
</event>
<event>
 6    1  0.1697564E-002  0.1835992E+03  0.7546771E-02  0.1067583E+00
        -11   -1    0    0    0    0  0.00000000000E+00  0.00000000000E+00  0.18250000000E+03  0.18250000000E+03  0.00000000000E+00 0. -1.
         11   -1    0    0    0    0 -0.00000000000E+00 -0.00000000000E+00 -0.18250000000E+03  0.18250000000E+03  0.00000000000E+00 0. -1.
        -11    1    1    2    0    0  0.81866662627E+00 -0.38119427347E+01  0.15786959061E+03  0.15791772782E+03  0.00000000000E+00 0. -1.
         11    1    1    2    0    0  0.43545299351E+01  0.49490064431E+01 -0.18128101717E+03  0.18140083181E+03  0.00000000000E+00 0. -1.
        -15    1    1    2    0    0 -0.45999680596E+01 -0.25796273369E+01  0.22456821073E+02  0.23136134617E+02  0.17770000000E+01 0. -1.
         15    1    1    2    0    0 -0.57322850178E+00  0.14425636285E+01  0.95460548498E+00  0.25453057517E+01  0.17770000000E+01 0.  1.
</event>
<event>
 6    1  0.1697564E-002  0.1977141E+03  0.7546771E-02  0.1056951E+00
        -11   -1    0    0    0    0  0.00000000000E+00  0.00000000000E+00  0.18250000000E+03  0.18250000000E+03  0.00000000000E+00 0.  1.
         11   -1    0    0    0    0 -0.00000000000E+00 -0.00000000000E+00 -0.18250000000E+03  0.18250000000E+03  0.00000000000E+00 0.  1.
        -11    1    1    2    0    0  0.88764381883E+01  0.69246439784E+01  0.14961346385E+03  0.15003643029E+03  0.00000000000E+00 0.  1.
         11    1    1    2    0    0 -0.42506435213E+01  0.12493698213E+02 -0.16676456116E+03  0.16728592087E+03  0.00000000000E+00 0.  1.
        -15    1    1    2    0    0 -0.15569158891E+02 -0.14955758912E+02 -0.52491438404E+01  0.22288666924E+02  0.17770000000E+01 0.  1.
         15    1    1    2    0    0  0.10943364224E+02 -0.44625832803E+01  0.22400241147E+02  0.25388981912E+02  0.17770000000E+01 0. -1.
</event>
<event>
 6    1  0.1697564E-002  0.1890138E+03  0.7546771E-02  0.1063385E+00
        -11   -1    0    0    0    0  0.00000000000E+00  0.00000000000E+00  0.18250000000E+03  0.18250000000E+03  0.00000000000E+00 0.  1.
         11   -1    0    0    0    0 -0.00000000000E+00 -0.00000000000E+00 -0.18250000000E+03  0.18250000000E+03  0.00000000000E+00 0.  1.
        -11    1    1    2    0    0 -0.23002565060E+01  0.19319917360E+01  0.17596059931E+03  0.17598623890E+03  0.00000000000E+00 0.  1.
         11    1    1    2    0    0 -0.25597498967E+01 -0.84023817235E+01 -0.14966839004E+03  0.14992591275E+03  0.00000000000E+00 0.  1.
        -15    1    1    2    0    0  0.10279713471E+01  0.67064234079E+00  0.58074882119E+01  0.61960579865E+01  0.17770000000E+01 0.  1.
         15    1    1    2    0    0  0.38320350557E+01  0.57997476467E+01 -0.32099697488E+02  0.32891790362E+02  0.17770000000E+01 0. -1.
</event>
<event>
 6    1  0.1697564E-002  0.1827033E+03  0.7546771E-02  0.1068293E+00
        -11   -1    0    0    0    0  0.00000000000E+00  0.00000000000E+00  0.18250000000E+03  0.18250000000E+03  0.00000000000E+00 0.  1.
         11   -1    0    0    0    0 -0.00000000000E+00 -0.00000000000E+00 -0.18250000000E+03  0.18250000000E+03  0.00000000000E+00 0.  1.
        -11    1    1    2    0    0 -0.73639877741E+00  0.93083314875E+00  0.65861895226E+02  0.65872588960E+02  0.00000000000E+00 0.  1.
         11    1    1    2    0    0 -0.52859211605E+01 -0.78621465862E+01 -0.18205036273E+03  0.18229670563E+03  0.00000000000E+00 0.  1.
        -15    1    1    2    0    0  0.98980943279E-01 -0.10675073490E+01  0.23953979432E+02  0.24043714954E+02  0.17770000000E+01 0.  1.
         15    1    1    2    0    0  0.59233389946E+01  0.79988207865E+01  0.92234488075E+02  0.92786990458E+02  0.17770000000E+01 0.  1.
</event>
<event>
 6    1  0.1697564E-002  0.1780677E+03  0.7546771E-02  0.1072039E+00
        -11   -1    0    0    0    0  0.00000000000E+00  0.00000000000E+00  0.18250000000E+03  0.18250000000E+03  0.00000000000E+00 0. -1.
         11   -1    0    0    0    0 -0.00000000000E+00 -0.00000000000E+00 -0.18250000000E+03  0.18250000000E+03  0.00000000000E+00 0.  1.
        -11    1    1    2    0    0  0.36886660757E+00  0.25733083777E+01  0.17835731068E+03  0.17837625473E+03  0.00000000000E+00 0. -1.
         11    1    1    2    0    0  0.35337232299E+00  0.43738016058E+01 -0.17777403877E+03  0.17782818638E+03  0.00000000000E+00 0.  1.
        -15    1    1    2    0    0 -0.17499411804E+01 -0.54862327268E+01 -0.13223137739E+01  0.61698692356E+01  0.17770000000E+01 0.  1.
         15    1    1    2    0    0  0.10277022499E+01 -0.14608772566E+01  0.73904186009E+00  0.26256896512E+01  0.17770000000E+01 0. -1.
</event>
<event>
 6    1  0.1697564E-002  0.1840135E+03  0.7546771E-02  0.1067256E+00
        -11   -1    0    0    0    0  0.00000000000E+00  0.00000000000E+00  0.18250000000E+03  0.18250000000E+03  0.00000000000E+00 0. -1.
         11   -1    0    0    0    0 -0.00000000000E+00 -0.00000000000E+00 -0.18250000000E+03  0.18250000000E+03  0.00000000000E+00 0.  1.
        -11    1    1    2    0    0  0.85586729143E+00  0.25448387007E+01  0.18096661755E+03  0.18098653370E+03  0.00000000000E+00 0. -1.
         11    1    1    2    0    0  0.47412149921E+01 -0.52975958701E+01 -0.15243134327E+03  0.15259704470E+03  0.00000000000E+00 0.  1.
        -15    1    1    2    0    0  0.20657721413E+01  0.42490315565E+01 -0.12841460618E+02  0.13797917361E+02  0.17770000000E+01 0.  1.
         15    1    1    2    0    0 -0.76628544249E+01 -0.14962743870E+01 -0.15693813667E+02  0.17618504232E+02  0.17770000000E+01 0. -1.
</event>
<event>
 6    1  0.1697564E-002  0.2007987E+03  0.7546771E-02  0.1054756E+00
        -11   -1    0    0    0    0  0.00000000000E+00  0.00000000000E+00  0.18250000000E+03  0.18250000000E+03  0.00000000000E+00 0. -1.
         11   -1    0    0    0    0 -0.00000000000E+00 -0.00000000000E+00 -0.18250000000E+03  0.18250000000E+03  0.00000000000E+00 0. -1.
        -11    1    1    2    0    0 -0.59604311634E+00 -0.54660080316E+01  0.16410924370E+03  0.16420132879E+03  0.00000000000E+00 0. -1.
         11    1    1    2    0    0 -0.18496509583E+02 -0.22200489227E+01 -0.14059265460E+03  0.14182152168E+03  0.00000000000E+00 0. -1.
        -15    1    1    2    0    0  0.22204052080E+01  0.20373558946E+02 -0.30396512196E+02  0.36703103222E+02  0.17770000000E+01 0. -1.
         15    1    1    2    0    0  0.16872147491E+02 -0.12687501992E+02  0.68799231030E+01  0.22274046302E+02  0.17770000000E+01 0.  1.
</event>
<event>
 6    1  0.1697564E-002  0.1843041E+03  0.7546771E-02  0.1067028E+00
        -11   -1    0    0    0    0  0.00000000000E+00  0.00000000000E+00  0.18250000000E+03  0.18250000000E+03  0.00000000000E+00 0. -1.
         11   -1    0    0    0    0 -0.00000000000E+00 -0.00000000000E+00 -0.18250000000E+03  0.18250000000E+03  0.00000000000E+00 0. -1.
        -11    1    1    2    0    0  0.47723269495E+01 -0.16152296879E+02  0.17990921889E+03  0.18069587389E+03  0.00000000000E+00 0. -1.
         11    1    1    2    0    0  0.80521726168E+00  0.31738362939E+01 -0.32995295090E+02  0.33157368860E+02  0.00000000000E+00 0. -1.
        -15    1    1    2    0    0  0.13183017148E+02  0.60818113339E+01 -0.78480477521E+02  0.79831844844E+02  0.17770000000E+01 0.  1.
         15    1    1    2    0    0 -0.18760561359E+02  0.68966492512E+01 -0.68433446277E+02  0.71314912408E+02  0.17770000000E+01 0. -1.
</event>
<event>
 6    1  0.1697564E-002  0.1850832E+03  0.7546771E-02  0.1066417E+00
        -11   -1    0    0    0    0  0.00000000000E+00  0.00000000000E+00  0.18250000000E+03  0.18250000000E+03  0.00000000000E+00 0.  1.
         11   -1    0    0    0    0 -0.00000000000E+00 -0.00000000000E+00 -0.18250000000E+03  0.18250000000E+03  0.00000000000E+00 0. -1.
        -11    1    1    2    0    0  0.13211695143E+02  0.49860833170E+01  0.17936173960E+03  0.17991676839E+03  0.00000000000E+00 0.  1.
         11    1    1    2    0    0 -0.61051439673E+00  0.32047179932E+01 -0.12799883605E+03  0.12804040369E+03  0.00000000000E+00 0. -1.
        -15    1    1    2    0    0 -0.38588258380E+01 -0.46304671813E+00 -0.41334930972E+02  0.41555254741E+02  0.17770000000E+01 0. -1.
         15    1    1    2    0    0 -0.87423549085E+01 -0.77277545921E+01 -0.10027972571E+02  0.15487573188E+02  0.17770000000E+01 0.  1.
</event>
<event>
 6    1  0.1697564E-002  0.1583568E+03  0.7546771E-02  0.1089483E+00
        -11   -1    0    0    0    0  0.00000000000E+00  0.00000000000E+00  0.18250000000E+03  0.18250000000E+03  0.00000000000E+00 0.  1.
         11   -1    0    0    0    0 -0.00000000000E+00 -0.00000000000E+00 -0.18250000000E+03  0.18250000000E+03  0.00000000000E+00 0. -1.
        -11    1    1    2    0    0  0.68672897048E+01 -0.19526032083E+02  0.15430377892E+03  0.15568584324E+03  0.00000000000E+00 0.  1.
         11    1    1    2    0    0 -0.35151696960E+01 -0.49609139174E+00 -0.16172544783E+03  0.16176440585E+03  0.00000000000E+00 0. -1.
        -15    1    1    2    0    0 -0.86845054088E+01 -0.57113542539E+01  0.16591575263E+02  0.19659051358E+02  0.17770000000E+01 0. -1.
         15    1    1    2    0    0  0.53323853999E+01  0.25733477729E+02 -0.91699063495E+01  0.27890699553E+02  0.17770000000E+01 0.  1.
</event>
<event>
 6    1  0.1697564E-002  0.1827625E+03  0.7546771E-02  0.1068246E+00
        -11   -1    0    0    0    0  0.00000000000E+00  0.00000000000E+00  0.18250000000E+03  0.18250000000E+03  0.00000000000E+00 0. -1.
         11   -1    0    0    0    0 -0.00000000000E+00 -0.00000000000E+00 -0.18250000000E+03  0.18250000000E+03  0.00000000000E+00 0. -1.
        -11    1    1    2    0    0 -0.37715196417E+01 -0.10149045350E+01  0.18219559891E+03  0.18223745678E+03  0.00000000000E+00 0. -1.
         11    1    1    2    0    0  0.11595352760E+00  0.88974070113E+00 -0.19342100756E+02  0.19362901265E+02  0.00000000000E+00 0. -1.
        -15    1    1    2    0    0  0.51433928622E+01  0.52905549366E+01 -0.10284770301E+03  0.10312735915E+03  0.17770000000E+01 0. -1.
         15    1    1    2    0    0 -0.14878267481E+01 -0.51653911027E+01 -0.60005795146E+02  0.60272282799E+02  0.17770000000E+01 0.  1.
</event>
<event>
 6    1  0.1697564E-002  0.1828023E+03  0.7546771E-02  0.1068214E+00
        -11   -1    0    0    0    0  0.00000000000E+00  0.00000000000E+00  0.18250000000E+03  0.18250000000E+03  0.00000000000E+00 0.  1.
         11   -1    0    0    0    0 -0.00000000000E+00 -0.00000000000E+00 -0.18250000000E+03  0.18250000000E+03  0.00000000000E+00 0.  1.
        -11    1    1    2    0    0  0.82279021871E+00  0.17296267586E+01  0.11004189393E+03  0.11005856174E+03  0.00000000000E+00 0.  1.
         11    1    1    2    0    0 -0.75993857780E+01 -0.21522814795E+01 -0.18202644264E+03  0.18219771897E+03  0.00000000000E+00 0.  1.
        -15    1    1    2    0    0  0.77926975959E+01  0.15500290620E+01  0.55135887768E+02  0.55733765124E+02  0.17770000000E+01 0.  1.
         15    1    1    2    0    0 -0.10161020367E+01 -0.11273743411E+01  0.16848660936E+02  0.17009954161E+02  0.17770000000E+01 0.  1.
</event>
<event>
 6    1  0.1697564E-002  0.1861753E+03  0.7546771E-02  0.1065566E+00
        -11   -1    0    0    0    0  0.00000000000E+00  0.00000000000E+00  0.18250000000E+03  0.18250000000E+03  0.00000000000E+00 0.  1.
         11   -1    0    0    0    0 -0.00000000000E+00 -0.00000000000E+00 -0.18250000000E+03  0.18250000000E+03  0.00000000000E+00 0. -1.
        -11    1    1    2    0    0  0.57446494817E+01  0.14557280433E+01  0.16354475951E+03  0.16365209594E+03  0.00000000000E+00 0.  1.
         11    1    1    2    0    0 -0.51053860559E+01  0.15730737710E+01 -0.17874491327E+03  0.17882472857E+03  0.00000000000E+00 0. -1.
        -15    1    1    2    0    0 -0.10938282003E+01 -0.44940422598E+01  0.18115051433E+02  0.18780460415E+02  0.17770000000E+01 0.  1.
         15    1    1    2    0    0  0.45456477443E+00  0.14652404455E+01 -0.29148976717E+01  0.37427150752E+01  0.17770000000E+01 0. -1.
</event>
<event>
 6    1  0.1697564E-002  0.1890724E+03  0.7546771E-02  0.1063340E+00
        -11   -1    0    0    0    0  0.00000000000E+00  0.00000000000E+00  0.18250000000E+03  0.18250000000E+03  0.00000000000E+00 0. -1.
         11   -1    0    0    0    0 -0.00000000000E+00 -0.00000000000E+00 -0.18250000000E+03  0.18250000000E+03  0.00000000000E+00 0. -1.
        -11    1    1    2    0    0 -0.41675570404E+01 -0.25632071544E+01  0.15834842668E+03  0.15842399690E+03  0.00000000000E+00 0. -1.
         11    1    1    2    0    0 -0.92421903932E+01 -0.25875956013E+01 -0.17566565955E+03  0.17592764899E+03  0.00000000000E+00 0. -1.
        -15    1    1    2    0    0  0.86410308501E+01  0.17431465591E+01 -0.29594491429E+01  0.94668919032E+01  0.17770000000E+01 0.  1.
         15    1    1    2    0    0  0.47687165835E+01  0.34076561966E+01  0.20276682016E+02  0.21181462206E+02  0.17770000000E+01 0.  1.
</event>
<event>
 6    1  0.1697564E-002  0.1849432E+03  0.7546771E-02  0.1066526E+00
        -11   -1    0    0    0    0  0.00000000000E+00  0.00000000000E+00  0.18250000000E+03  0.18250000000E+03  0.00000000000E+00 0. -1.
         11   -1    0    0    0    0 -0.00000000000E+00 -0.00000000000E+00 -0.18250000000E+03  0.18250000000E+03  0.00000000000E+00 0. -1.
        -11    1    1    2    0    0 -0.24986220046E+01 -0.22169245118E+01  0.18002578708E+03  0.18005677405E+03  0.00000000000E+00 0. -1.
         11    1    1    2    0    0  0.22476140590E+00 -0.38709426903E+01 -0.17050077858E+03  0.17054486275E+03  0.00000000000E+00 0. -1.
        -15    1    1    2    0    0 -0.68542375955E+00  0.10221571729E+01 -0.77071479186E+01  0.80045280345E+01  0.17770000000E+01 0.  1.
         15    1    1    2    0    0  0.29592843582E+01  0.50657100292E+01 -0.18178605828E+01  0.63938351646E+01  0.17770000000E+01 0.  1.
</event>
<event>
 6    1  0.1697564E-002  0.1990385E+03  0.7546771E-02  0.1056003E+00
        -11   -1    0    0    0    0  0.00000000000E+00  0.00000000000E+00  0.18250000000E+03  0.18250000000E+03  0.00000000000E+00 0. -1.
         11   -1    0    0    0    0 -0.00000000000E+00 -0.00000000000E+00 -0.18250000000E+03  0.18250000000E+03  0.00000000000E+00 0. -1.
        -11    1    1    2    0    0 -0.33019535249E+02 -0.21701076958E+01  0.16262906631E+03  0.16596147832E+03  0.00000000000E+00 0. -1.
         11    1    1    2    0    0 -0.13895998194E+01  0.50116968021E+01 -0.12965666214E+03  0.12976092682E+03  0.00000000000E+00 0. -1.
        -15    1    1    2    0    0  0.36049549227E+02 -0.83996776602E+01 -0.43490701899E+02  0.57137758662E+02  0.17770000000E+01 0. -1.
         15    1    1    2    0    0 -0.16404141587E+01  0.55580885539E+01  0.10518297725E+02  0.12139836202E+02  0.17770000000E+01 0.  1.
</event>
<event>
 6    1  0.1697564E-002  0.1848631E+03  0.7546771E-02  0.1066589E+00
        -11   -1    0    0    0    0  0.00000000000E+00  0.00000000000E+00  0.18250000000E+03  0.18250000000E+03  0.00000000000E+00 0. -1.
         11   -1    0    0    0    0 -0.00000000000E+00 -0.00000000000E+00 -0.18250000000E+03  0.18250000000E+03  0.00000000000E+00 0.  1.
        -11    1    1    2    0    0  0.45473588047E+01  0.19471557470E+01  0.18006897836E+03  0.18013691142E+03  0.00000000000E+00 0. -1.
         11    1    1    2    0    0 -0.38163594188E+01 -0.81340351470E+00 -0.16451189888E+03  0.16455816935E+03  0.00000000000E+00 0.  1.
        -15    1    1    2    0    0 -0.24431145988E+01 -0.17019236531E+01 -0.17027373918E+02  0.17376839316E+02  0.17770000000E+01 0.  1.
         15    1    1    2    0    0  0.17121152129E+01  0.56817142078E+00  0.14702944447E+01  0.29280799203E+01  0.17770000000E+01 0. -1.
</event>
<event>
 6    1  0.1697564E-002  0.1857405E+03  0.7546771E-02  0.1065904E+00
        -11   -1    0    0    0    0  0.00000000000E+00  0.00000000000E+00  0.18250000000E+03  0.18250000000E+03  0.00000000000E+00 0.  1.
         11   -1    0    0    0    0 -0.00000000000E+00 -0.00000000000E+00 -0.18250000000E+03  0.18250000000E+03  0.00000000000E+00 0.  1.
        -11    1    1    2    0    0  0.10633466612E+01  0.54823060512E+01  0.16285384378E+03  0.16294956526E+03  0.00000000000E+00 0.  1.
         11    1    1    2    0    0  0.36282489709E+01 -0.84537288140E+00 -0.17922076533E+03  0.17925948112E+03  0.00000000000E+00 0.  1.
        -15    1    1    2    0    0 -0.20674521195E+01 -0.26659687520E+01  0.18226602637E+02  0.18621184719E+02  0.17770000000E+01 0.  1.
         15    1    1    2    0    0 -0.26241435126E+01 -0.19709644178E+01 -0.18596810823E+01  0.41697688951E+01  0.17770000000E+01 0. -1.
</event>
<event>
 6    1  0.1697564E-002  0.1841009E+03  0.7546771E-02  0.1067188E+00
        -11   -1    0    0    0    0  0.00000000000E+00  0.00000000000E+00  0.18250000000E+03  0.18250000000E+03  0.00000000000E+00 0. -1.
         11   -1    0    0    0    0 -0.00000000000E+00 -0.00000000000E+00 -0.18250000000E+03  0.18250000000E+03  0.00000000000E+00 0.  1.
        -11    1    1    2    0    0  0.52605431717E+01  0.11229295993E+02  0.18047353265E+03  0.18089905027E+03  0.00000000000E+00 0. -1.
         11    1    1    2    0    0  0.14098067924E+01  0.13354486884E+01 -0.47952071683E+02  0.47991375862E+02  0.00000000000E+00 0.  1.
        -15    1    1    2    0    0 -0.65733366703E+01 -0.10594202858E+02 -0.20518485104E+02  0.24075129266E+02  0.17770000000E+01 0. -1.
         15    1    1    2    0    0 -0.97013293801E-01 -0.19705418236E+01 -0.11200297586E+03  0.11203444460E+03  0.17770000000E+01 0.  1.
</event>
<event>
 6    1  0.1697564E-002  0.1829624E+03  0.7546771E-02  0.1068087E+00
        -11   -1    0    0    0    0  0.00000000000E+00  0.00000000000E+00  0.18250000000E+03  0.18250000000E+03  0.00000000000E+00 0.  1.
         11   -1    0    0    0    0 -0.00000000000E+00 -0.00000000000E+00 -0.18250000000E+03  0.18250000000E+03  0.00000000000E+00 0.  1.
        -11    1    1    2    0    0 -0.23640572194E+01  0.13984903798E+01  0.18201687621E+03  0.18203759987E+03  0.00000000000E+00 0.  1.
         11    1    1    2    0    0  0.21309445324E+01 -0.37310603528E+00 -0.15830322139E+03  0.15831800288E+03  0.00000000000E+00 0.  1.
        -15    1    1    2    0    0 -0.29793847545E+00  0.17013151654E+01 -0.43878893638E+01  0.50392998220E+01  0.17770000000E+01 0. -1.
         15    1    1    2    0    0  0.53105116243E+00 -0.27266995100E+01 -0.19325765456E+02  0.19605097425E+02  0.17770000000E+01 0. -1.
</event>
<event>
 6    1  0.1697564E-002  0.1839556E+03  0.7546771E-02  0.1067302E+00
        -11   -1    0    0    0    0  0.00000000000E+00  0.00000000000E+00  0.18250000000E+03  0.18250000000E+03  0.00000000000E+00 0.  1.
         11   -1    0    0    0    0 -0.00000000000E+00 -0.00000000000E+00 -0.18250000000E+03  0.18250000000E+03  0.00000000000E+00 0. -1.
        -11    1    1    2    0    0  0.17307324227E+00  0.34696702256E+01  0.16435915953E+03  0.16439586943E+03  0.00000000000E+00 0.  1.
         11    1    1    2    0    0  0.41036982476E+01 -0.19247895658E+01 -0.18098767305E+03  0.18104442259E+03  0.00000000000E+00 0. -1.
        -15    1    1    2    0    0  0.22540598314E+01 -0.94168383724E+00  0.81652873198E+01  0.87061587504E+01  0.17770000000E+01 0. -1.
         15    1    1    2    0    0 -0.65308313213E+01 -0.60319682261E+00  0.84632262040E+01  0.10853549232E+02  0.17770000000E+01 0. -1.
</event>
<event>
 6    1  0.1697564E-002  0.1835048E+03  0.7546771E-02  0.1067658E+00
        -11   -1    0    0    0    0  0.00000000000E+00  0.00000000000E+00  0.18250000000E+03  0.18250000000E+03  0.00000000000E+00 0.  1.
         11   -1    0    0    0    0 -0.00000000000E+00 -0.00000000000E+00 -0.18250000000E+03  0.18250000000E+03  0.00000000000E+00 0. -1.
        -11    1    1    2    0    0 -0.24494264359E+01 -0.63558102952E+00  0.18147755223E+03  0.18149519447E+03  0.00000000000E+00 0.  1.
         11    1    1    2    0    0  0.77002313066E+01  0.37842422843E+01 -0.15677994460E+03  0.15701453780E+03  0.00000000000E+00 0. -1.
        -15    1    1    2    0    0  0.38334575949E+00 -0.24975600869E+01 -0.13089198144E+02  0.13448776799E+02  0.17770000000E+01 0.  1.
         15    1    1    2    0    0 -0.56341506301E+01 -0.65110116786E+00 -0.11608409480E+02  0.13041490931E+02  0.17770000000E+01 0. -1.
</event>
<event>
 6    1  0.1697564E-002  0.1828491E+03  0.7546771E-02  0.1068177E+00
        -11   -1    0    0    0    0  0.00000000000E+00  0.00000000000E+00  0.18250000000E+03  0.18250000000E+03  0.00000000000E+00 0. -1.
         11   -1    0    0    0    0 -0.00000000000E+00 -0.00000000000E+00 -0.18250000000E+03  0.18250000000E+03  0.00000000000E+00 0. -1.
        -11    1    1    2    0    0 -0.29737919758E+01 -0.51719284525E+01  0.41378024789E+02  0.41805899321E+02  0.00000000000E+00 0. -1.
         11    1    1    2    0    0 -0.35906922658E+01  0.48872573360E+01 -0.18204992630E+03  0.18215091002E+03  0.00000000000E+00 0. -1.
        -15    1    1    2    0    0  0.11654092627E+01 -0.27796932119E+01  0.65964871275E+02  0.66057602472E+02  0.17770000000E+01 0. -1.
         15    1    1    2    0    0  0.53990749789E+01  0.30643643284E+01  0.74707030238E+02  0.74985588184E+02  0.17770000000E+01 0. -1.
</event>
<event>
 6    1  0.1697564E-002  0.1841625E+03  0.7546771E-02  0.1067139E+00
        -11   -1    0    0    0    0  0.00000000000E+00  0.00000000000E+00  0.18250000000E+03  0.18250000000E+03  0.00000000000E+00 0.  1.
         11   -1    0    0    0    0 -0.00000000000E+00 -0.00000000000E+00 -0.18250000000E+03  0.18250000000E+03  0.00000000000E+00 0. -1.
        -11    1    1    2    0    0 -0.74272481960E+00  0.27570121877E+01  0.18081498992E+03  0.18083753299E+03  0.00000000000E+00 0.  1.
         11    1    1    2    0    0  0.27691855666E+01 -0.18320372252E+01 -0.16045949810E+03  0.16049384811E+03  0.00000000000E+00 0. -1.
        -15    1    1    2    0    0  0.17715212834E+01 -0.22120259419E+01 -0.18673864839E+02  0.18971091256E+02  0.17770000000E+01 0.  1.
         15    1    1    2    0    0 -0.37979820304E+01  0.12870509794E+01 -0.16816269785E+01  0.46975276499E+01  0.17770000000E+01 0. -1.
</event>
<event>
 6    1  0.1697564E-002  0.1827147E+03  0.7546771E-02  0.1068284E+00
        -11   -1    0    0    0    0  0.00000000000E+00  0.00000000000E+00  0.18250000000E+03  0.18250000000E+03  0.00000000000E+00 0. -1.
         11   -1    0    0    0    0 -0.00000000000E+00 -0.00000000000E+00 -0.18250000000E+03  0.18250000000E+03  0.00000000000E+00 0.  1.
        -11    1    1    2    0    0  0.84446930213E+00  0.32377369509E+01  0.18225455608E+03  0.18228526897E+03  0.00000000000E+00 0. -1.
         11    1    1    2    0    0 -0.33602499636E+00  0.89327606971E+00 -0.51016515699E+02  0.51025441977E+02  0.00000000000E+00 0.  1.
        -15    1    1    2    0    0 -0.69478146981E+00 -0.26578235172E+01 -0.12270098080E+02  0.12698810300E+02  0.17770000000E+01 0. -1.
         15    1    1    2    0    0  0.18633716403E+00 -0.14731895034E+01 -0.11896794231E+03  0.11899047876E+03  0.17770000000E+01 0.  1.
</event>
<event>
 6    1  0.1697564E-002  0.1881557E+03  0.7546771E-02  0.1064040E+00
        -11   -1    0    0    0    0  0.00000000000E+00  0.00000000000E+00  0.18250000000E+03  0.18250000000E+03  0.00000000000E+00 0.  1.
         11   -1    0    0    0    0 -0.00000000000E+00 -0.00000000000E+00 -0.18250000000E+03  0.18250000000E+03  0.00000000000E+00 0.  1.
        -11    1    1    2    0    0 -0.70768511775E+01  0.89852335072E+01  0.14676761222E+03  0.14721259539E+03  0.00000000000E+00 0.  1.
         11    1    1    2    0    0  0.32586578853E+01  0.15647542031E+00 -0.17681422638E+03  0.17684432132E+03  0.00000000000E+00 0.  1.
        -15    1    1    2    0    0  0.14151574550E+01 -0.17827558813E+02  0.23848435126E+02  0.29861850425E+02  0.17770000000E+01 0.  1.
         15    1    1    2    0    0  0.24030358372E+01  0.86858498854E+01  0.61981790283E+01  0.11081232862E+02  0.17770000000E+01 0. -1.
</event>
<event>
 6    1  0.1697564E-002  0.1872908E+03  0.7546771E-02  0.1064704E+00
        -11   -1    0    0    0    0  0.00000000000E+00  0.00000000000E+00  0.18250000000E+03  0.18250000000E+03  0.00000000000E+00 0. -1.
         11   -1    0    0    0    0 -0.00000000000E+00 -0.00000000000E+00 -0.18250000000E+03  0.18250000000E+03  0.00000000000E+00 0.  1.
        -11    1    1    2    0    0  0.19072518606E+00  0.24779246606E+01  0.17769179962E+03  0.17770917855E+03  0.00000000000E+00 0. -1.
         11    1    1    2    0    0 -0.17929965689E+01  0.44867187256E+01 -0.17257256965E+03  0.17264019600E+03  0.00000000000E+00 0.  1.
        -15    1    1    2    0    0 -0.18298153926E+01 -0.63200998234E-01 -0.61647667807E+01  0.66719035663E+01  0.17770000000E+01 0. -1.
         15    1    1    2    0    0  0.34320867754E+01 -0.69014423880E+01  0.10455368023E+01  0.79787218822E+01  0.17770000000E+01 0.  1.
</event>
<event>
 6    1  0.1697564E-002  0.1861161E+03  0.7546771E-02  0.1065612E+00
        -11   -1    0    0    0    0  0.00000000000E+00  0.00000000000E+00  0.18250000000E+03  0.18250000000E+03  0.00000000000E+00 0. -1.
         11   -1    0    0    0    0 -0.00000000000E+00 -0.00000000000E+00 -0.18250000000E+03  0.18250000000E+03  0.00000000000E+00 0. -1.
        -11    1    1    2    0    0 -0.52008358773E+01 -0.34481245087E+01  0.17115835477E+03  0.17127206621E+03  0.00000000000E+00 0. -1.
         11    1    1    2    0    0  0.24186668049E+01 -0.26264753974E+01 -0.17884826397E+03  0.17888390047E+03  0.00000000000E+00 0. -1.
        -15    1    1    2    0    0 -0.23907978712E+01  0.44807205899E+01  0.73869755053E+01  0.91388132480E+01  0.17770000000E+01 0.  1.
         15    1    1    2    0    0  0.51729669436E+01  0.15938793161E+01  0.30293369325E+00  0.57052200743E+01  0.17770000000E+01 0. -1.
</event>
<event>
 6    1  0.1697564E-002  0.1874974E+03  0.7546771E-02  0.1064545E+00
        -11   -1    0    0    0    0  0.00000000000E+00  0.00000000000E+00  0.18250000000E+03  0.18250000000E+03  0.00000000000E+00 0. -1.
         11   -1    0    0    0    0 -0.00000000000E+00 -0.00000000000E+00 -0.18250000000E+03  0.18250000000E+03  0.00000000000E+00 0.  1.
        -11    1    1    2    0    0  0.32683436352E+00  0.38458574863E+01  0.17512696869E+03  0.17516949678E+03  0.00000000000E+00 0. -1.
         11    1    1    2    0    0  0.25042509993E+01  0.70607855288E+00 -0.19006926615E+01  0.32221813394E+01  0.00000000000E+00 0.  1.
        -15    1    1    2    0    0  0.12729762455E+02  0.19651656000E+02 -0.20457689479E+02  0.31143365642E+02  0.17770000000E+01 0.  1.
         15    1    1    2    0    0 -0.15560847817E+02 -0.24203592039E+02 -0.15276858655E+03  0.15546495624E+03  0.17770000000E+01 0. -1.
</event>
<event>
 6    1  0.1697564E-002  0.1831513E+03  0.7546771E-02  0.1067938E+00
        -11   -1    0    0    0    0  0.00000000000E+00  0.00000000000E+00  0.18250000000E+03  0.18250000000E+03  0.00000000000E+00 0.  1.
         11   -1    0    0    0    0 -0.00000000000E+00 -0.00000000000E+00 -0.18250000000E+03  0.18250000000E+03  0.00000000000E+00 0. -1.
        -11    1    1    2    0    0  0.25866111201E+01 -0.23798202639E+00  0.18183009775E+03  0.18184865036E+03  0.00000000000E+00 0.  1.
         11    1    1    2    0    0  0.32637933992E+01 -0.75272055893E+00 -0.81667388924E+02  0.81736046817E+02  0.00000000000E+00 0. -1.
        -15    1    1    2    0    0 -0.68326148858E+01 -0.24769916795E-01 -0.98082294795E+02  0.98336054024E+02  0.17770000000E+01 0. -1.
         15    1    1    2    0    0  0.98221036649E+00  0.10154725021E+01 -0.20804140292E+01  0.30792487947E+01  0.17770000000E+01 0.  1.
</event>
<event>
 6    1  0.1697564E-002  0.1831262E+03  0.7546771E-02  0.1067957E+00
        -11   -1    0    0    0    0  0.00000000000E+00  0.00000000000E+00  0.18250000000E+03  0.18250000000E+03  0.00000000000E+00 0.  1.
         11   -1    0    0    0    0 -0.00000000000E+00 -0.00000000000E+00 -0.18250000000E+03  0.18250000000E+03  0.00000000000E+00 0. -1.
        -11    1    1    2    0    0  0.24663929176E+01  0.73477927823E+00  0.18185560186E+03  0.18187381044E+03  0.00000000000E+00 0.  1.
         11    1    1    2    0    0  0.20940633460E+01 -0.10152794926E+01 -0.15711923027E+03  0.15713646431E+03  0.00000000000E+00 0. -1.
        -15    1    1    2    0    0 -0.33552205102E+01  0.27567229846E+01 -0.14970079296E+02  0.15688149330E+02  0.17770000000E+01 0.  1.
         15    1    1    2    0    0 -0.12052357534E+01 -0.24762227702E+01 -0.97662922933E+01  0.10301575927E+02  0.17770000000E+01 0. -1.
</event>
<event>
 6    1  0.1697564E-002  0.1879910E+03  0.7546771E-02  0.1064166E+00
        -11   -1    0    0    0    0  0.00000000000E+00  0.00000000000E+00  0.18250000000E+03  0.18250000000E+03  0.00000000000E+00 0.  1.
         11   -1    0    0    0    0 -0.00000000000E+00 -0.00000000000E+00 -0.18250000000E+03  0.18250000000E+03  0.00000000000E+00 0. -1.
        -11    1    1    2    0    0 -0.98538478785E+01 -0.31790612497E+01  0.15642617970E+03  0.15676847401E+03  0.00000000000E+00 0.  1.
         11    1    1    2    0    0 -0.35436861010E+01 -0.15837473730E+01 -0.17696646455E+03  0.17700902672E+03  0.00000000000E+00 0. -1.
        -15    1    1    2    0    0  0.24887407747E+01 -0.23869915361E+01  0.17213288855E+02  0.17645016334E+02  0.17770000000E+01 0.  1.
         15    1    1    2    0    0  0.10908793205E+02  0.71498001589E+01  0.33269959965E+01  0.13577482935E+02  0.17770000000E+01 0. -1.
</event>
<event>
 6    1  0.1697564E-002  0.1846363E+03  0.7546771E-02  0.1066767E+00
        -11   -1    0    0    0    0  0.00000000000E+00  0.00000000000E+00  0.18250000000E+03  0.18250000000E+03  0.00000000000E+00 0. -1.
         11   -1    0    0    0    0 -0.00000000000E+00 -0.00000000000E+00 -0.18250000000E+03  0.18250000000E+03  0.00000000000E+00 0.  1.
        -11    1    1    2    0    0  0.21725274970E+01  0.10682423674E+01  0.14850450396E+03  0.14852423612E+03  0.00000000000E+00 0. -1.
         11    1    1    2    0    0 -0.59140533271E+00  0.26033905548E+01 -0.18034389768E+03  0.18036365718E+03  0.00000000000E+00 0.  1.
        -15    1    1    2    0    0 -0.44216287804E+01  0.53640471888E+01  0.10741569121E+02  0.12917539994E+02  0.17770000000E+01 0. -1.
         15    1    1    2    0    0  0.28405066161E+01 -0.90356801110E+01  0.21097824596E+02  0.23194566704E+02  0.17770000000E+01 0. -1.
</event>
<event>
 6    1  0.1697564E-002  0.1832168E+03  0.7546771E-02  0.1067886E+00
        -11   -1    0    0    0    0  0.00000000000E+00  0.00000000000E+00  0.18250000000E+03  0.18250000000E+03  0.00000000000E+00 0. -1.
         11   -1    0    0    0    0 -0.00000000000E+00 -0.00000000000E+00 -0.18250000000E+03  0.18250000000E+03  0.00000000000E+00 0. -1.
        -11    1    1    2    0    0  0.36571807636E+00  0.23910647656E+01  0.16275188455E+03  0.16276985859E+03  0.00000000000E+00 0. -1.
         11    1    1    2    0    0  0.49868024948E+01 -0.12494266818E+01 -0.18171052426E+03  0.18178323326E+03  0.00000000000E+00 0. -1.
        -15    1    1    2    0    0 -0.14706641403E+01 -0.22729038609E+01  0.77311351830E+01  0.83819523497E+01  0.17770000000E+01 0. -1.
         15    1    1    2    0    0 -0.38818564309E+01  0.11312657771E+01  0.11227504531E+02  0.12064955806E+02  0.17770000000E+01 0.  1.
</event>
<event>
 6    1  0.1697564E-002  0.1854680E+03  0.7546771E-02  0.1066117E+00
        -11   -1    0    0    0    0  0.00000000000E+00  0.00000000000E+00  0.18250000000E+03  0.18250000000E+03  0.00000000000E+00 0. -1.
         11   -1    0    0    0    0 -0.00000000000E+00 -0.00000000000E+00 -0.18250000000E+03  0.18250000000E+03  0.00000000000E+00 0. -1.
        -11    1    1    2    0    0  0.21494623764E+01 -0.18432751619E+01  0.17263723041E+03  0.17266045052E+03  0.00000000000E+00 0. -1.
         11    1    1    2    0    0 -0.57871589622E+01 -0.44332603633E+00 -0.17943813758E+03  0.17953198312E+03  0.00000000000E+00 0. -1.
        -15    1    1    2    0    0 -0.14925880991E+01  0.38262448189E+01  0.75708581275E+00  0.45385985255E+01  0.17770000000E+01 0. -1.
         15    1    1    2    0    0  0.51302846849E+01 -0.15396436206E+01  0.60438213544E+01  0.82689678310E+01  0.17770000000E+01 0. -1.
</event>
<event>
 6    1  0.1697564E-002  0.1829193E+03  0.7546771E-02  0.1068122E+00
        -11   -1    0    0    0    0  0.00000000000E+00  0.00000000000E+00  0.18250000000E+03  0.18250000000E+03  0.00000000000E+00 0. -1.
         11   -1    0    0    0    0 -0.00000000000E+00 -0.00000000000E+00 -0.18250000000E+03  0.18250000000E+03  0.00000000000E+00 0. -1.
        -11    1    1    2    0    0  0.14674405549E+01  0.38107557569E+01  0.18203486119E+03  0.18208065776E+03  0.00000000000E+00 0. -1.
         11    1    1    2    0    0  0.21452037239E+01  0.25021300153E+00 -0.11240887913E+03  0.11242962515E+03  0.00000000000E+00 0. -1.
        -15    1    1    2    0    0 -0.45604749194E+01 -0.11069557421E+01 -0.60194999110E+02  0.60403798965E+02  0.17770000000E+01 0. -1.
         15    1    1    2    0    0  0.94783064052E+00 -0.29540130163E+01 -0.94309829569E+01  0.10085918122E+02  0.17770000000E+01 0.  1.
</event>
<event>
 6    1  0.1697564E-002  0.1863115E+03  0.7546771E-02  0.1065461E+00
        -11   -1    0    0    0    0  0.00000000000E+00  0.00000000000E+00  0.18250000000E+03  0.18250000000E+03  0.00000000000E+00 0.  1.
         11   -1    0    0    0    0 -0.00000000000E+00 -0.00000000000E+00 -0.18250000000E+03  0.18250000000E+03  0.00000000000E+00 0. -1.
        -11    1    1    2    0    0  0.13198200342E+01  0.12637338509E+02  0.17823621081E+03  0.17868853096E+03  0.00000000000E+00 0.  1.
         11    1    1    2    0    0 -0.21716667028E+01 -0.23514781490E+01 -0.16400983258E+03  0.16404106427E+03  0.00000000000E+00 0. -1.
        -15    1    1    2    0    0 -0.47146998150E+01 -0.87992389624E+01 -0.51466140525E+01  0.11371031873E+02  0.17770000000E+01 0. -1.
         15    1    1    2    0    0  0.55665464836E+01 -0.14866213977E+01 -0.90797641844E+01  0.10899372898E+02  0.17770000000E+01 0.  1.
</event>
<event>
 6    1  0.1697564E-002  0.1846282E+03  0.7546771E-02  0.1066773E+00
        -11   -1    0    0    0    0  0.00000000000E+00  0.00000000000E+00  0.18250000000E+03  0.18250000000E+03  0.00000000000E+00 0. -1.
         11   -1    0    0    0    0 -0.00000000000E+00 -0.00000000000E+00 -0.18250000000E+03  0.18250000000E+03  0.00000000000E+00 0.  1.
        -11    1    1    2    0    0  0.11088176012E+01  0.63015766350E+01  0.18025828139E+03  0.18037180311E+03  0.00000000000E+00 0. -1.
         11    1    1    2    0    0 -0.28965393238E+01 -0.84634246170E+00 -0.15662677174E+03  0.15665583890E+03  0.00000000000E+00 0.  1.
        -15    1    1    2    0    0  0.98989401674E+00  0.26542022054E+01 -0.16975831683E+02  0.17302059699E+02  0.17770000000E+01 0. -1.
         15    1    1    2    0    0  0.79782770589E+00 -0.81094363786E+01 -0.66556779721E+01  0.10670298295E+02  0.17770000000E+01 0.  1.
</event>
<event>
 6    1  0.1697564E-002  0.1678008E+03  0.7546771E-02  0.1080797E+00
        -11   -1    0    0    0    0  0.00000000000E+00  0.00000000000E+00  0.18250000000E+03  0.18250000000E+03  0.00000000000E+00 0. -1.
         11   -1    0    0    0    0 -0.00000000000E+00 -0.00000000000E+00 -0.18250000000E+03  0.18250000000E+03  0.00000000000E+00 0.  1.
        -11    1    1    2    0    0 -0.64955085407E+01 -0.74202225802E+01  0.16309408223E+03  0.16339195511E+03  0.00000000000E+00 0. -1.
         11    1    1    2    0    0 -0.10919747279E+02  0.11501969157E+01 -0.17250215769E+03  0.17285126046E+03  0.00000000000E+00 0.  1.
        -15    1    1    2    0    0  0.10648431037E+02 -0.25901295306E+01  0.12823903795E+02  0.16961960148E+02  0.17770000000E+01 0. -1.
         15    1    1    2    0    0  0.67668247833E+01  0.88601551951E+01 -0.34158283339E+01  0.11794824286E+02  0.17770000000E+01 0. -1.
</event>
<event>
 6    1  0.1697564E-002  0.1857969E+03  0.7546771E-02  0.1065860E+00
        -11   -1    0    0    0    0  0.00000000000E+00  0.00000000000E+00  0.18250000000E+03  0.18250000000E+03  0.00000000000E+00 0.  1.
         11   -1    0    0    0    0 -0.00000000000E+00 -0.00000000000E+00 -0.18250000000E+03  0.18250000000E+03  0.00000000000E+00 0. -1.
        -11    1    1    2    0    0 -0.82732389006E+00 -0.42716175951E+01  0.17184853994E+03  0.17190361212E+03  0.00000000000E+00 0.  1.
         11    1    1    2    0    0 -0.47942276948E+01 -0.31529595140E+01 -0.17911120006E+03  0.17920309082E+03  0.00000000000E+00 0. -1.
        -15    1    1    2    0    0  0.44370626732E+00  0.37896937404E+01  0.57915091608E+01  0.71594665484E+01  0.17770000000E+01 0. -1.
         15    1    1    2    0    0  0.51778453176E+01  0.36348833686E+01  0.14711509561E+01  0.67338305125E+01  0.17770000000E+01 0. -1.
</event>
<event>
 6    1  0.1697564E-002  0.1833092E+03  0.7546771E-02  0.1067813E+00
        -11   -1    0    0    0    0  0.00000000000E+00  0.00000000000E+00  0.18250000000E+03  0.18250000000E+03  0.00000000000E+00 0. -1.
         11   -1    0    0    0    0 -0.00000000000E+00 -0.00000000000E+00 -0.18250000000E+03  0.18250000000E+03  0.00000000000E+00 0. -1.
        -11    1    1    2    0    0  0.31157073901E+01  0.77667442282E+01  0.18149799493E+03  0.18169081460E+03  0.00000000000E+00 0. -1.
         11    1    1    2    0    0 -0.37800698925E+01 -0.15500967339E+01 -0.11261943957E+03  0.11269352198E+03  0.00000000000E+00 0. -1.
        -15    1    1    2    0    0  0.30491672481E+01  0.56120637402E-01 -0.54849618847E+02  0.54963069302E+02  0.17770000000E+01 0.  1.
         15    1    1    2    0    0 -0.23848047457E+01 -0.62727681317E+01 -0.14028936512E+02  0.15652594109E+02  0.17770000000E+01 0. -1.
</event>
<event>
 6    1  0.1697564E-002  0.1833338E+03  0.7546771E-02  0.1067793E+00
        -11   -1    0    0    0    0  0.00000000000E+00  0.00000000000E+00  0.18250000000E+03  0.18250000000E+03  0.00000000000E+00 0.  1.
         11   -1    0    0    0    0 -0.00000000000E+00 -0.00000000000E+00 -0.18250000000E+03  0.18250000000E+03  0.00000000000E+00 0. -1.
        -11    1    1    2    0    0 -0.28253187174E+01  0.29754776859E+00  0.18164402849E+03  0.18166624355E+03  0.00000000000E+00 0.  1.
         11    1    1    2    0    0 -0.17165064003E+01 -0.39612604130E+01 -0.15154613670E+03  0.15160761698E+03  0.00000000000E+00 0. -1.
        -15    1    1    2    0    0 -0.15741363040E+01  0.60849159668E+00 -0.40166118608E+01  0.47052169947E+01  0.17770000000E+01 0.  1.
         15    1    1    2    0    0  0.61159614218E+01  0.30552210477E+01 -0.26081279927E+02  0.27020922474E+02  0.17770000000E+01 0. -1.
</event>
<event>
 6    1  0.1697564E-002  0.1838678E+03  0.7546771E-02  0.1067371E+00
        -11   -1    0    0    0    0  0.00000000000E+00  0.00000000000E+00  0.18250000000E+03  0.18250000000E+03  0.00000000000E+00 0. -1.
         11   -1    0    0    0    0 -0.00000000000E+00 -0.00000000000E+00 -0.18250000000E+03  0.18250000000E+03  0.00000000000E+00 0. -1.
        -11    1    1    2    0    0  0.43868429423E+01 -0.35912894251E+01  0.18104344651E+03  0.18113219282E+03  0.00000000000E+00 0. -1.
         11    1    1    2    0    0  0.35934972939E+00 -0.19062144989E+01 -0.12529634120E+03  0.12531135585E+03  0.00000000000E+00 0. -1.
        -15    1    1    2    0    0 -0.31438161994E+01  0.57654347968E+01 -0.55735041394E+02  0.56148698889E+02  0.17770000000E+01 0.  1.
         15    1    1    2    0    0 -0.16023764723E+01 -0.26793087279E+00 -0.12063915254E-01  0.24077524477E+01  0.17770000000E+01 0. -1.
</event>
<event>
 6    1  0.1697564E-002  0.1827891E+03  0.7546771E-02  0.1068225E+00
        -11   -1    0    0    0    0  0.00000000000E+00  0.00000000000E+00  0.18250000000E+03  0.18250000000E+03  0.00000000000E+00 0. -1.
         11   -1    0    0    0    0 -0.00000000000E+00 -0.00000000000E+00 -0.18250000000E+03  0.18250000000E+03  0.00000000000E+00 0. -1.
        -11    1    1    2    0    0  0.26986057112E+01  0.11208862808E+01  0.18218748697E+03  0.18221091973E+03  0.00000000000E+00 0. -1.
         11    1    1    2    0    0 -0.12360514136E+01  0.15865807864E+01 -0.14820348202E+03  0.14821712838E+03  0.00000000000E+00 0. -1.
        -15    1    1    2    0    0 -0.52132815137E+00 -0.27630119623E+01 -0.29105852358E+02  0.29295296356E+02  0.17770000000E+01 0.  1.
         15    1    1    2    0    0 -0.94122614616E+00  0.55544895082E-01 -0.48781525959E+01  0.52766555357E+01  0.17770000000E+01 0. -1.
</event>
<event>
 6    1  0.1697564E-002  0.1826518E+03  0.7546771E-02  0.1068334E+00
        -11   -1    0    0    0    0  0.00000000000E+00  0.00000000000E+00  0.18250000000E+03  0.18250000000E+03  0.00000000000E+00 0.  1.
         11   -1    0    0    0    0 -0.00000000000E+00 -0.00000000000E+00 -0.18250000000E+03  0.18250000000E+03  0.00000000000E+00 0. -1.
        -11    1    1    2    0    0  0.15084244089E+01  0.71454637066E+00  0.11785449917E+03  0.11786631790E+03  0.00000000000E+00 0.  1.
         11    1    1    2    0    0 -0.92877185558E+00 -0.23058870997E+01 -0.18233128043E+03  0.18234822609E+03  0.00000000000E+00 0. -1.
        -15    1    1    2    0    0 -0.23641902324E+01  0.20708887712E+01  0.44207810174E+02  0.44355001805E+02  0.17770000000E+01 0. -1.
         15    1    1    2    0    0  0.17845376791E+01 -0.47954804211E+00  0.20268971095E+02  0.20430454212E+02  0.17770000000E+01 0.  1.
</event>
<event>
 6    1  0.1697564E-002  0.1837152E+03  0.7546771E-02  0.1067492E+00
        -11   -1    0    0    0    0  0.00000000000E+00  0.00000000000E+00  0.18250000000E+03  0.18250000000E+03  0.00000000000E+00 0. -1.
         11   -1    0    0    0    0 -0.00000000000E+00 -0.00000000000E+00 -0.18250000000E+03  0.18250000000E+03  0.00000000000E+00 0.  1.
        -11    1    1    2    0    0 -0.20555073083E+01 -0.70983191083E+00  0.13224675957E+03  0.13226463771E+03  0.00000000000E+00 0. -1.
         11    1    1    2    0    0  0.63984747888E+01 -0.28218602545E+01 -0.18114986648E+03  0.18128479666E+03  0.00000000000E+00 0.  1.
        -15    1    1    2    0    0  0.49451131071E+01  0.35334609550E+01  0.23713236788E+02  0.24544140195E+02  0.17770000000E+01 0. -1.
         15    1    1    2    0    0 -0.92880805875E+01 -0.17687896355E-02  0.25189870115E+02  0.26906425432E+02  0.17770000000E+01 0.  1.
</event>
<event>
 6    1  0.1697564E-002  0.1841811E+03  0.7546771E-02  0.1067124E+00
        -11   -1    0    0    0    0  0.00000000000E+00  0.00000000000E+00  0.18250000000E+03  0.18250000000E+03  0.00000000000E+00 0. -1.
         11   -1    0    0    0    0 -0.00000000000E+00 -0.00000000000E+00 -0.18250000000E+03  0.18250000000E+03  0.00000000000E+00 0.  1.
        -11    1    1    2    0    0  0.55007305196E+01  0.21665317826E+01  0.18072217538E+03  0.18081885015E+03  0.00000000000E+00 0. -1.
         11    1    1    2    0    0 -0.42015581824E+00 -0.21944135838E+01 -0.12269182741E+03  0.12271216930E+03  0.00000000000E+00 0.  1.
        -15    1    1    2    0    0 -0.45432104812E+01  0.40373132627E+01 -0.45284188690E+01  0.77849191589E+01  0.17770000000E+01 0. -1.
         15    1    1    2    0    0 -0.53736422013E+00 -0.40094314616E+01 -0.53501929103E+02  0.53684061393E+02  0.17770000000E+01 0.  1.
</event>
<event>
 6    1  0.1697564E-002  0.1838474E+03  0.7546771E-02  0.1067387E+00
        -11   -1    0    0    0    0  0.00000000000E+00  0.00000000000E+00  0.18250000000E+03  0.18250000000E+03  0.00000000000E+00 0.  1.
         11   -1    0    0    0    0 -0.00000000000E+00 -0.00000000000E+00 -0.18250000000E+03  0.18250000000E+03  0.00000000000E+00 0. -1.
        -11    1    1    2    0    0 -0.74469185591E+01  0.83860649051E+01  0.18080506839E+03  0.18115257502E+03  0.00000000000E+00 0.  1.
         11    1    1    2    0    0  0.16964092672E+00 -0.17405750963E+01 -0.11366805973E+03  0.11368151205E+03  0.00000000000E+00 0. -1.
        -15    1    1    2    0    0  0.26988995188E+01 -0.11106794942E+02 -0.56164817550E+02  0.57343608292E+02  0.17770000000E+01 0. -1.
         15    1    1    2    0    0  0.45783781136E+01  0.44613051328E+01 -0.10972191110E+02  0.12822304644E+02  0.17770000000E+01 0. -1.
</event>
<event>
 6    1  0.2441750E-002  0.1845799E+03  0.7546771E-02  0.1066811E+00
        -11   -1    0    0    0    0  0.00000000000E+00  0.00000000000E+00  0.18250000000E+03  0.18250000000E+03  0.00000000000E+00 0.  1.
         11   -1    0    0    0    0 -0.00000000000E+00 -0.00000000000E+00 -0.18250000000E+03  0.18250000000E+03  0.00000000000E+00 0.  1.
        -11    1    1    2    0    0 -0.22010306953E+01 -0.23636745524E+01  0.15513460532E+03  0.15516822246E+03  0.00000000000E+00 0.  1.
         11    1    1    2    0    0  0.20691464955E+01  0.62599062033E+01 -0.18029963586E+03  0.18042013880E+03  0.00000000000E+00 0.  1.
        -15    1    1    2    0    0 -0.11592000179E+01 -0.69200983007E+01  0.47503446508E+01  0.86576560612E+01  0.17770000000E+01 0. -1.
         15    1    1    2    0    0  0.12910842178E+01  0.30238666498E+01  0.20414685890E+02  0.20753982677E+02  0.17770000000E+01 0. -1.
</event>
<event>
 6    1  0.1697564E-002  0.1853687E+03  0.7546771E-02  0.1066194E+00
        -11   -1    0    0    0    0  0.00000000000E+00  0.00000000000E+00  0.18250000000E+03  0.18250000000E+03  0.00000000000E+00 0. -1.
         11   -1    0    0    0    0 -0.00000000000E+00 -0.00000000000E+00 -0.18250000000E+03  0.18250000000E+03  0.00000000000E+00 0.  1.
        -11    1    1    2    0    0  0.71101043012E+01  0.12992339823E+01  0.17948585834E+03  0.17963133061E+03  0.00000000000E+00 0. -1.
         11    1    1    2    0    0  0.26456039978E+01  0.90028227626E+01 -0.13116488745E+03  0.13150010546E+03  0.00000000000E+00 0.  1.
        -15    1    1    2    0    0 -0.44086104245E+01 -0.13745414117E+02 -0.19649804977E+02  0.24446775242E+02  0.17770000000E+01 0.  1.
         15    1    1    2    0    0 -0.53470978746E+01  0.34433573717E+01 -0.28671165916E+02  0.29421788689E+02  0.17770000000E+01 0. -1.
</event>
<event>
 6    1  0.1697564E-002  0.2084108E+03  0.7546771E-02  0.1049517E+00
        -11   -1    0    0    0    0  0.00000000000E+00  0.00000000000E+00  0.18250000000E+03  0.18250000000E+03  0.00000000000E+00 0. -1.
         11   -1    0    0    0    0 -0.00000000000E+00 -0.00000000000E+00 -0.18250000000E+03  0.18250000000E+03  0.00000000000E+00 0.  1.
        -11    1    1    2    0    0  0.11566499946E+00  0.10662634342E+02  0.89915444234E+02  0.90545525905E+02  0.00000000000E+00 0. -1.
         11    1    1    2    0    0 -0.23057383443E+02  0.85973373070E+01 -0.15464348059E+03  0.15658915425E+03  0.00000000000E+00 0.  1.
        -15    1    1    2    0    0  0.12557575991E+02 -0.26918476504E+02  0.87064324255E+02  0.92008974449E+02  0.17770000000E+01 0.  1.
         15    1    1    2    0    0  0.10384142452E+02  0.76585048558E+01 -0.22336287903E+02  0.25856345399E+02  0.17770000000E+01 0. -1.
</event>
<event>
 6    1  0.1697564E-002  0.1836795E+03  0.7546771E-02  0.1067520E+00
        -11   -1    0    0    0    0  0.00000000000E+00  0.00000000000E+00  0.18250000000E+03  0.18250000000E+03  0.00000000000E+00 0.  1.
         11   -1    0    0    0    0 -0.00000000000E+00 -0.00000000000E+00 -0.18250000000E+03  0.18250000000E+03  0.00000000000E+00 0. -1.
        -11    1    1    2    0    0 -0.13249626416E+01 -0.13541627513E+01  0.91320310391E+02  0.91339960437E+02  0.00000000000E+00 0.  1.
         11    1    1    2    0    0  0.84169006362E+00 -0.45140202030E+01 -0.18126233082E+03  0.18132048256E+03  0.00000000000E+00 0. -1.
        -15    1    1    2    0    0 -0.82669952009E+01 -0.10555722718E+01  0.24756298339E+02  0.26181854001E+02  0.17770000000E+01 0.  1.
         15    1    1    2    0    0  0.87502677788E+01  0.69237552261E+01  0.65185722093E+02  0.66157703001E+02  0.17770000000E+01 0. -1.
</event>
<event>
 6    1  0.1697564E-002  0.1715694E+03  0.7546771E-02  0.1077505E+00
        -11   -1    0    0    0    0  0.00000000000E+00  0.00000000000E+00  0.18250000000E+03  0.18250000000E+03  0.00000000000E+00 0.  1.
         11   -1    0    0    0    0 -0.00000000000E+00 -0.00000000000E+00 -0.18250000000E+03  0.18250000000E+03  0.00000000000E+00 0. -1.
        -11    1    1    2    0    0  0.23763583165E+01  0.28173966373E+01  0.17387805897E+03  0.17391711875E+03  0.00000000000E+00 0.  1.
         11    1    1    2    0    0 -0.62173507182E+01  0.94828049111E+01 -0.16911678558E+03  0.16949650794E+03  0.00000000000E+00 0. -1.
        -15    1    1    2    0    0  0.64607375373E+01 -0.70091084157E+01 -0.96781974053E+01  0.13700144683E+02  0.17770000000E+01 0. -1.
         15    1    1    2    0    0 -0.26197451356E+01 -0.52910931327E+01  0.49169240160E+01  0.78862286230E+01  0.17770000000E+01 0. -1.
</event>
<event>
 6    1  0.1697564E-002  0.1834362E+03  0.7546771E-02  0.1067712E+00
        -11   -1    0    0    0    0  0.00000000000E+00  0.00000000000E+00  0.18250000000E+03  0.18250000000E+03  0.00000000000E+00 0. -1.
         11   -1    0    0    0    0 -0.00000000000E+00 -0.00000000000E+00 -0.18250000000E+03  0.18250000000E+03  0.00000000000E+00 0. -1.
        -11    1    1    2    0    0 -0.34755284196E+01 -0.12712607739E+01  0.13833159028E+03  0.13838108350E+03  0.00000000000E+00 0. -1.
         11    1    1    2    0    0 -0.39601826818E+01  0.18091143936E+01 -0.18151162301E+03  0.18156383238E+03  0.00000000000E+00 0. -1.
        -15    1    1    2    0    0  0.46045078839E+01 -0.28881409091E+01  0.92149645716E+01  0.10845098055E+02  0.17770000000E+01 0. -1.
         15    1    1    2    0    0  0.28312032175E+01  0.23502872894E+01  0.33965068164E+02  0.34209986062E+02  0.17770000000E+01 0. -1.
</event>
<event>
 6    1  0.1697564E-002  0.2050407E+03  0.7546771E-02  0.1051806E+00
        -11   -1    0    0    0    0  0.00000000000E+00  0.00000000000E+00  0.18250000000E+03  0.18250000000E+03  0.00000000000E+00 0.  1.
         11   -1    0    0    0    0 -0.00000000000E+00 -0.00000000000E+00 -0.18250000000E+03  0.18250000000E+03  0.00000000000E+00 0. -1.
        -11    1    1    2    0    0  0.13714140002E+02  0.19788039754E+02  0.92714510670E+02  0.95789480853E+02  0.00000000000E+00 0.  1.
         11    1    1    2    0    0  0.47034621798E+01 -0.28811547721E+01 -0.15986412416E+03  0.15995925045E+03  0.00000000000E+00 0. -1.
        -15    1    1    2    0    0 -0.49430257846E+02 -0.13853267028E+01  0.50638385439E+02  0.70800235379E+02  0.17770000000E+01 0. -1.
         15    1    1    2    0    0  0.31012655664E+02 -0.15521558279E+02  0.16511228053E+02  0.38451033322E+02  0.17770000000E+01 0.  1.
</event>
<event>
 6    1  0.1697564E-002  0.1827825E+03  0.7546771E-02  0.1068230E+00
        -11   -1    0    0    0    0  0.00000000000E+00  0.00000000000E+00  0.18250000000E+03  0.18250000000E+03  0.00000000000E+00 0. -1.
         11   -1    0    0    0    0 -0.00000000000E+00 -0.00000000000E+00 -0.18250000000E+03  0.18250000000E+03  0.00000000000E+00 0.  1.
        -11    1    1    2    0    0 -0.43387822203E+01 -0.10950869928E+01  0.18216251600E+03  0.18221747030E+03  0.00000000000E+00 0. -1.
         11    1    1    2    0    0  0.18280804520E+01  0.10904410060E+01 -0.13498290561E+03  0.13499968795E+03  0.00000000000E+00 0.  1.
        -15    1    1    2    0    0  0.16724595377E+01 -0.30572040170E+01 -0.26127389980E+02  0.26418589165E+02  0.17770000000E+01 0. -1.
         15    1    1    2    0    0  0.83824223059E+00  0.30618500038E+01 -0.21052220405E+02  0.21364252584E+02  0.17770000000E+01 0.  1.
</event>
<event>
 6    1  0.1697564E-002  0.1891506E+03  0.7546771E-02  0.1063281E+00
        -11   -1    0    0    0    0  0.00000000000E+00  0.00000000000E+00  0.18250000000E+03  0.18250000000E+03  0.00000000000E+00 0.  1.
         11   -1    0    0    0    0 -0.00000000000E+00 -0.00000000000E+00 -0.18250000000E+03  0.18250000000E+03  0.00000000000E+00 0.  1.
        -11    1    1    2    0    0 -0.32321675759E+00  0.33173140779E+01  0.17581781081E+03  0.17584940045E+03  0.00000000000E+00 0.  1.
         11    1    1    2    0    0  0.21212953339E+01  0.39304629816E+01 -0.16482770092E+03  0.16488820280E+03  0.00000000000E+00 0.  1.
        -15    1    1    2    0    0 -0.11920073593E+00 -0.23942644224E+01  0.58500139642E+01  0.65671229104E+01  0.17770000000E+01 0.  1.
         15    1    1    2    0    0 -0.16788778404E+01 -0.48535126372E+01 -0.16840123855E+02  0.17695273837E+02  0.17770000000E+01 0.  1.
</event>
<event>
 6    1  0.1697564E-002  0.1833180E+03  0.7546771E-02  0.1067806E+00
        -11   -1    0    0    0    0  0.00000000000E+00  0.00000000000E+00  0.18250000000E+03  0.18250000000E+03  0.00000000000E+00 0. -1.
         11   -1    0    0    0    0 -0.00000000000E+00 -0.00000000000E+00 -0.18250000000E+03  0.18250000000E+03  0.00000000000E+00 0.  1.
        -11    1    1    2    0    0 -0.32986639646E+01 -0.12795939874E+00  0.18165202777E+03  0.18168202098E+03  0.00000000000E+00 0. -1.
         11    1    1    2    0    0 -0.11368193776E+01  0.80965078087E+00 -0.99851252069E+02  0.99861005565E+02  0.00000000000E+00 0.  1.
        -15    1    1    2    0    0 -0.16456377244E+01 -0.81886087437E+00 -0.16210923983E+01  0.30272638166E+01  0.17770000000E+01 0.  1.
         15    1    1    2    0    0  0.60811210666E+01  0.13716949224E+00 -0.80179683299E+02  0.80429709634E+02  0.17770000000E+01 0.  1.
</event>
<event>
 6    1  0.2667171E-002  0.1905116E+03  0.7546771E-02  0.1062251E+00
        -11   -1    0    0    0    0  0.00000000000E+00  0.00000000000E+00  0.18250000000E+03  0.18250000000E+03  0.00000000000E+00 0.  1.
         11   -1    0    0    0    0 -0.00000000000E+00 -0.00000000000E+00 -0.18250000000E+03  0.18250000000E+03  0.00000000000E+00 0. -1.
        -11    1    1    2    0    0  0.21380781029E+01 -0.93521185884E-01  0.15347046146E+03  0.15348538258E+03  0.00000000000E+00 0.  1.
         11    1    1    2    0    0  0.57494846320E+01  0.46959099208E+00 -0.17439300604E+03  0.17448838828E+03  0.00000000000E+00 0. -1.
        -15    1    1    2    0    0 -0.54849233090E+01 -0.17573741083E+01 -0.68126655017E+01  0.90963117636E+01  0.17770000000E+01 0. -1.
         15    1    1    2    0    0 -0.24026394259E+01  0.13813043021E+01  0.27735210077E+02  0.27929917380E+02  0.17770000000E+01 0.  1.
</event>
<event>
 6    1  0.1697564E-002  0.1777395E+03  0.7546771E-02  0.1072309E+00
        -11   -1    0    0    0    0  0.00000000000E+00  0.00000000000E+00  0.18250000000E+03  0.18250000000E+03  0.00000000000E+00 0.  1.
         11   -1    0    0    0    0 -0.00000000000E+00 -0.00000000000E+00 -0.18250000000E+03  0.18250000000E+03  0.00000000000E+00 0. -1.
        -11    1    1    2    0    0 -0.46886078423E+00 -0.33487245124E+01  0.17677177807E+03  0.17680411564E+03  0.00000000000E+00 0.  1.
         11    1    1    2    0    0 -0.29114091931E+01 -0.11898423937E+01 -0.17869752764E+03  0.17872520363E+03  0.00000000000E+00 0. -1.
        -15    1    1    2    0    0  0.14022908356E+01 -0.95662671821E+00 -0.10583134144E+01  0.26756887989E+01  0.17770000000E+01 0. -1.
         15    1    1    2    0    0  0.19779791417E+01  0.54951936244E+01  0.29840629799E+01  0.67949919295E+01  0.17770000000E+01 0.  1.
</event>
<event>
 6    1  0.1697564E-002  0.1827251E+03  0.7546771E-02  0.1068276E+00
        -11   -1    0    0    0    0  0.00000000000E+00  0.00000000000E+00  0.18250000000E+03  0.18250000000E+03  0.00000000000E+00 0. -1.
         11   -1    0    0    0    0 -0.00000000000E+00 -0.00000000000E+00 -0.18250000000E+03  0.18250000000E+03  0.00000000000E+00 0.  1.
        -11    1    1    2    0    0 -0.15544753948E+00  0.12547272310E+01  0.77079959771E+01  0.78109990619E+01  0.00000000000E+00 0. -1.
         11    1    1    2    0    0 -0.73599564949E+01 -0.58006694043E+01 -0.18203389681E+03  0.18227494702E+03  0.00000000000E+00 0.  1.
        -15    1    1    2    0    0  0.37466367541E+01  0.63824756028E+01  0.57769316663E+02  0.58268558919E+02  0.17770000000E+01 0.  1.
         15    1    1    2    0    0  0.37687672803E+01 -0.18365334295E+01  0.11655658417E+03  0.11664549500E+03  0.17770000000E+01 0. -1.
</event>
<event>
 6    1  0.1697564E-002  0.9694036E+02  0.7546771E-02  0.1169216E+00
        -11   -1    0    0    0    0  0.00000000000E+00  0.00000000000E+00  0.18250000000E+03  0.18250000000E+03  0.00000000000E+00 0.  1.
         11   -1    0    0    0    0 -0.00000000000E+00 -0.00000000000E+00 -0.18250000000E+03  0.18250000000E+03  0.00000000000E+00 0.  1.
        -11    1    1    2    0    0 -0.20354547779E-01 -0.16135665608E+01  0.11622387203E+03  0.11623507406E+03  0.00000000000E+00 0.  1.
         11    1    1    2    0    0 -0.27846772432E+01 -0.54319098746E+01 -0.10146918080E+03  0.10165261789E+03  0.00000000000E+00 0.  1.
        -15    1    1    2    0    0 -0.20309400228E+01  0.42203913019E+01 -0.80725281563E+02  0.80880561525E+02  0.17770000000E+01 0.  1.
         15    1    1    2    0    0  0.48359718137E+01  0.28250851334E+01  0.65970590333E+02  0.66231746521E+02  0.17770000000E+01 0.  1.
</event>
<event>
 6    1  0.1697564E-002  0.1898580E+03  0.7546771E-02  0.1062744E+00
        -11   -1    0    0    0    0  0.00000000000E+00  0.00000000000E+00  0.18250000000E+03  0.18250000000E+03  0.00000000000E+00 0.  1.
         11   -1    0    0    0    0 -0.00000000000E+00 -0.00000000000E+00 -0.18250000000E+03  0.18250000000E+03  0.00000000000E+00 0.  1.
        -11    1    1    2    0    0 -0.15638444352E+01  0.30719970455E+01  0.17510803962E+03  0.17514196617E+03  0.00000000000E+00 0.  1.
         11    1    1    2    0    0  0.76496047277E+01 -0.29241766066E+01 -0.16945143594E+03  0.16964921575E+03  0.00000000000E+00 0.  1.
        -15    1    1    2    0    0 -0.13544324716E+01 -0.72160306063E+01 -0.82057618569E+01  0.11153378039E+02  0.17770000000E+01 0.  1.
         15    1    1    2    0    0 -0.47313278209E+01  0.70682101674E+01  0.25491581769E+01  0.90554400407E+01  0.17770000000E+01 0. -1.
</event>
<event>
 6    1  0.2689851E-002  0.1828034E+03  0.7546771E-02  0.1068214E+00
        -11   -1    0    0    0    0  0.00000000000E+00  0.00000000000E+00  0.18250000000E+03  0.18250000000E+03  0.00000000000E+00 0.  1.
         11   -1    0    0    0    0 -0.00000000000E+00 -0.00000000000E+00 -0.18250000000E+03  0.18250000000E+03  0.00000000000E+00 0. -1.
        -11    1    1    2    0    0  0.35702729595E+01 -0.99399117729E+00  0.18215889578E+03  0.18219659211E+03  0.00000000000E+00 0.  1.
         11    1    1    2    0    0 -0.30373223174E+01 -0.25812032446E+01 -0.70620602609E+02  0.70733001137E+02  0.00000000000E+00 0. -1.
        -15    1    1    2    0    0  0.31526806164E+00  0.30444660984E+01 -0.10738641698E+03  0.10744472275E+03  0.17770000000E+01 0. -1.
         15    1    1    2    0    0 -0.84821870366E+00  0.53072832353E+00 -0.41518761900E+01  0.46256839948E+01  0.17770000000E+01 0.  1.
</event>
<event>
 6    1  0.1697564E-002  0.1850958E+03  0.7546771E-02  0.1066407E+00
        -11   -1    0    0    0    0  0.00000000000E+00  0.00000000000E+00  0.18250000000E+03  0.18250000000E+03  0.00000000000E+00 0. -1.
         11   -1    0    0    0    0 -0.00000000000E+00 -0.00000000000E+00 -0.18250000000E+03  0.18250000000E+03  0.00000000000E+00 0. -1.
        -11    1    1    2    0    0 -0.26421198345E+01  0.43804132192E+00  0.16035676868E+03  0.16037913187E+03  0.00000000000E+00 0. -1.
         11    1    1    2    0    0 -0.34235404401E+01  0.45492551835E+01 -0.17981404768E+03  0.17990416364E+03  0.00000000000E+00 0. -1.
        -15    1    1    2    0    0 -0.12082159757E+01  0.24246170007E+00 -0.94762977386E+00  0.23609965498E+01  0.17770000000E+01 0.  1.
         15    1    1    2    0    0  0.72738762504E+01 -0.52297582055E+01  0.20404908768E+02  0.22355707939E+02  0.17770000000E+01 0.  1.
</event>
<event>
 6    1  0.1697564E-002  0.1862384E+03  0.7546771E-02  0.1065517E+00
        -11   -1    0    0    0    0  0.00000000000E+00  0.00000000000E+00  0.18250000000E+03  0.18250000000E+03  0.00000000000E+00 0. -1.
         11   -1    0    0    0    0 -0.00000000000E+00 -0.00000000000E+00 -0.18250000000E+03  0.18250000000E+03  0.00000000000E+00 0.  1.
        -11    1    1    2    0    0 -0.15654610490E+01  0.24280851501E+01  0.17461463300E+03  0.17463853047E+03  0.00000000000E+00 0. -1.
         11    1    1    2    0    0 -0.28252265223E+01 -0.80664635498E+00 -0.17873743165E+03  0.17876157880E+03  0.00000000000E+00 0.  1.
        -15    1    1    2    0    0 -0.10150136395E+01  0.14109492835E+01 -0.16186679827E+01  0.29662848156E+01  0.17770000000E+01 0. -1.
         15    1    1    2    0    0  0.54057012109E+01 -0.30323880786E+01  0.57414666311E+01  0.86336059162E+01  0.17770000000E+01 0. -1.
</event>
<event>
 6    1  0.1697564E-002  0.1829537E+03  0.7546771E-02  0.1068094E+00
        -11   -1    0    0    0    0  0.00000000000E+00  0.00000000000E+00  0.18250000000E+03  0.18250000000E+03  0.00000000000E+00 0.  1.
         11   -1    0    0    0    0 -0.00000000000E+00 -0.00000000000E+00 -0.18250000000E+03  0.18250000000E+03  0.00000000000E+00 0.  1.
        -11    1    1    2    0    0 -0.41194241400E+01  0.75617177728E+00  0.18199815781E+03  0.18204634272E+03  0.00000000000E+00 0.  1.
         11    1    1    2    0    0  0.22361498968E+00  0.25367593816E+01 -0.12706734985E+03  0.12709286585E+03  0.00000000000E+00 0.  1.
        -15    1    1    2    0    0  0.10922051212E+01 -0.33373114566E+01 -0.48154469163E+02  0.48315020326E+02  0.17770000000E+01 0.  1.
         15    1    1    2    0    0  0.28036040291E+01  0.44380297802E-01 -0.67763387952E+01  0.75457711091E+01  0.17770000000E+01 0. -1.
</event>
<event>
 6    1  0.2197189E-002  0.1877238E+03  0.7546771E-02  0.1064371E+00
        -11   -1    0    0    0    0  0.00000000000E+00  0.00000000000E+00  0.18250000000E+03  0.18250000000E+03  0.00000000000E+00 0.  1.
         11   -1    0    0    0    0 -0.00000000000E+00 -0.00000000000E+00 -0.18250000000E+03  0.18250000000E+03  0.00000000000E+00 0. -1.
        -11    1    1    2    0    0 -0.34803519819E+01  0.10579111428E+01  0.17723887194E+03  0.17727619624E+03  0.00000000000E+00 0.  1.
         11    1    1    2    0    0 -0.17466406545E+01 -0.31544116705E+01 -0.16993606056E+03  0.16997430907E+03  0.00000000000E+00 0. -1.
        -15    1    1    2    0    0  0.26236220752E+01  0.28678858268E+01 -0.11601389098E+02  0.12363580384E+02  0.17770000000E+01 0.  1.
         15    1    1    2    0    0  0.26033705612E+01 -0.77138529913E+00  0.42985777153E+01  0.53859143080E+01  0.17770000000E+01 0.  1.
</event>
<event>
 6    1  0.1697564E-002  0.1913423E+03  0.7546771E-02  0.1061626E+00
        -11   -1    0    0    0    0  0.00000000000E+00  0.00000000000E+00  0.18250000000E+03  0.18250000000E+03  0.00000000000E+00 0. -1.
         11   -1    0    0    0    0 -0.00000000000E+00 -0.00000000000E+00 -0.18250000000E+03  0.18250000000E+03  0.00000000000E+00 0.  1.
        -11    1    1    2    0    0  0.73309864013E+01 -0.14700138976E+02  0.17287900906E+03  0.17365767827E+03  0.00000000000E+00 0. -1.
         11    1    1    2    0    0 -0.30274121559E+01  0.93238453475E+01 -0.15317551205E+03  0.15348888171E+03  0.00000000000E+00 0.  1.
        -15    1    1    2    0    0  0.10369007250E+01 -0.66745872648E+01 -0.23094465835E+02  0.24127522862E+02  0.17770000000E+01 0. -1.
         15    1    1    2    0    0 -0.53404749704E+01  0.12050880893E+02  0.33909688245E+01  0.13725917156E+02  0.17770000000E+01 0.  1.
</event>
<event>
 6    1  0.1697564E-002  0.1965390E+03  0.7546771E-02  0.1057798E+00
        -11   -1    0    0    0    0  0.00000000000E+00  0.00000000000E+00  0.18250000000E+03  0.18250000000E+03  0.00000000000E+00 0.  1.
         11   -1    0    0    0    0 -0.00000000000E+00 -0.00000000000E+00 -0.18250000000E+03  0.18250000000E+03  0.00000000000E+00 0. -1.
        -11    1    1    2    0    0  0.54686877324E+01 -0.19603777718E+02  0.16722703569E+03  0.16846096317E+03  0.00000000000E+00 0.  1.
         11    1    1    2    0    0 -0.53454502594E+01 -0.69211095899E+01 -0.85677037182E+02  0.86122182374E+02  0.00000000000E+00 0. -1.
        -15    1    1    2    0    0  0.33782385620E+01  0.29407573444E+02 -0.94967555092E+00  0.29669470577E+02  0.17770000000E+01 0.  1.
         15    1    1    2    0    0 -0.35014760350E+01 -0.28826861365E+01 -0.80600322957E+02  0.80747383880E+02  0.17770000000E+01 0. -1.
</event>
<event>
 6    1  0.1697564E-002  0.1834722E+03  0.7546771E-02  0.1067684E+00
        -11   -1    0    0    0    0  0.00000000000E+00  0.00000000000E+00  0.18250000000E+03  0.18250000000E+03  0.00000000000E+00 0.  1.
         11   -1    0    0    0    0 -0.00000000000E+00 -0.00000000000E+00 -0.18250000000E+03  0.18250000000E+03  0.00000000000E+00 0.  1.
        -11    1    1    2    0    0  0.80604517875E+01 -0.73507483572E+00  0.18134730644E+03  0.18152784021E+03  0.00000000000E+00 0.  1.
         11    1    1    2    0    0 -0.14390534232E+01  0.43357981556E+01 -0.94702793551E+02  0.94812916456E+02  0.00000000000E+00 0.  1.
        -15    1    1    2    0    0  0.22458992093E+01  0.22892431357E+01 -0.44803527037E+01  0.57892993308E+01  0.17770000000E+01 0. -1.
         15    1    1    2    0    0 -0.88672975736E+01 -0.58899664556E+01 -0.82164160186E+02  0.82869944003E+02  0.17770000000E+01 0.  1.
</event>
<event>
 6    1  0.1697564E-002  0.1825896E+03  0.7546771E-02  0.1068384E+00
        -11   -1    0    0    0    0  0.00000000000E+00  0.00000000000E+00  0.18250000000E+03  0.18250000000E+03  0.00000000000E+00 0. -1.
         11   -1    0    0    0    0 -0.00000000000E+00 -0.00000000000E+00 -0.18250000000E+03  0.18250000000E+03  0.00000000000E+00 0. -1.
        -11    1    1    2    0    0 -0.34448966799E+01 -0.30927441597E+01  0.18235164831E+03  0.18241040547E+03  0.00000000000E+00 0. -1.
         11    1    1    2    0    0  0.24790686475E+01  0.32146005097E+00 -0.82271784455E+02  0.82309754193E+02  0.00000000000E+00 0. -1.
        -15    1    1    2    0    0 -0.17132108364E+01  0.12522771187E+01 -0.41581454982E+02  0.41673473778E+02  0.17770000000E+01 0. -1.
         15    1    1    2    0    0  0.26790388688E+01  0.15190069900E+01 -0.58498408877E+02  0.58606366562E+02  0.17770000000E+01 0.  1.
</event>
<event>
 6    1  0.1697564E-002  0.1870399E+03  0.7546771E-02  0.1064897E+00
        -11   -1    0    0    0    0  0.00000000000E+00  0.00000000000E+00  0.18250000000E+03  0.18250000000E+03  0.00000000000E+00 0.  1.
         11   -1    0    0    0    0 -0.00000000000E+00 -0.00000000000E+00 -0.18250000000E+03  0.18250000000E+03  0.00000000000E+00 0.  1.
        -11    1    1    2    0    0 -0.10787698443E+01 -0.39620571179E+01  0.17791267188E+03  0.17796005298E+03  0.00000000000E+00 0.  1.
         11    1    1    2    0    0 -0.25751039479E+01  0.14762096252E+01 -0.15964589075E+03  0.15967348180E+03  0.00000000000E+00 0.  1.
        -15    1    1    2    0    0 -0.14100317642E+01 -0.76513132223E+01 -0.11660409819E+02  0.14129885695E+02  0.17770000000E+01 0. -1.
         15    1    1    2    0    0  0.50639055565E+01  0.10137160715E+02 -0.66063713054E+01  0.13236579531E+02  0.17770000000E+01 0.  1.
</event>
<event>
 6    1  0.1697564E-002  0.1909769E+03  0.7546771E-02  0.1061901E+00
        -11   -1    0    0    0    0  0.00000000000E+00  0.00000000000E+00  0.18250000000E+03  0.18250000000E+03  0.00000000000E+00 0.  1.
         11   -1    0    0    0    0 -0.00000000000E+00 -0.00000000000E+00 -0.18250000000E+03  0.18250000000E+03  0.00000000000E+00 0. -1.
        -11    1    1    2    0    0  0.26847036655E+02 -0.35398836230E+01  0.17190332221E+03  0.17402312013E+03  0.00000000000E+00 0.  1.
         11    1    1    2    0    0 -0.10630640282E+01  0.31025569991E+01 -0.97339032119E+02  0.97394266458E+02  0.00000000000E+00 0. -1.
        -15    1    1    2    0    0 -0.55984309213E+01  0.25422256150E+01 -0.72858075983E+02  0.73138651237E+02  0.17770000000E+01 0. -1.
         15    1    1    2    0    0 -0.20185541705E+02 -0.21048989911E+01 -0.17062141111E+01  0.20443962172E+02  0.17770000000E+01 0.  1.
</event>
<event>
 6    1  0.1697564E-002  0.1834760E+03  0.7546771E-02  0.1067681E+00
        -11   -1    0    0    0    0  0.00000000000E+00  0.00000000000E+00  0.18250000000E+03  0.18250000000E+03  0.00000000000E+00 0. -1.
         11   -1    0    0    0    0 -0.00000000000E+00 -0.00000000000E+00 -0.18250000000E+03  0.18250000000E+03  0.00000000000E+00 0.  1.
        -11    1    1    2    0    0 -0.19930599212E+01 -0.91277540074E+00  0.15220397146E+03  0.15221975684E+03  0.00000000000E+00 0. -1.
         11    1    1    2    0    0  0.29271768767E+01  0.24091888150E+01 -0.18148445563E+03  0.18152404851E+03  0.00000000000E+00 0.  1.
        -15    1    1    2    0    0  0.13754769058E+01 -0.27689152949E+01  0.27252305824E+02  0.27484627164E+02  0.17770000000E+01 0.  1.
         15    1    1    2    0    0 -0.23095938612E+01  0.12725018806E+01  0.20281783453E+01  0.37715674779E+01  0.17770000000E+01 0. -1.
</event>
<event>
 6    1  0.1697564E-002  0.1845424E+03  0.7546771E-02  0.1066841E+00
        -11   -1    0    0    0    0  0.00000000000E+00  0.00000000000E+00  0.18250000000E+03  0.18250000000E+03  0.00000000000E+00 0.  1.
         11   -1    0    0    0    0 -0.00000000000E+00 -0.00000000000E+00 -0.18250000000E+03  0.18250000000E+03  0.00000000000E+00 0. -1.
        -11    1    1    2    0    0 -0.43354130489E+01  0.84454476422E+01  0.11755475902E+03  0.11793745275E+03  0.00000000000E+00 0.  1.
         11    1    1    2    0    0  0.16528079105E+01  0.23168138710E+01 -0.18043518702E+03  0.18045762969E+03  0.00000000000E+00 0. -1.
        -15    1    1    2    0    0 -0.14208771398E+01 -0.12134969764E+01 -0.25860498890E+00  0.25915385967E+01  0.17770000000E+01 0.  1.
         15    1    1    2    0    0  0.41034822782E+01 -0.95487645368E+01  0.63139032987E+02  0.64013378965E+02  0.17770000000E+01 0. -1.
</event>
<event>
 6    1  0.1697564E-002  0.1835255E+03  0.7546771E-02  0.1067641E+00
        -11   -1    0    0    0    0  0.00000000000E+00  0.00000000000E+00  0.18250000000E+03  0.18250000000E+03  0.00000000000E+00 0.  1.
         11   -1    0    0    0    0 -0.00000000000E+00 -0.00000000000E+00 -0.18250000000E+03  0.18250000000E+03  0.00000000000E+00 0.  1.
        -11    1    1    2    0    0  0.63455660268E+00  0.25271704796E+01  0.14067131450E+03  0.14069544405E+03  0.00000000000E+00 0.  1.
         11    1    1    2    0    0  0.28162431628E+01 -0.94100225167E+00 -0.18145020513E+03  0.18147449863E+03  0.00000000000E+00 0.  1.
        -15    1    1    2    0    0  0.18009833712E+01 -0.38707777053E+01  0.61974913006E+01  0.77325990823E+01  0.17770000000E+01 0.  1.
         15    1    1    2    0    0 -0.52517831367E+01  0.22846094774E+01  0.34581399326E+02  0.35097458240E+02  0.17770000000E+01 0. -1.
</event>
<event>
 6    1  0.1697564E-002  0.1846355E+03  0.7546771E-02  0.1066768E+00
        -11   -1    0    0    0    0  0.00000000000E+00  0.00000000000E+00  0.18250000000E+03  0.18250000000E+03  0.00000000000E+00 0. -1.
         11   -1    0    0    0    0 -0.00000000000E+00 -0.00000000000E+00 -0.18250000000E+03  0.18250000000E+03  0.00000000000E+00 0. -1.
        -11    1    1    2    0    0 -0.53846931749E+00  0.29012049599E+01  0.18034034660E+03  0.18036448528E+03  0.00000000000E+00 0. -1.
         11    1    1    2    0    0 -0.71642590301E+00 -0.68004467001E+01 -0.12818462822E+03  0.12836688924E+03  0.00000000000E+00 0. -1.
        -15    1    1    2    0    0  0.60172030016E+01  0.24097963264E+01 -0.39974015130E+01  0.78198975794E+01  0.17770000000E+01 0.  1.
         15    1    1    2    0    0 -0.47623077811E+01  0.14894454138E+01 -0.48158316864E+02  0.48448727901E+02  0.17770000000E+01 0. -1.
</event>
<event>
 6    1  0.1697564E-002  0.1850927E+03  0.7546771E-02  0.1066410E+00
        -11   -1    0    0    0    0  0.00000000000E+00  0.00000000000E+00  0.18250000000E+03  0.18250000000E+03  0.00000000000E+00 0. -1.
         11   -1    0    0    0    0 -0.00000000000E+00 -0.00000000000E+00 -0.18250000000E+03  0.18250000000E+03  0.00000000000E+00 0.  1.
        -11    1    1    2    0    0  0.37015678139E+01  0.12666644224E+01  0.17986476682E+03  0.17990731054E+03  0.00000000000E+00 0. -1.
         11    1    1    2    0    0 -0.18710803134E+00  0.32165421899E+01 -0.17002244721E+03  0.17005297325E+03  0.00000000000E+00 0.  1.
        -15    1    1    2    0    0  0.28975334810E+01 -0.20666504381E+00 -0.36732534327E+01  0.50088851549E+01  0.17770000000E+01 0.  1.
         15    1    1    2    0    0 -0.64119932636E+01 -0.42765415685E+01 -0.61690661681E+01  0.10030831062E+02  0.17770000000E+01 0.  1.
</event>
<event>
 6    1  0.1697564E-002  0.2182692E+03  0.7546771E-02  0.1043084E+00
        -11   -1    0    0    0    0  0.00000000000E+00  0.00000000000E+00  0.18250000000E+03  0.18250000000E+03  0.00000000000E+00 0.  1.
         11   -1    0    0    0    0 -0.00000000000E+00 -0.00000000000E+00 -0.18250000000E+03  0.18250000000E+03  0.00000000000E+00 0. -1.
        -11    1    1    2    0    0  0.76338706603E+01  0.63088441274E+01  0.85139798915E+02  0.85713842842E+02  0.00000000000E+00 0.  1.
         11    1    1    2    0    0 -0.17233908273E+01 -0.55796723350E+01 -0.14661451994E+03  0.14673077481E+03  0.00000000000E+00 0. -1.
        -15    1    1    2    0    0 -0.10195509893E+02 -0.34434920058E+01  0.96502873816E+02  0.97117292193E+02  0.17770000000E+01 0.  1.
         15    1    1    2    0    0  0.42850300605E+01  0.27143202134E+01 -0.35028152790E+02  0.35438090154E+02  0.17770000000E+01 0. -1.
</event>
<event>
 6    1  0.1697564E-002  0.1865733E+03  0.7546771E-02  0.1065258E+00
        -11   -1    0    0    0    0  0.00000000000E+00  0.00000000000E+00  0.18250000000E+03  0.18250000000E+03  0.00000000000E+00 0.  1.
         11   -1    0    0    0    0 -0.00000000000E+00 -0.00000000000E+00 -0.18250000000E+03  0.18250000000E+03  0.00000000000E+00 0.  1.
        -11    1    1    2    0    0  0.27240074716E+01 -0.12596161304E+01  0.17189892010E+03  0.17192511621E+03  0.00000000000E+00 0.  1.
         11    1    1    2    0    0  0.67257051978E+01 -0.20667244042E+01 -0.17828790231E+03  0.17842668682E+03  0.00000000000E+00 0.  1.
        -15    1    1    2    0    0 -0.29913049234E+01 -0.50555104255E+00 -0.13057017613E+01  0.37504763819E+01  0.17770000000E+01 0. -1.
         15    1    1    2    0    0 -0.64584077460E+01  0.38318915771E+01  0.76946839683E+01  0.10897720589E+02  0.17770000000E+01 0.  1.
</event>
<event>
 6    1  0.1697564E-002  0.1859076E+03  0.7546771E-02  0.1065774E+00
        -11   -1    0    0    0    0  0.00000000000E+00  0.00000000000E+00  0.18250000000E+03  0.18250000000E+03  0.00000000000E+00 0. -1.
         11   -1    0    0    0    0 -0.00000000000E+00 -0.00000000000E+00 -0.18250000000E+03  0.18250000000E+03  0.00000000000E+00 0.  1.
        -11    1    1    2    0    0  0.12398677628E+01  0.37841782523E+01  0.16972906043E+03  0.16977576750E+03  0.00000000000E+00 0. -1.
         11    1    1    2    0    0 -0.23534971389E+01 -0.13348679747E+01 -0.17907194586E+03  0.17909238570E+03  0.00000000000E+00 0.  1.
        -15    1    1    2    0    0  0.63297535113E+01  0.88865263115E+00  0.38845138276E+01  0.76878254201E+01  0.17770000000E+01 0.  1.
         15    1    1    2    0    0 -0.52161241352E+01 -0.33379629087E+01  0.54583716049E+01  0.84440213732E+01  0.17770000000E+01 0. -1.
</event>
<event>
 6    1  0.1697564E-002  0.1839564E+03  0.7546771E-02  0.1067301E+00
        -11   -1    0    0    0    0  0.00000000000E+00  0.00000000000E+00  0.18250000000E+03  0.18250000000E+03  0.00000000000E+00 0.  1.
         11   -1    0    0    0    0 -0.00000000000E+00 -0.00000000000E+00 -0.18250000000E+03  0.18250000000E+03  0.00000000000E+00 0.  1.
        -11    1    1    2    0    0  0.60498539397E+00  0.22423213754E+01  0.13555616302E+03  0.13557605742E+03  0.00000000000E+00 0.  1.
         11    1    1    2    0    0 -0.45438697792E+01  0.39518408805E+00 -0.18098614637E+03  0.18104360828E+03  0.00000000000E+00 0.  1.
        -15    1    1    2    0    0  0.17154701954E+00 -0.30245149358E+01  0.43720259991E+02  0.43861098729E+02  0.17770000000E+01 0.  1.
         15    1    1    2    0    0  0.37673373657E+01  0.38700947241E+00  0.17097233591E+01  0.45192355685E+01  0.17770000000E+01 0.  1.
</event>
<event>
 6    1  0.2130040E-002  0.1870222E+03  0.7546771E-02  0.1064911E+00
        -11   -1    0    0    0    0  0.00000000000E+00  0.00000000000E+00  0.18250000000E+03  0.18250000000E+03  0.00000000000E+00 0. -1.
         11   -1    0    0    0    0 -0.00000000000E+00 -0.00000000000E+00 -0.18250000000E+03  0.18250000000E+03  0.00000000000E+00 0. -1.
        -11    1    1    2    0    0  0.15871583525E+01  0.31573793431E+01  0.17196681809E+03  0.17200312393E+03  0.00000000000E+00 0. -1.
         11    1    1    2    0    0  0.52459210045E+01 -0.51022521501E+01 -0.17782733272E+03  0.17797784392E+03  0.00000000000E+00 0. -1.
        -15    1    1    2    0    0 -0.54195144060E+01  0.26107544782E+01 -0.21776498314E+01  0.66398089680E+01  0.17770000000E+01 0. -1.
         15    1    1    2    0    0 -0.14135649510E+01 -0.66588167122E+00  0.80381644614E+01  0.83792231847E+01  0.17770000000E+01 0.  1.
</event>
<event>
 6    1  0.1697564E-002  0.1880194E+03  0.7546771E-02  0.1064144E+00
        -11   -1    0    0    0    0  0.00000000000E+00  0.00000000000E+00  0.18250000000E+03  0.18250000000E+03  0.00000000000E+00 0.  1.
         11   -1    0    0    0    0 -0.00000000000E+00 -0.00000000000E+00 -0.18250000000E+03  0.18250000000E+03  0.00000000000E+00 0.  1.
        -11    1    1    2    0    0 -0.13116630561E+01  0.21542508420E+01  0.17696259505E+03  0.17698056759E+03  0.00000000000E+00 0.  1.
         11    1    1    2    0    0 -0.71104156129E+01  0.73302287687E+01 -0.16761677960E+03  0.16792758876E+03  0.00000000000E+00 0.  1.
        -15    1    1    2    0    0  0.51065556675E+01 -0.10590479148E+02 -0.10646710977E+02  0.15960743811E+02  0.17770000000E+01 0. -1.
         15    1    1    2    0    0  0.33155230015E+01  0.11059995374E+01  0.13008955192E+01  0.41310998417E+01  0.17770000000E+01 0.  1.
</event>
<event>
 6    1  0.1697564E-002  0.1851028E+03  0.7546771E-02  0.1066402E+00
        -11   -1    0    0    0    0  0.00000000000E+00  0.00000000000E+00  0.18250000000E+03  0.18250000000E+03  0.00000000000E+00 0. -1.
         11   -1    0    0    0    0 -0.00000000000E+00 -0.00000000000E+00 -0.18250000000E+03  0.18250000000E+03  0.00000000000E+00 0. -1.
        -11    1    1    2    0    0 -0.26163084479E+01  0.36044828019E+01  0.17984203197E+03  0.17989717572E+03  0.00000000000E+00 0. -1.
         11    1    1    2    0    0 -0.17036199258E+01  0.43582021323E+01 -0.16839588605E+03  0.16846088771E+03  0.00000000000E+00 0. -1.
        -15    1    1    2    0    0  0.27869983601E+01 -0.82590482930E+01 -0.60730816584E+01  0.10771225018E+02  0.17770000000E+01 0.  1.
         15    1    1    2    0    0  0.15329300136E+01  0.29636335883E+00 -0.53730642612E+01  0.58707115601E+01  0.17770000000E+01 0. -1.
</event>
<event>
 6    1  0.2829185E-002  0.1836657E+03  0.7546771E-02  0.1067531E+00
        -11   -1    0    0    0    0  0.00000000000E+00  0.00000000000E+00  0.18250000000E+03  0.18250000000E+03  0.00000000000E+00 0.  1.
         11   -1    0    0    0    0 -0.00000000000E+00 -0.00000000000E+00 -0.18250000000E+03  0.18250000000E+03  0.00000000000E+00 0.  1.
        -11    1    1    2    0    0 -0.73294626121E-01  0.28713503088E+01  0.18131156206E+03  0.18133431159E+03  0.00000000000E+00 0.  1.
         11    1    1    2    0    0  0.29672857023E+01 -0.36477077044E+01 -0.11702244990E+03  0.11711688322E+03  0.00000000000E+00 0.  1.
        -15    1    1    2    0    0 -0.13667111522E+01  0.37199412126E+01 -0.61985072295E+02  0.62137048356E+02  0.17770000000E+01 0. -1.
         15    1    1    2    0    0 -0.15272799241E+01 -0.29435838170E+01 -0.23040398635E+01  0.44117568322E+01  0.17770000000E+01 0. -1.
</event>
<event>
 6    1  0.1697564E-002  0.1766192E+03  0.7546771E-02  0.1073235E+00
        -11   -1    0    0    0    0  0.00000000000E+00  0.00000000000E+00  0.18250000000E+03  0.18250000000E+03  0.00000000000E+00 0.  1.
         11   -1    0    0    0    0 -0.00000000000E+00 -0.00000000000E+00 -0.18250000000E+03  0.18250000000E+03  0.00000000000E+00 0.  1.
        -11    1    1    2    0    0  0.35054730988E+01 -0.34423198781E+01  0.17729680699E+03  0.17736486596E+03  0.00000000000E+00 0.  1.
         11    1    1    2    0    0  0.30403971992E+01  0.22237777784E+01 -0.17589868021E+03  0.17593900904E+03  0.00000000000E+00 0.  1.
        -15    1    1    2    0    0 -0.31115149275E+00 -0.25218698942E+01 -0.26849807735E+01  0.41016452514E+01  0.17770000000E+01 0.  1.
         15    1    1    2    0    0 -0.62347188052E+01  0.37404119939E+01  0.12868539859E+01  0.75944797482E+01  0.17770000000E+01 0. -1.
</event>
<event>
 6    1  0.1697564E-002  0.1830762E+03  0.7546771E-02  0.1067997E+00
        -11   -1    0    0    0    0  0.00000000000E+00  0.00000000000E+00  0.18250000000E+03  0.18250000000E+03  0.00000000000E+00 0.  1.
         11   -1    0    0    0    0 -0.00000000000E+00 -0.00000000000E+00 -0.18250000000E+03  0.18250000000E+03  0.00000000000E+00 0. -1.
        -11    1    1    2    0    0 -0.23843936030E+01  0.14413317249E+01  0.11885212079E+03  0.11888477357E+03  0.00000000000E+00 0.  1.
         11    1    1    2    0    0  0.70336554451E+01  0.56259477107E+01 -0.18170069224E+03  0.18192378942E+03  0.00000000000E+00 0. -1.
        -15    1    1    2    0    0 -0.62763295075E+01 -0.47634327040E+01  0.26843465100E+02  0.28032337590E+02  0.17770000000E+01 0.  1.
         15    1    1    2    0    0  0.16270676654E+01 -0.23038467315E+01  0.36005106350E+02  0.36159099425E+02  0.17770000000E+01 0.  1.
</event>
<event>
 6    1  0.1697564E-002  0.1827617E+03  0.7546771E-02  0.1068247E+00
        -11   -1    0    0    0    0  0.00000000000E+00  0.00000000000E+00  0.18250000000E+03  0.18250000000E+03  0.00000000000E+00 0. -1.
         11   -1    0    0    0    0 -0.00000000000E+00 -0.00000000000E+00 -0.18250000000E+03  0.18250000000E+03  0.00000000000E+00 0. -1.
        -11    1    1    2    0    0 -0.28394914364E+01  0.20732580083E+00  0.18221606966E+03  0.18223831029E+03  0.00000000000E+00 0. -1.
         11    1    1    2    0    0  0.50559995613E+00 -0.87740743422E+00 -0.40005256465E+02  0.40018071167E+02  0.00000000000E+00 0. -1.
        -15    1    1    2    0    0  0.28046278692E+01  0.49066240705E+01 -0.11429035910E+03  0.11444380634E+03  0.17770000000E+01 0. -1.
         15    1    1    2    0    0 -0.47073638890E+00 -0.42365424371E+01 -0.27920454093E+02  0.28299812196E+02  0.17770000000E+01 0.  1.
</event>
<event>
 6    1  0.1697564E-002  0.1831080E+03  0.7546771E-02  0.1067972E+00
        -11   -1    0    0    0    0  0.00000000000E+00  0.00000000000E+00  0.18250000000E+03  0.18250000000E+03  0.00000000000E+00 0.  1.
         11   -1    0    0    0    0 -0.00000000000E+00 -0.00000000000E+00 -0.18250000000E+03  0.18250000000E+03  0.00000000000E+00 0.  1.
        -11    1    1    2    0    0 -0.21350435414E+01  0.29374033568E+01  0.18185576796E+03  0.18189202041E+03  0.00000000000E+00 0.  1.
         11    1    1    2    0    0 -0.20963688038E+00  0.23027336889E+01 -0.62063002737E+02  0.62106061209E+02  0.00000000000E+00 0.  1.
        -15    1    1    2    0    0  0.12207093156E+01 -0.53117890685E+01 -0.11826016789E+03  0.11839902986E+03  0.17770000000E+01 0.  1.
         15    1    1    2    0    0  0.11239711062E+01  0.71652022821E-01 -0.15325973334E+01  0.26028885198E+01  0.17770000000E+01 0. -1.
</event>
<event>
 6    1  0.1697564E-002  0.1846564E+03  0.7546771E-02  0.1066751E+00
        -11   -1    0    0    0    0  0.00000000000E+00  0.00000000000E+00  0.18250000000E+03  0.18250000000E+03  0.00000000000E+00 0.  1.
         11   -1    0    0    0    0 -0.00000000000E+00 -0.00000000000E+00 -0.18250000000E+03  0.18250000000E+03  0.00000000000E+00 0. -1.
        -11    1    1    2    0    0 -0.21365167436E+01 -0.14484981177E+01  0.17732371565E+03  0.17734250191E+03  0.00000000000E+00 0.  1.
         11    1    1    2    0    0 -0.23714102777E+01  0.14896077257E+01 -0.18032188463E+03  0.18034362920E+03  0.00000000000E+00 0. -1.
        -15    1    1    2    0    0  0.13441378801E+01 -0.34249575257E+00  0.28977232263E+01  0.36713129637E+01  0.17770000000E+01 0.  1.
         15    1    1    2    0    0  0.31637891412E+01  0.30138614454E+00  0.10044575006E+00  0.36425559277E+01  0.17770000000E+01 0. -1.
</event>
<event>
 6    1  0.1697564E-002  0.1828530E+03  0.7546771E-02  0.1068174E+00
        -11   -1    0    0    0    0  0.00000000000E+00  0.00000000000E+00  0.18250000000E+03  0.18250000000E+03  0.00000000000E+00 0. -1.
         11   -1    0    0    0    0 -0.00000000000E+00 -0.00000000000E+00 -0.18250000000E+03  0.18250000000E+03  0.00000000000E+00 0.  1.
        -11    1    1    2    0    0 -0.22671765734E+01 -0.12866662890E+01  0.18212833626E+03  0.18214699138E+03  0.00000000000E+00 0. -1.
         11    1    1    2    0    0 -0.52998954226E+00  0.45428145933E+01 -0.11806355305E+03  0.11815210795E+03  0.00000000000E+00 0.  1.
        -15    1    1    2    0    0  0.29865964849E+01 -0.31587765834E+00 -0.11359203963E+02  0.11883130099E+02  0.17770000000E+01 0. -1.
         15    1    1    2    0    0 -0.18943036920E+00 -0.29402706459E+01 -0.52705579245E+02  0.52817770569E+02  0.17770000000E+01 0.  1.
</event>
<event>
 6    1  0.1697564E-002  0.1833964E+03  0.7546771E-02  0.1067744E+00
        -11   -1    0    0    0    0  0.00000000000E+00  0.00000000000E+00  0.18250000000E+03  0.18250000000E+03  0.00000000000E+00 0.  1.
         11   -1    0    0    0    0 -0.00000000000E+00 -0.00000000000E+00 -0.18250000000E+03  0.18250000000E+03  0.00000000000E+00 0.  1.
        -11    1    1    2    0    0  0.28488448012E+01  0.62971689101E+00  0.18158018657E+03  0.18160362501E+03  0.00000000000E+00 0.  1.
         11    1    1    2    0    0  0.35586209698E+00 -0.30629239959E+01 -0.16638146856E+03  0.16641003943E+03  0.00000000000E+00 0.  1.
        -15    1    1    2    0    0 -0.23193936370E+01  0.88451718245E+00 -0.22430737393E+01  0.37882801229E+01  0.17770000000E+01 0. -1.
         15    1    1    2    0    0 -0.88531326120E+00  0.15486899224E+01 -0.12955644271E+02  0.13198055445E+02  0.17770000000E+01 0.  1.
</event>
<event>
 6    1  0.1697564E-002  0.1879219E+03  0.7546771E-02  0.1064219E+00
        -11   -1    0    0    0    0  0.00000000000E+00  0.00000000000E+00  0.18250000000E+03  0.18250000000E+03  0.00000000000E+00 0. -1.
         11   -1    0    0    0    0 -0.00000000000E+00 -0.00000000000E+00 -0.18250000000E+03  0.18250000000E+03  0.00000000000E+00 0. -1.
        -11    1    1    2    0    0  0.29167908979E+01 -0.44143784778E+01  0.17699902914E+03  0.17707809216E+03  0.00000000000E+00 0. -1.
         11    1    1    2    0    0  0.39755171239E+01  0.36250510029E+01 -0.16165858604E+03  0.16174808861E+03  0.00000000000E+00 0. -1.
        -15    1    1    2    0    0  0.40689908372E+01 -0.40892198122E+01  0.68610860870E+00  0.60751032196E+01  0.17770000000E+01 0. -1.
         15    1    1    2    0    0 -0.10961298859E+02  0.48785472872E+01 -0.16026551713E+02  0.20098716006E+02  0.17770000000E+01 0.  1.
</event>
<event>
 6    1  0.1697564E-002  0.1841463E+03  0.7546771E-02  0.1067152E+00
        -11   -1    0    0    0    0  0.00000000000E+00  0.00000000000E+00  0.18250000000E+03  0.18250000000E+03  0.00000000000E+00 0.  1.
         11   -1    0    0    0    0 -0.00000000000E+00 -0.00000000000E+00 -0.18250000000E+03  0.18250000000E+03  0.00000000000E+00 0.  1.
        -11    1    1    2    0    0  0.33172839823E+01  0.12081129432E+01  0.17173593625E+03  0.17177222042E+03  0.00000000000E+00 0.  1.
         11    1    1    2    0    0 -0.11567877381E+01 -0.38398095535E+01 -0.18080921459E+03  0.18085368222E+03  0.00000000000E+00 0.  1.
        -15    1    1    2    0    0  0.75277807658E+00  0.31790577535E+01  0.14275998604E+01  0.39835729432E+01  0.17770000000E+01 0. -1.
         15    1    1    2    0    0 -0.29132743208E+01 -0.54736114321E+00  0.76456784760E+01  0.83905244083E+01  0.17770000000E+01 0.  1.
</event>
<event>
 6    1  0.1697564E-002  0.1736033E+03  0.7546771E-02  0.1075766E+00
        -11   -1    0    0    0    0  0.00000000000E+00  0.00000000000E+00  0.18250000000E+03  0.18250000000E+03  0.00000000000E+00 0.  1.
         11   -1    0    0    0    0 -0.00000000000E+00 -0.00000000000E+00 -0.18250000000E+03  0.18250000000E+03  0.00000000000E+00 0. -1.
        -11    1    1    2    0    0 -0.33276065256E+01  0.49827164848E+01  0.17493333700E+03  0.17503591866E+03  0.00000000000E+00 0.  1.
         11    1    1    2    0    0 -0.29815693549E+01  0.35469170966E+01 -0.17228059151E+03  0.17234289247E+03  0.00000000000E+00 0. -1.
        -15    1    1    2    0    0  0.99665785111E+01 -0.83611433433E+01 -0.32011433798E+01  0.13514675474E+02  0.17770000000E+01 0.  1.
         15    1    1    2    0    0 -0.36574026306E+01 -0.16849023813E+00  0.54839788650E+00  0.41065133878E+01  0.17770000000E+01 0. -1.
</event>
<event>
 6    1  0.1697564E-002  0.1964932E+03  0.7546771E-02  0.1057832E+00
        -11   -1    0    0    0    0  0.00000000000E+00  0.00000000000E+00  0.18250000000E+03  0.18250000000E+03  0.00000000000E+00 0. -1.
         11   -1    0    0    0    0 -0.00000000000E+00 -0.00000000000E+00 -0.18250000000E+03  0.18250000000E+03  0.00000000000E+00 0.  1.
        -11    1    1    2    0    0 -0.36158755085E+01  0.70941799517E+01  0.16831855635E+03  0.16850679024E+03  0.00000000000E+00 0. -1.
         11    1    1    2    0    0  0.32434696146E+01  0.45239116425E+01 -0.16056201606E+03  0.16065847899E+03  0.00000000000E+00 0.  1.
        -15    1    1    2    0    0  0.13012186272E+02  0.46411788401E+01 -0.53675007713E+00  0.13939274094E+02  0.17770000000E+01 0.  1.
         15    1    1    2    0    0 -0.12639780378E+02 -0.16259270434E+02 -0.72197902221E+01  0.21895456673E+02  0.17770000000E+01 0. -1.
</event>
<event>
 6    1  0.1697564E-002  0.1826845E+03  0.7546771E-02  0.1068308E+00
        -11   -1    0    0    0    0  0.00000000000E+00  0.00000000000E+00  0.18250000000E+03  0.18250000000E+03  0.00000000000E+00 0. -1.
         11   -1    0    0    0    0 -0.00000000000E+00 -0.00000000000E+00 -0.18250000000E+03  0.18250000000E+03  0.00000000000E+00 0.  1.
        -11    1    1    2    0    0  0.84452292036E+00 -0.14521018306E+01  0.11953931796E+03  0.11955112026E+03  0.00000000000E+00 0. -1.
         11    1    1    2    0    0  0.79408183969E+00 -0.29249425976E+01 -0.18229031179E+03  0.18231550572E+03  0.00000000000E+00 0.  1.
        -15    1    1    2    0    0 -0.11950847866E+01  0.99204745558E-01  0.26154949956E+02  0.26242660029E+02  0.17770000000E+01 0. -1.
         15    1    1    2    0    0 -0.44351997344E+00  0.42778396826E+01  0.36596043874E+02  0.36890713988E+02  0.17770000000E+01 0. -1.
</event>
<event>
 6    1  0.1697564E-002  0.1980884E+03  0.7546771E-02  0.1056682E+00
        -11   -1    0    0    0    0  0.00000000000E+00  0.00000000000E+00  0.18250000000E+03  0.18250000000E+03  0.00000000000E+00 0.  1.
         11   -1    0    0    0    0 -0.00000000000E+00 -0.00000000000E+00 -0.18250000000E+03  0.18250000000E+03  0.00000000000E+00 0.  1.
        -11    1    1    2    0    0  0.18141839411E+01  0.31624241454E+01  0.15584208996E+03  0.15588473047E+03  0.00000000000E+00 0.  1.
         11    1    1    2    0    0 -0.34887226812E+01  0.59179479732E+01 -0.16677021731E+03  0.16691164931E+03  0.00000000000E+00 0.  1.
        -15    1    1    2    0    0  0.93445031246E+01  0.84786603498E+01  0.17694755328E+02  0.21805263472E+02  0.17770000000E+01 0.  1.
         15    1    1    2    0    0 -0.76699643845E+01 -0.17559032468E+02 -0.67666279826E+01  0.20398356751E+02  0.17770000000E+01 0. -1.
</event>
<event>
 6    1  0.1697564E-002  0.1844108E+03  0.7546771E-02  0.1066944E+00
        -11   -1    0    0    0    0  0.00000000000E+00  0.00000000000E+00  0.18250000000E+03  0.18250000000E+03  0.00000000000E+00 0. -1.
         11   -1    0    0    0    0 -0.00000000000E+00 -0.00000000000E+00 -0.18250000000E+03  0.18250000000E+03  0.00000000000E+00 0.  1.
        -11    1    1    2    0    0  0.52055028572E+01 -0.11483679111E+02  0.18014856096E+03  0.18058924709E+03  0.00000000000E+00 0. -1.
         11    1    1    2    0    0  0.38336249210E+00 -0.10643999746E+01 -0.76735670654E+02  0.76744009960E+02  0.00000000000E+00 0.  1.
        -15    1    1    2    0    0 -0.95573891465E+01 -0.35049177995E+01 -0.18973881809E+02  0.21605417283E+02  0.17770000000E+01 0. -1.
         15    1    1    2    0    0  0.39685237972E+01  0.16052996885E+02 -0.84439008502E+02  0.86061325669E+02  0.17770000000E+01 0.  1.
</event>
<event>
 6    1  0.1697564E-002  0.1587464E+03  0.7546771E-02  0.1089111E+00
        -11   -1    0    0    0    0  0.00000000000E+00  0.00000000000E+00  0.18250000000E+03  0.18250000000E+03  0.00000000000E+00 0.  1.
         11   -1    0    0    0    0 -0.00000000000E+00 -0.00000000000E+00 -0.18250000000E+03  0.18250000000E+03  0.00000000000E+00 0. -1.
        -11    1    1    2    0    0  0.24924425838E+02  0.74205697064E+00  0.15370582387E+03  0.15571531056E+03  0.00000000000E+00 0.  1.
         11    1    1    2    0    0  0.25686985472E+01  0.12682367626E+01 -0.16308485835E+03  0.16311001704E+03  0.00000000000E+00 0. -1.
        -15    1    1    2    0    0  0.17810050584E+01  0.91034073548E+01 -0.60556796248E+01  0.11219313223E+02  0.17770000000E+01 0. -1.
         15    1    1    2    0    0 -0.29274129444E+02 -0.11113701088E+02  0.15434714106E+02  0.34955359175E+02  0.17770000000E+01 0.  1.
</event>
<event>
 6    1  0.1697564E-002  0.1756065E+03  0.7546771E-02  0.1074078E+00
        -11   -1    0    0    0    0  0.00000000000E+00  0.00000000000E+00  0.18250000000E+03  0.18250000000E+03  0.00000000000E+00 0. -1.
         11   -1    0    0    0    0 -0.00000000000E+00 -0.00000000000E+00 -0.18250000000E+03  0.18250000000E+03  0.00000000000E+00 0.  1.
        -11    1    1    2    0    0  0.73044672258E+00 -0.27238969675E+01  0.17432419736E+03  0.17434700729E+03  0.00000000000E+00 0. -1.
         11    1    1    2    0    0  0.50781594823E+01  0.36867239516E+01 -0.17681284053E+03  0.17692416515E+03  0.00000000000E+00 0.  1.
        -15    1    1    2    0    0 -0.40475381099E+01 -0.37105344075E+01  0.62044618686E+01  0.84737067697E+01  0.17770000000E+01 0. -1.
         15    1    1    2    0    0 -0.17610680950E+01  0.27477074234E+01 -0.37158186994E+01  0.52551207909E+01  0.17770000000E+01 0.  1.
</event>
<event>
 6    1  0.1697564E-002  0.1745705E+03  0.7546771E-02  0.1074948E+00
        -11   -1    0    0    0    0  0.00000000000E+00  0.00000000000E+00  0.18250000000E+03  0.18250000000E+03  0.00000000000E+00 0. -1.
         11   -1    0    0    0    0 -0.00000000000E+00 -0.00000000000E+00 -0.18250000000E+03  0.18250000000E+03  0.00000000000E+00 0. -1.
        -11    1    1    2    0    0  0.33535368917E+01 -0.57355688162E+01  0.17553850509E+03  0.17566419592E+03  0.00000000000E+00 0. -1.
         11    1    1    2    0    0 -0.49107614031E+01 -0.36006744448E+01 -0.17350418731E+03  0.17361101188E+03  0.00000000000E+00 0. -1.
        -15    1    1    2    0    0  0.23513118293E+01  0.97150812575E+01  0.27733286763E+01  0.10524283924E+02  0.17770000000E+01 0.  1.
         15    1    1    2    0    0 -0.79408731794E+00 -0.37883799656E+00 -0.48076464546E+01  0.52005082760E+01  0.17770000000E+01 0. -1.
</event>
<event>
 6    1  0.1697564E-002  0.1831124E+03  0.7546771E-02  0.1067968E+00
        -11   -1    0    0    0    0  0.00000000000E+00  0.00000000000E+00  0.18250000000E+03  0.18250000000E+03  0.00000000000E+00 0.  1.
         11   -1    0    0    0    0 -0.00000000000E+00 -0.00000000000E+00 -0.18250000000E+03  0.18250000000E+03  0.00000000000E+00 0. -1.
        -11    1    1    2    0    0  0.24515880445E+01  0.11462333237E+01  0.18186741744E+03  0.18188755224E+03  0.00000000000E+00 0.  1.
         11    1    1    2    0    0 -0.34919142422E+00 -0.60190778471E+00 -0.30957776675E+02  0.30965596462E+02  0.00000000000E+00 0. -1.
        -15    1    1    2    0    0 -0.39421287782E+01  0.48576681654E+01 -0.13491965690E+03  0.13507630757E+03  0.17770000000E+01 0. -1.
         15    1    1    2    0    0  0.18397321580E+01 -0.54019937043E+01 -0.15989983863E+02  0.17070543733E+02  0.17770000000E+01 0.  1.
</event>
<event>
 6    1  0.1697564E-002  0.1835033E+03  0.7546771E-02  0.1067659E+00
        -11   -1    0    0    0    0  0.00000000000E+00  0.00000000000E+00  0.18250000000E+03  0.18250000000E+03  0.00000000000E+00 0. -1.
         11   -1    0    0    0    0 -0.00000000000E+00 -0.00000000000E+00 -0.18250000000E+03  0.18250000000E+03  0.00000000000E+00 0. -1.
        -11    1    1    2    0    0  0.24413535090E+01 -0.23239973113E+00  0.18148013175E+03  0.18149670090E+03  0.00000000000E+00 0. -1.
         11    1    1    2    0    0  0.30532222966E+01  0.56431757662E+01 -0.14158577334E+03  0.14173107920E+03  0.00000000000E+00 0. -1.
        -15    1    1    2    0    0 -0.30157456590E+01 -0.43366346991E+01 -0.37046507594E+02  0.37463349774E+02  0.17770000000E+01 0.  1.
         15    1    1    2    0    0 -0.24788301466E+01 -0.10741413359E+01 -0.28478508206E+01  0.43088701305E+01  0.17770000000E+01 0. -1.
</event>
<event>
 6    1  0.1697564E-002  0.1839838E+03  0.7546771E-02  0.1067280E+00
        -11   -1    0    0    0    0  0.00000000000E+00  0.00000000000E+00  0.18250000000E+03  0.18250000000E+03  0.00000000000E+00 0.  1.
         11   -1    0    0    0    0 -0.00000000000E+00 -0.00000000000E+00 -0.18250000000E+03  0.18250000000E+03  0.00000000000E+00 0.  1.
        -11    1    1    2    0    0  0.34851867556E+01  0.83764097095E+01  0.18078869882E+03  0.18101619924E+03  0.00000000000E+00 0.  1.
         11    1    1    2    0    0 -0.10345607775E+01 -0.34636738395E+01 -0.94638025501E+02  0.94707038931E+02  0.00000000000E+00 0.  1.
        -15    1    1    2    0    0 -0.28970292682E+00  0.66039634709E+01 -0.61979910692E+02  0.62356742376E+02  0.17770000000E+01 0.  1.
         15    1    1    2    0    0 -0.21609230513E+01 -0.11516699341E+02 -0.24170762629E+02  0.26920019451E+02  0.17770000000E+01 0.  1.
</event>
<event>
 6    1  0.1697564E-002  0.1832923E+03  0.7546771E-02  0.1067826E+00
        -11   -1    0    0    0    0  0.00000000000E+00  0.00000000000E+00  0.18250000000E+03  0.18250000000E+03  0.00000000000E+00 0.  1.
         11   -1    0    0    0    0 -0.00000000000E+00 -0.00000000000E+00 -0.18250000000E+03  0.18250000000E+03  0.00000000000E+00 0.  1.
        -11    1    1    2    0    0  0.26847554354E+01 -0.22757503751E+01  0.18167361074E+03  0.18170769876E+03  0.00000000000E+00 0.  1.
         11    1    1    2    0    0 -0.39777302797E+01 -0.33767662555E+01 -0.13118843187E+03  0.13129215340E+03  0.00000000000E+00 0.  1.
        -15    1    1    2    0    0  0.38507147123E+01  0.54202042048E+01 -0.46132080502E+02  0.46642611396E+02  0.17770000000E+01 0. -1.
         15    1    1    2    0    0 -0.25577398680E+01  0.23231242582E+00 -0.43530983681E+01  0.53575364393E+01  0.17770000000E+01 0.  1.
</event>
<event>
 6    1  0.1697564E-002  0.1832428E+03  0.7546771E-02  0.1067865E+00
        -11   -1    0    0    0    0  0.00000000000E+00  0.00000000000E+00  0.18250000000E+03  0.18250000000E+03  0.00000000000E+00 0. -1.
         11   -1    0    0    0    0 -0.00000000000E+00 -0.00000000000E+00 -0.18250000000E+03  0.18250000000E+03  0.00000000000E+00 0.  1.
        -11    1    1    2    0    0  0.27987359890E+01  0.23940523669E+01  0.13608479424E+03  0.13613462320E+03  0.00000000000E+00 0. -1.
         11    1    1    2    0    0 -0.14180320596E+01  0.54662706876E+01 -0.18166946129E+03  0.18175721195E+03  0.00000000000E+00 0.  1.
        -15    1    1    2    0    0 -0.20598201260E+01 -0.11911347876E+01  0.28720943772E+02  0.28874071434E+02  0.17770000000E+01 0.  1.
         15    1    1    2    0    0  0.67911619659E+00 -0.66691882670E+01  0.16863723276E+02  0.18234093415E+02  0.17770000000E+01 0. -1.
</event>
<event>
 6    1  0.1697564E-002  0.1815796E+03  0.7546771E-02  0.1069190E+00
        -11   -1    0    0    0    0  0.00000000000E+00  0.00000000000E+00  0.18250000000E+03  0.18250000000E+03  0.00000000000E+00 0.  1.
         11   -1    0    0    0    0 -0.00000000000E+00 -0.00000000000E+00 -0.18250000000E+03  0.18250000000E+03  0.00000000000E+00 0. -1.
        -11    1    1    2    0    0  0.14546928903E+01  0.19726775935E+01  0.14690981856E+02  0.14894043648E+02  0.00000000000E+00 0.  1.
         11    1    1    2    0    0 -0.75615025848E+00 -0.11023373255E+02 -0.17512260343E+03  0.17547083163E+03  0.00000000000E+00 0. -1.
        -15    1    1    2    0    0 -0.25129030013E+02  0.24151773190E+02  0.12025361583E+03  0.12521527921E+03  0.17770000000E+01 0.  1.
         15    1    1    2    0    0  0.24430487382E+02 -0.15101077529E+02  0.40178005739E+02  0.49419845512E+02  0.17770000000E+01 0. -1.
</event>
<event>
 6    1  0.1697564E-002  0.1839009E+03  0.7546771E-02  0.1067345E+00
        -11   -1    0    0    0    0  0.00000000000E+00  0.00000000000E+00  0.18250000000E+03  0.18250000000E+03  0.00000000000E+00 0.  1.
         11   -1    0    0    0    0 -0.00000000000E+00 -0.00000000000E+00 -0.18250000000E+03  0.18250000000E+03  0.00000000000E+00 0. -1.
        -11    1    1    2    0    0  0.35171868637E+01  0.27560996014E+01  0.13581833758E+03  0.13589182283E+03  0.00000000000E+00 0.  1.
         11    1    1    2    0    0 -0.97464739514E+01  0.25771667348E+01 -0.18081823141E+03  0.18109905674E+03  0.00000000000E+00 0. -1.
        -15    1    1    2    0    0  0.10049969706E+02 -0.49789888462E+01  0.23530633260E+02  0.26127392745E+02  0.17770000000E+01 0. -1.
         15    1    1    2    0    0 -0.38206826180E+01 -0.35427749002E+00  0.21469260563E+02  0.21881727682E+02  0.17770000000E+01 0.  1.
</event>
<event>
 6    1  0.1697564E-002  0.1843494E+03  0.7546771E-02  0.1066992E+00
        -11   -1    0    0    0    0  0.00000000000E+00  0.00000000000E+00  0.18250000000E+03  0.18250000000E+03  0.00000000000E+00 0.  1.
         11   -1    0    0    0    0 -0.00000000000E+00 -0.00000000000E+00 -0.18250000000E+03  0.18250000000E+03  0.00000000000E+00 0. -1.
        -11    1    1    2    0    0 -0.49927050216E+00 -0.17856257648E+01  0.48048899000E+02  0.48084658941E+02  0.00000000000E+00 0.  1.
         11    1    1    2    0    0  0.20509080123E+02 -0.13166012430E+01 -0.17947778069E+03  0.18065057311E+03  0.00000000000E+00 0. -1.
        -15    1    1    2    0    0 -0.18167011754E+02  0.50440858358E+00  0.32578863966E+02  0.37347487873E+02  0.17770000000E+01 0.  1.
         15    1    1    2    0    0 -0.18427978673E+01  0.25978184243E+01  0.98850017721E+02  0.98917280072E+02  0.17770000000E+01 0. -1.
</event>
<event>
 6    1  0.1697564E-002  0.1831341E+03  0.7546771E-02  0.1067951E+00
        -11   -1    0    0    0    0  0.00000000000E+00  0.00000000000E+00  0.18250000000E+03  0.18250000000E+03  0.00000000000E+00 0. -1.
         11   -1    0    0    0    0 -0.00000000000E+00 -0.00000000000E+00 -0.18250000000E+03  0.18250000000E+03  0.00000000000E+00 0. -1.
        -11    1    1    2    0    0  0.38712276621E+01  0.21724477268E+01  0.18181171705E+03  0.18186590222E+03  0.00000000000E+00 0. -1.
         11    1    1    2    0    0 -0.26464733492E+01  0.28574007714E+01 -0.15957828598E+03  0.15962580592E+03  0.00000000000E+00 0. -1.
        -15    1    1    2    0    0  0.12020010515E+01 -0.16231700529E+01 -0.12208757248E+02  0.12501638696E+02  0.17770000000E+01 0. -1.
         15    1    1    2    0    0 -0.24267553644E+01 -0.34066784453E+01 -0.10024673826E+02  0.11006653168E+02  0.17770000000E+01 0.  1.
</event>
<event>
 6    1  0.1697564E-002  0.1852626E+03  0.7546771E-02  0.1066277E+00
        -11   -1    0    0    0    0  0.00000000000E+00  0.00000000000E+00  0.18250000000E+03  0.18250000000E+03  0.00000000000E+00 0.  1.
         11   -1    0    0    0    0 -0.00000000000E+00 -0.00000000000E+00 -0.18250000000E+03  0.18250000000E+03  0.00000000000E+00 0.  1.
        -11    1    1    2    0    0  0.32120216749E+00  0.53838814366E+01  0.17965646594E+03  0.17973740597E+03  0.00000000000E+00 0.  1.
         11    1    1    2    0    0 -0.63201595589E+00 -0.16578428046E+01 -0.12179253582E+03  0.12180545829E+03  0.00000000000E+00 0.  1.
        -15    1    1    2    0    0 -0.20095109210E+01 -0.44745748608E+01  0.28989568938E+00  0.52251050552E+01  0.17770000000E+01 0. -1.
         15    1    1    2    0    0  0.23203247094E+01  0.74853622883E+00 -0.58153825805E+02  0.58232030688E+02  0.17770000000E+01 0.  1.
</event>
<event>
 6    1  0.1697564E-002  0.1907495E+03  0.7546771E-02  0.1062072E+00
        -11   -1    0    0    0    0  0.00000000000E+00  0.00000000000E+00  0.18250000000E+03  0.18250000000E+03  0.00000000000E+00 0.  1.
         11   -1    0    0    0    0 -0.00000000000E+00 -0.00000000000E+00 -0.18250000000E+03  0.18250000000E+03  0.00000000000E+00 0.  1.
        -11    1    1    2    0    0  0.10360801557E+01 -0.25529084801E+01  0.32173540671E+02  0.32291291754E+02  0.00000000000E+00 0.  1.
         11    1    1    2    0    0 -0.30724548472E+01  0.47745843773E+01 -0.17415801468E+03  0.17425054006E+03  0.00000000000E+00 0.  1.
        -15    1    1    2    0    0  0.40837821495E+01 -0.63405204268E+01 -0.63645612777E+01  0.10027205253E+02  0.17770000000E+01 0. -1.
         15    1    1    2    0    0 -0.20474074580E+01  0.41188445296E+01  0.14834903529E+03  0.14843096293E+03  0.17770000000E+01 0.  1.
</event>
<event>
 6    1  0.1697564E-002  0.1828315E+03  0.7546771E-02  0.1068191E+00
        -11   -1    0    0    0    0  0.00000000000E+00  0.00000000000E+00  0.18250000000E+03  0.18250000000E+03  0.00000000000E+00 0.  1.
         11   -1    0    0    0    0 -0.00000000000E+00 -0.00000000000E+00 -0.18250000000E+03  0.18250000000E+03  0.00000000000E+00 0. -1.
        -11    1    1    2    0    0 -0.12033695982E+01 -0.31573382105E+01  0.80109777452E+02  0.80181003525E+02  0.00000000000E+00 0.  1.
         11    1    1    2    0    0 -0.14184084554E+01 -0.20408399860E+01 -0.18215154568E+03  0.18216850031E+03  0.00000000000E+00 0. -1.
        -15    1    1    2    0    0 -0.32398503086E+01  0.22018607633E+01  0.35205551302E+02  0.35467356715E+02  0.17770000000E+01 0. -1.
         15    1    1    2    0    0  0.58616283622E+01  0.29963174332E+01  0.66836216925E+02  0.67183139455E+02  0.17770000000E+01 0. -1.
</event>
<event>
 6    1  0.1697564E-002  0.1896856E+03  0.7546771E-02  0.1062875E+00
        -11   -1    0    0    0    0  0.00000000000E+00  0.00000000000E+00  0.18250000000E+03  0.18250000000E+03  0.00000000000E+00 0.  1.
         11   -1    0    0    0    0 -0.00000000000E+00 -0.00000000000E+00 -0.18250000000E+03  0.18250000000E+03  0.00000000000E+00 0.  1.
        -11    1    1    2    0    0  0.33632027685E+01  0.26660248082E+01  0.17526190450E+03  0.17531444319E+03  0.00000000000E+00 0.  1.
         11    1    1    2    0    0  0.96855486338E+00  0.13543307789E+01 -0.44485295611E+02  0.44516444557E+02  0.00000000000E+00 0.  1.
        -15    1    1    2    0    0  0.13832333874E+01 -0.24522447837E+01 -0.13661903828E+03  0.13665959969E+03  0.17770000000E+01 0. -1.
         15    1    1    2    0    0 -0.57149910193E+01 -0.15681108034E+01  0.58424293892E+01  0.85095125600E+01  0.17770000000E+01 0.  1.
</event>
<event>
 6    1  0.1697564E-002  0.1825797E+03  0.7546771E-02  0.1068391E+00
        -11   -1    0    0    0    0  0.00000000000E+00  0.00000000000E+00  0.18250000000E+03  0.18250000000E+03  0.00000000000E+00 0. -1.
         11   -1    0    0    0    0 -0.00000000000E+00 -0.00000000000E+00 -0.18250000000E+03  0.18250000000E+03  0.00000000000E+00 0.  1.
        -11    1    1    2    0    0 -0.47395740860E+00 -0.29094758215E+01  0.18239649740E+03  0.18242031671E+03  0.00000000000E+00 0. -1.
         11    1    1    2    0    0 -0.51281639500E+00 -0.13472787424E+01 -0.50630385583E+02  0.50650904088E+02  0.00000000000E+00 0.  1.
        -15    1    1    2    0    0  0.95620023134E-01  0.20354014778E+01 -0.30731286830E+02  0.30849987384E+02  0.17770000000E+01 0. -1.
         15    1    1    2    0    0  0.89115378046E+00  0.22213530861E+01 -0.10103482499E+03  0.10107879181E+03  0.17770000000E+01 0.  1.
</event>
<event>
 6    1  0.1697564E-002  0.1835068E+03  0.7546771E-02  0.1067656E+00
        -11   -1    0    0    0    0  0.00000000000E+00  0.00000000000E+00  0.18250000000E+03  0.18250000000E+03  0.00000000000E+00 0. -1.
         11   -1    0    0    0    0 -0.00000000000E+00 -0.00000000000E+00 -0.18250000000E+03  0.18250000000E+03  0.00000000000E+00 0. -1.
        -11    1    1    2    0    0  0.23950932011E+01 -0.62510530548E+01  0.10356685800E+03  0.10378297651E+03  0.00000000000E+00 0. -1.
         11    1    1    2    0    0 -0.23982502370E+01  0.91441185756E+00 -0.18147504810E+03  0.18149319776E+03  0.00000000000E+00 0. -1.
        -15    1    1    2    0    0 -0.37907842466E+01  0.15576359885E+01  0.54519299415E+01  0.70482298603E+01  0.17770000000E+01 0. -1.
         15    1    1    2    0    0  0.37939412825E+01  0.37790052087E+01  0.72456260151E+02  0.72675595869E+02  0.17770000000E+01 0. -1.
</event>
<event>
 6    1  0.1697564E-002  0.1707708E+03  0.7546771E-02  0.1078195E+00
        -11   -1    0    0    0    0  0.00000000000E+00  0.00000000000E+00  0.18250000000E+03  0.18250000000E+03  0.00000000000E+00 0. -1.
         11   -1    0    0    0    0 -0.00000000000E+00 -0.00000000000E+00 -0.18250000000E+03  0.18250000000E+03  0.00000000000E+00 0. -1.
        -11    1    1    2    0    0 -0.45020188984E+01  0.68093829863E+01  0.16619650894E+03  0.16639686132E+03  0.00000000000E+00 0. -1.
         11    1    1    2    0    0 -0.53373105367E+01  0.53818270798E+01 -0.17546576370E+03  0.17562939724E+03  0.00000000000E+00 0. -1.
        -15    1    1    2    0    0  0.42139523816E+01 -0.51702803634E+01  0.11612103076E+02  0.13508806778E+02  0.17770000000E+01 0. -1.
         15    1    1    2    0    0  0.56253770534E+01 -0.70209297026E+01 -0.23428483246E+01  0.94649346619E+01  0.17770000000E+01 0. -1.
</event>
<event>
 6    1  0.1697564E-002  0.1845558E+03  0.7546771E-02  0.1066830E+00
        -11   -1    0    0    0    0  0.00000000000E+00  0.00000000000E+00  0.18250000000E+03  0.18250000000E+03  0.00000000000E+00 0.  1.
         11   -1    0    0    0    0 -0.00000000000E+00 -0.00000000000E+00 -0.18250000000E+03  0.18250000000E+03  0.00000000000E+00 0. -1.
        -11    1    1    2    0    0  0.12875795253E+02  0.82605056061E+01  0.17979461716E+03  0.18044424739E+03  0.00000000000E+00 0.  1.
         11    1    1    2    0    0  0.13178169527E+01  0.16050575356E+01 -0.15903222865E+02  0.16038246435E+02  0.00000000000E+00 0. -1.
        -15    1    1    2    0    0 -0.74353258891E+01 -0.10447020321E+01 -0.15181358310E+03  0.15200953002E+03  0.17770000000E+01 0. -1.
         15    1    1    2    0    0 -0.67582863162E+01 -0.88208611096E+01 -0.12077811195E+02  0.16507976160E+02  0.17770000000E+01 0.  1.
</event>
<event>
 6    1  0.1697564E-002  0.1835386E+03  0.7546771E-02  0.1067631E+00
        -11   -1    0    0    0    0  0.00000000000E+00  0.00000000000E+00  0.18250000000E+03  0.18250000000E+03  0.00000000000E+00 0. -1.
         11   -1    0    0    0    0 -0.00000000000E+00 -0.00000000000E+00 -0.18250000000E+03  0.18250000000E+03  0.00000000000E+00 0. -1.
        -11    1    1    2    0    0  0.74447921953E+00 -0.20068479161E+01  0.15527571347E+03  0.15529046616E+03  0.00000000000E+00 0. -1.
         11    1    1    2    0    0 -0.28221364549E+01 -0.29715854406E+01 -0.18141510769E+03  0.18146139004E+03  0.00000000000E+00 0. -1.
        -15    1    1    2    0    0  0.31637555929E+01 -0.11195929330E+01  0.13982916101E+02  0.14489392999E+02  0.17770000000E+01 0.  1.
         15    1    1    2    0    0 -0.10860983575E+01  0.60980262896E+01  0.12156478123E+02  0.13758750801E+02  0.17770000000E+01 0. -1.
</event>
<event>
 6    1  0.1697564E-002  0.1927264E+03  0.7546771E-02  0.1060594E+00
        -11   -1    0    0    0    0  0.00000000000E+00  0.00000000000E+00  0.18250000000E+03  0.18250000000E+03  0.00000000000E+00 0. -1.
         11   -1    0    0    0    0 -0.00000000000E+00 -0.00000000000E+00 -0.18250000000E+03  0.18250000000E+03  0.00000000000E+00 0.  1.
        -11    1    1    2    0    0 -0.14666605323E+01  0.43078601872E+01  0.17221346360E+03  0.17227357835E+03  0.00000000000E+00 0. -1.
         11    1    1    2    0    0  0.32574022078E+01 -0.34550848935E+01 -0.16778286243E+03  0.16785004381E+03  0.00000000000E+00 0.  1.
        -15    1    1    2    0    0 -0.27700226451E+00  0.46984070063E+01 -0.13263735506E+02  0.14185773409E+02  0.17770000000E+01 0. -1.
         15    1    1    2    0    0 -0.15137394110E+01 -0.55511823000E+01  0.88331343399E+01  0.10690604436E+02  0.17770000000E+01 0.  1.
</event>
<event>
 6    1  0.1697564E-002  0.1828198E+03  0.7546771E-02  0.1068201E+00
        -11   -1    0    0    0    0  0.00000000000E+00  0.00000000000E+00  0.18250000000E+03  0.18250000000E+03  0.00000000000E+00 0. -1.
         11   -1    0    0    0    0 -0.00000000000E+00 -0.00000000000E+00 -0.18250000000E+03  0.18250000000E+03  0.00000000000E+00 0. -1.
        -11    1    1    2    0    0  0.33042337602E+01 -0.63504700764E+00  0.11621963071E+03  0.11626832676E+03  0.00000000000E+00 0. -1.
         11    1    1    2    0    0  0.10552347120E+01 -0.23047879670E+01 -0.18216254774E+03  0.18218018379E+03  0.00000000000E+00 0. -1.
        -15    1    1    2    0    0 -0.17048098714E+01  0.10436848833E+01  0.53476527341E+02  0.53543368967E+02  0.17770000000E+01 0.  1.
         15    1    1    2    0    0 -0.26546586009E+01  0.18961500913E+01  0.12466389691E+02  0.13008120479E+02  0.17770000000E+01 0. -1.
</event>
<event>
 6    1  0.1697564E-002  0.1826337E+03  0.7546771E-02  0.1068348E+00
        -11   -1    0    0    0    0  0.00000000000E+00  0.00000000000E+00  0.18250000000E+03  0.18250000000E+03  0.00000000000E+00 0.  1.
         11   -1    0    0    0    0 -0.00000000000E+00 -0.00000000000E+00 -0.18250000000E+03  0.18250000000E+03  0.00000000000E+00 0.  1.
        -11    1    1    2    0    0 -0.18671580284E+01  0.20310451225E+01  0.18234545364E+03  0.18236632333E+03  0.00000000000E+00 0.  1.
         11    1    1    2    0    0  0.16620635886E+01  0.94184146561E+00 -0.63569199067E+02  0.63597897692E+02  0.00000000000E+00 0.  1.
        -15    1    1    2    0    0  0.23133692537E+01 -0.23749361232E+01 -0.33095547896E+02  0.33308632791E+02  0.17770000000E+01 0.  1.
         15    1    1    2    0    0 -0.21082748139E+01 -0.59795046496E+00 -0.85680706675E+02  0.85727146184E+02  0.17770000000E+01 0.  1.
</event>
<event>
 6    1  0.1697564E-002  0.1830316E+03  0.7546771E-02  0.1068032E+00
        -11   -1    0    0    0    0  0.00000000000E+00  0.00000000000E+00  0.18250000000E+03  0.18250000000E+03  0.00000000000E+00 0. -1.
         11   -1    0    0    0    0 -0.00000000000E+00 -0.00000000000E+00 -0.18250000000E+03  0.18250000000E+03  0.00000000000E+00 0. -1.
        -11    1    1    2    0    0 -0.22724825999E+01  0.25559648887E+01  0.18193628527E+03  0.18196842867E+03  0.00000000000E+00 0. -1.
         11    1    1    2    0    0 -0.16683092423E+01 -0.23005017145E+01 -0.15490355419E+03  0.15492961843E+03  0.00000000000E+00 0. -1.
        -15    1    1    2    0    0  0.14661860776E+01  0.10176627682E+01 -0.33550977808E+01  0.41952055066E+01  0.17770000000E+01 0.  1.
         15    1    1    2    0    0  0.24746057645E+01 -0.12731259424E+01 -0.23677633301E+02  0.23906747396E+02  0.17770000000E+01 0. -1.
</event>
<event>
 6    1  0.1697564E-002  0.1831626E+03  0.7546771E-02  0.1067929E+00
        -11   -1    0    0    0    0  0.00000000000E+00  0.00000000000E+00  0.18250000000E+03  0.18250000000E+03  0.00000000000E+00 0. -1.
         11   -1    0    0    0    0 -0.00000000000E+00 -0.00000000000E+00 -0.18250000000E+03  0.18250000000E+03  0.00000000000E+00 0.  1.
        -11    1    1    2    0    0  0.10199425827E+02  0.14658852060E+02  0.18095841000E+03  0.18183744493E+03  0.00000000000E+00 0. -1.
         11    1    1    2    0    0  0.65864721653E+00 -0.92161373395E-01 -0.33203734862E+02  0.33210394738E+02  0.00000000000E+00 0.  1.
        -15    1    1    2    0    0 -0.12838068352E+01  0.39075724365E+01 -0.34310068795E+02  0.34601384829E+02  0.17770000000E+01 0.  1.
         15    1    1    2    0    0 -0.95742662083E+01 -0.18474263123E+02 -0.11344460634E+03  0.11535077550E+03  0.17770000000E+01 0.  1.
</event>
<event>
 6    1  0.1697564E-002  0.1850311E+03  0.7546771E-02  0.1066458E+00
        -11   -1    0    0    0    0  0.00000000000E+00  0.00000000000E+00  0.18250000000E+03  0.18250000000E+03  0.00000000000E+00 0. -1.
         11   -1    0    0    0    0 -0.00000000000E+00 -0.00000000000E+00 -0.18250000000E+03  0.18250000000E+03  0.00000000000E+00 0.  1.
        -11    1    1    2    0    0  0.20781083578E+01 -0.40900465994E+01  0.17991039352E+03  0.17996887707E+03  0.00000000000E+00 0. -1.
         11    1    1    2    0    0 -0.38884241273E+01 -0.14583737179E+01 -0.17596513783E+03  0.17601413701E+03  0.00000000000E+00 0.  1.
        -15    1    1    2    0    0  0.48837940797E+00  0.25729237126E+01  0.52512242489E+00  0.32081043371E+01  0.17770000000E+01 0.  1.
         15    1    1    2    0    0  0.13219363615E+01  0.29754966047E+01 -0.44703781133E+01  0.58088815847E+01  0.17770000000E+01 0. -1.
</event>
<event>
 6    1  0.1697564E-002  0.1886737E+03  0.7546771E-02  0.1063644E+00
        -11   -1    0    0    0    0  0.00000000000E+00  0.00000000000E+00  0.18250000000E+03  0.18250000000E+03  0.00000000000E+00 0.  1.
         11   -1    0    0    0    0 -0.00000000000E+00 -0.00000000000E+00 -0.18250000000E+03  0.18250000000E+03  0.00000000000E+00 0.  1.
        -11    1    1    2    0    0 -0.22519614026E+01 -0.29216061177E+01  0.17628774153E+03  0.17632633078E+03  0.00000000000E+00 0.  1.
         11    1    1    2    0    0 -0.29098099837E+01  0.57636261547E+01 -0.15782524653E+03  0.15795725631E+03  0.00000000000E+00 0.  1.
        -15    1    1    2    0    0  0.77585221330E+01 -0.18885644219E+00  0.32630841321E+01  0.86044046567E+01  0.17770000000E+01 0. -1.
         15    1    1    2    0    0 -0.25967507467E+01 -0.26531635948E+01 -0.21725579133E+02  0.22112008257E+02  0.17770000000E+01 0.  1.
</event>
<event>
 6    1  0.1697564E-002  0.1833184E+03  0.7546771E-02  0.1067805E+00
        -11   -1    0    0    0    0  0.00000000000E+00  0.00000000000E+00  0.18250000000E+03  0.18250000000E+03  0.00000000000E+00 0.  1.
         11   -1    0    0    0    0 -0.00000000000E+00 -0.00000000000E+00 -0.18250000000E+03  0.18250000000E+03  0.00000000000E+00 0. -1.
        -11    1    1    2    0    0 -0.70072133940E+00  0.28519826473E+01  0.15885024622E+03  0.15887739153E+03  0.00000000000E+00 0.  1.
         11    1    1    2    0    0 -0.72011081430E+00  0.32541912079E+01 -0.18165107151E+03  0.18168164492E+03  0.00000000000E+00 0. -1.
        -15    1    1    2    0    0  0.76029007661E+00 -0.11654044683E+01  0.13929171813E+02  0.14110838563E+02  0.17770000000E+01 0. -1.
         15    1    1    2    0    0  0.66054207709E+00 -0.49407693869E+01  0.88716534701E+01  0.10330124988E+02  0.17770000000E+01 0.  1.
</event>
<event>
 6    1  0.1697564E-002  0.1865233E+03  0.7546771E-02  0.1065297E+00
        -11   -1    0    0    0    0  0.00000000000E+00  0.00000000000E+00  0.18250000000E+03  0.18250000000E+03  0.00000000000E+00 0. -1.
         11   -1    0    0    0    0 -0.00000000000E+00 -0.00000000000E+00 -0.18250000000E+03  0.18250000000E+03  0.00000000000E+00 0.  1.
        -11    1    1    2    0    0  0.38823025223E+01  0.43029638756E+01  0.16857489592E+03  0.16867448920E+03  0.00000000000E+00 0. -1.
         11    1    1    2    0    0  0.50809784685E+01 -0.99747147438E+01 -0.17812528160E+03  0.17847668537E+03  0.00000000000E+00 0.  1.
        -15    1    1    2    0    0 -0.12229398589E+01 -0.46554954596E+00  0.72135869458E+01  0.75435988695E+01  0.17770000000E+01 0. -1.
         15    1    1    2    0    0 -0.77403411319E+01  0.61373004142E+01  0.23367987318E+01  0.10305226564E+02  0.17770000000E+01 0.  1.
</event>
<event>
 6    1  0.1697564E-002  0.1773292E+03  0.7546771E-02  0.1072647E+00
        -11   -1    0    0    0    0  0.00000000000E+00  0.00000000000E+00  0.18250000000E+03  0.18250000000E+03  0.00000000000E+00 0.  1.
         11   -1    0    0    0    0 -0.00000000000E+00 -0.00000000000E+00 -0.18250000000E+03  0.18250000000E+03  0.00000000000E+00 0. -1.
        -11    1    1    2    0    0  0.14616253365E+01 -0.35853720864E+01  0.17830317851E+03  0.17834521218E+03  0.00000000000E+00 0.  1.
         11    1    1    2    0    0 -0.51638625114E+01  0.23290702868E+01 -0.17624960926E+03  0.17634062155E+03  0.00000000000E+00 0. -1.
        -15    1    1    2    0    0 -0.19115491535E+01  0.13529086975E+01  0.16364151403E+01  0.33645156593E+01  0.17770000000E+01 0.  1.
         15    1    1    2    0    0  0.56137863284E+01 -0.96606897972E-01 -0.36899843824E+01  0.69496506082E+01  0.17770000000E+01 0. -1.
</event>
<event>
 6    1  0.1697564E-002  0.1841835E+03  0.7546771E-02  0.1067123E+00
        -11   -1    0    0    0    0  0.00000000000E+00  0.00000000000E+00  0.18250000000E+03  0.18250000000E+03  0.00000000000E+00 0.  1.
         11   -1    0    0    0    0 -0.00000000000E+00 -0.00000000000E+00 -0.18250000000E+03  0.18250000000E+03  0.00000000000E+00 0. -1.
        -11    1    1    2    0    0  0.25087291418E+00  0.67327812254E+01  0.18069089428E+03  0.18081646096E+03  0.00000000000E+00 0.  1.
         11    1    1    2    0    0 -0.52827236060E+00  0.43250942050E+01 -0.15655793122E+03  0.15661855363E+03  0.00000000000E+00 0. -1.
        -15    1    1    2    0    0 -0.12485442367E+01 -0.24572555889E+01 -0.23668344646E+01  0.40443296259E+01  0.17770000000E+01 0.  1.
         15    1    1    2    0    0  0.15259436831E+01 -0.86006198415E+01 -0.21766128590E+02  0.23520655786E+02  0.17770000000E+01 0. -1.
</event>
<event>
 6    1  0.1697564E-002  0.1900801E+03  0.7546771E-02  0.1062576E+00
        -11   -1    0    0    0    0  0.00000000000E+00  0.00000000000E+00  0.18250000000E+03  0.18250000000E+03  0.00000000000E+00 0. -1.
         11   -1    0    0    0    0 -0.00000000000E+00 -0.00000000000E+00 -0.18250000000E+03  0.18250000000E+03  0.00000000000E+00 0.  1.
        -11    1    1    2    0    0 -0.11147093197E+02  0.21698042472E+01  0.17455085136E+03  0.17491988294E+03  0.00000000000E+00 0. -1.
         11    1    1    2    0    0  0.83409701520E+00 -0.26934694570E+01 -0.14259685383E+03  0.14262472863E+03  0.00000000000E+00 0.  1.
        -15    1    1    2    0    0  0.21975314947E+02  0.44191320185E+01 -0.22809822486E+02  0.32029500864E+02  0.17770000000E+01 0. -1.
         15    1    1    2    0    0 -0.11662318765E+02 -0.38954668087E+01 -0.91441750524E+01  0.15425887560E+02  0.17770000000E+01 0.  1.
</event>
<event>
 6    1  0.1697564E-002  0.1842892E+03  0.7546771E-02  0.1067039E+00
        -11   -1    0    0    0    0  0.00000000000E+00  0.00000000000E+00  0.18250000000E+03  0.18250000000E+03  0.00000000000E+00 0. -1.
         11   -1    0    0    0    0 -0.00000000000E+00 -0.00000000000E+00 -0.18250000000E+03  0.18250000000E+03  0.00000000000E+00 0. -1.
        -11    1    1    2    0    0  0.21220527798E+01 -0.12707136517E+01  0.18069387497E+03  0.18071080287E+03  0.00000000000E+00 0. -1.
         11    1    1    2    0    0 -0.31574843670E+01  0.40607962249E+01 -0.17384933179E+03  0.17392541487E+03  0.00000000000E+00 0. -1.
        -15    1    1    2    0    0 -0.24861648049E+01 -0.13272456451E+01 -0.17719734773E+01  0.37736209990E+01  0.17770000000E+01 0.  1.
         15    1    1    2    0    0  0.35215963921E+01 -0.14628369281E+01 -0.50725697060E+01  0.65901612612E+01  0.17770000000E+01 0.  1.
</event>
<event>
 6    1  0.1697564E-002  0.1836818E+03  0.7546771E-02  0.1067518E+00
        -11   -1    0    0    0    0  0.00000000000E+00  0.00000000000E+00  0.18250000000E+03  0.18250000000E+03  0.00000000000E+00 0.  1.
         11   -1    0    0    0    0 -0.00000000000E+00 -0.00000000000E+00 -0.18250000000E+03  0.18250000000E+03  0.00000000000E+00 0.  1.
        -11    1    1    2    0    0  0.11979489322E+01 -0.28969909496E+01  0.13290251025E+03  0.13293947822E+03  0.00000000000E+00 0.  1.
         11    1    1    2    0    0 -0.39109955425E+01 -0.39438138174E+01 -0.18123306740E+03  0.18131815759E+03  0.00000000000E+00 0.  1.
        -15    1    1    2    0    0 -0.35029750392E+01  0.57015986831E+00  0.30590881648E+02  0.30847296241E+02  0.17770000000E+01 0. -1.
         15    1    1    2    0    0  0.62160216495E+01  0.62706448987E+01  0.17739675505E+02  0.19895067947E+02  0.17770000000E+01 0.  1.
</event>
<event>
 6    1  0.1697564E-002  0.1882412E+03  0.7546771E-02  0.1063975E+00
        -11   -1    0    0    0    0  0.00000000000E+00  0.00000000000E+00  0.18250000000E+03  0.18250000000E+03  0.00000000000E+00 0. -1.
         11   -1    0    0    0    0 -0.00000000000E+00 -0.00000000000E+00 -0.18250000000E+03  0.18250000000E+03  0.00000000000E+00 0.  1.
        -11    1    1    2    0    0 -0.10450833172E+01 -0.36204759550E+01  0.16783868419E+03  0.16788098152E+03  0.00000000000E+00 0. -1.
         11    1    1    2    0    0 -0.63557293242E+00 -0.24535482871E+01 -0.17674065099E+03  0.17675882316E+03  0.00000000000E+00 0.  1.
        -15    1    1    2    0    0  0.11540378097E+01  0.21729729006E+01  0.13625719463E+02  0.13959640911E+02  0.17770000000E+01 0. -1.
         15    1    1    2    0    0  0.52661843996E+00  0.39010513416E+01 -0.47237526600E+01  0.64005544091E+01  0.17770000000E+01 0. -1.
</event>
<event>
 6    1  0.1697564E-002  0.1831164E+03  0.7546771E-02  0.1067965E+00
        -11   -1    0    0    0    0  0.00000000000E+00  0.00000000000E+00  0.18250000000E+03  0.18250000000E+03  0.00000000000E+00 0.  1.
         11   -1    0    0    0    0 -0.00000000000E+00 -0.00000000000E+00 -0.18250000000E+03  0.18250000000E+03  0.00000000000E+00 0.  1.
        -11    1    1    2    0    0 -0.26556763685E+01  0.47841107275E+00  0.63799113644E+02  0.63856153939E+02  0.00000000000E+00 0.  1.
         11    1    1    2    0    0 -0.64481955113E+01  0.12047283962E+02 -0.18136961821E+03  0.18188362951E+03  0.00000000000E+00 0.  1.
        -15    1    1    2    0    0  0.11827172975E+02 -0.11366931933E+02  0.10029711838E+03  0.10164525983E+03  0.17770000000E+01 0.  1.
         15    1    1    2    0    0 -0.27233010952E+01 -0.11587631016E+01  0.17273386184E+02  0.17614956714E+02  0.17770000000E+01 0. -1.
</event>
<event>
 6    1  0.1697564E-002  0.1890162E+03  0.7546771E-02  0.1063383E+00
        -11   -1    0    0    0    0  0.00000000000E+00  0.00000000000E+00  0.18250000000E+03  0.18250000000E+03  0.00000000000E+00 0.  1.
         11   -1    0    0    0    0 -0.00000000000E+00 -0.00000000000E+00 -0.18250000000E+03  0.18250000000E+03  0.00000000000E+00 0. -1.
        -11    1    1    2    0    0 -0.60157728728E+00 -0.38496636561E+01  0.17594064792E+03  0.17598378731E+03  0.00000000000E+00 0.  1.
         11    1    1    2    0    0  0.63711774241E+01 -0.86352322152E+00 -0.14778412221E+03  0.14792391406E+03  0.00000000000E+00 0. -1.
        -15    1    1    2    0    0  0.81767692805E+01  0.62816207285E+01 -0.24258458513E+02  0.26418721643E+02  0.17770000000E+01 0.  1.
         15    1    1    2    0    0 -0.13946369417E+02 -0.15684338509E+01 -0.38980671996E+01  0.14673576986E+02  0.17770000000E+01 0. -1.
</event>
<event>
 6    1  0.1697564E-002  0.1835291E+03  0.7546771E-02  0.1067639E+00
        -11   -1    0    0    0    0  0.00000000000E+00  0.00000000000E+00  0.18250000000E+03  0.18250000000E+03  0.00000000000E+00 0. -1.
         11   -1    0    0    0    0 -0.00000000000E+00 -0.00000000000E+00 -0.18250000000E+03  0.18250000000E+03  0.00000000000E+00 0. -1.
        -11    1    1    2    0    0  0.52422631557E+01  0.90935552961E+00  0.18139291052E+03  0.18147092395E+03  0.00000000000E+00 0. -1.
         11    1    1    2    0    0 -0.32611658484E+01  0.61499579198E+01 -0.14217336190E+03  0.14234367573E+03  0.00000000000E+00 0. -1.
        -15    1    1    2    0    0 -0.54217555227E+01 -0.63249531451E+01 -0.24120871389E+02  0.25580747268E+02  0.17770000000E+01 0. -1.
         15    1    1    2    0    0  0.34406582154E+01 -0.73436030433E+00 -0.15098677231E+02  0.15604653060E+02  0.17770000000E+01 0.  1.
</event>
<event>
 6    1  0.1697564E-002  0.1879663E+03  0.7546771E-02  0.1064185E+00
        -11   -1    0    0    0    0  0.00000000000E+00  0.00000000000E+00  0.18250000000E+03  0.18250000000E+03  0.00000000000E+00 0.  1.
         11   -1    0    0    0    0 -0.00000000000E+00 -0.00000000000E+00 -0.18250000000E+03  0.18250000000E+03  0.00000000000E+00 0. -1.
        -11    1    1    2    0    0 -0.25634899854E+01  0.62863091056E+00  0.17701406511E+03  0.17703374228E+03  0.00000000000E+00 0.  1.
         11    1    1    2    0    0  0.38956261271E+01 -0.53892768040E+00 -0.17284375197E+03  0.17288848701E+03  0.00000000000E+00 0. -1.
        -15    1    1    2    0    0  0.31824819797E+01 -0.35895998859E+01  0.28485243517E+01  0.58553598416E+01  0.17770000000E+01 0.  1.
         15    1    1    2    0    0 -0.45146181214E+01  0.34998966558E+01 -0.70188374920E+01  0.92224108628E+01  0.17770000000E+01 0. -1.
</event>
<event>
 6    1  0.1697564E-002  0.1775136E+03  0.7546771E-02  0.1072495E+00
        -11   -1    0    0    0    0  0.00000000000E+00  0.00000000000E+00  0.18250000000E+03  0.18250000000E+03  0.00000000000E+00 0.  1.
         11   -1    0    0    0    0 -0.00000000000E+00 -0.00000000000E+00 -0.18250000000E+03  0.18250000000E+03  0.00000000000E+00 0.  1.
        -11    1    1    2    0    0  0.12967981233E+01 -0.23310718611E+01  0.17817750244E+03  0.17819746900E+03  0.00000000000E+00 0.  1.
         11    1    1    2    0    0 -0.73681872604E+00 -0.42758515574E+01 -0.17684101924E+03  0.17689423929E+03  0.00000000000E+00 0.  1.
        -15    1    1    2    0    0 -0.20790551659E+01  0.67579528375E+01 -0.17267193253E+00  0.72924578527E+01  0.17770000000E+01 0. -1.
         15    1    1    2    0    0  0.15190757687E+01 -0.15102941903E+00 -0.11638112730E+01  0.26158338547E+01  0.17770000000E+01 0.  1.
</event>
<event>
 6    1  0.1697564E-002  0.1859157E+03  0.7546771E-02  0.1065768E+00
        -11   -1    0    0    0    0  0.00000000000E+00  0.00000000000E+00  0.18250000000E+03  0.18250000000E+03  0.00000000000E+00 0.  1.
         11   -1    0    0    0    0 -0.00000000000E+00 -0.00000000000E+00 -0.18250000000E+03  0.18250000000E+03  0.00000000000E+00 0.  1.
        -11    1    1    2    0    0 -0.12803588327E+02 -0.14062503445E+01  0.13638272252E+03  0.13698962156E+03  0.00000000000E+00 0.  1.
         11    1    1    2    0    0  0.21217418947E+01  0.16256042135E+01 -0.17906436789E+03  0.17908431597E+03  0.00000000000E+00 0.  1.
        -15    1    1    2    0    0  0.10504450163E+02  0.30883695767E+00  0.44831930510E+02  0.46081434177E+02  0.17770000000E+01 0.  1.
         15    1    1    2    0    0  0.17739626961E+00 -0.52819082666E+00 -0.21502851378E+01  0.28446282991E+01  0.17770000000E+01 0. -1.
</event>
<event>
 6    1  0.1697564E-002  0.1858670E+03  0.7546771E-02  0.1065806E+00
        -11   -1    0    0    0    0  0.00000000000E+00  0.00000000000E+00  0.18250000000E+03  0.18250000000E+03  0.00000000000E+00 0. -1.
         11   -1    0    0    0    0 -0.00000000000E+00 -0.00000000000E+00 -0.18250000000E+03  0.18250000000E+03  0.00000000000E+00 0. -1.
        -11    1    1    2    0    0 -0.27705363506E+01 -0.18359737965E+01  0.17910218543E+03  0.17913302179E+03  0.00000000000E+00 0. -1.
         11    1    1    2    0    0 -0.15253746874E+01 -0.45825863441E+00 -0.61814029360E+02  0.61834545318E+02  0.00000000000E+00 0. -1.
        -15    1    1    2    0    0  0.15120664791E+01  0.28253737883E+01 -0.11979576667E+03  0.11985179399E+03  0.17770000000E+01 0.  1.
         15    1    1    2    0    0  0.27838445588E+01 -0.53114135737E+00  0.25076106030E+01  0.41806388992E+01  0.17770000000E+01 0. -1.
</event>
<event>
 6    1  0.1697564E-002  0.1942240E+03  0.7546771E-02  0.1059488E+00
        -11   -1    0    0    0    0  0.00000000000E+00  0.00000000000E+00  0.18250000000E+03  0.18250000000E+03  0.00000000000E+00 0.  1.
         11   -1    0    0    0    0 -0.00000000000E+00 -0.00000000000E+00 -0.18250000000E+03  0.18250000000E+03  0.00000000000E+00 0. -1.
        -11    1    1    2    0    0  0.33256240090E+01  0.96208309217E+00  0.16201492049E+03  0.16205190477E+03  0.00000000000E+00 0.  1.
         11    1    1    2    0    0 -0.34337214945E+01  0.19515717216E+01 -0.17073033412E+03  0.17077601139E+03  0.00000000000E+00 0. -1.
        -15    1    1    2    0    0 -0.35099047655E+01  0.44662425427E+01 -0.10009680905E+02  0.11645522519E+02  0.17770000000E+01 0. -1.
         15    1    1    2    0    0  0.36180022510E+01 -0.73798973564E+01  0.18725094536E+02  0.20526561321E+02  0.17770000000E+01 0.  1.
</event>
<event>
 6    1  0.1697564E-002  0.1846114E+03  0.7546771E-02  0.1066786E+00
        -11   -1    0    0    0    0  0.00000000000E+00  0.00000000000E+00  0.18250000000E+03  0.18250000000E+03  0.00000000000E+00 0.  1.
         11   -1    0    0    0    0 -0.00000000000E+00 -0.00000000000E+00 -0.18250000000E+03  0.18250000000E+03  0.00000000000E+00 0. -1.
        -11    1    1    2    0    0 -0.28418929594E+01 -0.40998000238E+01  0.18031960009E+03  0.18038858859E+03  0.00000000000E+00 0.  1.
         11    1    1    2    0    0  0.34397726372E+01 -0.37495087048E+00 -0.16581994510E+03  0.16585604245E+03  0.00000000000E+00 0. -1.
        -15    1    1    2    0    0 -0.23805800382E+01 -0.19702728708E+01 -0.11959388502E+01  0.37599381959E+01  0.17770000000E+01 0. -1.
         15    1    1    2    0    0  0.17827003605E+01  0.64450237651E+01 -0.13303716140E+02  0.14995430772E+02  0.17770000000E+01 0.  1.
</event>
<event>
 6    1  0.1697564E-002  0.1766390E+03  0.7546771E-02  0.1073218E+00
        -11   -1    0    0    0    0  0.00000000000E+00  0.00000000000E+00  0.18250000000E+03  0.18250000000E+03  0.00000000000E+00 0. -1.
         11   -1    0    0    0    0 -0.00000000000E+00 -0.00000000000E+00 -0.18250000000E+03  0.18250000000E+03  0.00000000000E+00 0. -1.
        -11    1    1    2    0    0 -0.57683614123E+01 -0.59409203222E+01  0.17521565267E+03  0.17541121249E+03  0.00000000000E+00 0. -1.
         11    1    1    2    0    0  0.60328357348E+01  0.51924885180E+00 -0.17781499435E+03  0.17791806243E+03  0.00000000000E+00 0. -1.
        -15    1    1    2    0    0 -0.24621995078E+01  0.50522023700E+01  0.51639071613E+01  0.78365069626E+01  0.17770000000E+01 0.  1.
         15    1    1    2    0    0  0.21977251853E+01  0.36946910034E+00 -0.25645654841E+01  0.38342181118E+01  0.17770000000E+01 0.  1.
</event>
<event>
 6    1  0.1697564E-002  0.1837354E+03  0.7546771E-02  0.1067476E+00
        -11   -1    0    0    0    0  0.00000000000E+00  0.00000000000E+00  0.18250000000E+03  0.18250000000E+03  0.00000000000E+00 0.  1.
         11   -1    0    0    0    0 -0.00000000000E+00 -0.00000000000E+00 -0.18250000000E+03  0.18250000000E+03  0.00000000000E+00 0. -1.
        -11    1    1    2    0    0 -0.38960825649E+00 -0.35676770351E+01  0.15217864688E+03  0.15222096005E+03  0.00000000000E+00 0.  1.
         11    1    1    2    0    0  0.86916761795E+00  0.32533629482E+01 -0.18123331116E+03  0.18126459361E+03  0.00000000000E+00 0. -1.
        -15    1    1    2    0    0  0.24656085906E+01  0.13989106751E+01  0.14020578359E+01  0.36276262175E+01  0.17770000000E+01 0. -1.
         15    1    1    2    0    0 -0.29451679520E+01 -0.10845965882E+01  0.27652606445E+02  0.27886820117E+02  0.17770000000E+01 0. -1.
</event>
<event>
 6    1  0.1697564E-002  0.1825744E+03  0.7546771E-02  0.1068396E+00
        -11   -1    0    0    0    0  0.00000000000E+00  0.00000000000E+00  0.18250000000E+03  0.18250000000E+03  0.00000000000E+00 0. -1.
         11   -1    0    0    0    0 -0.00000000000E+00 -0.00000000000E+00 -0.18250000000E+03  0.18250000000E+03  0.00000000000E+00 0. -1.
        -11    1    1    2    0    0 -0.54944462188E+01  0.78067580039E+00  0.18234113226E+03  0.18242556539E+03  0.00000000000E+00 0. -1.
         11    1    1    2    0    0  0.99168439457E-01 -0.18767140473E+01 -0.46531215894E+02  0.46569152264E+02  0.00000000000E+00 0. -1.
        -15    1    1    2    0    0  0.97929760111E+00  0.14061370070E+01 -0.39174943320E+02  0.39252645239E+02  0.17770000000E+01 0. -1.
         15    1    1    2    0    0  0.44159801782E+01 -0.31009876013E+00 -0.96634973047E+02  0.96752637106E+02  0.17770000000E+01 0. -1.
</event>
<event>
 6    1  0.1697564E-002  0.1830649E+03  0.7546771E-02  0.1068006E+00
        -11   -1    0    0    0    0  0.00000000000E+00  0.00000000000E+00  0.18250000000E+03  0.18250000000E+03  0.00000000000E+00 0. -1.
         11   -1    0    0    0    0 -0.00000000000E+00 -0.00000000000E+00 -0.18250000000E+03  0.18250000000E+03  0.00000000000E+00 0. -1.
        -11    1    1    2    0    0  0.86496460439E+00 -0.86563132983E+01  0.18172701690E+03  0.18193512194E+03  0.00000000000E+00 0. -1.
         11    1    1    2    0    0 -0.44746464637E+01 -0.35005586592E+01 -0.77782241860E+02  0.77989444931E+02  0.00000000000E+00 0. -1.
        -15    1    1    2    0    0 -0.18777522959E+01  0.41358570357E+01 -0.21816367694E+02  0.22354930004E+02  0.17770000000E+01 0.  1.
         15    1    1    2    0    0  0.54874341552E+01  0.80210149218E+01 -0.82128407349E+02  0.82720503122E+02  0.17770000000E+01 0. -1.
</event>
<event>
 6    1  0.1697564E-002  0.1836526E+03  0.7546771E-02  0.1067541E+00
        -11   -1    0    0    0    0  0.00000000000E+00  0.00000000000E+00  0.18250000000E+03  0.18250000000E+03  0.00000000000E+00 0. -1.
         11   -1    0    0    0    0 -0.00000000000E+00 -0.00000000000E+00 -0.18250000000E+03  0.18250000000E+03  0.00000000000E+00 0. -1.
        -11    1    1    2    0    0  0.23379939338E+01  0.24149294839E+01  0.18131622857E+03  0.18134738168E+03  0.00000000000E+00 0. -1.
         11    1    1    2    0    0 -0.28004764832E+01  0.78239749697E+00 -0.13463656924E+03  0.13466796424E+03  0.00000000000E+00 0. -1.
        -15    1    1    2    0    0  0.26708463986E+01  0.16246721318E+01 -0.23325614797E+01  0.42862048571E+01  0.17770000000E+01 0.  1.
         15    1    1    2    0    0 -0.22083638492E+01 -0.48219991127E+01 -0.44347097850E+02  0.44698449224E+02  0.17770000000E+01 0. -1.
</event>
<event>
 6    1  0.1697564E-002  0.1826197E+03  0.7546771E-02  0.1068360E+00
        -11   -1    0    0    0    0  0.00000000000E+00  0.00000000000E+00  0.18250000000E+03  0.18250000000E+03  0.00000000000E+00 0.  1.
         11   -1    0    0    0    0 -0.00000000000E+00 -0.00000000000E+00 -0.18250000000E+03  0.18250000000E+03  0.00000000000E+00 0. -1.
        -11    1    1    2    0    0 -0.25321951649E+01  0.85723695125E+00  0.11759745409E+03  0.11762783716E+03  0.00000000000E+00 0.  1.
         11    1    1    2    0    0  0.22715813992E+01  0.13356219639E+01 -0.18236126431E+03  0.18238030236E+03  0.00000000000E+00 0. -1.
        -15    1    1    2    0    0  0.89534454763E+00 -0.18466848697E+01  0.53263273614E+02  0.53332409770E+02  0.17770000000E+01 0.  1.
         15    1    1    2    0    0 -0.63473078192E+00 -0.34617404547E+00  0.11500536604E+02  0.11659450708E+02  0.17770000000E+01 0.  1.
</event>
<event>
 6    1  0.1697564E-002  0.1834209E+03  0.7546771E-02  0.1067724E+00
        -11   -1    0    0    0    0  0.00000000000E+00  0.00000000000E+00  0.18250000000E+03  0.18250000000E+03  0.00000000000E+00 0. -1.
         11   -1    0    0    0    0 -0.00000000000E+00 -0.00000000000E+00 -0.18250000000E+03  0.18250000000E+03  0.00000000000E+00 0. -1.
        -11    1    1    2    0    0 -0.75335695043E+00  0.47612283134E+01  0.14323133328E+03  0.14331242680E+03  0.00000000000E+00 0. -1.
         11    1    1    2    0    0 -0.38029142107E+01 -0.33944894717E+01 -0.18150750193E+03  0.18157906810E+03  0.00000000000E+00 0. -1.
        -15    1    1    2    0    0  0.23046034231E+01  0.25846310633E+01  0.43677543411E+01  0.58503437211E+01  0.17770000000E+01 0.  1.
         15    1    1    2    0    0  0.22516677380E+01 -0.39513699050E+01  0.33908414307E+02  0.34258161386E+02  0.17770000000E+01 0. -1.
</event>
<event>
 6    1  0.1697564E-002  0.1864888E+03  0.7546771E-02  0.1065323E+00
        -11   -1    0    0    0    0  0.00000000000E+00  0.00000000000E+00  0.18250000000E+03  0.18250000000E+03  0.00000000000E+00 0. -1.
         11   -1    0    0    0    0 -0.00000000000E+00 -0.00000000000E+00 -0.18250000000E+03  0.18250000000E+03  0.00000000000E+00 0. -1.
        -11    1    1    2    0    0  0.22804780966E+01  0.81571205446E+00  0.17849474545E+03  0.17851117646E+03  0.00000000000E+00 0. -1.
         11    1    1    2    0    0  0.43815869844E+01 -0.16813844752E+02 -0.11462969258E+03  0.11593907926E+03  0.00000000000E+00 0. -1.
        -15    1    1    2    0    0 -0.44056284061E+01  0.22180279434E+02 -0.53875412017E+02  0.58455898816E+02  0.17770000000E+01 0. -1.
         15    1    1    2    0    0 -0.22564366749E+01 -0.61821467372E+01 -0.99896408542E+01  0.12093845466E+02  0.17770000000E+01 0.  1.
</event>
<event>
 6    1  0.1697564E-002  0.1855794E+03  0.7546771E-02  0.1066030E+00
        -11   -1    0    0    0    0  0.00000000000E+00  0.00000000000E+00  0.18250000000E+03  0.18250000000E+03  0.00000000000E+00 0.  1.
         11   -1    0    0    0    0 -0.00000000000E+00 -0.00000000000E+00 -0.18250000000E+03  0.18250000000E+03  0.00000000000E+00 0. -1.
        -11    1    1    2    0    0 -0.18492106496E+01  0.16163235967E+01  0.17428311076E+03  0.17430041532E+03  0.00000000000E+00 0.  1.
         11    1    1    2    0    0  0.51948195229E+00 -0.34058983568E+01 -0.17938747955E+03  0.17942056132E+03  0.00000000000E+00 0. -1.
        -15    1    1    2    0    0 -0.46023568589E+00 -0.35917334580E+01  0.27738247688E+01  0.48953241943E+01  0.17770000000E+01 0. -1.
         15    1    1    2    0    0  0.17899643832E+01  0.53813082180E+01  0.23305440195E+01  0.63836991672E+01  0.17770000000E+01 0.  1.
</event>
<event>
 6    1  0.1697564E-002  0.1825669E+03  0.7546771E-02  0.1068402E+00
        -11   -1    0    0    0    0  0.00000000000E+00  0.00000000000E+00  0.18250000000E+03  0.18250000000E+03  0.00000000000E+00 0. -1.
         11   -1    0    0    0    0 -0.00000000000E+00 -0.00000000000E+00 -0.18250000000E+03  0.18250000000E+03  0.00000000000E+00 0. -1.
        -11    1    1    2    0    0 -0.11538230933E+01  0.15322622385E+00  0.68163727444E+02  0.68173664454E+02  0.00000000000E+00 0. -1.
         11    1    1    2    0    0  0.32443987049E+01 -0.89899221049E+00 -0.18240206521E+03  0.18243313214E+03  0.00000000000E+00 0. -1.
        -15    1    1    2    0    0  0.42344870276E-01  0.13823241287E+01  0.81530408896E+02  0.81561497760E+02  0.17770000000E+01 0. -1.
         15    1    1    2    0    0 -0.21329204819E+01 -0.63655814204E+00  0.32707928867E+02  0.32831705649E+02  0.17770000000E+01 0.  1.
</event>
<event>
 6    1  0.1697564E-002  0.1863225E+03  0.7546771E-02  0.1065452E+00
        -11   -1    0    0    0    0  0.00000000000E+00  0.00000000000E+00  0.18250000000E+03  0.18250000000E+03  0.00000000000E+00 0. -1.
         11   -1    0    0    0    0 -0.00000000000E+00 -0.00000000000E+00 -0.18250000000E+03  0.18250000000E+03  0.00000000000E+00 0. -1.
        -11    1    1    2    0    0  0.38591249932E+01 -0.98334756636E+00  0.15744783231E+03  0.15749818957E+03  0.00000000000E+00 0. -1.
         11    1    1    2    0    0  0.72794971422E+01 -0.23370748455E+01 -0.17851380992E+03  0.17867745613E+03  0.00000000000E+00 0. -1.
        -15    1    1    2    0    0  0.46267772168E+00 -0.45107853710E+01  0.24104259747E+01  0.54340719278E+01  0.17770000000E+01 0.  1.
         15    1    1    2    0    0 -0.11601299857E+02  0.78312077829E+01  0.18655551634E+02  0.23390282373E+02  0.17770000000E+01 0. -1.
</event>
<event>
 6    1  0.1697564E-002  0.1853269E+03  0.7546771E-02  0.1066227E+00
        -11   -1    0    0    0    0  0.00000000000E+00  0.00000000000E+00  0.18250000000E+03  0.18250000000E+03  0.00000000000E+00 0.  1.
         11   -1    0    0    0    0 -0.00000000000E+00 -0.00000000000E+00 -0.18250000000E+03  0.18250000000E+03  0.00000000000E+00 0.  1.
        -11    1    1    2    0    0 -0.37708002178E+01 -0.24489976709E+01  0.17961685008E+03  0.17967311806E+03  0.00000000000E+00 0.  1.
         11    1    1    2    0    0 -0.19587657016E+01  0.28033661511E+01 -0.17516719968E+03  0.17520058068E+03  0.00000000000E+00 0.  1.
        -15    1    1    2    0    0  0.56270794768E+01  0.19073156672E+01 -0.33209655255E+01  0.70348004601E+01  0.17770000000E+01 0.  1.
         15    1    1    2    0    0  0.10248644270E+00 -0.22616841474E+01 -0.11286848646E+01  0.30915007969E+01  0.17770000000E+01 0. -1.
</event>
<event>
 6    1  0.1697564E-002  0.1841071E+03  0.7546771E-02  0.1067183E+00
        -11   -1    0    0    0    0  0.00000000000E+00  0.00000000000E+00  0.18250000000E+03  0.18250000000E+03  0.00000000000E+00 0.  1.
         11   -1    0    0    0    0 -0.00000000000E+00 -0.00000000000E+00 -0.18250000000E+03  0.18250000000E+03  0.00000000000E+00 0. -1.
        -11    1    1    2    0    0  0.24494669217E+01  0.60129933526E+00  0.18087534172E+03  0.18089292604E+03  0.00000000000E+00 0.  1.
         11    1    1    2    0    0  0.98502708628E+00  0.27257695364E+01 -0.15950542430E+03  0.15953175382E+03  0.00000000000E+00 0. -1.
        -15    1    1    2    0    0 -0.38519920238E+01 -0.59767250830E+01 -0.19550100812E+02  0.20878775252E+02  0.17770000000E+01 0. -1.
         15    1    1    2    0    0  0.41749801586E+00  0.26496562113E+01 -0.18198166057E+01  0.36965448881E+01  0.17770000000E+01 0.  1.
</event>
<event>
 6    1  0.1697564E-002  0.1842926E+03  0.7546771E-02  0.1067037E+00
        -11   -1    0    0    0    0  0.00000000000E+00  0.00000000000E+00  0.18250000000E+03  0.18250000000E+03  0.00000000000E+00 0. -1.
         11   -1    0    0    0    0 -0.00000000000E+00 -0.00000000000E+00 -0.18250000000E+03  0.18250000000E+03  0.00000000000E+00 0.  1.
        -11    1    1    2    0    0  0.33144618190E+01  0.29719343680E+01  0.18065258430E+03  0.18070742725E+03  0.00000000000E+00 0. -1.
         11    1    1    2    0    0  0.35208720373E+01 -0.99491407546E+00 -0.16851850771E+03  0.16855822090E+03  0.00000000000E+00 0.  1.
        -15    1    1    2    0    0 -0.40382173479E+01 -0.26600660318E+01 -0.29269190968E+01  0.59251780599E+01  0.17770000000E+01 0. -1.
         15    1    1    2    0    0 -0.27971165085E+01  0.68304573929E+00 -0.92071574948E+01  0.98091737867E+01  0.17770000000E+01 0.  1.
</event>
<event>
 6    1  0.1697564E-002  0.1826824E+03  0.7546771E-02  0.1068310E+00
        -11   -1    0    0    0    0  0.00000000000E+00  0.00000000000E+00  0.18250000000E+03  0.18250000000E+03  0.00000000000E+00 0. -1.
         11   -1    0    0    0    0 -0.00000000000E+00 -0.00000000000E+00 -0.18250000000E+03  0.18250000000E+03  0.00000000000E+00 0.  1.
        -11    1    1    2    0    0 -0.48115928824E+01  0.55588120865E+00  0.18225323252E+03  0.18231758333E+03  0.00000000000E+00 0. -1.
         11    1    1    2    0    0  0.17693673179E+01  0.10609211303E+01 -0.91138605235E+02  0.91161952472E+02  0.00000000000E+00 0.  1.
        -15    1    1    2    0    0  0.72615019355E+00  0.12277374819E+01 -0.83442655644E+01  0.86498052139E+01  0.17770000000E+01 0. -1.
         15    1    1    2    0    0  0.23160753710E+01 -0.28445398209E+01 -0.82770361717E+02  0.82870658980E+02  0.17770000000E+01 0.  1.
</event>
<event>
 6    1  0.1697564E-002  0.1710803E+03  0.7546771E-02  0.1077927E+00
        -11   -1    0    0    0    0  0.00000000000E+00  0.00000000000E+00  0.18250000000E+03  0.18250000000E+03  0.00000000000E+00 0. -1.
         11   -1    0    0    0    0 -0.00000000000E+00 -0.00000000000E+00 -0.18250000000E+03  0.18250000000E+03  0.00000000000E+00 0.  1.
        -11    1    1    2    0    0  0.55768809757E+01 -0.15046739297E+01  0.17138284139E+03  0.17148015619E+03  0.00000000000E+00 0. -1.
         11    1    1    2    0    0  0.33013241257E+01 -0.65800909820E+01 -0.17073301784E+03  0.17089166077E+03  0.00000000000E+00 0.  1.
        -15    1    1    2    0    0 -0.95339709658E+00 -0.58484039249E+01  0.14795912098E+01  0.63607950479E+01  0.17770000000E+01 0.  1.
         15    1    1    2    0    0 -0.79248080049E+01  0.13933168837E+02 -0.21294147567E+01  0.16267387988E+02  0.17770000000E+01 0. -1.
</event>
<event>
 6    1  0.1697564E-002  0.1838881E+03  0.7546771E-02  0.1067355E+00
        -11   -1    0    0    0    0  0.00000000000E+00  0.00000000000E+00  0.18250000000E+03  0.18250000000E+03  0.00000000000E+00 0. -1.
         11   -1    0    0    0    0 -0.00000000000E+00 -0.00000000000E+00 -0.18250000000E+03  0.18250000000E+03  0.00000000000E+00 0.  1.
        -11    1    1    2    0    0 -0.16829285720E+01 -0.18790147597E+01  0.87104305772E+02  0.87140822977E+02  0.00000000000E+00 0. -1.
         11    1    1    2    0    0 -0.42945855311E+01  0.12733899940E+01 -0.18105646155E+03  0.18111186393E+03  0.00000000000E+00 0.  1.
        -15    1    1    2    0    0  0.95677130774E+01 -0.51119312414E+01  0.83229646251E+02  0.83952395550E+02  0.17770000000E+01 0.  1.
         15    1    1    2    0    0 -0.35901989744E+01  0.57175560071E+01  0.10722509528E+02  0.12794917543E+02  0.17770000000E+01 0. -1.
</event>
<event>
 6    1  0.1697564E-002  0.1831359E+03  0.7546771E-02  0.1067950E+00
        -11   -1    0    0    0    0  0.00000000000E+00  0.00000000000E+00  0.18250000000E+03  0.18250000000E+03  0.00000000000E+00 0.  1.
         11   -1    0    0    0    0 -0.00000000000E+00 -0.00000000000E+00 -0.18250000000E+03  0.18250000000E+03  0.00000000000E+00 0. -1.
        -11    1    1    2    0    0 -0.41693258334E+00  0.32826438154E+01  0.18183399852E+03  0.18186410477E+03  0.00000000000E+00 0.  1.
         11    1    1    2    0    0  0.18475895430E+01  0.30395597627E+01 -0.67677146549E+02  0.67770559063E+02  0.00000000000E+00 0. -1.
        -15    1    1    2    0    0  0.24549793604E+01 -0.99736408815E+01 -0.58124135170E+02  0.59051445828E+02  0.17770000000E+01 0.  1.
         15    1    1    2    0    0 -0.38856363201E+01  0.36514373034E+01 -0.56032716805E+02  0.56313890343E+02  0.17770000000E+01 0. -1.
</event>
<event>
 6    1  0.1697564E-002  0.1836809E+03  0.7546771E-02  0.1067519E+00
        -11   -1    0    0    0    0  0.00000000000E+00  0.00000000000E+00  0.18250000000E+03  0.18250000000E+03  0.00000000000E+00 0.  1.
         11   -1    0    0    0    0 -0.00000000000E+00 -0.00000000000E+00 -0.18250000000E+03  0.18250000000E+03  0.00000000000E+00 0. -1.
        -11    1    1    2    0    0  0.58780597234E+01 -0.78322897856E+00  0.18122209990E+03  0.18131909587E+03  0.00000000000E+00 0.  1.
         11    1    1    2    0    0  0.11471376410E+01 -0.30716285028E+01 -0.13458273857E+03  0.13462267397E+03  0.00000000000E+00 0. -1.
        -15    1    1    2    0    0 -0.76526063371E+01  0.45209384428E+01 -0.46107381372E+02  0.46989888424E+02  0.17770000000E+01 0. -1.
         15    1    1    2    0    0  0.62740897273E+00 -0.66608096147E+00 -0.53197995561E+00  0.20683417366E+01  0.17770000000E+01 0. -1.
</event>
<event>
 6    1  0.1697564E-002  0.1838397E+03  0.7546771E-02  0.1067393E+00
        -11   -1    0    0    0    0  0.00000000000E+00  0.00000000000E+00  0.18250000000E+03  0.18250000000E+03  0.00000000000E+00 0.  1.
         11   -1    0    0    0    0 -0.00000000000E+00 -0.00000000000E+00 -0.18250000000E+03  0.18250000000E+03  0.00000000000E+00 0. -1.
        -11    1    1    2    0    0  0.15868651270E+01 -0.32665901564E+01  0.18112391742E+03  0.18116032186E+03  0.00000000000E+00 0.  1.
         11    1    1    2    0    0  0.12909364267E+01 -0.38404517527E+01 -0.16255478078E+03  0.16260526542E+03  0.00000000000E+00 0. -1.
        -15    1    1    2    0    0 -0.79806999430E+00 -0.66306871008E+00 -0.39690717274E+01  0.44707756829E+01  0.17770000000E+01 0. -1.
         15    1    1    2    0    0 -0.20797315594E+01  0.77701106192E+01 -0.14600064913E+02  0.16763637042E+02  0.17770000000E+01 0. -1.
</event>
<event>
 6    1  0.1697564E-002  0.1825307E+03  0.7546771E-02  0.1068430E+00
        -11   -1    0    0    0    0  0.00000000000E+00  0.00000000000E+00  0.18250000000E+03  0.18250000000E+03  0.00000000000E+00 0. -1.
         11   -1    0    0    0    0 -0.00000000000E+00 -0.00000000000E+00 -0.18250000000E+03  0.18250000000E+03  0.00000000000E+00 0. -1.
        -11    1    1    2    0    0 -0.13542405196E+00  0.65313261292E+00  0.47075179251E+02  0.47079904666E+02  0.00000000000E+00 0. -1.
         11    1    1    2    0    0 -0.23546121953E+01 -0.12069902484E+01 -0.18245012073E+03  0.18246930585E+03  0.00000000000E+00 0. -1.
        -15    1    1    2    0    0  0.16297518429E+01  0.50502832659E+00  0.88466794039E+02  0.88501087684E+02  0.17770000000E+01 0. -1.
         15    1    1    2    0    0  0.86028440439E+00  0.48829308884E-01  0.46908147441E+02  0.46949701798E+02  0.17770000000E+01 0.  1.
</event>
<event>
 6    1  0.1697564E-002  0.1828051E+03  0.7546771E-02  0.1068212E+00
        -11   -1    0    0    0    0  0.00000000000E+00  0.00000000000E+00  0.18250000000E+03  0.18250000000E+03  0.00000000000E+00 0. -1.
         11   -1    0    0    0    0 -0.00000000000E+00 -0.00000000000E+00 -0.18250000000E+03  0.18250000000E+03  0.00000000000E+00 0. -1.
        -11    1    1    2    0    0  0.21578940607E+01 -0.42251992966E+01  0.15748789003E+03  0.15755933588E+03  0.00000000000E+00 0. -1.
         11    1    1    2    0    0  0.71268348465E+00  0.28805141378E+01 -0.18217077825E+03  0.18219494430E+03  0.00000000000E+00 0. -1.
        -15    1    1    2    0    0 -0.13444940707E+01  0.27960967583E+00  0.16898467891E+02  0.17047046429E+02  0.17770000000E+01 0.  1.
         15    1    1    2    0    0 -0.15260834746E+01  0.10650754830E+01  0.77844203288E+01  0.81986733934E+01  0.17770000000E+01 0.  1.
</event>
<event>
 6    1  0.1697564E-002  0.1430756E+03  0.7546771E-02  0.1105046E+00
        -11   -1    0    0    0    0  0.00000000000E+00  0.00000000000E+00  0.18250000000E+03  0.18250000000E+03  0.00000000000E+00 0. -1.
         11   -1    0    0    0    0 -0.00000000000E+00 -0.00000000000E+00 -0.18250000000E+03  0.18250000000E+03  0.00000000000E+00 0. -1.
        -11    1    1    2    0    0 -0.76468478493E+01 -0.55124961109E+01  0.14689202806E+03  0.14719419079E+03  0.00000000000E+00 0. -1.
         11    1    1    2    0    0  0.28157285989E+02  0.28855512765E+02 -0.13499307687E+03  0.14088507435E+03  0.00000000000E+00 0. -1.
        -15    1    1    2    0    0 -0.12613951902E+01 -0.12011174629E+02 -0.39514961484E+02  0.41357579038E+02  0.17770000000E+01 0. -1.
         15    1    1    2    0    0 -0.19249042949E+02 -0.11331842025E+02  0.27616010297E+02  0.35563155820E+02  0.17770000000E+01 0.  1.
</event>
<event>
 6    1  0.1697564E-002  0.1831584E+03  0.7546771E-02  0.1067932E+00
        -11   -1    0    0    0    0  0.00000000000E+00  0.00000000000E+00  0.18250000000E+03  0.18250000000E+03  0.00000000000E+00 0.  1.
         11   -1    0    0    0    0 -0.00000000000E+00 -0.00000000000E+00 -0.18250000000E+03  0.18250000000E+03  0.00000000000E+00 0.  1.
        -11    1    1    2    0    0 -0.66935850202E+00 -0.53599005148E+01  0.16285996605E+03  0.16294951708E+03  0.00000000000E+00 0.  1.
         11    1    1    2    0    0 -0.27264027308E+01  0.13946426448E+01 -0.18181585910E+03  0.18184164793E+03  0.00000000000E+00 0.  1.
        -15    1    1    2    0    0  0.11704577774E+01  0.33500145270E+01  0.12743967194E+02  0.13347621420E+02  0.17770000000E+01 0.  1.
         15    1    1    2    0    0  0.22253034554E+01  0.61524334310E+00  0.62119258605E+01  0.68612135761E+01  0.17770000000E+01 0. -1.
</event>
<event>
 6    1  0.1697564E-002  0.2008941E+03  0.7546771E-02  0.1054688E+00
        -11   -1    0    0    0    0  0.00000000000E+00  0.00000000000E+00  0.18250000000E+03  0.18250000000E+03  0.00000000000E+00 0.  1.
         11   -1    0    0    0    0 -0.00000000000E+00 -0.00000000000E+00 -0.18250000000E+03  0.18250000000E+03  0.00000000000E+00 0. -1.
        -11    1    1    2    0    0  0.68312533085E+01  0.31047241173E+01  0.15079628819E+03  0.15098286614E+03  0.00000000000E+00 0.  1.
         11    1    1    2    0    0  0.36238978042E+01 -0.16530526808E+01 -0.16405755669E+03  0.16410590217E+03  0.00000000000E+00 0. -1.
        -15    1    1    2    0    0 -0.75588046636E+01 -0.32236596088E+01  0.30816388313E+02  0.31942683464E+02  0.17770000000E+01 0. -1.
         15    1    1    2    0    0 -0.28963464491E+01  0.17719881723E+01 -0.17555119815E+02  0.17968548232E+02  0.17770000000E+01 0. -1.
</event>
<event>
 6    1  0.1697564E-002  0.1857421E+03  0.7546771E-02  0.1065903E+00
        -11   -1    0    0    0    0  0.00000000000E+00  0.00000000000E+00  0.18250000000E+03  0.18250000000E+03  0.00000000000E+00 0. -1.
         11   -1    0    0    0    0 -0.00000000000E+00 -0.00000000000E+00 -0.18250000000E+03  0.18250000000E+03  0.00000000000E+00 0. -1.
        -11    1    1    2    0    0 -0.23537627066E+01 -0.61754925960E+01  0.13804198703E+03  0.13820009802E+03  0.00000000000E+00 0. -1.
         11    1    1    2    0    0  0.28720530260E+01  0.25351032068E+01 -0.17921697405E+03  0.17925791259E+03  0.00000000000E+00 0. -1.
        -15    1    1    2    0    0  0.77492328448E+01 -0.17542571587E+01  0.34608410984E+02  0.35553169587E+02  0.17770000000E+01 0. -1.
         15    1    1    2    0    0 -0.82675231642E+01  0.53946465479E+01  0.65665760332E+01  0.11988819810E+02  0.17770000000E+01 0.  1.
</event>
<event>
 6    1  0.1697564E-002  0.1844542E+03  0.7546771E-02  0.1066910E+00
        -11   -1    0    0    0    0  0.00000000000E+00  0.00000000000E+00  0.18250000000E+03  0.18250000000E+03  0.00000000000E+00 0. -1.
         11   -1    0    0    0    0 -0.00000000000E+00 -0.00000000000E+00 -0.18250000000E+03  0.18250000000E+03  0.00000000000E+00 0.  1.
        -11    1    1    2    0    0 -0.50815112992E+01  0.24165301023E+01  0.16457803663E+03  0.16467419809E+03  0.00000000000E+00 0. -1.
         11    1    1    2    0    0 -0.32834991832E+01 -0.84396073885E+00 -0.18051400211E+03  0.18054583516E+03  0.00000000000E+00 0.  1.
        -15    1    1    2    0    0  0.71761008665E+01 -0.11942038425E+01  0.59612398125E+01  0.95716589766E+01  0.17770000000E+01 0.  1.
         15    1    1    2    0    0  0.11889096159E+01 -0.37836552094E+00  0.99747256630E+01  0.10208307773E+02  0.17770000000E+01 0. -1.
</event>
<event>
 6    1  0.1697564E-002  0.1970668E+03  0.7546771E-02  0.1057417E+00
        -11   -1    0    0    0    0  0.00000000000E+00  0.00000000000E+00  0.18250000000E+03  0.18250000000E+03  0.00000000000E+00 0. -1.
         11   -1    0    0    0    0 -0.00000000000E+00 -0.00000000000E+00 -0.18250000000E+03  0.18250000000E+03  0.00000000000E+00 0.  1.
        -11    1    1    2    0    0  0.42041255402E+00 -0.46687493785E+01  0.16786775727E+03  0.16793319474E+03  0.00000000000E+00 0. -1.
         11    1    1    2    0    0  0.82098732099E+01  0.12905038999E+02 -0.15722096175E+03  0.15796320098E+03  0.00000000000E+00 0.  1.
        -15    1    1    2    0    0 -0.57788348060E+00 -0.21257106222E+02 -0.20030861222E+01  0.21432885882E+02  0.17770000000E+01 0.  1.
         15    1    1    2    0    0 -0.80524022833E+01  0.13020816601E+02 -0.86437093902E+01  0.17670718392E+02  0.17770000000E+01 0. -1.
</event>
<event>
 6    1  0.1697564E-002  0.1873219E+03  0.7546771E-02  0.1064680E+00
        -11   -1    0    0    0    0  0.00000000000E+00  0.00000000000E+00  0.18250000000E+03  0.18250000000E+03  0.00000000000E+00 0. -1.
         11   -1    0    0    0    0 -0.00000000000E+00 -0.00000000000E+00 -0.18250000000E+03  0.18250000000E+03  0.00000000000E+00 0.  1.
        -11    1    1    2    0    0 -0.41077021860E+01  0.88457572004E+01  0.10506937254E+03  0.10552105801E+03  0.00000000000E+00 0. -1.
         11    1    1    2    0    0  0.30961495263E+01 -0.40164088426E+01 -0.17760569982E+03  0.17767808612E+03  0.00000000000E+00 0.  1.
        -15    1    1    2    0    0 -0.22820491151E+01 -0.27955410647E+01  0.76125030540E+02  0.76231232456E+02  0.17770000000E+01 0. -1.
         15    1    1    2    0    0  0.32936017747E+01 -0.20338072930E+01 -0.35887032676E+01  0.55696234072E+01  0.17770000000E+01 0.  1.
</event>
<event>
 6    1  0.1697564E-002  0.2110597E+03  0.7546771E-02  0.1047752E+00
        -11   -1    0    0    0    0  0.00000000000E+00  0.00000000000E+00  0.18250000000E+03  0.18250000000E+03  0.00000000000E+00 0. -1.
         11   -1    0    0    0    0 -0.00000000000E+00 -0.00000000000E+00 -0.18250000000E+03  0.18250000000E+03  0.00000000000E+00 0.  1.
        -11    1    1    2    0    0  0.18469856685E+01  0.23786696934E+01  0.15391088044E+03  0.15394034085E+03  0.00000000000E+00 0. -1.
         11    1    1    2    0    0 -0.34646079238E+01 -0.48743726453E+01 -0.97320415631E+02  0.97503981023E+02  0.00000000000E+00 0.  1.
        -15    1    1    2    0    0 -0.24620841427E+02 -0.21620635806E+02 -0.68487114216E+02  0.75942611674E+02  0.17770000000E+01 0.  1.
         15    1    1    2    0    0  0.26238463682E+02  0.24116338758E+02  0.11896649410E+02  0.37613066448E+02  0.17770000000E+01 0. -1.
</event>
<event>
 6    1  0.1697564E-002  0.1855163E+03  0.7546771E-02  0.1066079E+00
        -11   -1    0    0    0    0  0.00000000000E+00  0.00000000000E+00  0.18250000000E+03  0.18250000000E+03  0.00000000000E+00 0.  1.
         11   -1    0    0    0    0 -0.00000000000E+00 -0.00000000000E+00 -0.18250000000E+03  0.18250000000E+03  0.00000000000E+00 0.  1.
        -11    1    1    2    0    0 -0.54770468736E+01 -0.26219133138E+01  0.15660866621E+03  0.15672634368E+03  0.00000000000E+00 0.  1.
         11    1    1    2    0    0  0.21359879538E+01 -0.17565911752E+01 -0.17946234957E+03  0.17948365655E+03  0.00000000000E+00 0.  1.
        -15    1    1    2    0    0  0.55652813008E+01  0.39132419845E+01  0.24485919398E+02  0.25475552919E+02  0.17770000000E+01 0. -1.
         15    1    1    2    0    0 -0.22242223810E+01  0.46526250456E+00 -0.16322360396E+01  0.33144468448E+01  0.17770000000E+01 0.  1.
</event>
<event>
 6    1  0.1697564E-002  0.1830345E+03  0.7546771E-02  0.1068030E+00
        -11   -1    0    0    0    0  0.00000000000E+00  0.00000000000E+00  0.18250000000E+03  0.18250000000E+03  0.00000000000E+00 0. -1.
         11   -1    0    0    0    0 -0.00000000000E+00 -0.00000000000E+00 -0.18250000000E+03  0.18250000000E+03  0.00000000000E+00 0.  1.
        -11    1    1    2    0    0 -0.72913434511E+00 -0.24379257345E+01  0.18194768907E+03  0.18196548210E+03  0.00000000000E+00 0. -1.
         11    1    1    2    0    0  0.16480709827E+01  0.88225567985E+00 -0.57238910652E+02  0.57269428194E+02  0.00000000000E+00 0.  1.
        -15    1    1    2    0    0  0.45078680588E+00  0.14273992469E+01 -0.20882537293E+01  0.31239734301E+01  0.17770000000E+01 0. -1.
         15    1    1    2    0    0 -0.13697234434E+01  0.12827080775E+00 -0.12262052469E+03  0.12264111627E+03  0.17770000000E+01 0.  1.
</event>
<event>
 6    1  0.1697564E-002  0.1842854E+03  0.7546771E-02  0.1067042E+00
        -11   -1    0    0    0    0  0.00000000000E+00  0.00000000000E+00  0.18250000000E+03  0.18250000000E+03  0.00000000000E+00 0. -1.
         11   -1    0    0    0    0 -0.00000000000E+00 -0.00000000000E+00 -0.18250000000E+03  0.18250000000E+03  0.00000000000E+00 0.  1.
        -11    1    1    2    0    0 -0.40934119326E+00 -0.54967485058E+01  0.16287950481E+03  0.16297274278E+03  0.00000000000E+00 0. -1.
         11    1    1    2    0    0  0.30360901088E+01  0.71082903579E+01 -0.18054917378E+03  0.18071455333E+03  0.00000000000E+00 0.  1.
        -15    1    1    2    0    0  0.10296780854E+01  0.20312772346E+01  0.14926632740E+02  0.15203565967E+02  0.17770000000E+01 0.  1.
         15    1    1    2    0    0 -0.36564270009E+01 -0.36428190866E+01  0.27430362298E+01  0.61091379154E+01  0.17770000000E+01 0. -1.
</event>
<event>
 6    1  0.1697564E-002  0.1877944E+03  0.7546771E-02  0.1064317E+00
        -11   -1    0    0    0    0  0.00000000000E+00  0.00000000000E+00  0.18250000000E+03  0.18250000000E+03  0.00000000000E+00 0. -1.
         11   -1    0    0    0    0 -0.00000000000E+00 -0.00000000000E+00 -0.18250000000E+03  0.18250000000E+03  0.00000000000E+00 0.  1.
        -11    1    1    2    0    0 -0.70452464924E+00 -0.30283026664E+01  0.13370211483E+03  0.13373826110E+03  0.00000000000E+00 0. -1.
         11    1    1    2    0    0 -0.10143027815E+00  0.42972310827E+01 -0.17715350003E+03  0.17720564059E+03  0.00000000000E+00 0.  1.
        -15    1    1    2    0    0  0.59819294354E+00  0.21766407535E+01  0.47994318035E+02  0.48080223506E+02  0.17770000000E+01 0. -1.
         15    1    1    2    0    0  0.20776198384E+00 -0.34455691698E+01 -0.45429328365E+01  0.59758748065E+01  0.17770000000E+01 0. -1.
</event>
<event>
 6    1  0.1697564E-002  0.1827023E+03  0.7546771E-02  0.1068294E+00
        -11   -1    0    0    0    0  0.00000000000E+00  0.00000000000E+00  0.18250000000E+03  0.18250000000E+03  0.00000000000E+00 0. -1.
         11   -1    0    0    0    0 -0.00000000000E+00 -0.00000000000E+00 -0.18250000000E+03  0.18250000000E+03  0.00000000000E+00 0. -1.
        -11    1    1    2    0    0  0.66354860457E+00  0.40123358893E+01  0.18225232451E+03  0.18229769315E+03  0.00000000000E+00 0. -1.
         11    1    1    2    0    0  0.34562324065E+00  0.82880659424E+00 -0.59862653227E+02  0.59869388064E+02  0.00000000000E+00 0. -1.
        -15    1    1    2    0    0 -0.41014353881E+00 -0.20295719803E+01 -0.92813206499E+01  0.96740902493E+01  0.17770000000E+01 0.  1.
         15    1    1    2    0    0 -0.59902830641E+00 -0.28115705033E+01 -0.11310835064E+03  0.11315882854E+03  0.17770000000E+01 0. -1.
</event>
<event>
 6    1  0.1697564E-002  0.1869029E+03  0.7546771E-02  0.1065003E+00
        -11   -1    0    0    0    0  0.00000000000E+00  0.00000000000E+00  0.18250000000E+03  0.18250000000E+03  0.00000000000E+00 0.  1.
         11   -1    0    0    0    0 -0.00000000000E+00 -0.00000000000E+00 -0.18250000000E+03  0.18250000000E+03  0.00000000000E+00 0.  1.
        -11    1    1    2    0    0  0.47342269175E+01 -0.31112192777E+00  0.17803390677E+03  0.17809711301E+03  0.00000000000E+00 0.  1.
         11    1    1    2    0    0 -0.15284274328E+01  0.10589315093E+01 -0.95629816081E+02  0.95647891508E+02  0.00000000000E+00 0.  1.
        -15    1    1    2    0    0  0.21113896187E+01 -0.10039636113E+02 -0.79281907480E+02  0.79962684060E+02  0.17770000000E+01 0. -1.
         15    1    1    2    0    0 -0.53171891033E+01  0.92918265316E+01 -0.31221832118E+01  0.11292311422E+02  0.17770000000E+01 0.  1.
</event>
<event>
 6    1  0.1697564E-002  0.1832112E+03  0.7546771E-02  0.1067890E+00
        -11   -1    0    0    0    0  0.00000000000E+00  0.00000000000E+00  0.18250000000E+03  0.18250000000E+03  0.00000000000E+00 0. -1.
         11   -1    0    0    0    0 -0.00000000000E+00 -0.00000000000E+00 -0.18250000000E+03  0.18250000000E+03  0.00000000000E+00 0.  1.
        -11    1    1    2    0    0 -0.24480517268E+01 -0.40663948228E+01  0.18172679894E+03  0.18178877297E+03  0.00000000000E+00 0. -1.
         11    1    1    2    0    0 -0.25336077990E+01  0.42237032249E+00 -0.12661884103E+03  0.12664489121E+03  0.00000000000E+00 0.  1.
        -15    1    1    2    0    0  0.46063979296E+01  0.45655129807E+00 -0.50171721371E+02  0.50416135267E+02  0.17770000000E+01 0. -1.
         15    1    1    2    0    0  0.37526159617E+00  0.31874732022E+01 -0.49362365365E+01  0.61502005516E+01  0.17770000000E+01 0.  1.
</event>
<event>
 6    1  0.1697564E-002  0.1851337E+03  0.7546771E-02  0.1066377E+00
        -11   -1    0    0    0    0  0.00000000000E+00  0.00000000000E+00  0.18250000000E+03  0.18250000000E+03  0.00000000000E+00 0.  1.
         11   -1    0    0    0    0 -0.00000000000E+00 -0.00000000000E+00 -0.18250000000E+03  0.18250000000E+03  0.00000000000E+00 0.  1.
        -11    1    1    2    0    0 -0.58848431339E+00  0.30710754096E+01  0.17365874250E+03  0.17368689261E+03  0.00000000000E+00 0.  1.
         11    1    1    2    0    0  0.54916694075E+01  0.19857052543E+01 -0.17977145694E+03  0.17986627863E+03  0.00000000000E+00 0.  1.
        -15    1    1    2    0    0  0.15851411800E+00 -0.35622598758E+01  0.16572435510E+01  0.43149747781E+01  0.17770000000E+01 0. -1.
         15    1    1    2    0    0 -0.50616992121E+01 -0.14945207881E+01  0.44554708873E+01  0.71318539755E+01  0.17770000000E+01 0.  1.
</event>
<event>
 6    1  0.1697564E-002  0.1858654E+03  0.7546771E-02  0.1065807E+00
        -11   -1    0    0    0    0  0.00000000000E+00  0.00000000000E+00  0.18250000000E+03  0.18250000000E+03  0.00000000000E+00 0.  1.
         11   -1    0    0    0    0 -0.00000000000E+00 -0.00000000000E+00 -0.18250000000E+03  0.18250000000E+03  0.00000000000E+00 0.  1.
        -11    1    1    2    0    0 -0.19014844956E+01  0.53379848892E+01  0.17904496454E+03  0.17913461154E+03  0.00000000000E+00 0.  1.
         11    1    1    2    0    0  0.37451341070E+01  0.61428879556E+01 -0.16329242500E+03  0.16345084020E+03  0.00000000000E+00 0.  1.
        -15    1    1    2    0    0 -0.20029482031E+01 -0.37230695009E+01 -0.13325376608E+02  0.14092424871E+02  0.17770000000E+01 0.  1.
         15    1    1    2    0    0  0.15929859178E+00 -0.77578033438E+01 -0.24271629313E+01  0.83221233864E+01  0.17770000000E+01 0. -1.
</event>
<event>
 6    1  0.1697564E-002  0.1909483E+03  0.7546771E-02  0.1061922E+00
        -11   -1    0    0    0    0  0.00000000000E+00  0.00000000000E+00  0.18250000000E+03  0.18250000000E+03  0.00000000000E+00 0. -1.
         11   -1    0    0    0    0 -0.00000000000E+00 -0.00000000000E+00 -0.18250000000E+03  0.18250000000E+03  0.00000000000E+00 0.  1.
        -11    1    1    2    0    0 -0.37039452440E+01  0.39485133313E+01  0.17396752112E+03  0.17405174051E+03  0.00000000000E+00 0. -1.
         11    1    1    2    0    0  0.88253174840E+00  0.13951295147E+02 -0.14835975218E+03  0.14901689020E+03  0.00000000000E+00 0.  1.
        -15    1    1    2    0    0 -0.44216508435E+01 -0.23408644892E+02 -0.19391226532E+02  0.30768377391E+02  0.17770000000E+01 0.  1.
         15    1    1    2    0    0  0.72430643391E+01  0.55088364136E+01 -0.62165424117E+01  0.11162991902E+02  0.17770000000E+01 0. -1.
</event>
<event>
 6    1  0.1697564E-002  0.1854064E+03  0.7546771E-02  0.1066165E+00
        -11   -1    0    0    0    0  0.00000000000E+00  0.00000000000E+00  0.18250000000E+03  0.18250000000E+03  0.00000000000E+00 0.  1.
         11   -1    0    0    0    0 -0.00000000000E+00 -0.00000000000E+00 -0.18250000000E+03  0.18250000000E+03  0.00000000000E+00 0. -1.
        -11    1    1    2    0    0 -0.84932269591E+01 -0.38405244238E+00  0.17939226633E+03  0.17959361798E+03  0.00000000000E+00 0.  1.
         11    1    1    2    0    0  0.38850049432E+01  0.53644980469E+01 -0.15668132996E+03  0.15682126853E+03  0.00000000000E+00 0. -1.
        -15    1    1    2    0    0 -0.26236743919E+01 -0.42884156011E+01 -0.19888975877E+02  0.20591339590E+02  0.17770000000E+01 0. -1.
         15    1    1    2    0    0  0.72318964078E+01 -0.69203000351E+00 -0.28219604899E+01  0.79937739014E+01  0.17770000000E+01 0. -1.
</event>
<event>
 6    1  0.1697564E-002  0.1909563E+03  0.7546771E-02  0.1061916E+00
        -11   -1    0    0    0    0  0.00000000000E+00  0.00000000000E+00  0.18250000000E+03  0.18250000000E+03  0.00000000000E+00 0.  1.
         11   -1    0    0    0    0 -0.00000000000E+00 -0.00000000000E+00 -0.18250000000E+03  0.18250000000E+03  0.00000000000E+00 0. -1.
        -11    1    1    2    0    0 -0.15950259186E+01  0.92072998346E+00  0.10591775577E+03  0.10593376628E+03  0.00000000000E+00 0.  1.
         11    1    1    2    0    0 -0.21605968238E+01  0.13479035489E+01 -0.17402509041E+03  0.17404372185E+03  0.00000000000E+00 0. -1.
        -15    1    1    2    0    0  0.21094871429E+01  0.45206458774E+00 -0.81820182233E+01  0.86462390439E+01  0.17770000000E+01 0.  1.
         15    1    1    2    0    0  0.16461355995E+01 -0.27206981201E+01  0.76289352866E+02  0.76376272823E+02  0.17770000000E+01 0. -1.
</event>
<event>
 6    1  0.1697564E-002  0.1836087E+03  0.7546771E-02  0.1067576E+00
        -11   -1    0    0    0    0  0.00000000000E+00  0.00000000000E+00  0.18250000000E+03  0.18250000000E+03  0.00000000000E+00 0. -1.
         11   -1    0    0    0    0 -0.00000000000E+00 -0.00000000000E+00 -0.18250000000E+03  0.18250000000E+03  0.00000000000E+00 0. -1.
        -11    1    1    2    0    0  0.70979817986E+01  0.12205996164E+01  0.18124828332E+03  0.18139132123E+03  0.00000000000E+00 0. -1.
         11    1    1    2    0    0 -0.45063643774E+01 -0.38702786102E+00 -0.16703566289E+03  0.16709688743E+03  0.00000000000E+00 0. -1.
        -15    1    1    2    0    0 -0.41658763241E+00  0.33306210380E+00 -0.13165032290E+02  0.13295122407E+02  0.17770000000E+01 0.  1.
         15    1    1    2    0    0 -0.21750297888E+01 -0.11666338591E+01 -0.10475881449E+01  0.32166689392E+01  0.17770000000E+01 0. -1.
</event>
<event>
 6    1  0.1697564E-002  0.1846137E+03  0.7546771E-02  0.1066785E+00
        -11   -1    0    0    0    0  0.00000000000E+00  0.00000000000E+00  0.18250000000E+03  0.18250000000E+03  0.00000000000E+00 0. -1.
         11   -1    0    0    0    0 -0.00000000000E+00 -0.00000000000E+00 -0.18250000000E+03  0.18250000000E+03  0.00000000000E+00 0. -1.
        -11    1    1    2    0    0 -0.25939196295E+01  0.37896740086E+00  0.18036726722E+03  0.18038631633E+03  0.00000000000E+00 0. -1.
         11    1    1    2    0    0 -0.28222616747E+01 -0.50936539328E+00 -0.17143372972E+03  0.17145771578E+03  0.00000000000E+00 0. -1.
        -15    1    1    2    0    0  0.85475234033E+00 -0.16009458198E+01 -0.72740458353E+01  0.77047453492E+01  0.17770000000E+01 0. -1.
         15    1    1    2    0    0  0.45614289639E+01  0.17313438122E+01 -0.16594916644E+01  0.54512225393E+01  0.17770000000E+01 0.  1.
</event>
<event>
 6    1  0.1697564E-002  0.1866220E+03  0.7546771E-02  0.1065220E+00
        -11   -1    0    0    0    0  0.00000000000E+00  0.00000000000E+00  0.18250000000E+03  0.18250000000E+03  0.00000000000E+00 0. -1.
         11   -1    0    0    0    0 -0.00000000000E+00 -0.00000000000E+00 -0.18250000000E+03  0.18250000000E+03  0.00000000000E+00 0.  1.
        -11    1    1    2    0    0  0.27770377305E+01 -0.39138724595E-01  0.17835640466E+03  0.17837802710E+03  0.00000000000E+00 0. -1.
         11    1    1    2    0    0  0.42488885240E+00  0.27258366804E+01 -0.17360075111E+03  0.17362266990E+03  0.00000000000E+00 0.  1.
        -15    1    1    2    0    0  0.10986524165E+01 -0.29515166416E+01 -0.69601535783E+01  0.78434657168E+01  0.17770000000E+01 0. -1.
         15    1    1    2    0    0 -0.43005789993E+01  0.26481868573E+00  0.22045000345E+01  0.51558372810E+01  0.17770000000E+01 0.  1.
</event>
<event>
 6    1  0.1697564E-002  0.1859585E+03  0.7546771E-02  0.1065735E+00
        -11   -1    0    0    0    0  0.00000000000E+00  0.00000000000E+00  0.18250000000E+03  0.18250000000E+03  0.00000000000E+00 0.  1.
         11   -1    0    0    0    0 -0.00000000000E+00 -0.00000000000E+00 -0.18250000000E+03  0.18250000000E+03  0.00000000000E+00 0. -1.
        -11    1    1    2    0    0 -0.20211419282E+00 -0.23039626472E+01  0.16426787931E+03  0.16428416012E+03  0.00000000000E+00 0.  1.
         11    1    1    2    0    0  0.61840567299E+00 -0.32416177973E+01 -0.17901108672E+03  0.17904150267E+03  0.00000000000E+00 0. -1.
        -15    1    1    2    0    0 -0.20891256179E+01 -0.14147302420E+01 -0.17920514194E+01  0.35686250566E+01  0.17770000000E+01 0. -1.
         15    1    1    2    0    0  0.16728341377E+01  0.69603106865E+01  0.16535258831E+02  0.18105712151E+02  0.17770000000E+01 0.  1.
</event>
<event>
 6    1  0.1697564E-002  0.1834015E+03  0.7546771E-02  0.1067740E+00
        -11   -1    0    0    0    0  0.00000000000E+00  0.00000000000E+00  0.18250000000E+03  0.18250000000E+03  0.00000000000E+00 0.  1.
         11   -1    0    0    0    0 -0.00000000000E+00 -0.00000000000E+00 -0.18250000000E+03  0.18250000000E+03  0.00000000000E+00 0.  1.
        -11    1    1    2    0    0 -0.11524012647E+01  0.42172661918E+01  0.18154591087E+03  0.18159854382E+03  0.00000000000E+00 0.  1.
         11    1    1    2    0    0 -0.14381823412E+01 -0.22813321513E+01 -0.15990203406E+03  0.15992477401E+03  0.00000000000E+00 0.  1.
        -15    1    1    2    0    0  0.40352776211E+01  0.16906151463E+01 -0.97574549986E+01  0.10840078510E+02  0.17770000000E+01 0.  1.
         15    1    1    2    0    0 -0.14446940151E+01 -0.36265491868E+01 -0.11886421806E+02  0.12636603664E+02  0.17770000000E+01 0. -1.
</event>
<event>
 6    1  0.1697564E-002  0.1752333E+03  0.7546771E-02  0.1074391E+00
        -11   -1    0    0    0    0  0.00000000000E+00  0.00000000000E+00  0.18250000000E+03  0.18250000000E+03  0.00000000000E+00 0. -1.
         11   -1    0    0    0    0 -0.00000000000E+00 -0.00000000000E+00 -0.18250000000E+03  0.18250000000E+03  0.00000000000E+00 0.  1.
        -11    1    1    2    0    0  0.92929664889E+00 -0.27296339187E+01  0.17653764052E+03  0.17656118774E+03  0.00000000000E+00 0. -1.
         11    1    1    2    0    0 -0.41931408403E+01 -0.39868923238E+01 -0.17389870406E+03  0.17399493388E+03  0.00000000000E+00 0.  1.
        -15    1    1    2    0    0  0.19916768811E+01  0.51406434148E+01 -0.71424312183E+01  0.91959254142E+01  0.17770000000E+01 0. -1.
         15    1    1    2    0    0  0.12721673103E+01  0.15758828277E+01  0.45034947564E+01  0.52479529698E+01  0.17770000000E+01 0. -1.
</event>
<event>
 6    1  0.1697564E-002  0.1829362E+03  0.7546771E-02  0.1068108E+00
        -11   -1    0    0    0    0  0.00000000000E+00  0.00000000000E+00  0.18250000000E+03  0.18250000000E+03  0.00000000000E+00 0. -1.
         11   -1    0    0    0    0 -0.00000000000E+00 -0.00000000000E+00 -0.18250000000E+03  0.18250000000E+03  0.00000000000E+00 0.  1.
        -11    1    1    2    0    0 -0.75063119585E+01 -0.16988529027E+01  0.18190109810E+03  0.18206383581E+03  0.00000000000E+00 0. -1.
         11    1    1    2    0    0 -0.45276268968E+00  0.18535753101E+01 -0.10613969065E+03  0.10615683995E+03  0.00000000000E+00 0.  1.
        -15    1    1    2    0    0 -0.17241302712E+01 -0.75601465577E+00 -0.16955651065E+02  0.17152143172E+02  0.17770000000E+01 0.  1.
         15    1    1    2    0    0  0.96832049194E+01  0.60129224834E+00 -0.58805756380E+02  0.59627181070E+02  0.17770000000E+01 0.  1.
</event>
<event>
 6    1  0.1697564E-002  0.1680823E+03  0.7546771E-02  0.1080548E+00
        -11   -1    0    0    0    0  0.00000000000E+00  0.00000000000E+00  0.18250000000E+03  0.18250000000E+03  0.00000000000E+00 0.  1.
         11   -1    0    0    0    0 -0.00000000000E+00 -0.00000000000E+00 -0.18250000000E+03  0.18250000000E+03  0.00000000000E+00 0. -1.
        -11    1    1    2    0    0  0.79706674603E+01 -0.23021544033E+01  0.16551859516E+03  0.16572639138E+03  0.00000000000E+00 0.  1.
         11    1    1    2    0    0 -0.15062888875E+02 -0.21137401000E+02 -0.16937380641E+03  0.17135100420E+03  0.00000000000E+00 0. -1.
        -15    1    1    2    0    0  0.62134828252E+01  0.72896101138E+01  0.61048875617E+01  0.11496658887E+02  0.17770000000E+01 0.  1.
         15    1    1    2    0    0  0.87873858939E+00  0.16149945289E+02 -0.22496763135E+01  0.16425945539E+02  0.17770000000E+01 0. -1.
</event>
<event>
 6    1  0.1697564E-002  0.1752564E+03  0.7546771E-02  0.1074371E+00
        -11   -1    0    0    0    0  0.00000000000E+00  0.00000000000E+00  0.18250000000E+03  0.18250000000E+03  0.00000000000E+00 0. -1.
         11   -1    0    0    0    0 -0.00000000000E+00 -0.00000000000E+00 -0.18250000000E+03  0.18250000000E+03  0.00000000000E+00 0.  1.
        -11    1    1    2    0    0  0.63422436790E+01 -0.16214532788E+00  0.17638317432E+03  0.17649723661E+03  0.00000000000E+00 0. -1.
         11    1    1    2    0    0 -0.32335989306E+01 -0.48721130577E+01 -0.17397560476E+03  0.17407384841E+03  0.00000000000E+00 0.  1.
        -15    1    1    2    0    0 -0.16446369754E+01  0.40134204849E+00  0.48971342219E+01  0.54777329990E+01  0.17770000000E+01 0. -1.
         15    1    1    2    0    0 -0.14640077729E+01  0.46329163371E+01 -0.73047037806E+01  0.89511819816E+01  0.17770000000E+01 0.  1.
</event>
<event>
 6    1  0.1697564E-002  0.2121451E+03  0.7546771E-02  0.1047036E+00
        -11   -1    0    0    0    0  0.00000000000E+00  0.00000000000E+00  0.18250000000E+03  0.18250000000E+03  0.00000000000E+00 0.  1.
         11   -1    0    0    0    0 -0.00000000000E+00 -0.00000000000E+00 -0.18250000000E+03  0.18250000000E+03  0.00000000000E+00 0. -1.
        -11    1    1    2    0    0 -0.53774866129E+01  0.12347773916E+01  0.15275533513E+03  0.15285494578E+03  0.00000000000E+00 0.  1.
         11    1    1    2    0    0 -0.11350774997E+01 -0.34959487204E+01 -0.11072399120E+03  0.11078498222E+03  0.00000000000E+00 0. -1.
        -15    1    1    2    0    0  0.33808295065E+02 -0.85158233571E+01  0.14373611794E+02  0.37752860920E+02  0.17770000000E+01 0.  1.
         15    1    1    2    0    0 -0.27295730952E+02  0.10776994686E+02 -0.56404955726E+02  0.63607211086E+02  0.17770000000E+01 0. -1.
</event>
<event>
 6    1  0.1697564E-002  0.1872608E+03  0.7546771E-02  0.1064727E+00
        -11   -1    0    0    0    0  0.00000000000E+00  0.00000000000E+00  0.18250000000E+03  0.18250000000E+03  0.00000000000E+00 0.  1.
         11   -1    0    0    0    0 -0.00000000000E+00 -0.00000000000E+00 -0.18250000000E+03  0.18250000000E+03  0.00000000000E+00 0. -1.
        -11    1    1    2    0    0 -0.17951809738E+01 -0.12629661706E+01  0.11508406180E+03  0.11510499138E+03  0.00000000000E+00 0.  1.
         11    1    1    2    0    0  0.37103423547E+00  0.29786214140E+01 -0.17771389429E+03  0.17773924180E+03  0.00000000000E+00 0. -1.
        -15    1    1    2    0    0 -0.36235996692E+01  0.51596206838E+01 -0.20716366252E+01  0.68703396910E+01  0.17770000000E+01 0. -1.
         15    1    1    2    0    0  0.50477464075E+01 -0.68752759272E+01  0.64701469106E+02  0.65285427137E+02  0.17770000000E+01 0.  1.
</event>
<event>
 6    1  0.1697564E-002  0.1828496E+03  0.7546771E-02  0.1068177E+00
        -11   -1    0    0    0    0  0.00000000000E+00  0.00000000000E+00  0.18250000000E+03  0.18250000000E+03  0.00000000000E+00 0.  1.
         11   -1    0    0    0    0 -0.00000000000E+00 -0.00000000000E+00 -0.18250000000E+03  0.18250000000E+03  0.00000000000E+00 0. -1.
        -11    1    1    2    0    0  0.21032398803E+01 -0.35683081028E+01  0.12861397616E+03  0.12868065629E+03  0.00000000000E+00 0.  1.
         11    1    1    2    0    0 -0.17590837625E+01  0.20519447981E+01 -0.18213037799E+03  0.18215043080E+03  0.00000000000E+00 0. -1.
        -15    1    1    2    0    0  0.11720308639E+01 -0.20929051337E+01  0.36348653334E+02  0.36471032840E+02  0.17770000000E+01 0.  1.
         15    1    1    2    0    0 -0.15161869817E+01  0.36092684384E+01  0.17167748495E+02  0.17697880071E+02  0.17770000000E+01 0. -1.
</event>
<event>
 6    1  0.1697564E-002  0.1750130E+03  0.7546771E-02  0.1074576E+00
        -11   -1    0    0    0    0  0.00000000000E+00  0.00000000000E+00  0.18250000000E+03  0.18250000000E+03  0.00000000000E+00 0. -1.
         11   -1    0    0    0    0 -0.00000000000E+00 -0.00000000000E+00 -0.18250000000E+03  0.18250000000E+03  0.00000000000E+00 0. -1.
        -11    1    1    2    0    0 -0.19868816249E+01  0.28906038280E+01  0.17632365214E+03  0.17635853706E+03  0.00000000000E+00 0. -1.
         11    1    1    2    0    0  0.42917805753E+00  0.11392342529E+01 -0.25342807133E+02  0.25372030306E+02  0.00000000000E+00 0. -1.
        -15    1    1    2    0    0 -0.10771806336E+02 -0.30654714716E+02 -0.85946466701E+02  0.91900469060E+02  0.17770000000E+01 0.  1.
         15    1    1    2    0    0  0.12329509903E+02  0.26624876635E+02 -0.65034378310E+02  0.71368963573E+02  0.17770000000E+01 0. -1.
</event>
<event>
 6    1  0.1697564E-002  0.1842692E+03  0.7546771E-02  0.1067055E+00
        -11   -1    0    0    0    0  0.00000000000E+00  0.00000000000E+00  0.18250000000E+03  0.18250000000E+03  0.00000000000E+00 0.  1.
         11   -1    0    0    0    0 -0.00000000000E+00 -0.00000000000E+00 -0.18250000000E+03  0.18250000000E+03  0.00000000000E+00 0.  1.
        -11    1    1    2    0    0 -0.47058120838E+00 -0.52696264023E+01  0.18065333193E+03  0.18073078528E+03  0.00000000000E+00 0.  1.
         11    1    1    2    0    0  0.64623031832E+01  0.36422433142E+00 -0.16875259035E+03  0.16887667326E+03  0.00000000000E+00 0.  1.
        -15    1    1    2    0    0 -0.29044971638E+01  0.20753055434E+01 -0.93776034773E+01  0.10190199844E+02  0.17770000000E+01 0. -1.
         15    1    1    2    0    0 -0.30872248110E+01  0.28300965275E+01 -0.25231381021E+01  0.52023416142E+01  0.17770000000E+01 0.  1.
</event>
<event>
 6    1  0.1697564E-002  0.1829643E+03  0.7546771E-02  0.1068086E+00
        -11   -1    0    0    0    0  0.00000000000E+00  0.00000000000E+00  0.18250000000E+03  0.18250000000E+03  0.00000000000E+00 0. -1.
         11   -1    0    0    0    0 -0.00000000000E+00 -0.00000000000E+00 -0.18250000000E+03  0.18250000000E+03  0.00000000000E+00 0. -1.
        -11    1    1    2    0    0  0.18830233713E+01  0.13913082640E+01  0.26812024041E+02  0.26914051142E+02  0.00000000000E+00 0. -1.
         11    1    1    2    0    0  0.71036762531E+01 -0.63304892710E+01 -0.18178686201E+03  0.18203571219E+03  0.00000000000E+00 0. -1.
        -15    1    1    2    0    0 -0.84426288495E+00  0.32184025647E+01  0.11984583884E+03  0.11990518634E+03  0.17770000000E+01 0. -1.
         15    1    1    2    0    0 -0.81424367395E+01  0.17207784422E+01  0.35128999130E+02  0.36145050330E+02  0.17770000000E+01 0.  1.
</event>
<event>
 6    1  0.1697564E-002  0.1910178E+03  0.7546771E-02  0.1061870E+00
        -11   -1    0    0    0    0  0.00000000000E+00  0.00000000000E+00  0.18250000000E+03  0.18250000000E+03  0.00000000000E+00 0.  1.
         11   -1    0    0    0    0 -0.00000000000E+00 -0.00000000000E+00 -0.18250000000E+03  0.18250000000E+03  0.00000000000E+00 0.  1.
        -11    1    1    2    0    0  0.32891685824E+01  0.65971310241E+01  0.14945090176E+03  0.14963259273E+03  0.00000000000E+00 0.  1.
         11    1    1    2    0    0 -0.70125188458E+01  0.25050570236E+01 -0.17382277176E+03  0.17398220229E+03  0.00000000000E+00 0.  1.
        -15    1    1    2    0    0  0.44054964590E+01  0.30757673827E+01 -0.62166155302E+01  0.84067105156E+01  0.17770000000E+01 0. -1.
         15    1    1    2    0    0 -0.68214619558E+00 -0.12177955430E+02  0.30588485524E+02  0.32978494471E+02  0.17770000000E+01 0.  1.
</event>
<event>
 6    1  0.1697564E-002  0.1892961E+03  0.7546771E-02  0.1063170E+00
        -11   -1    0    0    0    0  0.00000000000E+00  0.00000000000E+00  0.18250000000E+03  0.18250000000E+03  0.00000000000E+00 0.  1.
         11   -1    0    0    0    0 -0.00000000000E+00 -0.00000000000E+00 -0.18250000000E+03  0.18250000000E+03  0.00000000000E+00 0.  1.
        -11    1    1    2    0    0 -0.28148919164E+00 -0.61239858107E+01  0.17559689086E+03  0.17570387166E+03  0.00000000000E+00 0.  1.
         11    1    1    2    0    0  0.84081946015E+00 -0.51657463864E+01 -0.10706184003E+03  0.10718968935E+03  0.00000000000E+00 0.  1.
        -15    1    1    2    0    0 -0.38097294973E+01 -0.16531102284E+01 -0.68495051746E+02  0.68643839162E+02  0.17770000000E+01 0.  1.
         15    1    1    2    0    0  0.32503992287E+01  0.12942842426E+02 -0.39999084469E-01  0.13462599828E+02  0.17770000000E+01 0. -1.
</event>
<event>
 6    1  0.1697564E-002  0.1839005E+03  0.7546771E-02  0.1067345E+00
        -11   -1    0    0    0    0  0.00000000000E+00  0.00000000000E+00  0.18250000000E+03  0.18250000000E+03  0.00000000000E+00 0. -1.
         11   -1    0    0    0    0 -0.00000000000E+00 -0.00000000000E+00 -0.18250000000E+03  0.18250000000E+03  0.00000000000E+00 0. -1.
        -11    1    1    2    0    0  0.11104367965E+01 -0.53396523030E+00  0.71161221348E+02  0.71171887796E+02  0.00000000000E+00 0. -1.
         11    1    1    2    0    0  0.28797041409E+01 -0.22409585331E+01 -0.18106276578E+03  0.18109952993E+03  0.00000000000E+00 0. -1.
        -15    1    1    2    0    0  0.15492095478E+00  0.60081811398E+00 -0.70416607746E+00  0.20096173200E+01  0.17770000000E+01 0.  1.
         15    1    1    2    0    0 -0.41450618921E+01  0.21741056494E+01  0.11060571051E+03  0.11071896495E+03  0.17770000000E+01 0. -1.
</event>
<event>
 6    1  0.1697564E-002  0.1273012E+03  0.7546771E-02  0.1123535E+00
        -11   -1    0    0    0    0  0.00000000000E+00  0.00000000000E+00  0.18250000000E+03  0.18250000000E+03  0.00000000000E+00 0.  1.
         11   -1    0    0    0    0 -0.00000000000E+00 -0.00000000000E+00 -0.18250000000E+03  0.18250000000E+03  0.00000000000E+00 0.  1.
        -11    1    1    2    0    0 -0.40415362133E+01  0.62362716091E+02  0.13029557496E+03  0.14450736738E+03  0.00000000000E+00 0.  1.
         11    1    1    2    0    0  0.24566305122E+01  0.35224646364E+01 -0.11866570380E+03  0.11874338739E+03  0.00000000000E+00 0.  1.
        -15    1    1    2    0    0  0.24588738916E+02 -0.24506204679E+02 -0.34645585431E+02  0.49077840907E+02  0.17770000000E+01 0.  1.
         15    1    1    2    0    0 -0.23003833215E+02 -0.41378976049E+02  0.23015714271E+02  0.52671404328E+02  0.17770000000E+01 0.  1.
</event>
<event>
 6    1  0.1697564E-002  0.1867352E+03  0.7546771E-02  0.1065133E+00
        -11   -1    0    0    0    0  0.00000000000E+00  0.00000000000E+00  0.18250000000E+03  0.18250000000E+03  0.00000000000E+00 0.  1.
         11   -1    0    0    0    0 -0.00000000000E+00 -0.00000000000E+00 -0.18250000000E+03  0.18250000000E+03  0.00000000000E+00 0.  1.
        -11    1    1    2    0    0 -0.34043399637E+00  0.27268950528E+01  0.17824357763E+03  0.17826476045E+03  0.00000000000E+00 0.  1.
         11    1    1    2    0    0  0.35136713249E+01 -0.14851313499E+01 -0.16787772253E+03  0.16792105652E+03  0.00000000000E+00 0.  1.
        -15    1    1    2    0    0  0.53613527203E+01 -0.26223588891E+01 -0.69971626885E+01  0.93669036412E+01  0.17770000000E+01 0. -1.
         15    1    1    2    0    0 -0.85345900488E+01  0.13805951863E+01 -0.33686924103E+01  0.94472793928E+01  0.17770000000E+01 0.  1.
</event>
<event>
 6    1  0.1697564E-002  0.1826192E+03  0.7546771E-02  0.1068360E+00
        -11   -1    0    0    0    0  0.00000000000E+00  0.00000000000E+00  0.18250000000E+03  0.18250000000E+03  0.00000000000E+00 0. -1.
         11   -1    0    0    0    0 -0.00000000000E+00 -0.00000000000E+00 -0.18250000000E+03  0.18250000000E+03  0.00000000000E+00 0. -1.
        -11    1    1    2    0    0  0.56788024185E+00  0.24853796928E+01  0.82354780478E+02  0.82394232006E+02  0.00000000000E+00 0. -1.
         11    1    1    2    0    0  0.10914453839E-01 -0.28763795251E+01 -0.18235811443E+03  0.18238079827E+03  0.00000000000E+00 0. -1.
        -15    1    1    2    0    0 -0.46647067304E+00 -0.61239666915E+00  0.89698957789E+02  0.89719860577E+02  0.17770000000E+01 0. -1.
         15    1    1    2    0    0 -0.11232402264E+00  0.10033965014E+01  0.10304376161E+02  0.10505109152E+02  0.17770000000E+01 0.  1.
</event>
<event>
 6    1  0.1697564E-002  0.1826869E+03  0.7546771E-02  0.1068306E+00
        -11   -1    0    0    0    0  0.00000000000E+00  0.00000000000E+00  0.18250000000E+03  0.18250000000E+03  0.00000000000E+00 0.  1.
         11   -1    0    0    0    0 -0.00000000000E+00 -0.00000000000E+00 -0.18250000000E+03  0.18250000000E+03  0.00000000000E+00 0. -1.
        -11    1    1    2    0    0 -0.50431059284E+01 -0.36705931206E+01  0.18220636209E+03  0.18231309486E+03  0.00000000000E+00 0.  1.
         11    1    1    2    0    0 -0.12408421278E+01  0.14445217903E+00 -0.63849652349E+02  0.63861871729E+02  0.00000000000E+00 0. -1.
        -15    1    1    2    0    0  0.37088325250E+00 -0.74542421769E+00 -0.53370741308E+02  0.53406806387E+02  0.17770000000E+01 0. -1.
         15    1    1    2    0    0  0.59130648036E+01  0.42715651593E+01 -0.64985968435E+02  0.65418227022E+02  0.17770000000E+01 0. -1.
</event>
<event>
 6    1  0.1697564E-002  0.1885991E+03  0.7546771E-02  0.1063701E+00
        -11   -1    0    0    0    0  0.00000000000E+00  0.00000000000E+00  0.18250000000E+03  0.18250000000E+03  0.00000000000E+00 0.  1.
         11   -1    0    0    0    0 -0.00000000000E+00 -0.00000000000E+00 -0.18250000000E+03  0.18250000000E+03  0.00000000000E+00 0.  1.
        -11    1    1    2    0    0  0.38797305322E+01  0.81862099561E+00  0.17635629884E+03  0.17640086902E+03  0.00000000000E+00 0.  1.
         11    1    1    2    0    0  0.65809922070E+01 -0.23937454299E+01 -0.16569177744E+03  0.16583969545E+03  0.00000000000E+00 0.  1.
        -15    1    1    2    0    0  0.23298125114E+00 -0.10836463736E+01  0.38898928183E+01  0.44178688148E+01  0.17770000000E+01 0.  1.
         15    1    1    2    0    0 -0.10693703990E+02  0.26587708079E+01 -0.14554414221E+02  0.18341566715E+02  0.17770000000E+01 0.  1.
</event>
<event>
 6    1  0.1697564E-002  0.1845663E+03  0.7546771E-02  0.1066822E+00
        -11   -1    0    0    0    0  0.00000000000E+00  0.00000000000E+00  0.18250000000E+03  0.18250000000E+03  0.00000000000E+00 0.  1.
         11   -1    0    0    0    0 -0.00000000000E+00 -0.00000000000E+00 -0.18250000000E+03  0.18250000000E+03  0.00000000000E+00 0. -1.
        -11    1    1    2    0    0 -0.36371416445E+00  0.55271189310E+00  0.24875675479E+02  0.24884473251E+02  0.00000000000E+00 0.  1.
         11    1    1    2    0    0  0.17646067373E+01 -0.55118301856E+01 -0.18034082492E+03  0.18043366439E+03  0.00000000000E+00 0. -1.
        -15    1    1    2    0    0 -0.16163426840E+01 -0.67750506037E+01  0.50164394156E+01  0.87656299126E+01  0.17770000000E+01 0. -1.
         15    1    1    2    0    0  0.21545011120E+00  0.11734168896E+02  0.15044871003E+03  0.15091623245E+03  0.17770000000E+01 0.  1.
</event>
<event>
 6    1  0.1697564E-002  0.1839105E+03  0.7546771E-02  0.1067338E+00
        -11   -1    0    0    0    0  0.00000000000E+00  0.00000000000E+00  0.18250000000E+03  0.18250000000E+03  0.00000000000E+00 0. -1.
         11   -1    0    0    0    0 -0.00000000000E+00 -0.00000000000E+00 -0.18250000000E+03  0.18250000000E+03  0.00000000000E+00 0.  1.
        -11    1    1    2    0    0 -0.58825472914E+00  0.20851118999E+01  0.15933697964E+03  0.15935170791E+03  0.00000000000E+00 0. -1.
         11    1    1    2    0    0  0.62772755875E+01  0.43386361519E-03 -0.18098070493E+03  0.18108953517E+03  0.00000000000E+00 0.  1.
        -15    1    1    2    0    0 -0.30634578764E+01  0.35485555654E+01  0.76863146413E+01  0.91768285658E+01  0.17770000000E+01 0.  1.
         15    1    1    2    0    0 -0.26255629820E+01 -0.56341013289E+01  0.13957410655E+02  0.15381928356E+02  0.17770000000E+01 0. -1.
</event>
<event>
 6    1  0.1697564E-002  0.1755609E+03  0.7546771E-02  0.1074117E+00
        -11   -1    0    0    0    0  0.00000000000E+00  0.00000000000E+00  0.18250000000E+03  0.18250000000E+03  0.00000000000E+00 0. -1.
         11   -1    0    0    0    0 -0.00000000000E+00 -0.00000000000E+00 -0.18250000000E+03  0.18250000000E+03  0.00000000000E+00 0.  1.
        -11    1    1    2    0    0 -0.10356372272E+01 -0.35252489099E+01  0.17582144387E+03  0.17585983069E+03  0.00000000000E+00 0. -1.
         11    1    1    2    0    0  0.10605921273E+01 -0.27223981048E+01 -0.17529352881E+03  0.17531787573E+03  0.00000000000E+00 0.  1.
        -15    1    1    2    0    0 -0.51155445601E+01 -0.15694797890E+00  0.17777933093E+00  0.54205869890E+01  0.17770000000E+01 0. -1.
         15    1    1    2    0    0  0.50905896600E+01  0.64045949936E+01 -0.70569438955E+00  0.84017065940E+01  0.17770000000E+01 0.  1.
</event>
<event>
 6    1  0.1697564E-002  0.1898640E+03  0.7546771E-02  0.1062740E+00
        -11   -1    0    0    0    0  0.00000000000E+00  0.00000000000E+00  0.18250000000E+03  0.18250000000E+03  0.00000000000E+00 0.  1.
         11   -1    0    0    0    0 -0.00000000000E+00 -0.00000000000E+00 -0.18250000000E+03  0.18250000000E+03  0.00000000000E+00 0. -1.
        -11    1    1    2    0    0 -0.63052253565E+00 -0.36562937168E+01  0.16953694655E+03  0.16957754064E+03  0.00000000000E+00 0.  1.
         11    1    1    2    0    0 -0.41242111291E+01 -0.19542144470E+01 -0.17507654714E+03  0.17513601979E+03  0.00000000000E+00 0. -1.
        -15    1    1    2    0    0 -0.26246291991E+00  0.10798813021E+02 -0.11389484100E+00  0.10947782903E+02  0.17770000000E+01 0.  1.
         15    1    1    2    0    0  0.50171965846E+01 -0.51883048574E+01  0.56534954259E+01  0.93386566696E+01  0.17770000000E+01 0. -1.
</event>
<event>
 6    1  0.1697564E-002  0.1855732E+03  0.7546771E-02  0.1066034E+00
        -11   -1    0    0    0    0  0.00000000000E+00  0.00000000000E+00  0.18250000000E+03  0.18250000000E+03  0.00000000000E+00 0. -1.
         11   -1    0    0    0    0 -0.00000000000E+00 -0.00000000000E+00 -0.18250000000E+03  0.18250000000E+03  0.00000000000E+00 0.  1.
        -11    1    1    2    0    0 -0.19716425362E+01  0.14678183086E+01  0.11907440214E+03  0.11909976956E+03  0.00000000000E+00 0. -1.
         11    1    1    2    0    0  0.63509690893E+01 -0.54905123898E+01 -0.17923025366E+03  0.17942676602E+03  0.00000000000E+00 0.  1.
        -15    1    1    2    0    0  0.23194081998E+01 -0.76472279559E+01  0.46517296005E+02  0.47232153311E+02  0.17770000000E+01 0. -1.
         15    1    1    2    0    0 -0.66987347529E+01  0.11669922037E+02  0.13638555519E+02  0.19241311112E+02  0.17770000000E+01 0.  1.
</event>
<event>
 6    1  0.1697564E-002  0.1831679E+03  0.7546771E-02  0.1067924E+00
        -11   -1    0    0    0    0  0.00000000000E+00  0.00000000000E+00  0.18250000000E+03  0.18250000000E+03  0.00000000000E+00 0.  1.
         11   -1    0    0    0    0 -0.00000000000E+00 -0.00000000000E+00 -0.18250000000E+03  0.18250000000E+03  0.00000000000E+00 0. -1.
        -11    1    1    2    0    0 -0.28604569542E+01 -0.65309100477E+00  0.18180840356E+03  0.18183207733E+03  0.00000000000E+00 0.  1.
         11    1    1    2    0    0  0.13092577859E+01 -0.22731799040E+01 -0.79063269195E+02  0.79106776187E+02  0.00000000000E+00 0. -1.
        -15    1    1    2    0    0 -0.21111931034E+00  0.29428679737E+01 -0.39761977995E+01  0.52605057946E+01  0.17770000000E+01 0.  1.
         15    1    1    2    0    0  0.17623184786E+01 -0.16597064941E-01 -0.98768936563E+02  0.98800640689E+02  0.17770000000E+01 0. -1.
</event>
<event>
 6    1  0.1697564E-002  0.1832642E+03  0.7546771E-02  0.1067848E+00
        -11   -1    0    0    0    0  0.00000000000E+00  0.00000000000E+00  0.18250000000E+03  0.18250000000E+03  0.00000000000E+00 0. -1.
         11   -1    0    0    0    0 -0.00000000000E+00 -0.00000000000E+00 -0.18250000000E+03  0.18250000000E+03  0.00000000000E+00 0.  1.
        -11    1    1    2    0    0  0.49689574335E+00 -0.24133829194E+01  0.18171911523E+03  0.18173581970E+03  0.00000000000E+00 0. -1.
         11    1    1    2    0    0 -0.11538924376E+01 -0.26316313323E-01 -0.41875910215E+02  0.41891813241E+02  0.00000000000E+00 0.  1.
        -15    1    1    2    0    0  0.13240926495E+01  0.68411353882E+00 -0.13838415230E+03  0.13840358583E+03  0.17770000000E+01 0.  1.
         15    1    1    2    0    0 -0.66709595530E+00  0.17555856939E+01 -0.14590527180E+01  0.29687812274E+01  0.17770000000E+01 0. -1.
</event>
<event>
 6    1  0.1697564E-002  0.1828995E+03  0.7546771E-02  0.1068137E+00
        -11   -1    0    0    0    0  0.00000000000E+00  0.00000000000E+00  0.18250000000E+03  0.18250000000E+03  0.00000000000E+00 0. -1.
         11   -1    0    0    0    0 -0.00000000000E+00 -0.00000000000E+00 -0.18250000000E+03  0.18250000000E+03  0.00000000000E+00 0.  1.
        -11    1    1    2    0    0 -0.16236336256E+01  0.75071082610E+00  0.11259252499E+03  0.11260673353E+03  0.00000000000E+00 0. -1.
         11    1    1    2    0    0  0.14791583179E+01  0.29607897511E+01 -0.18207043537E+03  0.18210051516E+03  0.00000000000E+00 0.  1.
        -15    1    1    2    0    0  0.19360671201E+01 -0.86420444224E+00  0.60220959643E+02  0.60284466611E+02  0.17770000000E+01 0. -1.
         15    1    1    2    0    0 -0.17915918125E+01 -0.28472961350E+01  0.92569507440E+01  0.10008284697E+02  0.17770000000E+01 0. -1.
</event>
<event>
 6    1  0.2213973E-002  0.1951973E+03  0.7546771E-02  0.1058774E+00
        -11   -1    0    0    0    0  0.00000000000E+00  0.00000000000E+00  0.18250000000E+03  0.18250000000E+03  0.00000000000E+00 0.  1.
         11   -1    0    0    0    0 -0.00000000000E+00 -0.00000000000E+00 -0.18250000000E+03  0.18250000000E+03  0.00000000000E+00 0. -1.
        -11    1    1    2    0    0 -0.72658323520E+01  0.13781124974E+02  0.16908647878E+03  0.16980267675E+03  0.00000000000E+00 0.  1.
         11    1    1    2    0    0 -0.22063883677E+01  0.15530244264E+01 -0.94515101644E+02  0.94553606348E+02  0.00000000000E+00 0. -1.
        -15    1    1    2    0    0  0.73739535931E+01 -0.15652291176E+02  0.72006246774E+01  0.18824880754E+02  0.17770000000E+01 0.  1.
         15    1    1    2    0    0  0.20982671266E+01  0.31814177515E+00 -0.81772001813E+02  0.81818836148E+02  0.17770000000E+01 0. -1.
</event>
<event>
 6    1  0.1697564E-002  0.1832279E+03  0.7546771E-02  0.1067877E+00
        -11   -1    0    0    0    0  0.00000000000E+00  0.00000000000E+00  0.18250000000E+03  0.18250000000E+03  0.00000000000E+00 0. -1.
         11   -1    0    0    0    0 -0.00000000000E+00 -0.00000000000E+00 -0.18250000000E+03  0.18250000000E+03  0.00000000000E+00 0.  1.
        -11    1    1    2    0    0 -0.26437705830E+00  0.11612567281E+01  0.40328865769E+02  0.40346447509E+02  0.00000000000E+00 0. -1.
         11    1    1    2    0    0 -0.39688369176E+00 -0.47865756934E+01 -0.18170867363E+03  0.18177214004E+03  0.00000000000E+00 0.  1.
        -15    1    1    2    0    0  0.23662890487E+01  0.28986036997E+01  0.50683433032E+01  0.65457665792E+01  0.17770000000E+01 0.  1.
         15    1    1    2    0    0 -0.17050282987E+01  0.72671526555E+00  0.13631146456E+03  0.13633564587E+03  0.17770000000E+01 0. -1.
</event>
<event>
 6    1  0.1697564E-002  0.1828003E+03  0.7546771E-02  0.1068216E+00
        -11   -1    0    0    0    0  0.00000000000E+00  0.00000000000E+00  0.18250000000E+03  0.18250000000E+03  0.00000000000E+00 0. -1.
         11   -1    0    0    0    0 -0.00000000000E+00 -0.00000000000E+00 -0.18250000000E+03  0.18250000000E+03  0.00000000000E+00 0. -1.
        -11    1    1    2    0    0  0.43679247133E+01 -0.46280904012E+01  0.18208851136E+03  0.18219968155E+03  0.00000000000E+00 0. -1.
         11    1    1    2    0    0  0.19943092801E+01  0.45929262932E+01 -0.98199170881E+02  0.98326748157E+02  0.00000000000E+00 0. -1.
        -15    1    1    2    0    0 -0.22228007014E+01 -0.43858772442E+00 -0.90442845184E+01  0.94915759281E+01  0.17770000000E+01 0.  1.
         15    1    1    2    0    0 -0.41394332920E+01  0.47375183248E+00 -0.74845055959E+02  0.74981994368E+02  0.17770000000E+01 0.  1.
</event>
<event>
 6    1  0.1697564E-002  0.1826738E+03  0.7546771E-02  0.1068317E+00
        -11   -1    0    0    0    0  0.00000000000E+00  0.00000000000E+00  0.18250000000E+03  0.18250000000E+03  0.00000000000E+00 0. -1.
         11   -1    0    0    0    0 -0.00000000000E+00 -0.00000000000E+00 -0.18250000000E+03  0.18250000000E+03  0.00000000000E+00 0.  1.
        -11    1    1    2    0    0 -0.29569834962E+01 -0.20056139034E+01  0.18229114438E+03  0.18232615708E+03  0.00000000000E+00 0. -1.
         11    1    1    2    0    0  0.61419037351E+00  0.17279441145E+00 -0.46751965417E+02  0.46756318911E+02  0.00000000000E+00 0.  1.
        -15    1    1    2    0    0  0.39212923316E+01  0.73644520467E+00 -0.12433354580E+03  0.12441023762E+03  0.17770000000E+01 0.  1.
         15    1    1    2    0    0 -0.15784992089E+01  0.10963742873E+01 -0.11205633166E+02  0.11507286387E+02  0.17770000000E+01 0. -1.
</event>
<event>
 6    1  0.1697564E-002  0.1892744E+03  0.7546771E-02  0.1063187E+00
        -11   -1    0    0    0    0  0.00000000000E+00  0.00000000000E+00  0.18250000000E+03  0.18250000000E+03  0.00000000000E+00 0.  1.
         11   -1    0    0    0    0 -0.00000000000E+00 -0.00000000000E+00 -0.18250000000E+03  0.18250000000E+03  0.00000000000E+00 0.  1.
        -11    1    1    2    0    0 -0.21240136259E+01  0.65816100088E+01  0.15313309617E+03  0.15328918476E+03  0.00000000000E+00 0.  1.
         11    1    1    2    0    0 -0.23347682255E+00  0.10071632819E+02 -0.17543662594E+03  0.17572564417E+03  0.00000000000E+00 0.  1.
        -15    1    1    2    0    0 -0.60016795735E+01  0.26431905241E+01  0.79730802766E+01  0.10475416552E+02  0.17770000000E+01 0.  1.
         15    1    1    2    0    0  0.83591700220E+01 -0.19296433352E+02  0.14330449494E+02  0.25509754512E+02  0.17770000000E+01 0. -1.
</event>
<event>
 6    1  0.1697564E-002  0.1874153E+03  0.7546771E-02  0.1064608E+00
        -11   -1    0    0    0    0  0.00000000000E+00  0.00000000000E+00  0.18250000000E+03  0.18250000000E+03  0.00000000000E+00 0. -1.
         11   -1    0    0    0    0 -0.00000000000E+00 -0.00000000000E+00 -0.18250000000E+03  0.18250000000E+03  0.00000000000E+00 0.  1.
        -11    1    1    2    0    0  0.25096564638E+01 -0.21118942785E+01  0.17081969317E+03  0.17085118100E+03  0.00000000000E+00 0. -1.
         11    1    1    2    0    0  0.17456346473E+01 -0.33143225399E+01 -0.17754519786E+03  0.17758471009E+03  0.00000000000E+00 0.  1.
        -15    1    1    2    0    0  0.10889735244E+01 -0.13090350800E+01 -0.27201273018E+01  0.36682772135E+01  0.17770000000E+01 0.  1.
         15    1    1    2    0    0 -0.53442646355E+01  0.67352518983E+01  0.94456319867E+01  0.12895831701E+02  0.17770000000E+01 0. -1.
</event>
<event>
 6    1  0.1697564E-002  0.1837863E+03  0.7546771E-02  0.1067436E+00
        -11   -1    0    0    0    0  0.00000000000E+00  0.00000000000E+00  0.18250000000E+03  0.18250000000E+03  0.00000000000E+00 0.  1.
         11   -1    0    0    0    0 -0.00000000000E+00 -0.00000000000E+00 -0.18250000000E+03  0.18250000000E+03  0.00000000000E+00 0.  1.
        -11    1    1    2    0    0 -0.25123699111E+01  0.18735412891E+01  0.16973111556E+03  0.16976004756E+03  0.00000000000E+00 0.  1.
         11    1    1    2    0    0  0.40068025593E+00 -0.45807979852E+01 -0.18115535222E+03  0.18121370228E+03  0.00000000000E+00 0.  1.
        -15    1    1    2    0    0  0.27592976456E+01  0.91045792641E+00  0.10826893734E+02  0.11349978593E+02  0.17770000000E+01 0.  1.
         15    1    1    2    0    0 -0.64760799035E+00  0.17967987698E+01  0.59734292757E+00  0.26762715672E+01  0.17770000000E+01 0. -1.
</event>
<event>
 6    1  0.1697564E-002  0.1603814E+03  0.7546771E-02  0.1087566E+00
        -11   -1    0    0    0    0  0.00000000000E+00  0.00000000000E+00  0.18250000000E+03  0.18250000000E+03  0.00000000000E+00 0. -1.
         11   -1    0    0    0    0 -0.00000000000E+00 -0.00000000000E+00 -0.18250000000E+03  0.18250000000E+03  0.00000000000E+00 0.  1.
        -11    1    1    2    0    0  0.20554040927E+02 -0.36545004482E+01  0.16151760628E+03  0.16286117128E+03  0.00000000000E+00 0. -1.
         11    1    1    2    0    0  0.74883004025E+01  0.20395268452E+02 -0.15809213875E+03  0.15957808732E+03  0.00000000000E+00 0.  1.
        -15    1    1    2    0    0 -0.30083770889E+02 -0.21425844135E+02 -0.35681787960E+01  0.37148212564E+02  0.17770000000E+01 0. -1.
         15    1    1    2    0    0  0.20414295590E+01  0.46850761311E+01  0.14271126510E+00  0.54125288455E+01  0.17770000000E+01 0.  1.
</event>
<event>
 6    1  0.1697564E-002  0.1832519E+03  0.7546771E-02  0.1067858E+00
        -11   -1    0    0    0    0  0.00000000000E+00  0.00000000000E+00  0.18250000000E+03  0.18250000000E+03  0.00000000000E+00 0.  1.
         11   -1    0    0    0    0 -0.00000000000E+00 -0.00000000000E+00 -0.18250000000E+03  0.18250000000E+03  0.00000000000E+00 0. -1.
        -11    1    1    2    0    0  0.67699822230E+01  0.15804190616E+01  0.18161512467E+03  0.18174813312E+03  0.00000000000E+00 0.  1.
         11    1    1    2    0    0  0.39095195669E+01 -0.13781536998E+01 -0.35667199793E+02  0.35907280487E+02  0.00000000000E+00 0. -1.
        -15    1    1    2    0    0 -0.30702631432E+01 -0.41144037150E+01 -0.12734584845E+02  0.13844934593E+02  0.17770000000E+01 0.  1.
         15    1    1    2    0    0 -0.76092386466E+01  0.39121383533E+01 -0.13321334003E+03  0.13349965180E+03  0.17770000000E+01 0. -1.
</event>
<event>
 6    1  0.1697564E-002  0.1829175E+03  0.7546771E-02  0.1068123E+00
        -11   -1    0    0    0    0  0.00000000000E+00  0.00000000000E+00  0.18250000000E+03  0.18250000000E+03  0.00000000000E+00 0.  1.
         11   -1    0    0    0    0 -0.00000000000E+00 -0.00000000000E+00 -0.18250000000E+03  0.18250000000E+03  0.00000000000E+00 0. -1.
        -11    1    1    2    0    0 -0.32149069521E+01 -0.12527550903E+01  0.18204981740E+03  0.18208251162E+03  0.00000000000E+00 0.  1.
         11    1    1    2    0    0 -0.22302616615E-01  0.10357175908E+01 -0.16961870733E+02  0.16993477193E+02  0.00000000000E+00 0. -1.
        -15    1    1    2    0    0 -0.24733761404E+01 -0.10009218022E+01 -0.14220351981E+03  0.14223965063E+03  0.17770000000E+01 0. -1.
         15    1    1    2    0    0  0.57105857091E+01  0.12179593018E+01 -0.22884426851E+02  0.23684360563E+02  0.17770000000E+01 0. -1.
</event>
<event>
 6    1  0.1697564E-002  0.1846380E+03  0.7546771E-02  0.1066766E+00
        -11   -1    0    0    0    0  0.00000000000E+00  0.00000000000E+00  0.18250000000E+03  0.18250000000E+03  0.00000000000E+00 0.  1.
         11   -1    0    0    0    0 -0.00000000000E+00 -0.00000000000E+00 -0.18250000000E+03  0.18250000000E+03  0.00000000000E+00 0. -1.
        -11    1    1    2    0    0  0.17793549993E+01  0.23281990795E+01  0.17000427604E+03  0.17002952828E+03  0.00000000000E+00 0.  1.
         11    1    1    2    0    0  0.61866728132E-01  0.41446609812E+01 -0.18031435032E+03  0.18036198872E+03  0.00000000000E+00 0. -1.
        -15    1    1    2    0    0 -0.31284376005E+00 -0.71510629249E+01  0.54502901269E+01  0.91705487100E+01  0.17770000000E+01 0.  1.
         15    1    1    2    0    0 -0.15283779674E+01  0.67820286421E+00  0.48597841501E+01  0.54379342881E+01  0.17770000000E+01 0.  1.
</event>
<event>
 6    1  0.1697564E-002  0.1759548E+03  0.7546771E-02  0.1073788E+00
        -11   -1    0    0    0    0  0.00000000000E+00  0.00000000000E+00  0.18250000000E+03  0.18250000000E+03  0.00000000000E+00 0.  1.
         11   -1    0    0    0    0 -0.00000000000E+00 -0.00000000000E+00 -0.18250000000E+03  0.18250000000E+03  0.00000000000E+00 0. -1.
        -11    1    1    2    0    0  0.44483028948E+01 -0.88173923650E+01  0.17636646160E+03  0.17664275412E+03  0.00000000000E+00 0.  1.
         11    1    1    2    0    0 -0.29915110952E+01  0.14431968602E+01 -0.17531713969E+03  0.17534859972E+03  0.00000000000E+00 0. -1.
        -15    1    1    2    0    0  0.17350206220E+01  0.26977844887E+00 -0.38104157404E+01  0.45563224299E+01  0.17770000000E+01 0. -1.
         15    1    1    2    0    0 -0.31918124216E+01  0.71044170560E+01  0.27610938338E+01  0.84523237277E+01  0.17770000000E+01 0.  1.
</event>
<event>
 6    1  0.1697564E-002  0.1958103E+03  0.7546771E-02  0.1058327E+00
        -11   -1    0    0    0    0  0.00000000000E+00  0.00000000000E+00  0.18250000000E+03  0.18250000000E+03  0.00000000000E+00 0.  1.
         11   -1    0    0    0    0 -0.00000000000E+00 -0.00000000000E+00 -0.18250000000E+03  0.18250000000E+03  0.00000000000E+00 0.  1.
        -11    1    1    2    0    0 -0.23930642947E+01 -0.66415316824E+01  0.16904236351E+03  0.16918970820E+03  0.00000000000E+00 0.  1.
         11    1    1    2    0    0 -0.17966030928E+01  0.17483983103E+01 -0.70363598643E+02  0.70408243078E+02  0.00000000000E+00 0.  1.
        -15    1    1    2    0    0  0.30814237575E+00  0.56239409189E+01  0.12664836993E+02  0.13974243745E+02  0.17770000000E+01 0.  1.
         15    1    1    2    0    0  0.38815250117E+01 -0.73080754684E+00 -0.11134360186E+03  0.11142780497E+03  0.17770000000E+01 0.  1.
</event>
<event>
 6    1  0.1697564E-002  0.1475997E+03  0.7546771E-02  0.1100224E+00
        -11   -1    0    0    0    0  0.00000000000E+00  0.00000000000E+00  0.18250000000E+03  0.18250000000E+03  0.00000000000E+00 0.  1.
         11   -1    0    0    0    0 -0.00000000000E+00 -0.00000000000E+00 -0.18250000000E+03  0.18250000000E+03  0.00000000000E+00 0.  1.
        -11    1    1    2    0    0  0.39036230588E+01  0.47616876164E+01  0.16899432630E+03  0.16910645838E+03  0.00000000000E+00 0.  1.
         11    1    1    2    0    0  0.29211432623E+00  0.53449624346E+00 -0.25996652681E+02  0.26003787563E+02  0.00000000000E+00 0.  1.
        -15    1    1    2    0    0 -0.37249364912E+02 -0.13866304552E+02 -0.12514430326E+03  0.13131657914E+03  0.17770000000E+01 0.  1.
         15    1    1    2    0    0  0.33053627527E+02  0.85701206918E+01 -0.17853370363E+02  0.38573174924E+02  0.17770000000E+01 0. -1.
</event>
<event>
 6    1  0.1697564E-002  0.1834961E+03  0.7546771E-02  0.1067665E+00
        -11   -1    0    0    0    0  0.00000000000E+00  0.00000000000E+00  0.18250000000E+03  0.18250000000E+03  0.00000000000E+00 0.  1.
         11   -1    0    0    0    0 -0.00000000000E+00 -0.00000000000E+00 -0.18250000000E+03  0.18250000000E+03  0.00000000000E+00 0. -1.
        -11    1    1    2    0    0  0.48928391501E+01 -0.19872882238E+01  0.18142702276E+03  0.18150386711E+03  0.00000000000E+00 0.  1.
         11    1    1    2    0    0  0.13330771320E+01 -0.11438213114E+01 -0.11152964939E+03  0.11154348082E+03  0.00000000000E+00 0. -1.
        -15    1    1    2    0    0 -0.43107977503E+00 -0.50629193120E+01 -0.40115213448E+02  0.40474770669E+02  0.17770000000E+01 0.  1.
         15    1    1    2    0    0 -0.57948365070E+01  0.81940288472E+01 -0.29782159920E+02  0.31477881400E+02  0.17770000000E+01 0. -1.
</event>
<event>
 6    1  0.1697564E-002  0.1839026E+03  0.7546771E-02  0.1067344E+00
        -11   -1    0    0    0    0  0.00000000000E+00  0.00000000000E+00  0.18250000000E+03  0.18250000000E+03  0.00000000000E+00 0. -1.
         11   -1    0    0    0    0 -0.00000000000E+00 -0.00000000000E+00 -0.18250000000E+03  0.18250000000E+03  0.00000000000E+00 0. -1.
        -11    1    1    2    0    0  0.24045619580E+01 -0.35224637588E+01  0.16873295756E+03  0.16878684971E+03  0.00000000000E+00 0. -1.
         11    1    1    2    0    0 -0.28880875875E+01  0.32364762297E+01 -0.18104544949E+03  0.18109740642E+03  0.00000000000E+00 0. -1.
        -15    1    1    2    0    0 -0.35203668605E+01  0.10846963803E+01  0.76113319664E+01  0.86405817150E+01  0.17770000000E+01 0. -1.
         15    1    1    2    0    0  0.40038924900E+01 -0.79870885114E+00  0.47011599723E+01  0.64751621590E+01  0.17770000000E+01 0.  1.
</event>
<event>
 6    1  0.1697564E-002  0.1857726E+03  0.7546771E-02  0.1065879E+00
        -11   -1    0    0    0    0  0.00000000000E+00  0.00000000000E+00  0.18250000000E+03  0.18250000000E+03  0.00000000000E+00 0. -1.
         11   -1    0    0    0    0 -0.00000000000E+00 -0.00000000000E+00 -0.18250000000E+03  0.18250000000E+03  0.00000000000E+00 0. -1.
        -11    1    1    2    0    0 -0.16310883935E+01  0.41847776436E+01  0.17917112547E+03  0.17922741146E+03  0.00000000000E+00 0. -1.
         11    1    1    2    0    0 -0.20408937651E+01 -0.18442488809E+01 -0.11666928043E+03  0.11670170306E+03  0.00000000000E+00 0. -1.
        -15    1    1    2    0    0  0.61426873909E+01  0.20789929173E+01 -0.63290964037E+02  0.63647141944E+02  0.17770000000E+01 0. -1.
         15    1    1    2    0    0 -0.24707052323E+01 -0.44195216800E+01  0.78911898972E+00  0.54237435416E+01  0.17770000000E+01 0.  1.
</event>
<event>
 6    1  0.1697564E-002  0.1829989E+03  0.7546771E-02  0.1068058E+00
        -11   -1    0    0    0    0  0.00000000000E+00  0.00000000000E+00  0.18250000000E+03  0.18250000000E+03  0.00000000000E+00 0.  1.
         11   -1    0    0    0    0 -0.00000000000E+00 -0.00000000000E+00 -0.18250000000E+03  0.18250000000E+03  0.00000000000E+00 0. -1.
        -11    1    1    2    0    0  0.12521141513E+01  0.26160114643E+01  0.18197797691E+03  0.18200108623E+03  0.00000000000E+00 0.  1.
         11    1    1    2    0    0 -0.50999532528E+01 -0.52962860552E+00 -0.12907967019E+03  0.12918146650E+03  0.00000000000E+00 0. -1.
        -15    1    1    2    0    0  0.47269472416E+01 -0.55124997827E+00 -0.48413536076E+02  0.48679319132E+02  0.17770000000E+01 0. -1.
         15    1    1    2    0    0 -0.87910814002E+00 -0.15351328806E+01 -0.44847706420E+01  0.51381281411E+01  0.17770000000E+01 0.  1.
</event>
<event>
 6    1  0.1697564E-002  0.1969148E+03  0.7546771E-02  0.1057527E+00
        -11   -1    0    0    0    0  0.00000000000E+00  0.00000000000E+00  0.18250000000E+03  0.18250000000E+03  0.00000000000E+00 0.  1.
         11   -1    0    0    0    0 -0.00000000000E+00 -0.00000000000E+00 -0.18250000000E+03  0.18250000000E+03  0.00000000000E+00 0. -1.
        -11    1    1    2    0    0  0.71013246005E+01 -0.41463858091E+01  0.16788389446E+03  0.16808516694E+03  0.00000000000E+00 0.  1.
         11    1    1    2    0    0 -0.72129508339E+00 -0.91213384757E+01 -0.14508184709E+03  0.14537008439E+03  0.00000000000E+00 0. -1.
        -15    1    1    2    0    0 -0.77984036322E+01  0.68894350542E+01  0.12062115206E+02  0.16029091266E+02  0.17770000000E+01 0.  1.
         15    1    1    2    0    0  0.14183741151E+01  0.63782892306E+01 -0.34864162583E+02  0.35515657396E+02  0.17770000000E+01 0. -1.
</event>
<event>
 6    1  0.1697564E-002  0.1826311E+03  0.7546771E-02  0.1068351E+00
        -11   -1    0    0    0    0  0.00000000000E+00  0.00000000000E+00  0.18250000000E+03  0.18250000000E+03  0.00000000000E+00 0. -1.
         11   -1    0    0    0    0 -0.00000000000E+00 -0.00000000000E+00 -0.18250000000E+03  0.18250000000E+03  0.00000000000E+00 0.  1.
        -11    1    1    2    0    0  0.13857915872E+01  0.20401625050E+00  0.89169228057E+02  0.89180229161E+02  0.00000000000E+00 0. -1.
         11    1    1    2    0    0 -0.16347596951E+01  0.26121334708E+01 -0.18234286543E+03  0.18236890155E+03  0.00000000000E+00 0.  1.
        -15    1    1    2    0    0 -0.33227475500E+00  0.13662715302E+01  0.45860251414E+02  0.45916200770E+02  0.17770000000E+01 0. -1.
         15    1    1    2    0    0  0.58124286294E+00 -0.41824212515E+01  0.47313385960E+02  0.47534668514E+02  0.17770000000E+01 0.  1.
</event>
<event>
 6    1  0.1697564E-002  0.1833911E+03  0.7546771E-02  0.1067748E+00
        -11   -1    0    0    0    0  0.00000000000E+00  0.00000000000E+00  0.18250000000E+03  0.18250000000E+03  0.00000000000E+00 0. -1.
         11   -1    0    0    0    0 -0.00000000000E+00 -0.00000000000E+00 -0.18250000000E+03  0.18250000000E+03  0.00000000000E+00 0. -1.
        -11    1    1    2    0    0  0.13340087131E+01 -0.18277227955E+01  0.15878686268E+03  0.15880298457E+03  0.00000000000E+00 0. -1.
         11    1    1    2    0    0  0.20415344801E+01  0.38079055575E+01 -0.18155752069E+03  0.18160892414E+03  0.00000000000E+00 0. -1.
        -15    1    1    2    0    0 -0.48892561492E+01 -0.36949828199E+01  0.15603466037E+02  0.16857746145E+02  0.17770000000E+01 0.  1.
         15    1    1    2    0    0  0.15137129560E+01  0.17148000579E+01  0.71671919807E+01  0.77303451437E+01  0.17770000000E+01 0. -1.
</event>
<event>
 6    1  0.1697564E-002  0.1827334E+03  0.7546771E-02  0.1068269E+00
        -11   -1    0    0    0    0  0.00000000000E+00  0.00000000000E+00  0.18250000000E+03  0.18250000000E+03  0.00000000000E+00 0. -1.
         11   -1    0    0    0    0 -0.00000000000E+00 -0.00000000000E+00 -0.18250000000E+03  0.18250000000E+03  0.00000000000E+00 0.  1.
        -11    1    1    2    0    0 -0.27298574843E+01  0.11542228984E+01  0.89133398752E+02  0.89182661575E+02  0.00000000000E+00 0. -1.
         11    1    1    2    0    0 -0.40853286504E+00 -0.29323979794E+01 -0.18224256858E+03  0.18226661696E+03  0.00000000000E+00 0.  1.
        -15    1    1    2    0    0 -0.49437432531E+00  0.36960243119E+01  0.59752563313E+02  0.59895171368E+02  0.17770000000E+01 0.  1.
         15    1    1    2    0    0  0.36327646746E+01 -0.19178492310E+01  0.33356606515E+02  0.33655550093E+02  0.17770000000E+01 0.  1.
</event>
<event>
 6    1  0.1697564E-002  0.1856706E+03  0.7546771E-02  0.1065959E+00
        -11   -1    0    0    0    0  0.00000000000E+00  0.00000000000E+00  0.18250000000E+03  0.18250000000E+03  0.00000000000E+00 0.  1.
         11   -1    0    0    0    0 -0.00000000000E+00 -0.00000000000E+00 -0.18250000000E+03  0.18250000000E+03  0.00000000000E+00 0. -1.
        -11    1    1    2    0    0  0.35032417064E+01  0.64425002011E+01  0.13661807110E+03  0.13681475017E+03  0.00000000000E+00 0.  1.
         11    1    1    2    0    0 -0.17416647624E+01 -0.22262298561E+01 -0.17930711886E+03  0.17932939628E+03  0.00000000000E+00 0. -1.
        -15    1    1    2    0    0 -0.34234637397E+01 -0.46876497069E+01  0.45035613033E+02  0.45442912913E+02  0.17770000000E+01 0.  1.
         15    1    1    2    0    0  0.16618867957E+01  0.47137936188E+00 -0.23465652753E+01  0.34129406406E+01  0.17770000000E+01 0.  1.
</event>
<event>
 6    1  0.1697564E-002  0.1842187E+03  0.7546771E-02  0.1067095E+00
        -11   -1    0    0    0    0  0.00000000000E+00  0.00000000000E+00  0.18250000000E+03  0.18250000000E+03  0.00000000000E+00 0.  1.
         11   -1    0    0    0    0 -0.00000000000E+00 -0.00000000000E+00 -0.18250000000E+03  0.18250000000E+03  0.00000000000E+00 0.  1.
        -11    1    1    2    0    0 -0.14559191691E+01  0.20937413446E+01  0.17389581661E+03  0.17391451488E+03  0.00000000000E+00 0.  1.
         11    1    1    2    0    0 -0.16942056583E+01 -0.26283206868E+01 -0.18075427035E+03  0.18078131721E+03  0.00000000000E+00 0.  1.
        -15    1    1    2    0    0  0.35945581769E+01  0.23850298868E+01  0.26788385936E+01  0.53798811565E+01  0.17770000000E+01 0.  1.
         15    1    1    2    0    0 -0.44443334949E+00 -0.18504505445E+01  0.41796151467E+01  0.49242867498E+01  0.17770000000E+01 0. -1.
</event>
<event>
 6    1  0.1697564E-002  0.1826694E+03  0.7546771E-02  0.1068320E+00
        -11   -1    0    0    0    0  0.00000000000E+00  0.00000000000E+00  0.18250000000E+03  0.18250000000E+03  0.00000000000E+00 0. -1.
         11   -1    0    0    0    0 -0.00000000000E+00 -0.00000000000E+00 -0.18250000000E+03  0.18250000000E+03  0.00000000000E+00 0.  1.
        -11    1    1    2    0    0 -0.15009961079E+01 -0.10092417241E+01  0.98048038748E+02  0.98064720775E+02  0.00000000000E+00 0. -1.
         11    1    1    2    0    0 -0.65782828781E-01 -0.25297123202E+01 -0.18231304387E+03  0.18233060560E+03  0.00000000000E+00 0.  1.
        -15    1    1    2    0    0  0.20728853259E+01 -0.60547555856E+00  0.43021375125E+02  0.43112178104E+02  0.17770000000E+01 0.  1.
         15    1    1    2    0    0 -0.50610638926E+00  0.41444296028E+01  0.41243629998E+02  0.41492495525E+02  0.17770000000E+01 0. -1.
</event>
<event>
 6    1  0.1697564E-002  0.1857395E+03  0.7546771E-02  0.1065905E+00
        -11   -1    0    0    0    0  0.00000000000E+00  0.00000000000E+00  0.18250000000E+03  0.18250000000E+03  0.00000000000E+00 0. -1.
         11   -1    0    0    0    0 -0.00000000000E+00 -0.00000000000E+00 -0.18250000000E+03  0.18250000000E+03  0.00000000000E+00 0.  1.
        -11    1    1    2    0    0  0.97025334992E+01  0.90729299989E+01  0.80008278374E+02  0.81103525346E+02  0.00000000000E+00 0. -1.
         11    1    1    2    0    0 -0.28004521156E+01 -0.32428645087E+01 -0.17920933158E+03  0.17926054565E+03  0.00000000000E+00 0.  1.
        -15    1    1    2    0    0 -0.10475481429E+00  0.80391147106E+01  0.61040423577E+01  0.10249653702E+02  0.17770000000E+01 0. -1.
         15    1    1    2    0    0 -0.67973265693E+01 -0.13869180201E+02  0.93097010846E+02  0.94386275302E+02  0.17770000000E+01 0. -1.
</event>
<event>
 6    1  0.5073225E-002  0.1681273E+03  0.7546771E-02  0.1080508E+00
        -11   -1    0    0    0    0  0.00000000000E+00  0.00000000000E+00  0.18250000000E+03  0.18250000000E+03  0.00000000000E+00 0. -1.
         11   -1    0    0    0    0 -0.00000000000E+00 -0.00000000000E+00 -0.18250000000E+03  0.18250000000E+03  0.00000000000E+00 0.  1.
        -11    1    1    2    0    0  0.26238860441E+01  0.13853944996E+00  0.17084014850E+03  0.17086035324E+03  0.00000000000E+00 0. -1.
         11    1    1    2    0    0 -0.71683004613E+01 -0.74178928619E+01 -0.16522892564E+03  0.16555061925E+03  0.00000000000E+00 0.  1.
        -15    1    1    2    0    0  0.45451871049E+01  0.65512948003E+01 -0.16031693155E+02  0.17993084888E+02  0.17770000000E+01 0.  1.
         15    1    1    2    0    0 -0.77268771972E-03  0.72805861169E+00  0.10420470292E+02  0.10595942622E+02  0.17770000000E+01 0. -1.
</event>
<event>
 6    1  0.1697564E-002  0.1836002E+03  0.7546771E-02  0.1067582E+00
        -11   -1    0    0    0    0  0.00000000000E+00  0.00000000000E+00  0.18250000000E+03  0.18250000000E+03  0.00000000000E+00 0. -1.
         11   -1    0    0    0    0 -0.00000000000E+00 -0.00000000000E+00 -0.18250000000E+03  0.18250000000E+03  0.00000000000E+00 0.  1.
        -11    1    1    2    0    0 -0.36799843172E+01 -0.56177982453E+00  0.16955228957E+03  0.16959315074E+03  0.00000000000E+00 0. -1.
         11    1    1    2    0    0  0.20121917735E+01  0.29195207421E+01 -0.18136514438E+03  0.18139980185E+03  0.00000000000E+00 0.  1.
        -15    1    1    2    0    0 -0.35299175624E+00 -0.18574176370E+01  0.88472474725E+00  0.27413628612E+01  0.17770000000E+01 0.  1.
         15    1    1    2    0    0  0.20207842999E+01 -0.50032328049E+00  0.10928130061E+02  0.11265684542E+02  0.17770000000E+01 0. -1.
</event>
<event>
 6    1  0.1697564E-002  0.1685618E+03  0.7546771E-02  0.1080125E+00
        -11   -1    0    0    0    0  0.00000000000E+00  0.00000000000E+00  0.18250000000E+03  0.18250000000E+03  0.00000000000E+00 0. -1.
         11   -1    0    0    0    0 -0.00000000000E+00 -0.00000000000E+00 -0.18250000000E+03  0.18250000000E+03  0.00000000000E+00 0. -1.
        -11    1    1    2    0    0  0.11425447300E+02 -0.12795437146E+02  0.17165886371E+03  0.17251385321E+03  0.00000000000E+00 0. -1.
         11    1    1    2    0    0 -0.18760769416E+01 -0.14644983689E+01 -0.16509299682E+03  0.16511015117E+03  0.00000000000E+00 0. -1.
        -15    1    1    2    0    0 -0.11850877937E+02  0.18130734125E+02 -0.55191046396E+01  0.22422869415E+02  0.17770000000E+01 0. -1.
         15    1    1    2    0    0  0.23015075786E+01 -0.38707986101E+01 -0.10467622512E+01  0.49531262072E+01  0.17770000000E+01 0.  1.
</event>
<event>
 6    1  0.1697564E-002  0.1730467E+03  0.7546771E-02  0.1076239E+00
        -11   -1    0    0    0    0  0.00000000000E+00  0.00000000000E+00  0.18250000000E+03  0.18250000000E+03  0.00000000000E+00 0.  1.
         11   -1    0    0    0    0 -0.00000000000E+00 -0.00000000000E+00 -0.18250000000E+03  0.18250000000E+03  0.00000000000E+00 0.  1.
        -11    1    1    2    0    0 -0.46433544082E+01  0.25304564430E+01  0.17239832862E+03  0.17247941229E+03  0.00000000000E+00 0.  1.
         11    1    1    2    0    0  0.21529419899E+01 -0.17571404984E+01 -0.17360360618E+03  0.17362584710E+03  0.00000000000E+00 0.  1.
        -15    1    1    2    0    0 -0.14656729160E-01  0.31381440873E+01 -0.78079187633E+01  0.86005515839E+01  0.17770000000E+01 0.  1.
         15    1    1    2    0    0  0.25050691474E+01 -0.39114600319E+01  0.90131963166E+01  0.10294189033E+02  0.17770000000E+01 0.  1.
</event>
<event>
 6    1  0.1697564E-002  0.1845239E+03  0.7546771E-02  0.1066855E+00
        -11   -1    0    0    0    0  0.00000000000E+00  0.00000000000E+00  0.18250000000E+03  0.18250000000E+03  0.00000000000E+00 0. -1.
         11   -1    0    0    0    0 -0.00000000000E+00 -0.00000000000E+00 -0.18250000000E+03  0.18250000000E+03  0.00000000000E+00 0.  1.
        -11    1    1    2    0    0 -0.72293112125E+00  0.34975704474E+01  0.16200829748E+03  0.16204765990E+03  0.00000000000E+00 0. -1.
         11    1    1    2    0    0  0.27448528040E+01  0.49683082922E+00 -0.18045456483E+03  0.18047612315E+03  0.00000000000E+00 0.  1.
        -15    1    1    2    0    0  0.30518352035E+01  0.78528167209E+00  0.12359623549E+01  0.38230481761E+01  0.17770000000E+01 0.  1.
         15    1    1    2    0    0 -0.50737568862E+01 -0.47796829487E+01  0.17210305003E+02  0.18653168774E+02  0.17770000000E+01 0. -1.
</event>
<event>
 6    1  0.1697564E-002  0.1853703E+03  0.7546771E-02  0.1066193E+00
        -11   -1    0    0    0    0  0.00000000000E+00  0.00000000000E+00  0.18250000000E+03  0.18250000000E+03  0.00000000000E+00 0. -1.
         11   -1    0    0    0    0 -0.00000000000E+00 -0.00000000000E+00 -0.18250000000E+03  0.18250000000E+03  0.00000000000E+00 0. -1.
        -11    1    1    2    0    0  0.57011340148E+01 -0.42609053299E+01  0.17948868273E+03  0.17962974550E+03  0.00000000000E+00 0. -1.
         11    1    1    2    0    0  0.39656286839E+01 -0.28464139844E+01 -0.15741914889E+03  0.15749481490E+03  0.00000000000E+00 0. -1.
        -15    1    1    2    0    0 -0.11067523638E+02  0.79061523825E+01 -0.14613062852E+02  0.20042371614E+02  0.17770000000E+01 0.  1.
         15    1    1    2    0    0  0.14007609393E+01 -0.79883306808E+00 -0.74564709882E+01  0.78330679863E+01  0.17770000000E+01 0.  1.
</event>
<event>
 6    1  0.1697564E-002  0.1907432E+03  0.7546771E-02  0.1062076E+00
        -11   -1    0    0    0    0  0.00000000000E+00  0.00000000000E+00  0.18250000000E+03  0.18250000000E+03  0.00000000000E+00 0.  1.
         11   -1    0    0    0    0 -0.00000000000E+00 -0.00000000000E+00 -0.18250000000E+03  0.18250000000E+03  0.00000000000E+00 0.  1.
        -11    1    1    2    0    0 -0.50862749463E+01 -0.17578165010E+01  0.16697148359E+03  0.16705818281E+03  0.00000000000E+00 0.  1.
         11    1    1    2    0    0  0.24841036094E+01 -0.21116237502E+01 -0.17422624884E+03  0.17425675169E+03  0.00000000000E+00 0.  1.
        -15    1    1    2    0    0  0.45975790888E+01 -0.14853371401E-02  0.14349688319E+02  0.15172640493E+02  0.17770000000E+01 0. -1.
         15    1    1    2    0    0 -0.19954077520E+01  0.38709255884E+01 -0.70949230770E+01  0.85124250056E+01  0.17770000000E+01 0.  1.
</event>
<event>
 6    1  0.1697564E-002  0.2150505E+03  0.7546771E-02  0.1045144E+00
        -11   -1    0    0    0    0  0.00000000000E+00  0.00000000000E+00  0.18250000000E+03  0.18250000000E+03  0.00000000000E+00 0. -1.
         11   -1    0    0    0    0 -0.00000000000E+00 -0.00000000000E+00 -0.18250000000E+03  0.18250000000E+03  0.00000000000E+00 0. -1.
        -11    1    1    2    0    0 -0.49550651938E+01  0.52206709208E+01  0.14977664484E+03  0.14994949621E+03  0.00000000000E+00 0. -1.
         11    1    1    2    0    0  0.54361725368E+01  0.32349078360E+00 -0.11251006983E+03  0.11264178812E+03  0.00000000000E+00 0. -1.
        -15    1    1    2    0    0 -0.51560636432E+01 -0.18686484432E+02  0.28855711912E+02  0.34807751029E+02  0.17770000000E+01 0.  1.
         15    1    1    2    0    0  0.46749563002E+01  0.13142322728E+02 -0.66122286925E+02  0.67600964640E+02  0.17770000000E+01 0. -1.
</event>
<event>
 6    1  0.1697564E-002  0.1839547E+03  0.7546771E-02  0.1067303E+00
        -11   -1    0    0    0    0  0.00000000000E+00  0.00000000000E+00  0.18250000000E+03  0.18250000000E+03  0.00000000000E+00 0.  1.
         11   -1    0    0    0    0 -0.00000000000E+00 -0.00000000000E+00 -0.18250000000E+03  0.18250000000E+03  0.00000000000E+00 0.  1.
        -11    1    1    2    0    0  0.19921262568E+00  0.14126902567E+01  0.92114595763E+02  0.92125643184E+02  0.00000000000E+00 0.  1.
         11    1    1    2    0    0 -0.12475345253E+01  0.27501869562E+01 -0.18102012730E+03  0.18104531576E+03  0.00000000000E+00 0.  1.
        -15    1    1    2    0    0  0.65961942216E+01 -0.10612280104E+02  0.34548244943E+02  0.36781370622E+02  0.17770000000E+01 0. -1.
         15    1    1    2    0    0 -0.55478723219E+01  0.64494028909E+01  0.54357286597E+02  0.55047670433E+02  0.17770000000E+01 0.  1.
</event>
<event>
 6    1  0.1697564E-002  0.1860024E+03  0.7546771E-02  0.1065701E+00
        -11   -1    0    0    0    0  0.00000000000E+00  0.00000000000E+00  0.18250000000E+03  0.18250000000E+03  0.00000000000E+00 0.  1.
         11   -1    0    0    0    0 -0.00000000000E+00 -0.00000000000E+00 -0.18250000000E+03  0.18250000000E+03  0.00000000000E+00 0.  1.
        -11    1    1    2    0    0 -0.60755180545E+00 -0.50360869299E+01  0.17892570076E+03  0.17899759128E+03  0.00000000000E+00 0.  1.
         11    1    1    2    0    0  0.11522393540E+01  0.24112298058E-01 -0.55621521974E+02  0.55633460648E+02  0.00000000000E+00 0.  1.
        -15    1    1    2    0    0  0.37186763026E+01 -0.14797579325E+01  0.19982965009E+01  0.48134348326E+01  0.17770000000E+01 0. -1.
         15    1    1    2    0    0 -0.42633638511E+01  0.64917325643E+01 -0.12530247529E+03  0.12555551324E+03  0.17770000000E+01 0.  1.
</event>
<event>
 6    1  0.1697564E-002  0.1855448E+03  0.7546771E-02  0.1066057E+00
        -11   -1    0    0    0    0  0.00000000000E+00  0.00000000000E+00  0.18250000000E+03  0.18250000000E+03  0.00000000000E+00 0. -1.
         11   -1    0    0    0    0 -0.00000000000E+00 -0.00000000000E+00 -0.18250000000E+03  0.18250000000E+03  0.00000000000E+00 0. -1.
        -11    1    1    2    0    0 -0.23485220137E+01 -0.47104773041E+00  0.11995586139E+03  0.11997977381E+03  0.00000000000E+00 0. -1.
         11    1    1    2    0    0 -0.54839289897E+01 -0.36862453861E+01 -0.17933349540E+03  0.17945518787E+03  0.00000000000E+00 0. -1.
        -15    1    1    2    0    0  0.73959616305E+01  0.47924050282E+00  0.17871934377E+01  0.78282634909E+01  0.17770000000E+01 0. -1.
         15    1    1    2    0    0  0.43648937294E+00  0.36780526137E+01  0.57590440567E+02  0.57736774829E+02  0.17770000000E+01 0.  1.
</event>
<event>
 6    1  0.1697564E-002  0.1831442E+03  0.7546771E-02  0.1067943E+00
        -11   -1    0    0    0    0  0.00000000000E+00  0.00000000000E+00  0.18250000000E+03  0.18250000000E+03  0.00000000000E+00 0. -1.
         11   -1    0    0    0    0 -0.00000000000E+00 -0.00000000000E+00 -0.18250000000E+03  0.18250000000E+03  0.00000000000E+00 0. -1.
        -11    1    1    2    0    0 -0.45158283523E+00  0.17145843612E+01  0.32552966088E+02  0.32601216660E+02  0.00000000000E+00 0. -1.
         11    1    1    2    0    0 -0.50099178808E+01 -0.77293909480E+00 -0.18178509648E+03  0.18185576157E+03  0.00000000000E+00 0. -1.
        -15    1    1    2    0    0  0.56106214938E+00 -0.21385830637E+01  0.13871586655E+03  0.13874486545E+03  0.17770000000E+01 0. -1.
         15    1    1    2    0    0  0.49004385666E+01  0.11969377974E+01  0.10516263849E+02  0.11798156321E+02  0.17770000000E+01 0. -1.
</event>
<event>
 6    1  0.1697564E-002  0.1836366E+03  0.7546771E-02  0.1067554E+00
        -11   -1    0    0    0    0  0.00000000000E+00  0.00000000000E+00  0.18250000000E+03  0.18250000000E+03  0.00000000000E+00 0.  1.
         11   -1    0    0    0    0 -0.00000000000E+00 -0.00000000000E+00 -0.18250000000E+03  0.18250000000E+03  0.00000000000E+00 0. -1.
        -11    1    1    2    0    0  0.56323965247E+01 -0.44940248881E+01  0.15537424713E+03  0.15554123833E+03  0.00000000000E+00 0.  1.
         11    1    1    2    0    0 -0.44479114325E+01 -0.87097338221E-01 -0.18130880602E+03  0.18136337735E+03  0.00000000000E+00 0. -1.
        -15    1    1    2    0    0  0.22934918920E+01  0.14273778973E+01  0.23880435179E+01  0.40197006808E+01  0.17770000000E+01 0.  1.
         15    1    1    2    0    0 -0.34779769841E+01  0.31537443290E+01  0.23546515376E+02  0.24075683636E+02  0.17770000000E+01 0. -1.
</event>
<event>
 6    1  0.1697564E-002  0.1833358E+03  0.7546771E-02  0.1067791E+00
        -11   -1    0    0    0    0  0.00000000000E+00  0.00000000000E+00  0.18250000000E+03  0.18250000000E+03  0.00000000000E+00 0.  1.
         11   -1    0    0    0    0 -0.00000000000E+00 -0.00000000000E+00 -0.18250000000E+03  0.18250000000E+03  0.00000000000E+00 0. -1.
        -11    1    1    2    0    0 -0.31887670963E+01 -0.28065268635E+01  0.12659232410E+03  0.12666357546E+03  0.00000000000E+00 0.  1.
         11    1    1    2    0    0  0.24754280908E+01  0.42261183414E+01 -0.18159816280E+03  0.18166419722E+03  0.00000000000E+00 0. -1.
        -15    1    1    2    0    0 -0.38678247364E+01 -0.50969636029E+01  0.18536562463E+02  0.19690123999E+02  0.17770000000E+01 0.  1.
         15    1    1    2    0    0  0.45811637419E+01  0.36773721251E+01  0.36469276239E+02  0.36982103312E+02  0.17770000000E+01 0. -1.
</event>
<event>
 6    1  0.1697564E-002  0.1717677E+03  0.7546771E-02  0.1077334E+00
        -11   -1    0    0    0    0  0.00000000000E+00  0.00000000000E+00  0.18250000000E+03  0.18250000000E+03  0.00000000000E+00 0.  1.
         11   -1    0    0    0    0 -0.00000000000E+00 -0.00000000000E+00 -0.18250000000E+03  0.18250000000E+03  0.00000000000E+00 0.  1.
        -11    1    1    2    0    0 -0.30012204542E+01 -0.16136016308E+01  0.17340550078E+03  0.17343897698E+03  0.00000000000E+00 0.  1.
         11    1    1    2    0    0 -0.56396322063E+01 -0.10241322078E+02 -0.17002469440E+03  0.17042619175E+03  0.00000000000E+00 0.  1.
        -15    1    1    2    0    0  0.25680492102E+00  0.11846120881E+02 -0.16940787993E+00  0.11982610597E+02  0.17770000000E+01 0.  1.
         15    1    1    2    0    0  0.83840477394E+01  0.88028283112E-02 -0.32113985008E+01  0.91522206768E+01  0.17770000000E+01 0. -1.
</event>
<event>
 6    1  0.1697564E-002  0.1853767E+03  0.7546771E-02  0.1066188E+00
        -11   -1    0    0    0    0  0.00000000000E+00  0.00000000000E+00  0.18250000000E+03  0.18250000000E+03  0.00000000000E+00 0. -1.
         11   -1    0    0    0    0 -0.00000000000E+00 -0.00000000000E+00 -0.18250000000E+03  0.18250000000E+03  0.00000000000E+00 0. -1.
        -11    1    1    2    0    0 -0.62888076157E+00  0.13710779669E+02  0.17909817476E+03  0.17962332024E+03  0.00000000000E+00 0. -1.
         11    1    1    2    0    0  0.21627165682E+01  0.39639050965E+01 -0.12803433997E+03  0.12811394186E+03  0.00000000000E+00 0. -1.
        -15    1    1    2    0    0 -0.16836297565E+01  0.51243162030E+00 -0.26649788259E+02  0.26766885112E+02  0.17770000000E+01 0. -1.
         15    1    1    2    0    0  0.14979394985E+00 -0.18187116386E+02 -0.24414046530E+02  0.30495852794E+02  0.17770000000E+01 0. -1.
</event>
<event>
 6    1  0.1697564E-002  0.1857171E+03  0.7546771E-02  0.1065922E+00
        -11   -1    0    0    0    0  0.00000000000E+00  0.00000000000E+00  0.18250000000E+03  0.18250000000E+03  0.00000000000E+00 0. -1.
         11   -1    0    0    0    0 -0.00000000000E+00 -0.00000000000E+00 -0.18250000000E+03  0.18250000000E+03  0.00000000000E+00 0. -1.
        -11    1    1    2    0    0 -0.59823602230E+01 -0.49551207848E+01  0.17911452034E+03  0.17928288611E+03  0.00000000000E+00 0. -1.
         11    1    1    2    0    0  0.85427827845E+00  0.17901493313E+01 -0.14067999002E+03  0.14069397292E+03  0.00000000000E+00 0. -1.
        -15    1    1    2    0    0  0.46806468209E+01  0.93241535527E+00  0.12417256238E+01  0.52418951326E+01  0.17770000000E+01 0. -1.
         15    1    1    2    0    0  0.44743512366E+00  0.22325560982E+01 -0.39676255947E+02  0.39781245831E+02  0.17770000000E+01 0.  1.
</event>
<event>
 6    1  0.1697564E-002  0.1842379E+03  0.7546771E-02  0.1067080E+00
        -11   -1    0    0    0    0  0.00000000000E+00  0.00000000000E+00  0.18250000000E+03  0.18250000000E+03  0.00000000000E+00 0.  1.
         11   -1    0    0    0    0 -0.00000000000E+00 -0.00000000000E+00 -0.18250000000E+03  0.18250000000E+03  0.00000000000E+00 0. -1.
        -11    1    1    2    0    0  0.10431407642E+01 -0.57140579902E+01  0.13341619919E+03  0.13354258050E+03  0.00000000000E+00 0.  1.
         11    1    1    2    0    0 -0.70249171443E+01 -0.13713020318E+01 -0.18062032789E+03  0.18076208888E+03  0.00000000000E+00 0. -1.
        -15    1    1    2    0    0  0.49743768456E+01  0.56415853039E+01  0.47546564625E+02  0.48170586943E+02  0.17770000000E+01 0.  1.
         15    1    1    2    0    0  0.10073995346E+01  0.14437747181E+01 -0.34243592026E+00  0.25247436738E+01  0.17770000000E+01 0. -1.
</event>
<event>
 6    1  0.1697564E-002  0.1876154E+03  0.7546771E-02  0.1064454E+00
        -11   -1    0    0    0    0  0.00000000000E+00  0.00000000000E+00  0.18250000000E+03  0.18250000000E+03  0.00000000000E+00 0.  1.
         11   -1    0    0    0    0 -0.00000000000E+00 -0.00000000000E+00 -0.18250000000E+03  0.18250000000E+03  0.00000000000E+00 0. -1.
        -11    1    1    2    0    0  0.57881680951E+01 -0.37519441077E+01  0.17389539433E+03  0.17403214687E+03  0.00000000000E+00 0.  1.
         11    1    1    2    0    0 -0.15930963219E+01  0.37459956112E+01 -0.17733790360E+03  0.17738461740E+03  0.00000000000E+00 0. -1.
        -15    1    1    2    0    0 -0.58522967865E+01  0.29448784177E+01  0.59438975093E+01  0.90227120741E+01  0.17770000000E+01 0.  1.
         15    1    1    2    0    0  0.16572250132E+01 -0.29389299213E+01 -0.25013882445E+01  0.45605236515E+01  0.17770000000E+01 0.  1.
</event>
<event>
 6    1  0.1697564E-002  0.1836284E+03  0.7546771E-02  0.1067560E+00
        -11   -1    0    0    0    0  0.00000000000E+00  0.00000000000E+00  0.18250000000E+03  0.18250000000E+03  0.00000000000E+00 0. -1.
         11   -1    0    0    0    0 -0.00000000000E+00 -0.00000000000E+00 -0.18250000000E+03  0.18250000000E+03  0.00000000000E+00 0.  1.
        -11    1    1    2    0    0 -0.12535395033E+01  0.25223093753E+01  0.17263481746E+03  0.17265779335E+03  0.00000000000E+00 0. -1.
         11    1    1    2    0    0  0.37380980992E+01  0.84651792972E+00 -0.18133109431E+03  0.18137159572E+03  0.00000000000E+00 0.  1.
        -15    1    1    2    0    0 -0.11392074355E+01  0.33025938743E+00  0.43349782182E+01  0.48328697475E+01  0.17770000000E+01 0.  1.
         15    1    1    2    0    0 -0.13453511604E+01 -0.36990866924E+01  0.43612986343E+01  0.61377411871E+01  0.17770000000E+01 0. -1.
</event>
<event>
 6    1  0.1697564E-002  0.1156145E+03  0.7546771E-02  0.1139257E+00
        -11   -1    0    0    0    0  0.00000000000E+00  0.00000000000E+00  0.18250000000E+03  0.18250000000E+03  0.00000000000E+00 0.  1.
         11   -1    0    0    0    0 -0.00000000000E+00 -0.00000000000E+00 -0.18250000000E+03  0.18250000000E+03  0.00000000000E+00 0. -1.
        -11    1    1    2    0    0 -0.26549925240E+02 -0.16498584284E+02  0.57486983974E+02  0.65435885721E+02  0.00000000000E+00 0.  1.
         11    1    1    2    0    0  0.20496697063E+01 -0.11548884386E+01 -0.11258055687E+03  0.11260513620E+03  0.00000000000E+00 0. -1.
        -15    1    1    2    0    0  0.20375750903E+02  0.41301441201E+02  0.11419448398E+03  0.12314429817E+03  0.17770000000E+01 0.  1.
         15    1    1    2    0    0  0.41245046310E+01 -0.23647968479E+02 -0.59100911089E+02  0.63814679911E+02  0.17770000000E+01 0. -1.
</event>
<event>
 6    1  0.1697564E-002  0.1936102E+03  0.7546771E-02  0.1059940E+00
        -11   -1    0    0    0    0  0.00000000000E+00  0.00000000000E+00  0.18250000000E+03  0.18250000000E+03  0.00000000000E+00 0.  1.
         11   -1    0    0    0    0 -0.00000000000E+00 -0.00000000000E+00 -0.18250000000E+03  0.18250000000E+03  0.00000000000E+00 0.  1.
        -11    1    1    2    0    0 -0.29502981195E+01 -0.43761699553E+01  0.70898897646E+02  0.71095068815E+02  0.00000000000E+00 0.  1.
         11    1    1    2    0    0 -0.11375922545E+02  0.64420775898E+01 -0.17089042402E+03  0.17138975757E+03  0.00000000000E+00 0.  1.
        -15    1    1    2    0    0  0.80129945472E+01  0.29961794137E+02  0.75576559582E+02  0.81712246798E+02  0.17770000000E+01 0.  1.
         15    1    1    2    0    0  0.63132261176E+01 -0.32027701772E+02  0.24414966790E+02  0.40802926821E+02  0.17770000000E+01 0. -1.
</event>
<event>
 6    1  0.1697564E-002  0.1857917E+03  0.7546771E-02  0.1065864E+00
        -11   -1    0    0    0    0  0.00000000000E+00  0.00000000000E+00  0.18250000000E+03  0.18250000000E+03  0.00000000000E+00 0.  1.
         11   -1    0    0    0    0 -0.00000000000E+00 -0.00000000000E+00 -0.18250000000E+03  0.18250000000E+03  0.00000000000E+00 0.  1.
        -11    1    1    2    0    0  0.21548845448E+01 -0.10603163657E+01  0.17370875484E+03  0.17372535597E+03  0.00000000000E+00 0.  1.
         11    1    1    2    0    0  0.39553266180E+01 -0.11829638338E+01 -0.17916074001E+03  0.17920829995E+03  0.00000000000E+00 0.  1.
        -15    1    1    2    0    0 -0.14492320969E+01 -0.71464398035E+00  0.57785933041E+01  0.62578637940E+01  0.17770000000E+01 0.  1.
         15    1    1    2    0    0 -0.46609790659E+01  0.29579241798E+01 -0.32660814220E+00  0.58084802819E+01  0.17770000000E+01 0.  1.
</event>
<event>
 6    1  0.1697564E-002  0.1860135E+03  0.7546771E-02  0.1065692E+00
        -11   -1    0    0    0    0  0.00000000000E+00  0.00000000000E+00  0.18250000000E+03  0.18250000000E+03  0.00000000000E+00 0.  1.
         11   -1    0    0    0    0 -0.00000000000E+00 -0.00000000000E+00 -0.18250000000E+03  0.18250000000E+03  0.00000000000E+00 0. -1.
        -11    1    1    2    0    0  0.29285197934E+01  0.23188363584E+01  0.16634086499E+03  0.16638280138E+03  0.00000000000E+00 0.  1.
         11    1    1    2    0    0  0.20100814098E+01  0.13511842821E+01 -0.17897006256E+03  0.17898645038E+03  0.00000000000E+00 0. -1.
        -15    1    1    2    0    0 -0.91331151914E+01 -0.11694064904E+01  0.57164152315E+01  0.10982551468E+02  0.17770000000E+01 0.  1.
         15    1    1    2    0    0  0.41945139882E+01 -0.25006141501E+01  0.69127823370E+01  0.86481967694E+01  0.17770000000E+01 0. -1.
</event>
<event>
 6    1  0.1697564E-002  0.1591012E+03  0.7546771E-02  0.1088774E+00
        -11   -1    0    0    0    0  0.00000000000E+00  0.00000000000E+00  0.18250000000E+03  0.18250000000E+03  0.00000000000E+00 0.  1.
         11   -1    0    0    0    0 -0.00000000000E+00 -0.00000000000E+00 -0.18250000000E+03  0.18250000000E+03  0.00000000000E+00 0.  1.
        -11    1    1    2    0    0 -0.17884133579E+01  0.23619950953E+02  0.16522929774E+03  0.16691860692E+03  0.00000000000E+00 0.  1.
         11    1    1    2    0    0  0.51382191174E+01  0.20890950383E+01 -0.15249139317E+03  0.15259223638E+03  0.00000000000E+00 0.  1.
        -15    1    1    2    0    0  0.75909019143E+01 -0.25302377319E+00 -0.15736103554E+02  0.17563271249E+02  0.17770000000E+01 0. -1.
         15    1    1    2    0    0 -0.10940707674E+02 -0.25456022218E+02  0.29981989821E+01  0.27925885442E+02  0.17770000000E+01 0.  1.
</event>
<event>
 6    1  0.1697564E-002  0.1871436E+03  0.7546771E-02  0.1064817E+00
        -11   -1    0    0    0    0  0.00000000000E+00  0.00000000000E+00  0.18250000000E+03  0.18250000000E+03  0.00000000000E+00 0. -1.
         11   -1    0    0    0    0 -0.00000000000E+00 -0.00000000000E+00 -0.18250000000E+03  0.18250000000E+03  0.00000000000E+00 0. -1.
        -11    1    1    2    0    0 -0.32579288828E+01  0.22577343229E+01  0.12041938078E+03  0.12048459957E+03  0.00000000000E+00 0. -1.
         11    1    1    2    0    0 -0.39648272260E+01  0.38368977148E+01 -0.17777075313E+03  0.17785635301E+03  0.00000000000E+00 0. -1.
        -15    1    1    2    0    0  0.54671346798E+01 -0.19234084890E+02  0.28523305171E+02  0.34879453122E+02  0.17770000000E+01 0. -1.
         15    1    1    2    0    0  0.17556214289E+01  0.13139452852E+02  0.28828067175E+02  0.31779594300E+02  0.17770000000E+01 0.  1.
</event>
<event>
 6    1  0.1697564E-002  0.1834276E+03  0.7546771E-02  0.1067719E+00
        -11   -1    0    0    0    0  0.00000000000E+00  0.00000000000E+00  0.18250000000E+03  0.18250000000E+03  0.00000000000E+00 0. -1.
         11   -1    0    0    0    0 -0.00000000000E+00 -0.00000000000E+00 -0.18250000000E+03  0.18250000000E+03  0.00000000000E+00 0. -1.
        -11    1    1    2    0    0  0.15256955592E+01 -0.45030478694E+01  0.12443294705E+03  0.12452374673E+03  0.00000000000E+00 0. -1.
         11    1    1    2    0    0 -0.17026257271E+01  0.40178151551E+01 -0.18151998172E+03  0.18157242505E+03  0.00000000000E+00 0. -1.
        -15    1    1    2    0    0 -0.99157478251E+00  0.77580270025E+00  0.44708547317E+00  0.22232194672E+01  0.17770000000E+01 0. -1.
         15    1    1    2    0    0  0.11685049503E+01 -0.29056998591E+00  0.56639949199E+02  0.56680608757E+02  0.17770000000E+01 0.  1.
</event>
<event>
 6    1  0.1697564E-002  0.1825680E+03  0.7546771E-02  0.1068401E+00
        -11   -1    0    0    0    0  0.00000000000E+00  0.00000000000E+00  0.18250000000E+03  0.18250000000E+03  0.00000000000E+00 0. -1.
         11   -1    0    0    0    0 -0.00000000000E+00 -0.00000000000E+00 -0.18250000000E+03  0.18250000000E+03  0.00000000000E+00 0. -1.
        -11    1    1    2    0    0  0.35523320599E+01  0.12922287132E+01  0.18239285559E+03  0.18243202210E+03  0.00000000000E+00 0. -1.
         11    1    1    2    0    0  0.44328190576E+00  0.63897574724E+00 -0.22370847508E+02  0.22384360770E+02  0.00000000000E+00 0. -1.
        -15    1    1    2    0    0 -0.52299443207E+00 -0.11982832840E+01 -0.10300560938E+03  0.10302923226E+03  0.17770000000E+01 0. -1.
         15    1    1    2    0    0 -0.34726195336E+01 -0.73292117640E+00 -0.57016398700E+02  0.57154384868E+02  0.17770000000E+01 0. -1.
</event>
<event>
 6    1  0.1697564E-002  0.1836864E+03  0.7546771E-02  0.1067514E+00
        -11   -1    0    0    0    0  0.00000000000E+00  0.00000000000E+00  0.18250000000E+03  0.18250000000E+03  0.00000000000E+00 0.  1.
         11   -1    0    0    0    0 -0.00000000000E+00 -0.00000000000E+00 -0.18250000000E+03  0.18250000000E+03  0.00000000000E+00 0. -1.
        -11    1    1    2    0    0  0.70114500090E+00 -0.61329255355E+01  0.18120846826E+03  0.18131357740E+03  0.00000000000E+00 0.  1.
         11    1    1    2    0    0  0.53105693051E+01 -0.10946180930E+01 -0.72438485926E+02  0.72641135580E+02  0.00000000000E+00 0. -1.
        -15    1    1    2    0    0 -0.46794634643E+01 -0.52321124067E+01 -0.18073256970E+02  0.19469790061E+02  0.17770000000E+01 0.  1.
         15    1    1    2    0    0 -0.13322508417E+01  0.12459656035E+02 -0.90696725369E+02  0.91575496955E+02  0.17770000000E+01 0. -1.
</event>
<event>
 6    1  0.1697564E-002  0.1835626E+03  0.7546771E-02  0.1067612E+00
        -11   -1    0    0    0    0  0.00000000000E+00  0.00000000000E+00  0.18250000000E+03  0.18250000000E+03  0.00000000000E+00 0.  1.
         11   -1    0    0    0    0 -0.00000000000E+00 -0.00000000000E+00 -0.18250000000E+03  0.18250000000E+03  0.00000000000E+00 0. -1.
        -11    1    1    2    0    0 -0.37854757954E+01 -0.53193207738E+00  0.11802363673E+03  0.11808552666E+03  0.00000000000E+00 0.  1.
         11    1    1    2    0    0  0.15732985438E+01  0.22295716847E+01 -0.18141689695E+03  0.18143741829E+03  0.00000000000E+00 0. -1.
        -15    1    1    2    0    0  0.75993739259E+00 -0.60677974831E+01  0.99961083190E+01  0.11852239521E+02  0.17770000000E+01 0.  1.
         15    1    1    2    0    0  0.14522398590E+01  0.43701578757E+01  0.53397151898E+02  0.53624815527E+02  0.17770000000E+01 0. -1.
</event>
<event>
 6    1  0.1697564E-002  0.1832483E+03  0.7546771E-02  0.1067861E+00
        -11   -1    0    0    0    0  0.00000000000E+00  0.00000000000E+00  0.18250000000E+03  0.18250000000E+03  0.00000000000E+00 0. -1.
         11   -1    0    0    0    0 -0.00000000000E+00 -0.00000000000E+00 -0.18250000000E+03  0.18250000000E+03  0.00000000000E+00 0. -1.
        -11    1    1    2    0    0 -0.12321505885E+02 -0.28450785800E+01  0.18131124703E+03  0.18175170502E+03  0.00000000000E+00 0. -1.
         11    1    1    2    0    0 -0.28834351354E+01 -0.19675690378E+01 -0.21751283115E+02  0.22029612871E+02  0.00000000000E+00 0. -1.
        -15    1    1    2    0    0  0.22802614158E+01  0.51432765557E+01 -0.15767690764E+02  0.16835399813E+02  0.17770000000E+01 0.  1.
         15    1    1    2    0    0  0.12924679604E+02 -0.33062893784E+00 -0.14379227315E+03  0.14438328229E+03  0.17770000000E+01 0. -1.
</event>
<event>
 6    1  0.1697564E-002  0.1877904E+03  0.7546771E-02  0.1064320E+00
        -11   -1    0    0    0    0  0.00000000000E+00  0.00000000000E+00  0.18250000000E+03  0.18250000000E+03  0.00000000000E+00 0.  1.
         11   -1    0    0    0    0 -0.00000000000E+00 -0.00000000000E+00 -0.18250000000E+03  0.18250000000E+03  0.00000000000E+00 0.  1.
        -11    1    1    2    0    0 -0.10698145843E+02 -0.59124088470E+01  0.88608188265E+02  0.89447291353E+02  0.00000000000E+00 0.  1.
         11    1    1    2    0    0  0.53651320955E+00 -0.14635489885E+02 -0.17660334175E+03  0.17720955315E+03  0.00000000000E+00 0.  1.
        -15    1    1    2    0    0  0.72274658701E+01  0.13481898900E+02  0.69110853810E+01  0.16879534680E+02  0.17770000000E+01 0.  1.
         15    1    1    2    0    0  0.29341667630E+01  0.70659998319E+01  0.81084068101E+02  0.81463620819E+02  0.17770000000E+01 0. -1.
</event>
<event>
 6    1  0.1697564E-002  0.1863710E+03  0.7546771E-02  0.1065415E+00
        -11   -1    0    0    0    0  0.00000000000E+00  0.00000000000E+00  0.18250000000E+03  0.18250000000E+03  0.00000000000E+00 0.  1.
         11   -1    0    0    0    0 -0.00000000000E+00 -0.00000000000E+00 -0.18250000000E+03  0.18250000000E+03  0.00000000000E+00 0. -1.
        -11    1    1    2    0    0  0.18493228981E+01  0.20103656069E+01  0.16658543248E+03  0.16660782658E+03  0.00000000000E+00 0.  1.
         11    1    1    2    0    0  0.91191563623E+01 -0.54969551701E+01 -0.17831132830E+03  0.17862895994E+03  0.00000000000E+00 0. -1.
        -15    1    1    2    0    0 -0.10146869330E+02  0.31188633709E+01  0.35276618271E+01  0.11326446614E+02  0.17770000000E+01 0.  1.
         15    1    1    2    0    0 -0.82160993042E+00  0.36772619229E+00  0.81982339983E+01  0.84367668643E+01  0.17770000000E+01 0. -1.
</event>
<event>
 6    1  0.1697564E-002  0.1709196E+03  0.7546771E-02  0.1078066E+00
        -11   -1    0    0    0    0  0.00000000000E+00  0.00000000000E+00  0.18250000000E+03  0.18250000000E+03  0.00000000000E+00 0. -1.
         11   -1    0    0    0    0 -0.00000000000E+00 -0.00000000000E+00 -0.18250000000E+03  0.18250000000E+03  0.00000000000E+00 0.  1.
        -11    1    1    2    0    0  0.83951991235E+01  0.19544305161E+01  0.17236527471E+03  0.17258066836E+03  0.00000000000E+00 0. -1.
         11    1    1    2    0    0 -0.95603181317E-01  0.63365295852E+01 -0.16935450992E+03  0.16947303850E+03  0.00000000000E+00 0.  1.
        -15    1    1    2    0    0 -0.49907025614E+01  0.25131246765E+01 -0.84464002306E+01  0.10282135651E+02  0.17770000000E+01 0.  1.
         15    1    1    2    0    0 -0.33088933808E+01 -0.10804084778E+02  0.54356354459E+01  0.12664157492E+02  0.17770000000E+01 0. -1.
</event>
<event>
 6    1  0.1697564E-002  0.1765166E+03  0.7546771E-02  0.1073320E+00
        -11   -1    0    0    0    0  0.00000000000E+00  0.00000000000E+00  0.18250000000E+03  0.18250000000E+03  0.00000000000E+00 0. -1.
         11   -1    0    0    0    0 -0.00000000000E+00 -0.00000000000E+00 -0.18250000000E+03  0.18250000000E+03  0.00000000000E+00 0.  1.
        -11    1    1    2    0    0 -0.28035682995E+01  0.34509758515E+01  0.17771173112E+03  0.17776734404E+03  0.00000000000E+00 0. -1.
         11    1    1    2    0    0 -0.54351529671E+01 -0.45282342093E+01 -0.17522950580E+03  0.17537224836E+03  0.00000000000E+00 0.  1.
        -15    1    1    2    0    0  0.21755760124E+01  0.30407276860E+01 -0.31622765917E+01  0.52093068722E+01  0.17770000000E+01 0. -1.
         15    1    1    2    0    0  0.60631452542E+01 -0.19634693282E+01  0.68005127537E+00  0.66511007295E+01  0.17770000000E+01 0.  1.
</event>
<event>
 6    1  0.1697564E-002  0.1860523E+03  0.7546771E-02  0.1065662E+00
        -11   -1    0    0    0    0  0.00000000000E+00  0.00000000000E+00  0.18250000000E+03  0.18250000000E+03  0.00000000000E+00 0.  1.
         11   -1    0    0    0    0 -0.00000000000E+00 -0.00000000000E+00 -0.18250000000E+03  0.18250000000E+03  0.00000000000E+00 0.  1.
        -11    1    1    2    0    0 -0.36535345923E+01  0.82919018294E+01  0.11441368531E+03  0.11477192747E+03  0.00000000000E+00 0.  1.
         11    1    1    2    0    0  0.34949981685E+01  0.13850704575E+01 -0.17890818496E+03  0.17894767972E+03  0.00000000000E+00 0.  1.
        -15    1    1    2    0    0  0.74781917613E+01  0.16856708426E+01  0.52608858732E+02  0.53194121708E+02  0.17770000000E+01 0.  1.
         15    1    1    2    0    0 -0.73196553375E+01 -0.11362643129E+02  0.11885640920E+02  0.18086271098E+02  0.17770000000E+01 0. -1.
</event>
<event>
 6    1  0.1697564E-002  0.1837781E+03  0.7546771E-02  0.1067442E+00
        -11   -1    0    0    0    0  0.00000000000E+00  0.00000000000E+00  0.18250000000E+03  0.18250000000E+03  0.00000000000E+00 0. -1.
         11   -1    0    0    0    0 -0.00000000000E+00 -0.00000000000E+00 -0.18250000000E+03  0.18250000000E+03  0.00000000000E+00 0.  1.
        -11    1    1    2    0    0 -0.53342505506E+01  0.45968524815E+01  0.13886003023E+03  0.13903845971E+03  0.00000000000E+00 0. -1.
         11    1    1    2    0    0 -0.28388505454E+01 -0.37350126139E+01 -0.18116119267E+03  0.18122192782E+03  0.00000000000E+00 0.  1.
        -15    1    1    2    0    0  0.71956158444E+01  0.14102706707E+01  0.11288070807E+02  0.13577334874E+02  0.17770000000E+01 0. -1.
         15    1    1    2    0    0  0.97748525161E+00 -0.22721105383E+01  0.31013091633E+02  0.31162277602E+02  0.17770000000E+01 0.  1.
</event>
<event>
 6    1  0.1697564E-002  0.1882604E+03  0.7546771E-02  0.1063960E+00
        -11   -1    0    0    0    0  0.00000000000E+00  0.00000000000E+00  0.18250000000E+03  0.18250000000E+03  0.00000000000E+00 0. -1.
         11   -1    0    0    0    0 -0.00000000000E+00 -0.00000000000E+00 -0.18250000000E+03  0.18250000000E+03  0.00000000000E+00 0.  1.
        -11    1    1    2    0    0 -0.50944745776E+01 -0.64003378889E+00  0.17514882624E+03  0.17522406983E+03  0.00000000000E+00 0. -1.
         11    1    1    2    0    0  0.37930183355E+01  0.11473696487E+01 -0.17669519175E+03  0.17673962270E+03  0.00000000000E+00 0.  1.
        -15    1    1    2    0    0 -0.18952972196E+01 -0.20784744091E+01  0.61243287624E+01  0.69697445584E+01  0.17770000000E+01 0.  1.
         15    1    1    2    0    0  0.31967534618E+01  0.15711385493E+01 -0.45779632490E+01  0.60665629104E+01  0.17770000000E+01 0. -1.
</event>
<event>
 6    1  0.1697564E-002  0.1833290E+03  0.7546771E-02  0.1067797E+00
        -11   -1    0    0    0    0  0.00000000000E+00  0.00000000000E+00  0.18250000000E+03  0.18250000000E+03  0.00000000000E+00 0. -1.
         11   -1    0    0    0    0 -0.00000000000E+00 -0.00000000000E+00 -0.18250000000E+03  0.18250000000E+03  0.00000000000E+00 0.  1.
        -11    1    1    2    0    0  0.86987202918E+00 -0.22520543603E+01  0.10238226790E+03  0.10241072798E+03  0.00000000000E+00 0. -1.
         11    1    1    2    0    0  0.20480687120E+01  0.23905513922E+01 -0.18164369650E+03  0.18167097126E+03  0.00000000000E+00 0.  1.
        -15    1    1    2    0    0  0.12670000541E+01 -0.10606169486E+01  0.73414080243E+02  0.73454170095E+02  0.17770000000E+01 0. -1.
         15    1    1    2    0    0 -0.41849407953E+01  0.92211991673E+00  0.58473483603E+01  0.74641306558E+01  0.17770000000E+01 0.  1.
</event>
<event>
 6    1  0.1697564E-002  0.1825491E+03  0.7546771E-02  0.1068416E+00
        -11   -1    0    0    0    0  0.00000000000E+00  0.00000000000E+00  0.18250000000E+03  0.18250000000E+03  0.00000000000E+00 0. -1.
         11   -1    0    0    0    0 -0.00000000000E+00 -0.00000000000E+00 -0.18250000000E+03  0.18250000000E+03  0.00000000000E+00 0.  1.
        -11    1    1    2    0    0  0.50703425837E+00  0.11038042156E+01  0.31040655918E+02  0.31064413520E+02  0.00000000000E+00 0. -1.
         11    1    1    2    0    0 -0.43502551095E+01  0.20731719448E+01 -0.18238721302E+03  0.18245086526E+03  0.00000000000E+00 0.  1.
        -15    1    1    2    0    0  0.26458508059E+01 -0.28402425451E+01  0.10704754928E+03  0.10713264228E+03  0.17770000000E+01 0. -1.
         15    1    1    2    0    0  0.11973700452E+01 -0.33673361534E+00  0.44299007814E+02  0.44352078946E+02  0.17770000000E+01 0. -1.
</event>
<event>
 6    1  0.1697564E-002  0.1845868E+03  0.7546771E-02  0.1066806E+00
        -11   -1    0    0    0    0  0.00000000000E+00  0.00000000000E+00  0.18250000000E+03  0.18250000000E+03  0.00000000000E+00 0. -1.
         11   -1    0    0    0    0 -0.00000000000E+00 -0.00000000000E+00 -0.18250000000E+03  0.18250000000E+03  0.00000000000E+00 0. -1.
        -11    1    1    2    0    0 -0.26355119072E+01 -0.10349614923E+01  0.17821176271E+03  0.17823425438E+03  0.00000000000E+00 0. -1.
         11    1    1    2    0    0  0.26725811330E+01 -0.63013114216E-01 -0.18039339759E+03  0.18041320504E+03  0.00000000000E+00 0. -1.
        -15    1    1    2    0    0  0.14721311175E+01 -0.89414869398E+00 -0.18100055653E+00  0.24813629552E+01  0.17770000000E+01 0. -1.
         15    1    1    2    0    0 -0.15092003433E+01  0.19921233005E+01  0.23626354383E+01  0.38711776160E+01  0.17770000000E+01 0.  1.
</event>
<event>
 6    1  0.1697564E-002  0.1851828E+03  0.7546771E-02  0.1066339E+00
        -11   -1    0    0    0    0  0.00000000000E+00  0.00000000000E+00  0.18250000000E+03  0.18250000000E+03  0.00000000000E+00 0.  1.
         11   -1    0    0    0    0 -0.00000000000E+00 -0.00000000000E+00 -0.18250000000E+03  0.18250000000E+03  0.00000000000E+00 0.  1.
        -11    1    1    2    0    0 -0.33668401013E+01 -0.16709248754E+00  0.17156402704E+03  0.17159714131E+03  0.00000000000E+00 0.  1.
         11    1    1    2    0    0  0.12602425144E+01 -0.24630643993E+01 -0.17979596209E+03  0.17981724857E+03  0.00000000000E+00 0.  1.
        -15    1    1    2    0    0  0.28306130668E+01  0.53181528460E+01  0.21036461553E+01  0.66240603993E+01  0.17770000000E+01 0.  1.
         15    1    1    2    0    0 -0.72401547985E+00 -0.26879959592E+01  0.61282888999E+01  0.69615497220E+01  0.17770000000E+01 0. -1.
</event>
<event>
 6    1  0.1697564E-002  0.1831415E+03  0.7546771E-02  0.1067945E+00
        -11   -1    0    0    0    0  0.00000000000E+00  0.00000000000E+00  0.18250000000E+03  0.18250000000E+03  0.00000000000E+00 0.  1.
         11   -1    0    0    0    0 -0.00000000000E+00 -0.00000000000E+00 -0.18250000000E+03  0.18250000000E+03  0.00000000000E+00 0. -1.
        -11    1    1    2    0    0 -0.31187239555E+01 -0.28408619985E+01  0.18180960753E+03  0.18185854483E+03  0.00000000000E+00 0.  1.
         11    1    1    2    0    0  0.29411428024E+01 -0.12974453342E+01 -0.22573887317E+02  0.22801624371E+02  0.00000000000E+00 0. -1.
        -15    1    1    2    0    0 -0.13290568222E+01 -0.26794473044E+01 -0.13526543476E+03  0.13531016740E+03  0.17770000000E+01 0. -1.
         15    1    1    2    0    0  0.15066379753E+01  0.68177546372E+01 -0.23970285453E+02  0.25029663401E+02  0.17770000000E+01 0.  1.
</event>
<event>
 6    1  0.2126409E-002  0.1860522E+03  0.7546771E-02  0.1065662E+00
        -11   -1    0    0    0    0  0.00000000000E+00  0.00000000000E+00  0.18250000000E+03  0.18250000000E+03  0.00000000000E+00 0.  1.
         11   -1    0    0    0    0 -0.00000000000E+00 -0.00000000000E+00 -0.18250000000E+03  0.18250000000E+03  0.00000000000E+00 0.  1.
        -11    1    1    2    0    0 -0.29159898266E+01  0.70685514731E+00  0.17892266279E+03  0.17894781893E+03  0.00000000000E+00 0.  1.
         11    1    1    2    0    0 -0.85072338387E+01  0.54891641594E+01 -0.15087244682E+03  0.15121176925E+03  0.00000000000E+00 0.  1.
        -15    1    1    2    0    0  0.10568584175E+02 -0.85176606525E+01 -0.28634763120E+02  0.31738823267E+02  0.17770000000E+01 0. -1.
         15    1    1    2    0    0  0.85463949069E+00  0.23216413458E+01  0.58454714889E+00  0.31015885554E+01  0.17770000000E+01 0.  1.
</event>
<event>
 6    1  0.1697564E-002  0.1907350E+03  0.7546771E-02  0.1062082E+00
        -11   -1    0    0    0    0  0.00000000000E+00  0.00000000000E+00  0.18250000000E+03  0.18250000000E+03  0.00000000000E+00 0.  1.
         11   -1    0    0    0    0 -0.00000000000E+00 -0.00000000000E+00 -0.18250000000E+03  0.18250000000E+03  0.00000000000E+00 0.  1.
        -11    1    1    2    0    0  0.27195890824E+01  0.73174222767E+00  0.10321711258E+03  0.10325552741E+03  0.00000000000E+00 0.  1.
         11    1    1    2    0    0  0.80295662487E+01  0.68977950732E+01 -0.17394318485E+03  0.17426498520E+03  0.00000000000E+00 0.  1.
        -15    1    1    2    0    0 -0.38891957441E+01  0.15134472080E+01  0.75007795693E+02  0.75144816918E+02  0.17770000000E+01 0. -1.
         15    1    1    2    0    0 -0.68599595870E+01 -0.91429845088E+01 -0.42817234258E+01  0.12334670476E+02  0.17770000000E+01 0.  1.
</event>
<event>
 6    1  0.1697564E-002  0.1838003E+03  0.7546771E-02  0.1067424E+00
        -11   -1    0    0    0    0  0.00000000000E+00  0.00000000000E+00  0.18250000000E+03  0.18250000000E+03  0.00000000000E+00 0. -1.
         11   -1    0    0    0    0 -0.00000000000E+00 -0.00000000000E+00 -0.18250000000E+03  0.18250000000E+03  0.00000000000E+00 0. -1.
        -11    1    1    2    0    0 -0.41781906888E+01 -0.27764640962E+01  0.16668485746E+03  0.16676033023E+03  0.00000000000E+00 0. -1.
         11    1    1    2    0    0 -0.23037702510E+01  0.17352919338E+01 -0.18117676295E+03  0.18119971863E+03  0.00000000000E+00 0. -1.
        -15    1    1    2    0    0  0.50224741322E+01  0.28026224572E+01  0.10574985539E+02  0.12168318996E+02  0.17770000000E+01 0.  1.
         15    1    1    2    0    0  0.14594868077E+01 -0.17614502947E+01  0.39169199527E+01  0.48716321494E+01  0.17770000000E+01 0. -1.
</event>
<event>
 6    1  0.1697564E-002  0.1842418E+03  0.7546771E-02  0.1067077E+00
        -11   -1    0    0    0    0  0.00000000000E+00  0.00000000000E+00  0.18250000000E+03  0.18250000000E+03  0.00000000000E+00 0. -1.
         11   -1    0    0    0    0 -0.00000000000E+00 -0.00000000000E+00 -0.18250000000E+03  0.18250000000E+03  0.00000000000E+00 0.  1.
        -11    1    1    2    0    0  0.67941331299E+00  0.27785815973E+01  0.18073551859E+03  0.18075815279E+03  0.00000000000E+00 0. -1.
         11    1    1    2    0    0 -0.47527193652E+01 -0.32786121828E+01 -0.15202356845E+03  0.15213317522E+03  0.00000000000E+00 0.  1.
        -15    1    1    2    0    0  0.49893665366E+01 -0.26642432134E+01 -0.40870787730E+01  0.72009660625E+01  0.17770000000E+01 0. -1.
         15    1    1    2    0    0 -0.91606048448E+00  0.31642737988E+01 -0.24624871375E+02  0.24907705931E+02  0.17770000000E+01 0.  1.
</event>
<event>
 6    1  0.1697564E-002  0.1830173E+03  0.7546771E-02  0.1068044E+00
        -11   -1    0    0    0    0  0.00000000000E+00  0.00000000000E+00  0.18250000000E+03  0.18250000000E+03  0.00000000000E+00 0. -1.
         11   -1    0    0    0    0 -0.00000000000E+00 -0.00000000000E+00 -0.18250000000E+03  0.18250000000E+03  0.00000000000E+00 0.  1.
        -11    1    1    2    0    0 -0.97162231263E+00  0.20883646990E+01  0.13761274818E+03  0.13763202308E+03  0.00000000000E+00 0. -1.
         11    1    1    2    0    0  0.24482480998E+01  0.19100773429E+01 -0.18195623248E+03  0.18198272680E+03  0.00000000000E+00 0.  1.
        -15    1    1    2    0    0 -0.17889053961E+01 -0.28759977734E+01  0.42179057056E+02  0.42352120713E+02  0.17770000000E+01 0. -1.
         15    1    1    2    0    0  0.31227960889E+00 -0.11224442685E+01  0.21644272451E+01  0.30331294053E+01  0.17770000000E+01 0.  1.
</event>
<event>
 6    1  0.1697564E-002  0.1839411E+03  0.7546771E-02  0.1067313E+00
        -11   -1    0    0    0    0  0.00000000000E+00  0.00000000000E+00  0.18250000000E+03  0.18250000000E+03  0.00000000000E+00 0. -1.
         11   -1    0    0    0    0 -0.00000000000E+00 -0.00000000000E+00 -0.18250000000E+03  0.18250000000E+03  0.00000000000E+00 0.  1.
        -11    1    1    2    0    0  0.91989574938E+01 -0.31790258710E+01  0.14610324922E+03  0.14642706874E+03  0.00000000000E+00 0. -1.
         11    1    1    2    0    0 -0.22376483950E+01  0.44808290978E+01 -0.18098958524E+03  0.18105887127E+03  0.00000000000E+00 0.  1.
        -15    1    1    2    0    0  0.19721585615E+01 -0.31855568692E+01  0.72200068252E+01  0.83260680705E+01  0.17770000000E+01 0.  1.
         15    1    1    2    0    0 -0.89334676603E+01  0.18837536424E+01  0.27666329195E+02  0.29187991921E+02  0.17770000000E+01 0. -1.
</event>
<event>
 6    1  0.1697564E-002  0.1829982E+03  0.7546771E-02  0.1068059E+00
        -11   -1    0    0    0    0  0.00000000000E+00  0.00000000000E+00  0.18250000000E+03  0.18250000000E+03  0.00000000000E+00 0.  1.
         11   -1    0    0    0    0 -0.00000000000E+00 -0.00000000000E+00 -0.18250000000E+03  0.18250000000E+03  0.00000000000E+00 0.  1.
        -11    1    1    2    0    0 -0.15891225541E+01 -0.20972456332E+01  0.13217909686E+02  0.13477272951E+02  0.00000000000E+00 0.  1.
         11    1    1    2    0    0  0.40815899585E+01  0.11613215306E+01 -0.18195227727E+03  0.18200175616E+03  0.00000000000E+00 0.  1.
        -15    1    1    2    0    0 -0.38719737412E+01 -0.67245202194E+01  0.10213525963E+03  0.10244501131E+03  0.17770000000E+01 0. -1.
         15    1    1    2    0    0  0.13795063368E+01  0.76604443220E+01  0.66599107949E+02  0.67075959579E+02  0.17770000000E+01 0.  1.
</event>
<event>
 6    1  0.1697564E-002  0.1846583E+03  0.7546771E-02  0.1066750E+00
        -11   -1    0    0    0    0  0.00000000000E+00  0.00000000000E+00  0.18250000000E+03  0.18250000000E+03  0.00000000000E+00 0. -1.
         11   -1    0    0    0    0 -0.00000000000E+00 -0.00000000000E+00 -0.18250000000E+03  0.18250000000E+03  0.00000000000E+00 0. -1.
        -11    1    1    2    0    0  0.43238792879E-01 -0.33642786956E+01  0.16797878820E+03  0.16801248027E+03  0.00000000000E+00 0. -1.
         11    1    1    2    0    0  0.60304273924E+01  0.31344664014E+01 -0.18021355718E+03  0.18034166775E+03  0.00000000000E+00 0. -1.
        -15    1    1    2    0    0 -0.98472996402E+00  0.38690978413E+01  0.28124147024E+01  0.51968275579E+01  0.17770000000E+01 0. -1.
         15    1    1    2    0    0 -0.50889362212E+01 -0.36392855471E+01  0.94223542816E+01  0.11449024429E+02  0.17770000000E+01 0.  1.
</event>
<event>
 6    1  0.1697564E-002  0.1784312E+03  0.7546771E-02  0.1071740E+00
        -11   -1    0    0    0    0  0.00000000000E+00  0.00000000000E+00  0.18250000000E+03  0.18250000000E+03  0.00000000000E+00 0.  1.
         11   -1    0    0    0    0 -0.00000000000E+00 -0.00000000000E+00 -0.18250000000E+03  0.18250000000E+03  0.00000000000E+00 0. -1.
        -11    1    1    2    0    0  0.12302411236E+01 -0.37480245124E+01  0.17749325099E+03  0.17753708155E+03  0.00000000000E+00 0.  1.
         11    1    1    2    0    0 -0.29635126978E+01 -0.10239295968E+01 -0.17933882100E+03  0.17936622747E+03  0.00000000000E+00 0. -1.
        -15    1    1    2    0    0  0.26447401875E+01  0.41208667841E+01 -0.13340572457E+00  0.52107312154E+01  0.17770000000E+01 0. -1.
         15    1    1    2    0    0 -0.91146861336E+00  0.65108732520E+00  0.19789757414E+01  0.28859597577E+01  0.17770000000E+01 0.  1.
</event>
<event>
 6    1  0.1697564E-002  0.1879915E+03  0.7546771E-02  0.1064166E+00
        -11   -1    0    0    0    0  0.00000000000E+00  0.00000000000E+00  0.18250000000E+03  0.18250000000E+03  0.00000000000E+00 0. -1.
         11   -1    0    0    0    0 -0.00000000000E+00 -0.00000000000E+00 -0.18250000000E+03  0.18250000000E+03  0.00000000000E+00 0. -1.
        -11    1    1    2    0    0 -0.43948522803E+01 -0.78434681496E+01  0.12875908091E+03  0.12907259831E+03  0.00000000000E+00 0. -1.
         11    1    1    2    0    0  0.69916375074E+01  0.89054440243E+00 -0.17686808538E+03  0.17700846220E+03  0.00000000000E+00 0. -1.
        -15    1    1    2    0    0 -0.73520213102E+01 -0.37677447003E+00 -0.21522503438E+01  0.78729973256E+01  0.17770000000E+01 0.  1.
         15    1    1    2    0    0  0.47552360831E+01  0.73296982172E+01  0.50261254817E+02  0.51045942159E+02  0.17770000000E+01 0. -1.
</event>
<event>
 6    1  0.1697564E-002  0.1874811E+03  0.7546771E-02  0.1064558E+00
        -11   -1    0    0    0    0  0.00000000000E+00  0.00000000000E+00  0.18250000000E+03  0.18250000000E+03  0.00000000000E+00 0. -1.
         11   -1    0    0    0    0 -0.00000000000E+00 -0.00000000000E+00 -0.18250000000E+03  0.18250000000E+03  0.00000000000E+00 0.  1.
        -11    1    1    2    0    0  0.83611948371E+00 -0.35100996687E+01  0.17748222802E+03  0.17751890366E+03  0.00000000000E+00 0. -1.
         11    1    1    2    0    0 -0.13748230516E+01  0.60358049080E+01 -0.13658261371E+03  0.13672282709E+03  0.00000000000E+00 0.  1.
        -15    1    1    2    0    0  0.66364279880E+01  0.36448110434E+01 -0.41170762144E+02  0.41898880755E+02  0.17770000000E+01 0. -1.
         15    1    1    2    0    0 -0.60977244200E+01 -0.61705162826E+01  0.27114784014E+00  0.88593884918E+01  0.17770000000E+01 0.  1.
</event>
<event>
 6    1  0.1697564E-002  0.1852336E+03  0.7546771E-02  0.1066299E+00
        -11   -1    0    0    0    0  0.00000000000E+00  0.00000000000E+00  0.18250000000E+03  0.18250000000E+03  0.00000000000E+00 0.  1.
         11   -1    0    0    0    0 -0.00000000000E+00 -0.00000000000E+00 -0.18250000000E+03  0.18250000000E+03  0.00000000000E+00 0.  1.
        -11    1    1    2    0    0 -0.23029616795E-01 -0.30392576439E+01  0.16400397870E+03  0.16403213906E+03  0.00000000000E+00 0.  1.
         11    1    1    2    0    0 -0.35097318459E+01 -0.59810141849E+01 -0.17963263865E+03  0.17976644741E+03  0.00000000000E+00 0.  1.
        -15    1    1    2    0    0  0.52220508586E+01  0.60529934975E+00  0.64891204895E+01  0.85383028876E+01  0.17770000000E+01 0. -1.
         15    1    1    2    0    0 -0.16892893959E+01  0.84149724790E+01  0.91395394602E+01  0.12663110638E+02  0.17770000000E+01 0.  1.
</event>
<event>
 6    1  0.1697564E-002  0.1860679E+03  0.7546771E-02  0.1065650E+00
        -11   -1    0    0    0    0  0.00000000000E+00  0.00000000000E+00  0.18250000000E+03  0.18250000000E+03  0.00000000000E+00 0.  1.
         11   -1    0    0    0    0 -0.00000000000E+00 -0.00000000000E+00 -0.18250000000E+03  0.18250000000E+03  0.00000000000E+00 0.  1.
        -11    1    1    2    0    0 -0.35424718048E+00 -0.45005287938E+01  0.17887518637E+03  0.17893214509E+03  0.00000000000E+00 0.  1.
         11    1    1    2    0    0  0.52040357292E+01  0.16503886894E+01 -0.15666128374E+03  0.15675638295E+03  0.00000000000E+00 0.  1.
        -15    1    1    2    0    0  0.10992790626E+01 -0.29778185368E+01 -0.20247700008E+02  0.20571895934E+02  0.17770000000E+01 0.  1.
         15    1    1    2    0    0 -0.59490676114E+01  0.58279586411E+01 -0.19662026148E+01  0.87395760246E+01  0.17770000000E+01 0. -1.
</event>
<event>
 6    1  0.1697564E-002  0.1848760E+03  0.7546771E-02  0.1066579E+00
        -11   -1    0    0    0    0  0.00000000000E+00  0.00000000000E+00  0.18250000000E+03  0.18250000000E+03  0.00000000000E+00 0.  1.
         11   -1    0    0    0    0 -0.00000000000E+00 -0.00000000000E+00 -0.18250000000E+03  0.18250000000E+03  0.00000000000E+00 0.  1.
        -11    1    1    2    0    0 -0.43032098912E+01 -0.54877372498E+01  0.15796959167E+03  0.15812344787E+03  0.00000000000E+00 0.  1.
         11    1    1    2    0    0  0.11152622596E+02 -0.28562156004E+01 -0.17975572164E+03  0.18012400845E+03  0.00000000000E+00 0.  1.
        -15    1    1    2    0    0 -0.45902338876E+00  0.28865929498E+01  0.16081716418E+02  0.16441485738E+02  0.17770000000E+01 0. -1.
         15    1    1    2    0    0 -0.63903893156E+01  0.54573599004E+01  0.57044135573E+01  0.10311057934E+02  0.17770000000E+01 0.  1.
</event>
<event>
 6    1  0.1697564E-002  0.1844782E+03  0.7546771E-02  0.1066891E+00
        -11   -1    0    0    0    0  0.00000000000E+00  0.00000000000E+00  0.18250000000E+03  0.18250000000E+03  0.00000000000E+00 0.  1.
         11   -1    0    0    0    0 -0.00000000000E+00 -0.00000000000E+00 -0.18250000000E+03  0.18250000000E+03  0.00000000000E+00 0. -1.
        -11    1    1    2    0    0  0.29980896999E+01  0.94143135857E+00  0.18049442424E+03  0.18052177712E+03  0.00000000000E+00 0.  1.
         11    1    1    2    0    0 -0.21222265437E+01 -0.34305963116E+01 -0.17699218645E+03  0.17703815098E+03  0.00000000000E+00 0. -1.
        -15    1    1    2    0    0 -0.28028885240E+01  0.19884760083E+01 -0.17404515753E+01  0.42423014508E+01  0.17770000000E+01 0. -1.
         15    1    1    2    0    0  0.19270253678E+01  0.50068894474E+00 -0.17617862124E+01  0.31977704492E+01  0.17770000000E+01 0. -1.
</event>
<event>
 6    1  0.1697564E-002  0.1843654E+03  0.7546771E-02  0.1066980E+00
        -11   -1    0    0    0    0  0.00000000000E+00  0.00000000000E+00  0.18250000000E+03  0.18250000000E+03  0.00000000000E+00 0. -1.
         11   -1    0    0    0    0 -0.00000000000E+00 -0.00000000000E+00 -0.18250000000E+03  0.18250000000E+03  0.00000000000E+00 0.  1.
        -11    1    1    2    0    0  0.47991864796E+01  0.20769128013E+01  0.18055886071E+03  0.18063457017E+03  0.00000000000E+00 0. -1.
         11    1    1    2    0    0 -0.61912679321E+01  0.81660987895E+01 -0.12740362198E+03  0.12781510029E+03  0.00000000000E+00 0.  1.
        -15    1    1    2    0    0  0.27968512685E+01 -0.66380719166E+01 -0.51420433458E+02  0.51952912159E+02  0.17770000000E+01 0.  1.
         15    1    1    2    0    0 -0.14047698160E+01 -0.36049396742E+01 -0.17348052723E+01  0.45974173862E+01  0.17770000000E+01 0. -1.
</event>
<event>
 6    1  0.1697564E-002  0.1836374E+03  0.7546771E-02  0.1067553E+00
        -11   -1    0    0    0    0  0.00000000000E+00  0.00000000000E+00  0.18250000000E+03  0.18250000000E+03  0.00000000000E+00 0.  1.
         11   -1    0    0    0    0 -0.00000000000E+00 -0.00000000000E+00 -0.18250000000E+03  0.18250000000E+03  0.00000000000E+00 0. -1.
        -11    1    1    2    0    0  0.47121876935E+01 -0.29196245154E+01  0.18127784797E+03  0.18136258458E+03  0.00000000000E+00 0.  1.
         11    1    1    2    0    0 -0.49286787922E+00  0.29891444112E+01 -0.13915308791E+03  0.13918606172E+03  0.00000000000E+00 0. -1.
        -15    1    1    2    0    0  0.67021516329E+00  0.14466233128E+01 -0.45454396115E+00  0.24302770597E+01  0.17770000000E+01 0.  1.
         15    1    1    2    0    0 -0.48895349776E+01 -0.15161432086E+01 -0.41670216101E+02  0.42021076634E+02  0.17770000000E+01 0.  1.
</event>
<event>
 6    1  0.1697564E-002  0.1826393E+03  0.7546771E-02  0.1068344E+00
        -11   -1    0    0    0    0  0.00000000000E+00  0.00000000000E+00  0.18250000000E+03  0.18250000000E+03  0.00000000000E+00 0.  1.
         11   -1    0    0    0    0 -0.00000000000E+00 -0.00000000000E+00 -0.18250000000E+03  0.18250000000E+03  0.00000000000E+00 0. -1.
        -11    1    1    2    0    0 -0.14381426213E+01  0.54811994742E+00  0.12350663518E+02  0.12446187328E+02  0.00000000000E+00 0.  1.
         11    1    1    2    0    0  0.23474525682E+01 -0.14600380264E+01 -0.18233978769E+03  0.18236074254E+03  0.00000000000E+00 0. -1.
        -15    1    1    2    0    0 -0.19031164885E+01 -0.29649895602E+00  0.15465828068E+03  0.15468048124E+03  0.17770000000E+01 0.  1.
         15    1    1    2    0    0  0.99380654161E+00  0.12084170350E+01  0.15330843491E+02  0.15512588898E+02  0.17770000000E+01 0. -1.
</event>
<event>
 6    1  0.1697564E-002  0.1912040E+03  0.7546771E-02  0.1061730E+00
        -11   -1    0    0    0    0  0.00000000000E+00  0.00000000000E+00  0.18250000000E+03  0.18250000000E+03  0.00000000000E+00 0.  1.
         11   -1    0    0    0    0 -0.00000000000E+00 -0.00000000000E+00 -0.18250000000E+03  0.18250000000E+03  0.00000000000E+00 0.  1.
        -11    1    1    2    0    0  0.19123281166E+01 -0.43134448671E+01  0.17373198772E+03  0.17379604818E+03  0.00000000000E+00 0.  1.
         11    1    1    2    0    0  0.96933381088E+01 -0.58069179158E+01 -0.15044604155E+03  0.15086978663E+03  0.00000000000E+00 0.  1.
        -15    1    1    2    0    0 -0.75445284243E+01  0.81078051672E+01  0.45288955328E+01  0.12096488644E+02  0.17770000000E+01 0.  1.
         15    1    1    2    0    0 -0.40611378011E+01  0.20125576157E+01 -0.27814841709E+02  0.28237676546E+02  0.17770000000E+01 0. -1.
</event>
<event>
 6    1  0.1697564E-002  0.1153859E+03  0.7546771E-02  0.1139585E+00
        -11   -1    0    0    0    0  0.00000000000E+00  0.00000000000E+00  0.18250000000E+03  0.18250000000E+03  0.00000000000E+00 0.  1.
         11   -1    0    0    0    0 -0.00000000000E+00 -0.00000000000E+00 -0.18250000000E+03  0.18250000000E+03  0.00000000000E+00 0. -1.
        -11    1    1    2    0    0  0.36077511773E+02 -0.83808274785E+02  0.12328226536E+03  0.15337513074E+03  0.00000000000E+00 0.  1.
         11    1    1    2    0    0  0.86256342193E+00 -0.29862722748E+01 -0.51671202172E+02  0.51764611190E+02  0.00000000000E+00 0. -1.
        -15    1    1    2    0    0 -0.38827751411E+02  0.93277544270E+02 -0.14221535953E+02  0.10204755930E+03  0.17770000000E+01 0.  1.
         15    1    1    2    0    0  0.18876762158E+01 -0.64829972102E+01 -0.57389527233E+02  0.57812698773E+02  0.17770000000E+01 0. -1.
</event>
<event>
 6    1  0.1697564E-002  0.1837830E+03  0.7546771E-02  0.1067438E+00
        -11   -1    0    0    0    0  0.00000000000E+00  0.00000000000E+00  0.18250000000E+03  0.18250000000E+03  0.00000000000E+00 0. -1.
         11   -1    0    0    0    0 -0.00000000000E+00 -0.00000000000E+00 -0.18250000000E+03  0.18250000000E+03  0.00000000000E+00 0.  1.
        -11    1    1    2    0    0  0.37497850950E+01 -0.69924822540E+01  0.13487702239E+03  0.13511020267E+03  0.00000000000E+00 0. -1.
         11    1    1    2    0    0  0.40789084917E+01  0.34108442934E+01 -0.18113893771E+03  0.18121695866E+03  0.00000000000E+00 0.  1.
        -15    1    1    2    0    0 -0.68096945437E+01 -0.33052684848E-01  0.42465691824E+02  0.43044927033E+02  0.17770000000E+01 0.  1.
         15    1    1    2    0    0 -0.10189990430E+01  0.36146906454E+01  0.37962234934E+01  0.56279116307E+01  0.17770000000E+01 0. -1.
</event>
<event>
 6    1  0.1697564E-002  0.1830840E+03  0.7546771E-02  0.1067991E+00
        -11   -1    0    0    0    0  0.00000000000E+00  0.00000000000E+00  0.18250000000E+03  0.18250000000E+03  0.00000000000E+00 0. -1.
         11   -1    0    0    0    0 -0.00000000000E+00 -0.00000000000E+00 -0.18250000000E+03  0.18250000000E+03  0.00000000000E+00 0. -1.
        -11    1    1    2    0    0  0.10884048360E+02 -0.72049828036E+01  0.18144711021E+03  0.18191599184E+03  0.00000000000E+00 0. -1.
         11    1    1    2    0    0 -0.42636724818E+00 -0.56240713603E+00 -0.26114909687E+02  0.26124444468E+02  0.00000000000E+00 0. -1.
        -15    1    1    2    0    0  0.11916638893E+01 -0.19651367903E+01 -0.82009036614E+02  0.82060475509E+02  0.17770000000E+01 0. -1.
         15    1    1    2    0    0 -0.11649345001E+02  0.97325267299E+01 -0.73323163907E+02  0.74899088178E+02  0.17770000000E+01 0. -1.
</event>
<event>
 6    1  0.1697564E-002  0.1853388E+03  0.7546771E-02  0.1066217E+00
        -11   -1    0    0    0    0  0.00000000000E+00  0.00000000000E+00  0.18250000000E+03  0.18250000000E+03  0.00000000000E+00 0. -1.
         11   -1    0    0    0    0 -0.00000000000E+00 -0.00000000000E+00 -0.18250000000E+03  0.18250000000E+03  0.00000000000E+00 0.  1.
        -11    1    1    2    0    0  0.44017213297E+01 -0.77413040748E+01  0.17944035108E+03  0.17966118817E+03  0.00000000000E+00 0. -1.
         11    1    1    2    0    0  0.20990995992E+01 -0.22431168533E+01 -0.84676812810E+02  0.84732522800E+02  0.00000000000E+00 0.  1.
        -15    1    1    2    0    0 -0.74585736387E+01  0.10592414992E+02 -0.11791822324E+02  0.17607793127E+02  0.17770000000E+01 0. -1.
         15    1    1    2    0    0  0.95775270985E+00 -0.60799406370E+00 -0.82971715943E+02  0.82998495905E+02  0.17770000000E+01 0.  1.
</event>
<event>
 6    1  0.1697564E-002  0.1843074E+03  0.7546771E-02  0.1067025E+00
        -11   -1    0    0    0    0  0.00000000000E+00  0.00000000000E+00  0.18250000000E+03  0.18250000000E+03  0.00000000000E+00 0. -1.
         11   -1    0    0    0    0 -0.00000000000E+00 -0.00000000000E+00 -0.18250000000E+03  0.18250000000E+03  0.00000000000E+00 0. -1.
        -11    1    1    2    0    0  0.80636351454E+00 -0.24957058571E+01  0.18067353907E+03  0.18069257453E+03  0.00000000000E+00 0. -1.
         11    1    1    2    0    0 -0.10817244522E+01  0.20485706073E+01 -0.16348114469E+03  0.16349755790E+03  0.00000000000E+00 0. -1.
        -15    1    1    2    0    0 -0.30146811467E+01  0.20244207171E+01 -0.10664593543E+01  0.41811058597E+01  0.17770000000E+01 0. -1.
         15    1    1    2    0    0  0.32900420843E+01 -0.15772854673E+01 -0.16125935029E+02  0.16628761708E+02  0.17770000000E+01 0. -1.
</event>
<event>
 6    1  0.1697564E-002  0.1835249E+03  0.7546771E-02  0.1067642E+00
        -11   -1    0    0    0    0  0.00000000000E+00  0.00000000000E+00  0.18250000000E+03  0.18250000000E+03  0.00000000000E+00 0. -1.
         11   -1    0    0    0    0 -0.00000000000E+00 -0.00000000000E+00 -0.18250000000E+03  0.18250000000E+03  0.00000000000E+00 0. -1.
        -11    1    1    2    0    0 -0.86149264231E+01 -0.11692703128E+01  0.18126677271E+03  0.18147514165E+03  0.00000000000E+00 0. -1.
         11    1    1    2    0    0 -0.31515503515E+01 -0.19768156657E+01 -0.21439569161E+02  0.21759944752E+02  0.00000000000E+00 0. -1.
        -15    1    1    2    0    0  0.83133847746E+01  0.60931431803E+01 -0.15310059008E+03  0.15345744417E+03  0.17770000000E+01 0. -1.
         15    1    1    2    0    0  0.34530919999E+01 -0.29470572018E+01 -0.67266134649E+01  0.83074694232E+01  0.17770000000E+01 0.  1.
</event>
<event>
 6    1  0.1697564E-002  0.1840212E+03  0.7546771E-02  0.1067250E+00
        -11   -1    0    0    0    0  0.00000000000E+00  0.00000000000E+00  0.18250000000E+03  0.18250000000E+03  0.00000000000E+00 0.  1.
         11   -1    0    0    0    0 -0.00000000000E+00 -0.00000000000E+00 -0.18250000000E+03  0.18250000000E+03  0.00000000000E+00 0.  1.
        -11    1    1    2    0    0 -0.33905500850E+00  0.25141089567E+01  0.18096104806E+03  0.18097882920E+03  0.00000000000E+00 0.  1.
         11    1    1    2    0    0  0.29402065185E+01  0.31014231563E+01 -0.17219412008E+03  0.17224714404E+03  0.00000000000E+00 0.  1.
        -15    1    1    2    0    0 -0.16483674698E+01 -0.22469929609E+01 -0.17656766869E+01  0.37471903934E+01  0.17770000000E+01 0.  1.
         15    1    1    2    0    0 -0.95278404016E+00 -0.33685391522E+01 -0.70012512904E+01  0.80268363680E+01  0.17770000000E+01 0. -1.
</event>
<event>
 6    1  0.1697564E-002  0.1841481E+03  0.7546771E-02  0.1067150E+00
        -11   -1    0    0    0    0  0.00000000000E+00  0.00000000000E+00  0.18250000000E+03  0.18250000000E+03  0.00000000000E+00 0. -1.
         11   -1    0    0    0    0 -0.00000000000E+00 -0.00000000000E+00 -0.18250000000E+03  0.18250000000E+03  0.00000000000E+00 0.  1.
        -11    1    1    2    0    0 -0.58537854446E+01 -0.84936956605E+01  0.18055751600E+03  0.18085194567E+03  0.00000000000E+00 0. -1.
         11    1    1    2    0    0  0.12011277675E+01  0.33629198932E+01 -0.15472425718E+03  0.15476546028E+03  0.00000000000E+00 0.  1.
        -15    1    1    2    0    0  0.20070350508E+01  0.42103257015E+01 -0.25572548625E+02  0.26055095555E+02  0.17770000000E+01 0.  1.
         15    1    1    2    0    0  0.26456226263E+01  0.92045006585E+00 -0.26071019447E+00  0.33274984913E+01  0.17770000000E+01 0. -1.
</event>
<event>
 6    1  0.1697564E-002  0.2069217E+03  0.7546771E-02  0.1050523E+00
        -11   -1    0    0    0    0  0.00000000000E+00  0.00000000000E+00  0.18250000000E+03  0.18250000000E+03  0.00000000000E+00 0.  1.
         11   -1    0    0    0    0 -0.00000000000E+00 -0.00000000000E+00 -0.18250000000E+03  0.18250000000E+03  0.00000000000E+00 0.  1.
        -11    1    1    2    0    0  0.12206312645E+02 -0.60258267590E+01  0.13332468825E+03  0.13401782402E+03  0.00000000000E+00 0.  1.
         11    1    1    2    0    0 -0.47704941591E+01 -0.44772265470E+01 -0.15794282759E+03  0.15807827162E+03  0.00000000000E+00 0.  1.
        -15    1    1    2    0    0 -0.18224779733E+02 -0.14871695586E+02 -0.12448085758E+02  0.26672504455E+02  0.17770000000E+01 0.  1.
         15    1    1    2    0    0  0.10788961247E+02  0.25374748892E+02  0.37066225091E+02  0.46231399909E+02  0.17770000000E+01 0. -1.
</event>
<event>
 6    1  0.1697564E-002  0.1828022E+03  0.7546771E-02  0.1068214E+00
        -11   -1    0    0    0    0  0.00000000000E+00  0.00000000000E+00  0.18250000000E+03  0.18250000000E+03  0.00000000000E+00 0. -1.
         11   -1    0    0    0    0 -0.00000000000E+00 -0.00000000000E+00 -0.18250000000E+03  0.18250000000E+03  0.00000000000E+00 0.  1.
        -11    1    1    2    0    0 -0.17712173575E+01  0.20598768174E+01  0.18217751555E+03  0.18219777022E+03  0.00000000000E+00 0. -1.
         11    1    1    2    0    0 -0.12312620223E+01 -0.42533229737E+00 -0.41244204327E+02  0.41264770741E+02  0.00000000000E+00 0.  1.
        -15    1    1    2    0    0  0.11549028686E+01 -0.32424815081E+01 -0.13284766130E+03  0.13290412458E+03  0.17770000000E+01 0.  1.
         15    1    1    2    0    0  0.18475765112E+01  0.16079369880E+01 -0.80856499160E+01  0.86333344593E+01  0.17770000000E+01 0. -1.
</event>
<event>
 6    1  0.1697564E-002  0.1857363E+03  0.7546771E-02  0.1065908E+00
        -11   -1    0    0    0    0  0.00000000000E+00  0.00000000000E+00  0.18250000000E+03  0.18250000000E+03  0.00000000000E+00 0. -1.
         11   -1    0    0    0    0 -0.00000000000E+00 -0.00000000000E+00 -0.18250000000E+03  0.18250000000E+03  0.00000000000E+00 0.  1.
        -11    1    1    2    0    0 -0.45245915339E+01 -0.65056936089E+01  0.16918382638E+03  0.16936930975E+03  0.00000000000E+00 0. -1.
         11    1    1    2    0    0 -0.41655272928E+01  0.13514713913E+01 -0.17921019725E+03  0.17926369652E+03  0.00000000000E+00 0.  1.
        -15    1    1    2    0    0  0.39005871606E+01  0.65740271233E+00  0.82704285846E+01  0.93383337109E+01  0.17770000000E+01 0. -1.
         15    1    1    2    0    0  0.47895316661E+01  0.44968195052E+01  0.17559422898E+01  0.70286600123E+01  0.17770000000E+01 0.  1.
</event>
<event>
 6    1  0.1697564E-002  0.1877816E+03  0.7546771E-02  0.1064327E+00
        -11   -1    0    0    0    0  0.00000000000E+00  0.00000000000E+00  0.18250000000E+03  0.18250000000E+03  0.00000000000E+00 0.  1.
         11   -1    0    0    0    0 -0.00000000000E+00 -0.00000000000E+00 -0.18250000000E+03  0.18250000000E+03  0.00000000000E+00 0. -1.
        -11    1    1    2    0    0  0.46095915540E+01 -0.24388957250E+01  0.17011176919E+03  0.17019168771E+03  0.00000000000E+00 0.  1.
         11    1    1    2    0    0  0.38394683758E+00 -0.29635460361E+01 -0.17719325251E+03  0.17721844925E+03  0.00000000000E+00 0. -1.
        -15    1    1    2    0    0 -0.55224265634E+01  0.26867556655E+01 -0.29442837079E+01  0.70386352873E+01  0.17770000000E+01 0. -1.
         15    1    1    2    0    0  0.52888817188E+00  0.27156860956E+01  0.10025767026E+02  0.10551227755E+02  0.17770000000E+01 0.  1.
</event>
<event>
 6    1  0.1697564E-002  0.1879841E+03  0.7546771E-02  0.1064171E+00
        -11   -1    0    0    0    0  0.00000000000E+00  0.00000000000E+00  0.18250000000E+03  0.18250000000E+03  0.00000000000E+00 0. -1.
         11   -1    0    0    0    0 -0.00000000000E+00 -0.00000000000E+00 -0.18250000000E+03  0.18250000000E+03  0.00000000000E+00 0. -1.
        -11    1    1    2    0    0 -0.46638859034E+01  0.17732418251E+01  0.17520858332E+03  0.17527961630E+03  0.00000000000E+00 0. -1.
         11    1    1    2    0    0  0.49489180140E+01 -0.51539906317E+00 -0.17694596802E+03  0.17701591178E+03  0.00000000000E+00 0. -1.
        -15    1    1    2    0    0 -0.50153611634E+01  0.26505452717E+01 -0.42637833803E+00  0.59597621869E+01  0.17770000000E+01 0. -1.
         15    1    1    2    0    0  0.47303290528E+01 -0.39083880336E+01  0.21637630317E+01  0.67447097363E+01  0.17770000000E+01 0.  1.
</event>
<event>
 6    1  0.1697564E-002  0.1849902E+03  0.7546771E-02  0.1066490E+00
        -11   -1    0    0    0    0  0.00000000000E+00  0.00000000000E+00  0.18250000000E+03  0.18250000000E+03  0.00000000000E+00 0. -1.
         11   -1    0    0    0    0 -0.00000000000E+00 -0.00000000000E+00 -0.18250000000E+03  0.18250000000E+03  0.00000000000E+00 0. -1.
        -11    1    1    2    0    0  0.23092985677E+01  0.40201219314E+00  0.16654203904E+03  0.16655853398E+03  0.00000000000E+00 0. -1.
         11    1    1    2    0    0 -0.89091854680E+00 -0.24029221872E+01 -0.17999157447E+03  0.18000981821E+03  0.00000000000E+00 0. -1.
        -15    1    1    2    0    0  0.43041660921E+00  0.86492466147E+00  0.15061518678E+02  0.15196724220E+02  0.17770000000E+01 0. -1.
         15    1    1    2    0    0 -0.18487966301E+01  0.11359853326E+01 -0.16119832513E+01  0.32349235939E+01  0.17770000000E+01 0.  1.
</event>
<event>
 6    1  0.1697564E-002  0.1831756E+03  0.7546771E-02  0.1067918E+00
        -11   -1    0    0    0    0  0.00000000000E+00  0.00000000000E+00  0.18250000000E+03  0.18250000000E+03  0.00000000000E+00 0.  1.
         11   -1    0    0    0    0 -0.00000000000E+00 -0.00000000000E+00 -0.18250000000E+03  0.18250000000E+03  0.00000000000E+00 0. -1.
        -11    1    1    2    0    0 -0.14742300583E+01 -0.38659163873E+01  0.18177728416E+03  0.18182436498E+03  0.00000000000E+00 0.  1.
         11    1    1    2    0    0  0.21508813467E+01  0.12093520696E+01 -0.17357827540E+03  0.17359581365E+03  0.00000000000E+00 0. -1.
        -15    1    1    2    0    0  0.50887274172E+00  0.19819439304E+01 -0.46896924393E+01  0.54164561649E+01  0.17770000000E+01 0. -1.
         15    1    1    2    0    0 -0.11855240300E+01  0.67462038731E+00 -0.35093163149E+01  0.41633652123E+01  0.17770000000E+01 0. -1.
</event>
<event>
 6    1  0.1697564E-002  0.1906453E+03  0.7546771E-02  0.1062150E+00
        -11   -1    0    0    0    0  0.00000000000E+00  0.00000000000E+00  0.18250000000E+03  0.18250000000E+03  0.00000000000E+00 0. -1.
         11   -1    0    0    0    0 -0.00000000000E+00 -0.00000000000E+00 -0.18250000000E+03  0.18250000000E+03  0.00000000000E+00 0. -1.
        -11    1    1    2    0    0 -0.28785587667E+01  0.44292649840E+01  0.16300569572E+03  0.16309126686E+03  0.00000000000E+00 0. -1.
         11    1    1    2    0    0  0.27910459936E+01 -0.18859902597E+01 -0.17432212478E+03  0.17435466752E+03  0.00000000000E+00 0. -1.
        -15    1    1    2    0    0  0.34631594494E+01 -0.25153749847E+01  0.18687876163E+02  0.19253961389E+02  0.17770000000E+01 0.  1.
         15    1    1    2    0    0 -0.33756466763E+01 -0.27899739555E-01 -0.73714471012E+01  0.83001042309E+01  0.17770000000E+01 0.  1.
</event>
<event>
 6    1  0.1697564E-002  0.1837732E+03  0.7546771E-02  0.1067446E+00
        -11   -1    0    0    0    0  0.00000000000E+00  0.00000000000E+00  0.18250000000E+03  0.18250000000E+03  0.00000000000E+00 0. -1.
         11   -1    0    0    0    0 -0.00000000000E+00 -0.00000000000E+00 -0.18250000000E+03  0.18250000000E+03  0.00000000000E+00 0.  1.
        -11    1    1    2    0    0 -0.21578522861E+00  0.44820753534E+01  0.18117122835E+03  0.18122679036E+03  0.00000000000E+00 0. -1.
         11    1    1    2    0    0 -0.40139179420E+01  0.17044859914E+00 -0.34523265771E+02  0.34756243604E+02  0.00000000000E+00 0.  1.
        -15    1    1    2    0    0 -0.70524328553E+01 -0.62832510554E+00 -0.11336067630E+03  0.11359547642E+03  0.17770000000E+01 0.  1.
         15    1    1    2    0    0  0.11282136026E+02 -0.40241988470E+01 -0.33287286280E+02  0.35421489615E+02  0.17770000000E+01 0. -1.
</event>
<event>
 6    1  0.1697564E-002  0.1847029E+03  0.7546771E-02  0.1066715E+00
        -11   -1    0    0    0    0  0.00000000000E+00  0.00000000000E+00  0.18250000000E+03  0.18250000000E+03  0.00000000000E+00 0.  1.
         11   -1    0    0    0    0 -0.00000000000E+00 -0.00000000000E+00 -0.18250000000E+03  0.18250000000E+03  0.00000000000E+00 0.  1.
        -11    1    1    2    0    0 -0.34950314656E+00 -0.39064049924E+01  0.17607748559E+03  0.17612116024E+03  0.00000000000E+00 0.  1.
         11    1    1    2    0    0 -0.38191063721E+01  0.79156872159E+00 -0.18025495719E+03  0.18029714847E+03  0.00000000000E+00 0.  1.
        -15    1    1    2    0    0  0.36999160670E+01  0.19320338302E+01  0.44795151025E+01  0.63754151377E+01  0.17770000000E+01 0. -1.
         15    1    1    2    0    0  0.46869345164E+00  0.11828024406E+01 -0.30204350329E+00  0.22062761484E+01  0.17770000000E+01 0.  1.
</event>
<event>
 6    1  0.1697564E-002  0.1829602E+03  0.7546771E-02  0.1068089E+00
        -11   -1    0    0    0    0  0.00000000000E+00  0.00000000000E+00  0.18250000000E+03  0.18250000000E+03  0.00000000000E+00 0.  1.
         11   -1    0    0    0    0 -0.00000000000E+00 -0.00000000000E+00 -0.18250000000E+03  0.18250000000E+03  0.00000000000E+00 0.  1.
        -11    1    1    2    0    0 -0.63214048079E+01 -0.57594096297E+00  0.18192905917E+03  0.18203976060E+03  0.00000000000E+00 0.  1.
         11    1    1    2    0    0 -0.15315549695E+01 -0.14893184570E+01 -0.12175157594E+03  0.12177031647E+03  0.00000000000E+00 0.  1.
        -15    1    1    2    0    0  0.83385682099E+01  0.32442083275E+00 -0.44857161606E+02  0.45661358335E+02  0.17770000000E+01 0. -1.
         15    1    1    2    0    0 -0.48560843247E+00  0.17408385872E+01 -0.15320321631E+02  0.15528564596E+02  0.17770000000E+01 0.  1.
</event>
<event>
 6    1  0.1697564E-002  0.1773774E+03  0.7546771E-02  0.1072607E+00
        -11   -1    0    0    0    0  0.00000000000E+00  0.00000000000E+00  0.18250000000E+03  0.18250000000E+03  0.00000000000E+00 0.  1.
         11   -1    0    0    0    0 -0.00000000000E+00 -0.00000000000E+00 -0.18250000000E+03  0.18250000000E+03  0.00000000000E+00 0. -1.
        -11    1    1    2    0    0 -0.25821517714E+01 -0.10438667199E-01  0.17817225362E+03  0.17819096379E+03  0.00000000000E+00 0.  1.
         11    1    1    2    0    0 -0.20267383738E+01 -0.26071690673E+01 -0.17657620020E+03  0.17660707652E+03  0.00000000000E+00 0. -1.
        -15    1    1    2    0    0  0.44133901228E+01  0.83586356482E+00  0.24629328483E+01  0.54222179493E+01  0.17770000000E+01 0.  1.
         15    1    1    2    0    0  0.19550002249E+00  0.17817441697E+01 -0.40589862678E+01  0.47797417365E+01  0.17770000000E+01 0. -1.
</event>
<event>
 6    1  0.1697564E-002  0.1828276E+03  0.7546771E-02  0.1068194E+00
        -11   -1    0    0    0    0  0.00000000000E+00  0.00000000000E+00  0.18250000000E+03  0.18250000000E+03  0.00000000000E+00 0. -1.
         11   -1    0    0    0    0 -0.00000000000E+00 -0.00000000000E+00 -0.18250000000E+03  0.18250000000E+03  0.00000000000E+00 0.  1.
        -11    1    1    2    0    0 -0.34369853823E+01  0.12049782893E+01  0.18213594423E+03  0.18217235527E+03  0.00000000000E+00 0. -1.
         11    1    1    2    0    0  0.16906804358E+01 -0.40081896302E+00 -0.90989156826E+02  0.91005745511E+02  0.00000000000E+00 0.  1.
        -15    1    1    2    0    0 -0.21106797016E+01 -0.35306722745E+01 -0.67194845704E+02  0.67344083880E+02  0.17770000000E+01 0.  1.
         15    1    1    2    0    0  0.38569846482E+01  0.27265129483E+01 -0.23951941705E+02  0.24477815341E+02  0.17770000000E+01 0. -1.
</event>
<event>
 6    1  0.1697564E-002  0.1749744E+03  0.7546771E-02  0.1074608E+00
        -11   -1    0    0    0    0  0.00000000000E+00  0.00000000000E+00  0.18250000000E+03  0.18250000000E+03  0.00000000000E+00 0. -1.
         11   -1    0    0    0    0 -0.00000000000E+00 -0.00000000000E+00 -0.18250000000E+03  0.18250000000E+03  0.00000000000E+00 0. -1.
        -11    1    1    2    0    0  0.45838106170E+01  0.20302691429E+00  0.17649960861E+03  0.17655923759E+03  0.00000000000E+00 0. -1.
         11    1    1    2    0    0  0.18227158954E+01 -0.24648733643E+01 -0.17344174921E+03  0.17346883945E+03  0.00000000000E+00 0. -1.
        -15    1    1    2    0    0 -0.81021546682E+01  0.18284910781E+01  0.25216809083E+01  0.88602987249E+01  0.17770000000E+01 0. -1.
         15    1    1    2    0    0  0.16956281558E+01  0.43335537185E+00 -0.55795403083E+01  0.61116242336E+01  0.17770000000E+01 0.  1.
</event>
<event>
 6    1  0.1697564E-002  0.1937490E+03  0.7546771E-02  0.1059837E+00
        -11   -1    0    0    0    0  0.00000000000E+00  0.00000000000E+00  0.18250000000E+03  0.18250000000E+03  0.00000000000E+00 0. -1.
         11   -1    0    0    0    0 -0.00000000000E+00 -0.00000000000E+00 -0.18250000000E+03  0.18250000000E+03  0.00000000000E+00 0. -1.
        -11    1    1    2    0    0  0.67480613871E+00 -0.12372108210E+02  0.17080217119E+03  0.17125100323E+03  0.00000000000E+00 0. -1.
         11    1    1    2    0    0  0.53591015234E+01  0.30047156129E+01 -0.15184913392E+03  0.15197337845E+03  0.00000000000E+00 0. -1.
        -15    1    1    2    0    0 -0.15301159766E+02  0.35974604500E+00 -0.23379185535E+02  0.27999981298E+02  0.17770000000E+01 0.  1.
         15    1    1    2    0    0  0.92672521038E+01  0.90076465517E+01  0.44261482649E+01  0.13775637024E+02  0.17770000000E+01 0. -1.
</event>
<event>
 6    1  0.1697564E-002  0.1853305E+03  0.7546771E-02  0.1066224E+00
        -11   -1    0    0    0    0  0.00000000000E+00  0.00000000000E+00  0.18250000000E+03  0.18250000000E+03  0.00000000000E+00 0.  1.
         11   -1    0    0    0    0 -0.00000000000E+00 -0.00000000000E+00 -0.18250000000E+03  0.18250000000E+03  0.00000000000E+00 0. -1.
        -11    1    1    2    0    0  0.43632827139E+01 -0.34173728260E+01  0.17958402859E+03  0.17966952997E+03  0.00000000000E+00 0.  1.
         11    1    1    2    0    0  0.29178595327E+01  0.45487648248E+01 -0.17416918741E+03  0.17425300861E+03  0.00000000000E+00 0. -1.
        -15    1    1    2    0    0 -0.16128814997E+01  0.16055414078E+01 -0.58265998108E+00  0.29455681282E+01  0.17770000000E+01 0. -1.
         15    1    1    2    0    0 -0.56682607470E+01 -0.27369334065E+01 -0.48321811994E+01  0.81318932919E+01  0.17770000000E+01 0.  1.
</event>
<event>
 6    1  0.1697564E-002  0.1841202E+03  0.7546771E-02  0.1067172E+00
        -11   -1    0    0    0    0  0.00000000000E+00  0.00000000000E+00  0.18250000000E+03  0.18250000000E+03  0.00000000000E+00 0.  1.
         11   -1    0    0    0    0 -0.00000000000E+00 -0.00000000000E+00 -0.18250000000E+03  0.18250000000E+03  0.00000000000E+00 0.  1.
        -11    1    1    2    0    0  0.96657623535E+00 -0.10334887917E+00  0.25029615062E+02  0.25048484601E+02  0.00000000000E+00 0.  1.
         11    1    1    2    0    0 -0.12996580249E+02  0.35442827146E+01 -0.18037750491E+03  0.18087984220E+03  0.00000000000E+00 0.  1.
        -15    1    1    2    0    0  0.36688462671E+01 -0.94286320573E+01  0.14076349372E+03  0.14113779943E+03  0.17770000000E+01 0.  1.
         15    1    1    2    0    0  0.83611577469E+01  0.59876982219E+01  0.14584396124E+02  0.17933873764E+02  0.17770000000E+01 0. -1.
</event>
<event>
 6    1  0.1697564E-002  0.1830945E+03  0.7546771E-02  0.1067983E+00
        -11   -1    0    0    0    0  0.00000000000E+00  0.00000000000E+00  0.18250000000E+03  0.18250000000E+03  0.00000000000E+00 0. -1.
         11   -1    0    0    0    0 -0.00000000000E+00 -0.00000000000E+00 -0.18250000000E+03  0.18250000000E+03  0.00000000000E+00 0. -1.
        -11    1    1    2    0    0  0.34069185568E+01  0.22794650903E+01  0.70117959043E+02  0.70237676752E+02  0.00000000000E+00 0. -1.
         11    1    1    2    0    0  0.50649339179E+01 -0.61952277150E+00 -0.18183391285E+03  0.18190549532E+03  0.00000000000E+00 0. -1.
        -15    1    1    2    0    0 -0.33991002704E+01  0.42062564993E+00  0.70877072817E+01  0.80699524222E+01  0.17770000000E+01 0.  1.
         15    1    1    2    0    0 -0.50727522043E+01 -0.20805679687E+01  0.10462824653E+03  0.10478687551E+03  0.17770000000E+01 0. -1.
</event>
<event>
 6    1  0.1697564E-002  0.1830399E+03  0.7546771E-02  0.1068026E+00
        -11   -1    0    0    0    0  0.00000000000E+00  0.00000000000E+00  0.18250000000E+03  0.18250000000E+03  0.00000000000E+00 0.  1.
         11   -1    0    0    0    0 -0.00000000000E+00 -0.00000000000E+00 -0.18250000000E+03  0.18250000000E+03  0.00000000000E+00 0. -1.
        -11    1    1    2    0    0  0.15984350826E+01 -0.18713949836E+01  0.16716414996E+03  0.16718226624E+03  0.00000000000E+00 0.  1.
         11    1    1    2    0    0 -0.25965279511E+01 -0.99205373593E+00 -0.18193884063E+03  0.18196007216E+03  0.00000000000E+00 0. -1.
        -15    1    1    2    0    0  0.15659798031E+01  0.92425817732E+00  0.39042285559E+01  0.46591067319E+01  0.17770000000E+01 0.  1.
         15    1    1    2    0    0 -0.56788693463E+00  0.19391905422E+01  0.10870462118E+02  0.11198554871E+02  0.17770000000E+01 0. -1.
</event>
<event>
 6    1  0.1697564E-002  0.1849649E+03  0.7546771E-02  0.1066510E+00
        -11   -1    0    0    0    0  0.00000000000E+00  0.00000000000E+00  0.18250000000E+03  0.18250000000E+03  0.00000000000E+00 0. -1.
         11   -1    0    0    0    0 -0.00000000000E+00 -0.00000000000E+00 -0.18250000000E+03  0.18250000000E+03  0.00000000000E+00 0. -1.
        -11    1    1    2    0    0  0.53006101849E+01  0.14789796857E+01  0.17995099042E+03  0.18003511547E+03  0.00000000000E+00 0. -1.
         11    1    1    2    0    0 -0.11025952321E+00  0.36599151799E+01 -0.16615299089E+03  0.16619333175E+03  0.00000000000E+00 0. -1.
        -15    1    1    2    0    0  0.44227857211E+00 -0.28175852392E+01 -0.11566209159E+02  0.12044472601E+02  0.17770000000E+01 0.  1.
         15    1    1    2    0    0 -0.56326292338E+01 -0.23213096264E+01 -0.22317903671E+01  0.67270801771E+01  0.17770000000E+01 0.  1.
</event>
<event>
 6    1  0.1697564E-002  0.1836166E+03  0.7546771E-02  0.1067569E+00
        -11   -1    0    0    0    0  0.00000000000E+00  0.00000000000E+00  0.18250000000E+03  0.18250000000E+03  0.00000000000E+00 0.  1.
         11   -1    0    0    0    0 -0.00000000000E+00 -0.00000000000E+00 -0.18250000000E+03  0.18250000000E+03  0.00000000000E+00 0. -1.
        -11    1    1    2    0    0  0.20508945136E+01  0.21901815602E+01  0.15810947560E+03  0.15813794402E+03  0.00000000000E+00 0.  1.
         11    1    1    2    0    0  0.12899973936E+01  0.36761959552E+01 -0.18134155847E+03  0.18138340425E+03  0.00000000000E+00 0. -1.
        -15    1    1    2    0    0 -0.44946491378E-01 -0.18142164776E+01  0.12807219598E+01  0.28445349977E+01  0.17770000000E+01 0. -1.
         15    1    1    2    0    0 -0.32959454158E+01 -0.40521610378E+01  0.21951360907E+02  0.22634116725E+02  0.17770000000E+01 0.  1.
</event>
<event>
 6    1  0.1697564E-002  0.1831831E+03  0.7546771E-02  0.1067912E+00
        -11   -1    0    0    0    0  0.00000000000E+00  0.00000000000E+00  0.18250000000E+03  0.18250000000E+03  0.00000000000E+00 0.  1.
         11   -1    0    0    0    0 -0.00000000000E+00 -0.00000000000E+00 -0.18250000000E+03  0.18250000000E+03  0.00000000000E+00 0.  1.
        -11    1    1    2    0    0  0.31272871065E+01  0.14766690984E+01  0.15632970798E+03  0.15636795731E+03  0.00000000000E+00 0.  1.
         11    1    1    2    0    0  0.17396205810E+01 -0.50846006993E+01 -0.18173748246E+03  0.18181691884E+03  0.00000000000E+00 0.  1.
        -15    1    1    2    0    0 -0.44278037120E+00  0.71785631108E+00  0.22179517901E+01  0.29645254736E+01  0.17770000000E+01 0.  1.
         15    1    1    2    0    0 -0.44241273163E+01  0.28900752898E+01  0.23189822693E+02  0.23850598383E+02  0.17770000000E+01 0. -1.
</event>
<event>
 6    1  0.1697564E-002  0.1826555E+03  0.7546771E-02  0.1068331E+00
        -11   -1    0    0    0    0  0.00000000000E+00  0.00000000000E+00  0.18250000000E+03  0.18250000000E+03  0.00000000000E+00 0. -1.
         11   -1    0    0    0    0 -0.00000000000E+00 -0.00000000000E+00 -0.18250000000E+03  0.18250000000E+03  0.00000000000E+00 0. -1.
        -11    1    1    2    0    0 -0.16193653327E+01  0.15569292690E+01  0.76245507054E+02  0.76278592795E+02  0.00000000000E+00 0. -1.
         11    1    1    2    0    0 -0.18115185073E+01  0.20616763039E+01 -0.18232381448E+03  0.18234446916E+03  0.00000000000E+00 0. -1.
        -15    1    1    2    0    0  0.40149206337E+01 -0.37509418322E+01  0.65054852843E+02  0.65310648135E+02  0.17770000000E+01 0. -1.
         15    1    1    2    0    0 -0.58403679365E+00  0.13233625929E+00  0.41023454582E+02  0.41066289906E+02  0.17770000000E+01 0. -1.
</event>
<event>
 6    1  0.1697564E-002  0.1860843E+03  0.7546771E-02  0.1065637E+00
        -11   -1    0    0    0    0  0.00000000000E+00  0.00000000000E+00  0.18250000000E+03  0.18250000000E+03  0.00000000000E+00 0.  1.
         11   -1    0    0    0    0 -0.00000000000E+00 -0.00000000000E+00 -0.18250000000E+03  0.18250000000E+03  0.00000000000E+00 0. -1.
        -11    1    1    2    0    0 -0.19694867443E+01 -0.21584194217E+01  0.17167583224E+03  0.17170069606E+03  0.00000000000E+00 0.  1.
         11    1    1    2    0    0  0.69686295751E+01 -0.13433554779E+01 -0.17877490355E+03  0.17891571351E+03  0.00000000000E+00 0. -1.
        -15    1    1    2    0    0  0.81193538908E+00  0.78319252374E+00  0.74259248676E+01  0.77184660875E+01  0.17770000000E+01 0.  1.
         15    1    1    2    0    0 -0.58110782199E+01  0.27185823759E+01 -0.32685355674E+00  0.66651243394E+01  0.17770000000E+01 0.  1.
</event>
<event>
 6    1  0.1697564E-002  0.1837459E+03  0.7546771E-02  0.1067467E+00
        -11   -1    0    0    0    0  0.00000000000E+00  0.00000000000E+00  0.18250000000E+03  0.18250000000E+03  0.00000000000E+00 0. -1.
         11   -1    0    0    0    0 -0.00000000000E+00 -0.00000000000E+00 -0.18250000000E+03  0.18250000000E+03  0.00000000000E+00 0. -1.
        -11    1    1    2    0    0  0.27066276573E+01 -0.12114279440E+01  0.18122981914E+03  0.18125407785E+03  0.00000000000E+00 0. -1.
         11    1    1    2    0    0  0.24119576586E+01 -0.82996916398E+00 -0.16158605267E+03  0.16160618431E+03  0.00000000000E+00 0. -1.
        -15    1    1    2    0    0 -0.91193413945E+00 -0.79033788184E+00 -0.43243785005E+00  0.21911160025E+01  0.17770000000E+01 0.  1.
         15    1    1    2    0    0 -0.42066511765E+01  0.28317349898E+01 -0.19211328620E+02  0.19948621845E+02  0.17770000000E+01 0. -1.
</event>
<event>
 6    1  0.1697564E-002  0.1834828E+03  0.7546771E-02  0.1067675E+00
        -11   -1    0    0    0    0  0.00000000000E+00  0.00000000000E+00  0.18250000000E+03  0.18250000000E+03  0.00000000000E+00 0.  1.
         11   -1    0    0    0    0 -0.00000000000E+00 -0.00000000000E+00 -0.18250000000E+03  0.18250000000E+03  0.00000000000E+00 0. -1.
        -11    1    1    2    0    0  0.27415971244E+01  0.30411622456E+01  0.18147104354E+03  0.18151722966E+03  0.00000000000E+00 0.  1.
         11    1    1    2    0    0  0.38527437534E+01 -0.43640893398E+01 -0.13811760275E+03  0.13824022967E+03  0.00000000000E+00 0. -1.
        -15    1    1    2    0    0  0.24837476680E+01  0.31059293269E-01 -0.59192891944E+01  0.66607567682E+01  0.17770000000E+01 0. -1.
         15    1    1    2    0    0 -0.90780885458E+01  0.12918678009E+01 -0.37434151597E+02  0.38581783899E+02  0.17770000000E+01 0. -1.
</event>
<event>
 6    1  0.1697564E-002  0.1826848E+03  0.7546771E-02  0.1068308E+00
        -11   -1    0    0    0    0  0.00000000000E+00  0.00000000000E+00  0.18250000000E+03  0.18250000000E+03  0.00000000000E+00 0. -1.
         11   -1    0    0    0    0 -0.00000000000E+00 -0.00000000000E+00 -0.18250000000E+03  0.18250000000E+03  0.00000000000E+00 0. -1.
        -11    1    1    2    0    0 -0.20154816330E+01  0.15679504248E+01  0.18229726727E+03  0.18231515101E+03  0.00000000000E+00 0. -1.
         11    1    1    2    0    0 -0.13968958958E+01 -0.15431912989E+01 -0.48332704590E+02  0.48377506038E+02  0.00000000000E+00 0. -1.
        -15    1    1    2    0    0  0.28495927598E+01 -0.37740451967E+01 -0.90719738361E+02  0.90860289750E+02  0.17770000000E+01 0. -1.
         15    1    1    2    0    0  0.56278476902E+00  0.37492860708E+01 -0.43244824317E+02  0.43447053202E+02  0.17770000000E+01 0.  1.
</event>
<event>
 6    1  0.1697564E-002  0.1848252E+03  0.7546771E-02  0.1066619E+00
        -11   -1    0    0    0    0  0.00000000000E+00  0.00000000000E+00  0.18250000000E+03  0.18250000000E+03  0.00000000000E+00 0.  1.
         11   -1    0    0    0    0 -0.00000000000E+00 -0.00000000000E+00 -0.18250000000E+03  0.18250000000E+03  0.00000000000E+00 0. -1.
        -11    1    1    2    0    0 -0.52162891350E+00 -0.18572115822E+01  0.22283670503E+02  0.22367013718E+02  0.00000000000E+00 0.  1.
         11    1    1    2    0    0 -0.97383973856E+01 -0.11492850792E+02 -0.17954400809E+03  0.18017483965E+03  0.00000000000E+00 0. -1.
        -15    1    1    2    0    0  0.18499434240E+00  0.23978700044E+01  0.13810100207E+03  0.13813337217E+03  0.17770000000E+01 0. -1.
         15    1    1    2    0    0  0.10075031957E+02  0.10952192370E+02  0.19159335511E+02  0.24324774467E+02  0.17770000000E+01 0.  1.
</event>
<event>
 6    1  0.1697564E-002  0.1897151E+03  0.7546771E-02  0.1062852E+00
        -11   -1    0    0    0    0  0.00000000000E+00  0.00000000000E+00  0.18250000000E+03  0.18250000000E+03  0.00000000000E+00 0.  1.
         11   -1    0    0    0    0 -0.00000000000E+00 -0.00000000000E+00 -0.18250000000E+03  0.18250000000E+03  0.00000000000E+00 0. -1.
        -11    1    1    2    0    0 -0.37592235950E+01 -0.19187859769E+01  0.16662110534E+03  0.16667455189E+03  0.00000000000E+00 0.  1.
         11    1    1    2    0    0 -0.21326913612E+01 -0.22952005854E+01 -0.17525690021E+03  0.17528490348E+03  0.00000000000E+00 0. -1.
        -15    1    1    2    0    0  0.53040430704E+01  0.85225623636E+01 -0.28884505516E+01  0.10595650887E+02  0.17770000000E+01 0.  1.
         15    1    1    2    0    0  0.58787188576E+00 -0.43085758012E+01  0.11524245420E+02  0.12444893744E+02  0.17770000000E+01 0. -1.
</event>
<event>
 6    1  0.1697564E-002  0.2136356E+03  0.7546771E-02  0.1046061E+00
        -11   -1    0    0    0    0  0.00000000000E+00  0.00000000000E+00  0.18250000000E+03  0.18250000000E+03  0.00000000000E+00 0. -1.
         11   -1    0    0    0    0 -0.00000000000E+00 -0.00000000000E+00 -0.18250000000E+03  0.18250000000E+03  0.00000000000E+00 0.  1.
        -11    1    1    2    0    0 -0.21728127374E+02  0.72893937460E+01  0.14961931101E+03  0.15136441130E+03  0.00000000000E+00 0. -1.
         11    1    1    2    0    0 -0.81549617518E+00 -0.42720691012E+01 -0.10372712001E+03  0.10381825964E+03  0.00000000000E+00 0.  1.
        -15    1    1    2    0    0  0.20576404779E+02 -0.62435560376E+01  0.28255924855E+02  0.35551729129E+02  0.17770000000E+01 0. -1.
         15    1    1    2    0    0  0.19672187709E+01  0.32262313928E+01 -0.74148115858E+02  0.74265599930E+02  0.17770000000E+01 0.  1.
</event>
<event>
 6    1  0.1697564E-002  0.1830178E+03  0.7546771E-02  0.1068043E+00
        -11   -1    0    0    0    0  0.00000000000E+00  0.00000000000E+00  0.18250000000E+03  0.18250000000E+03  0.00000000000E+00 0.  1.
         11   -1    0    0    0    0 -0.00000000000E+00 -0.00000000000E+00 -0.18250000000E+03  0.18250000000E+03  0.00000000000E+00 0.  1.
        -11    1    1    2    0    0 -0.20181062592E+01  0.29279650579E+01  0.11826462574E+03  0.11831807737E+03  0.00000000000E+00 0.  1.
         11    1    1    2    0    0 -0.58844644520E+01 -0.63219433411E+01 -0.18177718426E+03  0.18198224806E+03  0.00000000000E+00 0.  1.
        -15    1    1    2    0    0  0.24809077473E+01  0.35205214588E+01  0.12012168919E+02  0.12884056261E+02  0.17770000000E+01 0.  1.
         15    1    1    2    0    0  0.54216629639E+01 -0.12654317560E+00  0.51500389605E+02  0.51815618311E+02  0.17770000000E+01 0. -1.
</event>
<event>
 6    1  0.1697564E-002  0.1827794E+03  0.7546771E-02  0.1068233E+00
        -11   -1    0    0    0    0  0.00000000000E+00  0.00000000000E+00  0.18250000000E+03  0.18250000000E+03  0.00000000000E+00 0. -1.
         11   -1    0    0    0    0 -0.00000000000E+00 -0.00000000000E+00 -0.18250000000E+03  0.18250000000E+03  0.00000000000E+00 0.  1.
        -11    1    1    2    0    0 -0.27155518096E+01 -0.12451600506E+01  0.18219612743E+03  0.18222061765E+03  0.00000000000E+00 0. -1.
         11    1    1    2    0    0 -0.13191130731E+01 -0.14567846029E+01 -0.80575472682E+02  0.80599435969E+02  0.00000000000E+00 0.  1.
        -15    1    1    2    0    0  0.52350703811E+01  0.50459608526E+01 -0.73708207876E+02  0.74087281770E+02  0.17770000000E+01 0.  1.
         15    1    1    2    0    0 -0.12004054983E+01 -0.23440161991E+01 -0.27912446876E+02  0.28092664610E+02  0.17770000000E+01 0.  1.
</event>
<event>
 6    1  0.1697564E-002  0.1839923E+03  0.7546771E-02  0.1067273E+00
        -11   -1    0    0    0    0  0.00000000000E+00  0.00000000000E+00  0.18250000000E+03  0.18250000000E+03  0.00000000000E+00 0. -1.
         11   -1    0    0    0    0 -0.00000000000E+00 -0.00000000000E+00 -0.18250000000E+03  0.18250000000E+03  0.00000000000E+00 0.  1.
        -11    1    1    2    0    0 -0.27420225589E+01 -0.34037596559E+00  0.18098660282E+03  0.18100769305E+03  0.00000000000E+00 0. -1.
         11    1    1    2    0    0 -0.28209958854E+01  0.23985148968E+01 -0.16277557775E+03  0.16281768823E+03  0.00000000000E+00 0.  1.
        -15    1    1    2    0    0  0.99206723603E+00 -0.67752010404E-01 -0.14660632697E+02  0.14801373849E+02  0.17770000000E+01 0.  1.
         15    1    1    2    0    0  0.45709512083E+01 -0.19903869208E+01 -0.35503923790E+01  0.63732448633E+01  0.17770000000E+01 0. -1.
</event>
<event>
 6    1  0.1697564E-002  0.1826235E+03  0.7546771E-02  0.1068357E+00
        -11   -1    0    0    0    0  0.00000000000E+00  0.00000000000E+00  0.18250000000E+03  0.18250000000E+03  0.00000000000E+00 0.  1.
         11   -1    0    0    0    0 -0.00000000000E+00 -0.00000000000E+00 -0.18250000000E+03  0.18250000000E+03  0.00000000000E+00 0.  1.
        -11    1    1    2    0    0  0.24615325313E+01  0.14822800706E+01  0.18235383920E+03  0.18237647591E+03  0.00000000000E+00 0.  1.
         11    1    1    2    0    0 -0.11924203754E+01  0.13548140721E+01 -0.10902688536E+03  0.10904182279E+03  0.00000000000E+00 0.  1.
        -15    1    1    2    0    0 -0.14052943133E+01  0.25665892468E+00 -0.18755799622E+02  0.18893873991E+02  0.17770000000E+01 0. -1.
         15    1    1    2    0    0  0.13618215740E+00 -0.30937530674E+01 -0.54571154217E+02  0.54687827304E+02  0.17770000000E+01 0.  1.
</event>
<event>
 6    1  0.1697564E-002  0.1826076E+03  0.7546771E-02  0.1068369E+00
        -11   -1    0    0    0    0  0.00000000000E+00  0.00000000000E+00  0.18250000000E+03  0.18250000000E+03  0.00000000000E+00 0. -1.
         11   -1    0    0    0    0 -0.00000000000E+00 -0.00000000000E+00 -0.18250000000E+03  0.18250000000E+03  0.00000000000E+00 0.  1.
        -11    1    1    2    0    0  0.92884009657E+00 -0.28048180009E+01  0.18236851222E+03  0.18239244501E+03  0.00000000000E+00 0. -1.
         11    1    1    2    0    0  0.14091811591E+01  0.12876873973E+01 -0.82314951615E+02  0.82337082714E+02  0.00000000000E+00 0.  1.
        -15    1    1    2    0    0  0.65431010991E+00 -0.66874834117E+00 -0.52916476247E+02  0.52954570468E+02  0.17770000000E+01 0.  1.
         15    1    1    2    0    0 -0.29923313656E+01  0.21858789448E+01 -0.47137084354E+02  0.47315901811E+02  0.17770000000E+01 0.  1.
</event>
<event>
 6    1  0.1697564E-002  0.1833940E+03  0.7546771E-02  0.1067745E+00
        -11   -1    0    0    0    0  0.00000000000E+00  0.00000000000E+00  0.18250000000E+03  0.18250000000E+03  0.00000000000E+00 0. -1.
         11   -1    0    0    0    0 -0.00000000000E+00 -0.00000000000E+00 -0.18250000000E+03  0.18250000000E+03  0.00000000000E+00 0. -1.
        -11    1    1    2    0    0 -0.20618349328E+01  0.20073385218E+01  0.18158324243E+03  0.18160604203E+03  0.00000000000E+00 0. -1.
         11    1    1    2    0    0  0.24985722125E-01 -0.27888945395E+01 -0.14049697975E+03  0.14052465932E+03  0.00000000000E+00 0. -1.
        -15    1    1    2    0    0  0.28898622228E+01  0.24111278412E+01 -0.42647785540E+01  0.59591028056E+01  0.17770000000E+01 0.  1.
         15    1    1    2    0    0 -0.85301301209E+00 -0.16295718235E+01 -0.36821484119E+02  0.36910195844E+02  0.17770000000E+01 0. -1.
</event>
<event>
 6    1  0.1697564E-002  0.1840926E+03  0.7546771E-02  0.1067194E+00
        -11   -1    0    0    0    0  0.00000000000E+00  0.00000000000E+00  0.18250000000E+03  0.18250000000E+03  0.00000000000E+00 0.  1.
         11   -1    0    0    0    0 -0.00000000000E+00 -0.00000000000E+00 -0.18250000000E+03  0.18250000000E+03  0.00000000000E+00 0. -1.
        -11    1    1    2    0    0  0.28874207581E+01  0.80833586110E+00  0.16953308285E+03  0.16955959656E+03  0.00000000000E+00 0.  1.
         11    1    1    2    0    0 -0.13964055640E+01 -0.25014599932E+01 -0.18088468700E+03  0.18090737199E+03  0.00000000000E+00 0. -1.
        -15    1    1    2    0    0 -0.19253231189E+01 -0.10026746393E+01  0.86906798906E-01  0.28066897471E+01  0.17770000000E+01 0.  1.
         15    1    1    2    0    0  0.43430792481E+00  0.26957987714E+01  0.11264697346E+02  0.11726341701E+02  0.17770000000E+01 0.  1.
</event>
<event>
 6    1  0.1697564E-002  0.1540195E+03  0.7546771E-02  0.1093697E+00
        -11   -1    0    0    0    0  0.00000000000E+00  0.00000000000E+00  0.18250000000E+03  0.18250000000E+03  0.00000000000E+00 0. -1.
         11   -1    0    0    0    0 -0.00000000000E+00 -0.00000000000E+00 -0.18250000000E+03  0.18250000000E+03  0.00000000000E+00 0. -1.
        -11    1    1    2    0    0  0.10422213193E+02 -0.90895976233E+01  0.14460345266E+03  0.14526321569E+03  0.00000000000E+00 0. -1.
         11    1    1    2    0    0 -0.20214821484E+02 -0.22825477676E+02 -0.16224088557E+03  0.16508102977E+03  0.00000000000E+00 0. -1.
        -15    1    1    2    0    0  0.77618164460E+01  0.21826737357E+01  0.22898164280E+02  0.24341189691E+02  0.17770000000E+01 0.  1.
         15    1    1    2    0    0  0.20307918452E+01  0.29732401564E+02 -0.52607313700E+01  0.30314564846E+02  0.17770000000E+01 0. -1.
</event>
<event>
 6    1  0.1697564E-002  0.1826296E+03  0.7546771E-02  0.1068352E+00
        -11   -1    0    0    0    0  0.00000000000E+00  0.00000000000E+00  0.18250000000E+03  0.18250000000E+03  0.00000000000E+00 0. -1.
         11   -1    0    0    0    0 -0.00000000000E+00 -0.00000000000E+00 -0.18250000000E+03  0.18250000000E+03  0.00000000000E+00 0. -1.
        -11    1    1    2    0    0  0.30245004663E+01  0.27447744789E+00  0.18234512681E+03  0.18237041485E+03  0.00000000000E+00 0. -1.
         11    1    1    2    0    0 -0.26217303512E+01 -0.13594230331E+00 -0.13083861973E+03  0.13086495468E+03  0.00000000000E+00 0. -1.
        -15    1    1    2    0    0  0.13961932217E+01  0.56794884951E+00 -0.31589243448E+02  0.31675068303E+02  0.17770000000E+01 0. -1.
         15    1    1    2    0    0 -0.17989633368E+01 -0.70648399409E+00 -0.19917263633E+02  0.20089562174E+02  0.17770000000E+01 0.  1.
</event>
<event>
 6    1  0.1697564E-002  0.1825952E+03  0.7546771E-02  0.1068379E+00
        -11   -1    0    0    0    0  0.00000000000E+00  0.00000000000E+00  0.18250000000E+03  0.18250000000E+03  0.00000000000E+00 0. -1.
         11   -1    0    0    0    0 -0.00000000000E+00 -0.00000000000E+00 -0.18250000000E+03  0.18250000000E+03  0.00000000000E+00 0.  1.
        -11    1    1    2    0    0  0.35558901605E+01 -0.32954933143E+01  0.18234038978E+03  0.18240483102E+03  0.00000000000E+00 0. -1.
         11    1    1    2    0    0 -0.10141060382E+01  0.86715819908E+00 -0.14271766204E+02  0.14334004499E+02  0.00000000000E+00 0.  1.
        -15    1    1    2    0    0 -0.17051608245E+01 -0.17244263236E+01 -0.41275947858E+02  0.41385297149E+02  0.17770000000E+01 0.  1.
         15    1    1    2    0    0 -0.83662329769E+00  0.41527614388E+01 -0.12679267572E+03  0.12687586734E+03  0.17770000000E+01 0.  1.
</event>
<event>
 6    1  0.1697564E-002  0.1829969E+03  0.7546771E-02  0.1068060E+00
        -11   -1    0    0    0    0  0.00000000000E+00  0.00000000000E+00  0.18250000000E+03  0.18250000000E+03  0.00000000000E+00 0. -1.
         11   -1    0    0    0    0 -0.00000000000E+00 -0.00000000000E+00 -0.18250000000E+03  0.18250000000E+03  0.00000000000E+00 0. -1.
        -11    1    1    2    0    0 -0.11113172891E+01  0.15899365886E+01  0.13052586919E+03  0.13054028287E+03  0.00000000000E+00 0. -1.
         11    1    1    2    0    0  0.83860743629E+01  0.30602503982E+01 -0.18178406997E+03  0.18200313039E+03  0.00000000000E+00 0. -1.
        -15    1    1    2    0    0 -0.65450983539E+01 -0.37100122092E+01  0.47562729087E+02  0.48186859518E+02  0.17770000000E+01 0. -1.
         15    1    1    2    0    0 -0.72965871982E+00 -0.94017477761E+00  0.36954716999E+01  0.42697272213E+01  0.17770000000E+01 0. -1.
</event>
<event>
 6    1  0.1697564E-002  0.1829851E+03  0.7546771E-02  0.1068069E+00
        -11   -1    0    0    0    0  0.00000000000E+00  0.00000000000E+00  0.18250000000E+03  0.18250000000E+03  0.00000000000E+00 0.  1.
         11   -1    0    0    0    0 -0.00000000000E+00 -0.00000000000E+00 -0.18250000000E+03  0.18250000000E+03  0.00000000000E+00 0.  1.
        -11    1    1    2    0    0  0.30473124385E+01 -0.12172440932E+00  0.18198938516E+03  0.18201493687E+03  0.00000000000E+00 0.  1.
         11    1    1    2    0    0 -0.31106665779E+01 -0.79771551494E+00 -0.76481917304E+02  0.76549306143E+02  0.00000000000E+00 0.  1.
        -15    1    1    2    0    0  0.63521879514E+01  0.23814630758E+01 -0.42666094255E+02  0.43238582147E+02  0.17770000000E+01 0. -1.
         15    1    1    2    0    0 -0.62888338120E+01 -0.14620231516E+01 -0.62841373606E+02  0.63197174843E+02  0.17770000000E+01 0.  1.
</event>
<event>
 6    1  0.1697564E-002  0.1148046E+03  0.7546771E-02  0.1140423E+00
        -11   -1    0    0    0    0  0.00000000000E+00  0.00000000000E+00  0.18250000000E+03  0.18250000000E+03  0.00000000000E+00 0.  1.
         11   -1    0    0    0    0 -0.00000000000E+00 -0.00000000000E+00 -0.18250000000E+03  0.18250000000E+03  0.00000000000E+00 0.  1.
        -11    1    1    2    0    0  0.24343062448E+01  0.14857141761E+02  0.47497302722E+02  0.49826240818E+02  0.00000000000E+00 0.  1.
         11    1    1    2    0    0 -0.13135755926E+02 -0.28571539805E+02 -0.15737201836E+03  0.16048312414E+03  0.00000000000E+00 0.  1.
        -15    1    1    2    0    0 -0.11615255503E+01  0.55744392835E+02  0.29268500638E+02  0.62996740652E+02  0.17770000000E+01 0. -1.
         15    1    1    2    0    0  0.11862975231E+02 -0.42029994791E+02  0.80606214999E+02  0.91693894393E+02  0.17770000000E+01 0.  1.
</event>
<event>
 6    1  0.1697564E-002  0.1707593E+03  0.7546771E-02  0.1078205E+00
        -11   -1    0    0    0    0  0.00000000000E+00  0.00000000000E+00  0.18250000000E+03  0.18250000000E+03  0.00000000000E+00 0.  1.
         11   -1    0    0    0    0 -0.00000000000E+00 -0.00000000000E+00 -0.18250000000E+03  0.18250000000E+03  0.00000000000E+00 0. -1.
        -11    1    1    2    0    0  0.44030698989E+01 -0.35493648074E+01  0.17240196784E+03  0.17249470580E+03  0.00000000000E+00 0.  1.
         11    1    1    2    0    0 -0.37706018351E+01 -0.25734691353E+01 -0.16903430134E+03  0.16909593494E+03  0.00000000000E+00 0. -1.
        -15    1    1    2    0    0 -0.30651032685E+01  0.15048099640E+01 -0.12313321362E+02  0.12900965973E+02  0.17770000000E+01 0. -1.
         15    1    1    2    0    0  0.24326352046E+01  0.46180239786E+01  0.89456548653E+01  0.10508393287E+02  0.17770000000E+01 0.  1.
</event>
<event>
 6    1  0.1697564E-002  0.1828334E+03  0.7546771E-02  0.1068190E+00
        -11   -1    0    0    0    0  0.00000000000E+00  0.00000000000E+00  0.18250000000E+03  0.18250000000E+03  0.00000000000E+00 0. -1.
         11   -1    0    0    0    0 -0.00000000000E+00 -0.00000000000E+00 -0.18250000000E+03  0.18250000000E+03  0.00000000000E+00 0.  1.
        -11    1    1    2    0    0  0.19303421742E+01 -0.12984350113E+01  0.11483090129E+03  0.11485446463E+03  0.00000000000E+00 0. -1.
         11    1    1    2    0    0 -0.24068128102E+01 -0.22589405804E+01 -0.18213672437E+03  0.18216663230E+03  0.00000000000E+00 0.  1.
        -15    1    1    2    0    0 -0.10224342764E+01  0.31158474452E+01  0.62605847786E+02  0.62716854060E+02  0.17770000000E+01 0. -1.
         15    1    1    2    0    0  0.14989049125E+01  0.44152814650E+00  0.46999752910E+01  0.52620490094E+01  0.17770000000E+01 0.  1.
</event>
<event>
 6    1  0.1697564E-002  0.1903187E+03  0.7546771E-02  0.1062396E+00
        -11   -1    0    0    0    0  0.00000000000E+00  0.00000000000E+00  0.18250000000E+03  0.18250000000E+03  0.00000000000E+00 0.  1.
         11   -1    0    0    0    0 -0.00000000000E+00 -0.00000000000E+00 -0.18250000000E+03  0.18250000000E+03  0.00000000000E+00 0.  1.
        -11    1    1    2    0    0  0.59193233654E+01 -0.45284789205E+01  0.16346775584E+03  0.16363756509E+03  0.00000000000E+00 0.  1.
         11    1    1    2    0    0 -0.96442425753E+00 -0.55002103099E+01 -0.17459203396E+03  0.17468131196E+03  0.00000000000E+00 0.  1.
        -15    1    1    2    0    0 -0.31962565399E+01  0.35069226377E+01  0.16884104912E+02  0.17627968968E+02  0.17770000000E+01 0.  1.
         15    1    1    2    0    0 -0.17586425679E+01  0.65217665927E+01 -0.57598267951E+01  0.90531539742E+01  0.17770000000E+01 0. -1.
</event>
<event>
 6    1  0.1697564E-002  0.1873354E+03  0.7546771E-02  0.1064670E+00
        -11   -1    0    0    0    0  0.00000000000E+00  0.00000000000E+00  0.18250000000E+03  0.18250000000E+03  0.00000000000E+00 0. -1.
         11   -1    0    0    0    0 -0.00000000000E+00 -0.00000000000E+00 -0.18250000000E+03  0.18250000000E+03  0.00000000000E+00 0. -1.
        -11    1    1    2    0    0  0.33513026543E+01 -0.32235554898E+01  0.15581923070E+03  0.15588859867E+03  0.00000000000E+00 0. -1.
         11    1    1    2    0    0 -0.60567370724E+00 -0.38649560983E+01 -0.17762156169E+03  0.17766463886E+03  0.00000000000E+00 0. -1.
        -15    1    1    2    0    0 -0.21481514800E+01 -0.71890867668E+01  0.11053879114E+02  0.13477518161E+02  0.17770000000E+01 0.  1.
         15    1    1    2    0    0 -0.59747746708E+00  0.14277598355E+02  0.10748451871E+02  0.17969244300E+02  0.17770000000E+01 0. -1.
</event>
<event>
 6    1  0.1697564E-002  0.1906986E+03  0.7546771E-02  0.1062110E+00
        -11   -1    0    0    0    0  0.00000000000E+00  0.00000000000E+00  0.18250000000E+03  0.18250000000E+03  0.00000000000E+00 0. -1.
         11   -1    0    0    0    0 -0.00000000000E+00 -0.00000000000E+00 -0.18250000000E+03  0.18250000000E+03  0.00000000000E+00 0.  1.
        -11    1    1    2    0    0  0.33114866303E+01  0.16498042843E+01  0.17426211383E+03  0.17430138299E+03  0.00000000000E+00 0. -1.
         11    1    1    2    0    0  0.16396196849E+00 -0.53015728421E+01 -0.15546191602E+03  0.15555237346E+03  0.00000000000E+00 0.  1.
        -15    1    1    2    0    0 -0.11470443965E+02  0.21621886586E+01 -0.22976734935E+02  0.25832812890E+02  0.17770000000E+01 0. -1.
         15    1    1    2    0    0  0.79949953664E+01  0.14895798993E+01  0.41765371234E+01  0.93134306530E+01  0.17770000000E+01 0.  1.
</event>
<event>
 6    1  0.1697564E-002  0.1844653E+03  0.7546771E-02  0.1066901E+00
        -11   -1    0    0    0    0  0.00000000000E+00  0.00000000000E+00  0.18250000000E+03  0.18250000000E+03  0.00000000000E+00 0. -1.
         11   -1    0    0    0    0 -0.00000000000E+00 -0.00000000000E+00 -0.18250000000E+03  0.18250000000E+03  0.00000000000E+00 0.  1.
        -11    1    1    2    0    0  0.70771478689E+00  0.33286510040E+01  0.18050266208E+03  0.18053473847E+03  0.00000000000E+00 0. -1.
         11    1    1    2    0    0  0.30195108554E+01  0.16743076626E+01 -0.16460405824E+03  0.16464026464E+03  0.00000000000E+00 0.  1.
        -15    1    1    2    0    0  0.27172069414E+01 -0.13420706978E+01 -0.21892530527E+01  0.41394353781E+01  0.17770000000E+01 0. -1.
         15    1    1    2    0    0 -0.64444325837E+01 -0.36608879688E+01 -0.13709350786E+02  0.15685561515E+02  0.17770000000E+01 0.  1.
</event>
<event>
 6    1  0.1697564E-002  0.1898845E+03  0.7546771E-02  0.1062724E+00
        -11   -1    0    0    0    0  0.00000000000E+00  0.00000000000E+00  0.18250000000E+03  0.18250000000E+03  0.00000000000E+00 0. -1.
         11   -1    0    0    0    0 -0.00000000000E+00 -0.00000000000E+00 -0.18250000000E+03  0.18250000000E+03  0.00000000000E+00 0. -1.
        -11    1    1    2    0    0 -0.18972144444E+01  0.25823712824E+01  0.17508621133E+03  0.17511553176E+03  0.00000000000E+00 0. -1.
         11    1    1    2    0    0 -0.23003474444E+01 -0.43396599214E+01 -0.16801669901E+03  0.16808847490E+03  0.00000000000E+00 0. -1.
        -15    1    1    2    0    0  0.23395169918E+01  0.25297219082E+01  0.67142874717E+01  0.77532069455E+01  0.17770000000E+01 0.  1.
         15    1    1    2    0    0  0.18580448971E+01 -0.77243326921E+00 -0.13783799795E+02  0.14042786397E+02  0.17770000000E+01 0.  1.
</event>
<event>
 6    1  0.1697564E-002  0.1849247E+03  0.7546771E-02  0.1066541E+00
        -11   -1    0    0    0    0  0.00000000000E+00  0.00000000000E+00  0.18250000000E+03  0.18250000000E+03  0.00000000000E+00 0.  1.
         11   -1    0    0    0    0 -0.00000000000E+00 -0.00000000000E+00 -0.18250000000E+03  0.18250000000E+03  0.00000000000E+00 0.  1.
        -11    1    1    2    0    0  0.48647208613E+01 -0.23313797094E+01  0.17999449247E+03  0.18007531246E+03  0.00000000000E+00 0.  1.
         11    1    1    2    0    0 -0.31197866159E+01 -0.26230941099E+01 -0.14219067014E+03  0.14224907861E+03  0.00000000000E+00 0.  1.
        -15    1    1    2    0    0  0.20050797822E+01  0.77649356886E+00 -0.36548345619E+02  0.36654639320E+02  0.17770000000E+01 0.  1.
         15    1    1    2    0    0 -0.37500140276E+01  0.41779802504E+01 -0.12554767073E+01  0.60209696016E+01  0.17770000000E+01 0. -1.
</event>
<event>
 6    1  0.1697564E-002  0.1860510E+03  0.7546771E-02  0.1065663E+00
        -11   -1    0    0    0    0  0.00000000000E+00  0.00000000000E+00  0.18250000000E+03  0.18250000000E+03  0.00000000000E+00 0.  1.
         11   -1    0    0    0    0 -0.00000000000E+00 -0.00000000000E+00 -0.18250000000E+03  0.18250000000E+03  0.00000000000E+00 0. -1.
        -11    1    1    2    0    0 -0.16098721260E+02  0.62075917713E+01  0.17811527289E+03  0.17894902475E+03  0.00000000000E+00 0.  1.
         11    1    1    2    0    0 -0.17776922508E+01 -0.35819697470E+01 -0.14275410738E+03  0.14281010423E+03  0.00000000000E+00 0. -1.
        -15    1    1    2    0    0  0.92804743742E+01 -0.79900754729E+01 -0.27935831692E+02  0.30553836617E+02  0.17770000000E+01 0. -1.
         15    1    1    2    0    0  0.85959391367E+01  0.53644534486E+01 -0.74253338215E+01  0.12687034398E+02  0.17770000000E+01 0.  1.
</event>
<event>
 6    1  0.1697564E-002  0.1689496E+03  0.7546771E-02  0.1079784E+00
        -11   -1    0    0    0    0  0.00000000000E+00  0.00000000000E+00  0.18250000000E+03  0.18250000000E+03  0.00000000000E+00 0.  1.
         11   -1    0    0    0    0 -0.00000000000E+00 -0.00000000000E+00 -0.18250000000E+03  0.18250000000E+03  0.00000000000E+00 0. -1.
        -11    1    1    2    0    0  0.18213416752E+01  0.31529675430E+01  0.17188527961E+03  0.17192384313E+03  0.00000000000E+00 0.  1.
         11    1    1    2    0    0 -0.25692484682E+01  0.80575904092E+01 -0.16599803217E+03  0.16621333426E+03  0.00000000000E+00 0. -1.
        -15    1    1    2    0    0  0.83763911073E+01  0.36779539251E+01 -0.30246825828E+01  0.97978419453E+01  0.17770000000E+01 0.  1.
         15    1    1    2    0    0 -0.76284843144E+01 -0.14888511877E+02 -0.28625648554E+01  0.17064980674E+02  0.17770000000E+01 0. -1.
</event>
<event>
 6    1  0.1697564E-002  0.1866741E+03  0.7546771E-02  0.1065180E+00
        -11   -1    0    0    0    0  0.00000000000E+00  0.00000000000E+00  0.18250000000E+03  0.18250000000E+03  0.00000000000E+00 0. -1.
         11   -1    0    0    0    0 -0.00000000000E+00 -0.00000000000E+00 -0.18250000000E+03  0.18250000000E+03  0.00000000000E+00 0.  1.
        -11    1    1    2    0    0 -0.24418600600E+01 -0.34924136312E+00  0.16342909882E+03  0.16344771333E+03  0.00000000000E+00 0. -1.
         11    1    1    2    0    0  0.63924872918E+01 -0.40525736843E+01 -0.17816519178E+03  0.17832588934E+03  0.00000000000E+00 0.  1.
        -15    1    1    2    0    0 -0.10447716261E+02  0.34793956432E+01  0.91047945999E+01  0.14398471545E+02  0.17770000000E+01 0. -1.
         15    1    1    2    0    0  0.64970890296E+01  0.92241940419E+00  0.56312983629E+01  0.88279257852E+01  0.17770000000E+01 0.  1.
</event>
<event>
 6    1  0.1697564E-002  0.1741699E+03  0.7546771E-02  0.1075286E+00
        -11   -1    0    0    0    0  0.00000000000E+00  0.00000000000E+00  0.18250000000E+03  0.18250000000E+03  0.00000000000E+00 0.  1.
         11   -1    0    0    0    0 -0.00000000000E+00 -0.00000000000E+00 -0.18250000000E+03  0.18250000000E+03  0.00000000000E+00 0.  1.
        -11    1    1    2    0    0  0.11189266856E+02  0.75011603018E+01  0.17286328146E+03  0.17338737317E+03  0.00000000000E+00 0.  1.
         11    1    1    2    0    0 -0.56753531884E+01 -0.14316635889E+01 -0.17495738612E+03  0.17505526628E+03  0.00000000000E+00 0.  1.
        -15    1    1    2    0    0 -0.91775807422E+01 -0.63488414663E+01  0.40854815972E+01  0.12016017024E+02  0.17770000000E+01 0.  1.
         15    1    1    2    0    0  0.36636670744E+01  0.27934475341E+00 -0.19913769410E+01  0.45413435286E+01  0.17770000000E+01 0. -1.
</event>
<event>
 6    1  0.1697564E-002  0.1881660E+03  0.7546771E-02  0.1064032E+00
        -11   -1    0    0    0    0  0.00000000000E+00  0.00000000000E+00  0.18250000000E+03  0.18250000000E+03  0.00000000000E+00 0. -1.
         11   -1    0    0    0    0 -0.00000000000E+00 -0.00000000000E+00 -0.18250000000E+03  0.18250000000E+03  0.00000000000E+00 0. -1.
        -11    1    1    2    0    0 -0.66637489432E+01 -0.25280032106E+01  0.17669028803E+03  0.17683397365E+03  0.00000000000E+00 0. -1.
         11    1    1    2    0    0  0.15228165732E+02  0.28259384486E+01 -0.16383256152E+03  0.16456303101E+03  0.00000000000E+00 0. -1.
        -15    1    1    2    0    0 -0.45773026271E+01 -0.73178603363E+01 -0.61918906245E+00  0.88342460537E+01  0.17770000000E+01 0.  1.
         15    1    1    2    0    0 -0.39871141613E+01  0.70199250983E+01 -0.12238537453E+02  0.14768749294E+02  0.17770000000E+01 0. -1.
</event>
<event>
 6    1  0.1697564E-002  0.1863510E+03  0.7546771E-02  0.1065430E+00
        -11   -1    0    0    0    0  0.00000000000E+00  0.00000000000E+00  0.18250000000E+03  0.18250000000E+03  0.00000000000E+00 0. -1.
         11   -1    0    0    0    0 -0.00000000000E+00 -0.00000000000E+00 -0.18250000000E+03  0.18250000000E+03  0.00000000000E+00 0.  1.
        -11    1    1    2    0    0  0.28999247042E+01 -0.86047792680E-01  0.17862546078E+03  0.17864901961E+03  0.00000000000E+00 0. -1.
         11    1    1    2    0    0  0.37635168530E+01 -0.57350216938E+01 -0.17112948689E+03  0.17126691395E+03  0.00000000000E+00 0.  1.
        -15    1    1    2    0    0  0.80345922008E+00  0.49448900363E+00  0.11815564863E+01  0.23332104113E+01  0.17770000000E+01 0. -1.
         15    1    1    2    0    0 -0.74669007773E+01  0.53265804829E+01 -0.86775303825E+01  0.12750856026E+02  0.17770000000E+01 0. -1.
</event>
<event>
 6    1  0.1697564E-002  0.1826120E+03  0.7546771E-02  0.1068366E+00
        -11   -1    0    0    0    0  0.00000000000E+00  0.00000000000E+00  0.18250000000E+03  0.18250000000E+03  0.00000000000E+00 0.  1.
         11   -1    0    0    0    0 -0.00000000000E+00 -0.00000000000E+00 -0.18250000000E+03  0.18250000000E+03  0.00000000000E+00 0. -1.
        -11    1    1    2    0    0  0.13589535969E+01  0.44420680559E+01  0.18232885043E+03  0.18238801611E+03  0.00000000000E+00 0.  1.
         11    1    1    2    0    0 -0.40851992858E+00 -0.14269678705E+01 -0.10324167856E+03  0.10325234776E+03  0.00000000000E+00 0. -1.
        -15    1    1    2    0    0  0.17633004026E+00  0.87431641885E+00 -0.33339685066E+02  0.33398919905E+02  0.17770000000E+01 0. -1.
         15    1    1    2    0    0 -0.11267637086E+01 -0.38894166042E+01 -0.45747486806E+02  0.45960716226E+02  0.17770000000E+01 0. -1.
</event>
<event>
 6    1  0.1697564E-002  0.1804255E+03  0.7546771E-02  0.1070118E+00
        -11   -1    0    0    0    0  0.00000000000E+00  0.00000000000E+00  0.18250000000E+03  0.18250000000E+03  0.00000000000E+00 0. -1.
         11   -1    0    0    0    0 -0.00000000000E+00 -0.00000000000E+00 -0.18250000000E+03  0.18250000000E+03  0.00000000000E+00 0. -1.
        -11    1    1    2    0    0  0.22211345105E-01  0.64132235929E+00  0.52686427162E+01  0.53075779583E+01  0.00000000000E+00 0. -1.
         11    1    1    2    0    0  0.24050554217E+01  0.96374134895E+00 -0.18185158684E+03  0.18187004350E+03  0.00000000000E+00 0. -1.
        -15    1    1    2    0    0 -0.50795263985E+01  0.82102850879E+01  0.61623352864E+02  0.62400366320E+02  0.17770000000E+01 0.  1.
         15    1    1    2    0    0  0.26522596317E+01 -0.98153487961E+01  0.11495959126E+03  0.11542201222E+03  0.17770000000E+01 0. -1.
</event>
<event>
 6    1  0.1697564E-002  0.1722230E+03  0.7546771E-02  0.1076943E+00
        -11   -1    0    0    0    0  0.00000000000E+00  0.00000000000E+00  0.18250000000E+03  0.18250000000E+03  0.00000000000E+00 0.  1.
         11   -1    0    0    0    0 -0.00000000000E+00 -0.00000000000E+00 -0.18250000000E+03  0.18250000000E+03  0.00000000000E+00 0.  1.
        -11    1    1    2    0    0 -0.53957053150E+01 -0.72696268076E+00  0.17230127254E+03  0.17238726934E+03  0.00000000000E+00 0.  1.
         11    1    1    2    0    0  0.26351643919E+01  0.10644422880E+01 -0.17204651989E+03  0.17206999196E+03  0.00000000000E+00 0.  1.
        -15    1    1    2    0    0  0.33115915072E+01 -0.93162125301E+00 -0.99373957374E+01  0.10665088819E+02  0.17770000000E+01 0. -1.
         15    1    1    2    0    0 -0.55105058410E+00  0.59414164574E+00  0.96826430837E+01  0.98776498788E+01  0.17770000000E+01 0.  1.
</event>
<event>
 6    1  0.1697564E-002  0.1903863E+03  0.7546771E-02  0.1062345E+00
        -11   -1    0    0    0    0  0.00000000000E+00  0.00000000000E+00  0.18250000000E+03  0.18250000000E+03  0.00000000000E+00 0. -1.
         11   -1    0    0    0    0 -0.00000000000E+00 -0.00000000000E+00 -0.18250000000E+03  0.18250000000E+03  0.00000000000E+00 0.  1.
        -11    1    1    2    0    0 -0.14315024058E+02  0.94948024319E+01  0.17376676270E+03  0.17461374232E+03  0.00000000000E+00 0. -1.
         11    1    1    2    0    0  0.28244006735E+00  0.47714984879E+01 -0.13231203458E+03  0.13239834389E+03  0.00000000000E+00 0.  1.
        -15    1    1    2    0    0  0.12878541051E+02 -0.11939827910E+02 -0.12882992385E+01  0.17698411061E+02  0.17770000000E+01 0.  1.
         15    1    1    2    0    0  0.11540429399E+01 -0.23264730093E+01 -0.40166428881E+02  0.40289502725E+02  0.17770000000E+01 0. -1.
</event>
<event>
 6    1  0.1697564E-002  0.1828795E+03  0.7546771E-02  0.1068153E+00
        -11   -1    0    0    0    0  0.00000000000E+00  0.00000000000E+00  0.18250000000E+03  0.18250000000E+03  0.00000000000E+00 0.  1.
         11   -1    0    0    0    0 -0.00000000000E+00 -0.00000000000E+00 -0.18250000000E+03  0.18250000000E+03  0.00000000000E+00 0. -1.
        -11    1    1    2    0    0  0.58294301577E+01  0.35502625567E+01  0.18199255606E+03  0.18212050154E+03  0.00000000000E+00 0.  1.
         11    1    1    2    0    0  0.73889511019E+00  0.30948158674E+01 -0.10213479178E+03  0.10218434099E+03  0.00000000000E+00 0. -1.
        -15    1    1    2    0    0 -0.42198294033E+01 -0.13658918907E+01 -0.21467916535E+02  0.21993221460E+02  0.17770000000E+01 0. -1.
         15    1    1    2    0    0 -0.23484958646E+01 -0.52791865335E+01 -0.58389847739E+02  0.58701936009E+02  0.17770000000E+01 0.  1.
</event>
<event>
 6    1  0.1697564E-002  0.2118330E+03  0.7546771E-02  0.1047241E+00
        -11   -1    0    0    0    0  0.00000000000E+00  0.00000000000E+00  0.18250000000E+03  0.18250000000E+03  0.00000000000E+00 0.  1.
         11   -1    0    0    0    0 -0.00000000000E+00 -0.00000000000E+00 -0.18250000000E+03  0.18250000000E+03  0.00000000000E+00 0.  1.
        -11    1    1    2    0    0 -0.79529044296E+01  0.88794310906E+01  0.13355295359E+03  0.13408387076E+03  0.00000000000E+00 0.  1.
         11    1    1    2    0    0  0.12902824547E+02  0.82434512954E+01 -0.15239980242E+03  0.15316702370E+03  0.00000000000E+00 0.  1.
        -15    1    1    2    0    0 -0.14050614625E+02 -0.37011666527E+01 -0.26104812909E+02  0.29928872213E+02  0.17770000000E+01 0.  1.
         15    1    1    2    0    0  0.91006945077E+01 -0.13421715733E+02  0.44951661743E+02  0.47820233335E+02  0.17770000000E+01 0. -1.
</event>
<event>
 6    1  0.1697564E-002  0.1833626E+03  0.7546771E-02  0.1067770E+00
        -11   -1    0    0    0    0  0.00000000000E+00  0.00000000000E+00  0.18250000000E+03  0.18250000000E+03  0.00000000000E+00 0. -1.
         11   -1    0    0    0    0 -0.00000000000E+00 -0.00000000000E+00 -0.18250000000E+03  0.18250000000E+03  0.00000000000E+00 0.  1.
        -11    1    1    2    0    0  0.14085843290E+01  0.27160826046E+01  0.18161161470E+03  0.18163738549E+03  0.00000000000E+00 0. -1.
         11    1    1    2    0    0 -0.30632257694E+01 -0.50994507734E+00 -0.17125986872E+03  0.17128802069E+03  0.00000000000E+00 0.  1.
        -15    1    1    2    0    0 -0.93918732090E+00 -0.14296555499E+01 -0.22077219783E+01  0.33102497109E+01  0.17770000000E+01 0. -1.
         15    1    1    2    0    0  0.25938287613E+01 -0.77648197739E+00 -0.81440239931E+01  0.87643441115E+01  0.17770000000E+01 0.  1.
</event>
<event>
 6    1  0.1697564E-002  0.1854489E+03  0.7546771E-02  0.1066131E+00
        -11   -1    0    0    0    0  0.00000000000E+00  0.00000000000E+00  0.18250000000E+03  0.18250000000E+03  0.00000000000E+00 0.  1.
         11   -1    0    0    0    0 -0.00000000000E+00 -0.00000000000E+00 -0.18250000000E+03  0.18250000000E+03  0.00000000000E+00 0. -1.
        -11    1    1    2    0    0  0.95598335040E+01  0.28555946895E+01  0.98877091893E+02  0.99379193692E+02  0.00000000000E+00 0.  1.
         11    1    1    2    0    0 -0.10686213738E+01  0.32186938927E+01 -0.17951904513E+03  0.17955107771E+03  0.00000000000E+00 0. -1.
        -15    1    1    2    0    0 -0.90417910348E+01 -0.67457734951E+01  0.82541318999E+02  0.83327585566E+02  0.17770000000E+01 0.  1.
         15    1    1    2    0    0  0.55057890465E+00  0.67148491285E+00 -0.18993657643E+01  0.27421430351E+01  0.17770000000E+01 0.  1.
</event>
<event>
 6    1  0.1697564E-002  0.1828221E+03  0.7546771E-02  0.1068199E+00
        -11   -1    0    0    0    0  0.00000000000E+00  0.00000000000E+00  0.18250000000E+03  0.18250000000E+03  0.00000000000E+00 0. -1.
         11   -1    0    0    0    0 -0.00000000000E+00 -0.00000000000E+00 -0.18250000000E+03  0.18250000000E+03  0.00000000000E+00 0.  1.
        -11    1    1    2    0    0 -0.43350055958E+00  0.45752427147E+01  0.24122632254E+02  0.24556509432E+02  0.00000000000E+00 0. -1.
         11    1    1    2    0    0 -0.28221639704E+01 -0.75221447095E+01 -0.18200062149E+03  0.18217786225E+03  0.00000000000E+00 0.  1.
        -15    1    1    2    0    0 -0.13154862552E+01  0.15662060886E+01  0.12174915640E+03  0.12177930168E+03  0.17770000000E+01 0. -1.
         15    1    1    2    0    0  0.45711507852E+01  0.13806959062E+01  0.36128832833E+02  0.36486326638E+02  0.17770000000E+01 0.  1.
</event>
<event>
 6    1  0.1697564E-002  0.1837724E+03  0.7546771E-02  0.1067446E+00
        -11   -1    0    0    0    0  0.00000000000E+00  0.00000000000E+00  0.18250000000E+03  0.18250000000E+03  0.00000000000E+00 0. -1.
         11   -1    0    0    0    0 -0.00000000000E+00 -0.00000000000E+00 -0.18250000000E+03  0.18250000000E+03  0.00000000000E+00 0. -1.
        -11    1    1    2    0    0  0.65964393592E+01 -0.47785934350E+01  0.15647326686E+03  0.15668513397E+03  0.00000000000E+00 0. -1.
         11    1    1    2    0    0 -0.84733521917E+00  0.25237307688E+01 -0.18120801565E+03  0.18122757000E+03  0.00000000000E+00 0. -1.
        -15    1    1    2    0    0 -0.45797323439E+01  0.51932332443E+01  0.19013793976E+02  0.20313190548E+02  0.17770000000E+01 0.  1.
         15    1    1    2    0    0 -0.11693717961E+01 -0.29383705781E+01  0.57209548127E+01  0.67741054775E+01  0.17770000000E+01 0. -1.
</event>
<event>
 6    1  0.1697564E-002  0.1749881E+03  0.7546771E-02  0.1074597E+00
        -11   -1    0    0    0    0  0.00000000000E+00  0.00000000000E+00  0.18250000000E+03  0.18250000000E+03  0.00000000000E+00 0. -1.
         11   -1    0    0    0    0 -0.00000000000E+00 -0.00000000000E+00 -0.18250000000E+03  0.18250000000E+03  0.00000000000E+00 0.  1.
        -11    1    1    2    0    0  0.16644345637E+01 -0.49258834330E+01  0.17624734482E+03  0.17632402340E+03  0.00000000000E+00 0. -1.
         11    1    1    2    0    0  0.43975454891E+01 -0.15866041505E+01 -0.17371156473E+03  0.17377446141E+03  0.00000000000E+00 0.  1.
        -15    1    1    2    0    0 -0.27010829378E+01  0.42639850822E+01 -0.68734196230E+01  0.87108578299E+01  0.17770000000E+01 0.  1.
         15    1    1    2    0    0 -0.33608971151E+01  0.22485025013E+01  0.43376395269E+01  0.61906573627E+01  0.17770000000E+01 0. -1.
</event>
<event>
 6    1  0.1697564E-002  0.1765088E+03  0.7546771E-02  0.1073326E+00
        -11   -1    0    0    0    0  0.00000000000E+00  0.00000000000E+00  0.18250000000E+03  0.18250000000E+03  0.00000000000E+00 0. -1.
         11   -1    0    0    0    0 -0.00000000000E+00 -0.00000000000E+00 -0.18250000000E+03  0.18250000000E+03  0.00000000000E+00 0.  1.
        -11    1    1    2    0    0  0.37477556465E+01 -0.94105279398E+00  0.17628638821E+03  0.17632873255E+03  0.00000000000E+00 0. -1.
         11    1    1    2    0    0  0.17281229287E+01 -0.17368758617E+01 -0.17672481144E+03  0.17674179507E+03  0.00000000000E+00 0.  1.
        -15    1    1    2    0    0  0.20989686730E+01  0.23289520136E+01 -0.15000707119E+01  0.39035404587E+01  0.17770000000E+01 0.  1.
         15    1    1    2    0    0 -0.75748472481E+01  0.34897664203E+00  0.19384939374E+01  0.80259319256E+01  0.17770000000E+01 0. -1.
</event>
<event>
 6    1  0.1697564E-002  0.2089015E+03  0.7546771E-02  0.1049188E+00
        -11   -1    0    0    0    0  0.00000000000E+00  0.00000000000E+00  0.18250000000E+03  0.18250000000E+03  0.00000000000E+00 0.  1.
         11   -1    0    0    0    0 -0.00000000000E+00 -0.00000000000E+00 -0.18250000000E+03  0.18250000000E+03  0.00000000000E+00 0.  1.
        -11    1    1    2    0    0  0.17202370822E+01  0.44976046556E+01  0.15602422522E+03  0.15609851542E+03  0.00000000000E+00 0.  1.
         11    1    1    2    0    0 -0.16147944289E+01  0.10213798494E+00 -0.11703389787E+03  0.11704508210E+03  0.00000000000E+00 0.  1.
        -15    1    1    2    0    0  0.21450914009E+01  0.32641056857E+00 -0.65085532270E+02  0.65145930040E+02  0.17770000000E+01 0.  1.
         15    1    1    2    0    0 -0.22505340542E+01 -0.49261532091E+01  0.26095204922E+02  0.26710472438E+02  0.17770000000E+01 0.  1.
</event>
<event>
 6    1  0.1697564E-002  0.2068540E+03  0.7546771E-02  0.1050569E+00
        -11   -1    0    0    0    0  0.00000000000E+00  0.00000000000E+00  0.18250000000E+03  0.18250000000E+03  0.00000000000E+00 0. -1.
         11   -1    0    0    0    0 -0.00000000000E+00 -0.00000000000E+00 -0.18250000000E+03  0.18250000000E+03  0.00000000000E+00 0.  1.
        -11    1    1    2    0    0  0.60926175615E+00  0.13455724921E+01  0.58756920412E+02  0.58775483507E+02  0.00000000000E+00 0. -1.
         11    1    1    2    0    0 -0.25547770203E+01 -0.12512108229E+01 -0.15812041022E+03  0.15814599756E+03  0.00000000000E+00 0.  1.
        -15    1    1    2    0    0 -0.64270032509E+01 -0.10632781240E+02 -0.22337864624E+02  0.25622262442E+02  0.17770000000E+01 0.  1.
         15    1    1    2    0    0  0.83725185150E+01  0.10538419571E+02  0.12170135444E+03  0.12245625649E+03  0.17770000000E+01 0. -1.
</event>
<event>
 6    1  0.1697564E-002  0.1831813E+03  0.7546771E-02  0.1067914E+00
        -11   -1    0    0    0    0  0.00000000000E+00  0.00000000000E+00  0.18250000000E+03  0.18250000000E+03  0.00000000000E+00 0.  1.
         11   -1    0    0    0    0 -0.00000000000E+00 -0.00000000000E+00 -0.18250000000E+03  0.18250000000E+03  0.00000000000E+00 0. -1.
        -11    1    1    2    0    0 -0.33410480740E+01 -0.99604131357E+00  0.15099826303E+03  0.15103850548E+03  0.00000000000E+00 0.  1.
         11    1    1    2    0    0  0.35102042676E+01 -0.12125304323E+01 -0.18178074905E+03  0.18181868025E+03  0.00000000000E+00 0. -1.
        -15    1    1    2    0    0  0.25624825849E+01  0.35196774463E+01  0.24480115591E+02  0.24927660032E+02  0.17770000000E+01 0. -1.
         15    1    1    2    0    0 -0.27316387785E+01 -0.13111057005E+01  0.63023704302E+01  0.72151542335E+01  0.17770000000E+01 0.  1.
</event>
<event>
 6    1  0.1697564E-002  0.1842445E+03  0.7546771E-02  0.1067075E+00
        -11   -1    0    0    0    0  0.00000000000E+00  0.00000000000E+00  0.18250000000E+03  0.18250000000E+03  0.00000000000E+00 0.  1.
         11   -1    0    0    0    0 -0.00000000000E+00 -0.00000000000E+00 -0.18250000000E+03  0.18250000000E+03  0.00000000000E+00 0. -1.
        -11    1    1    2    0    0  0.23734474892E+01 -0.27726621848E+01  0.17723773802E+03  0.17727531325E+03  0.00000000000E+00 0.  1.
         11    1    1    2    0    0 -0.18664479215E+01 -0.18072520472E+01 -0.18073681756E+03  0.18075548957E+03  0.00000000000E+00 0. -1.
        -15    1    1    2    0    0 -0.74282538499E+00  0.32890766152E+01  0.23717670293E+01  0.44891895009E+01  0.17770000000E+01 0.  1.
         15    1    1    2    0    0  0.23582581736E+00  0.12908376168E+01  0.11273125146E+01  0.24800076764E+01  0.17770000000E+01 0. -1.
</event>
<event>
 6    1  0.1697564E-002  0.1870542E+03  0.7546771E-02  0.1064886E+00
        -11   -1    0    0    0    0  0.00000000000E+00  0.00000000000E+00  0.18250000000E+03  0.18250000000E+03  0.00000000000E+00 0. -1.
         11   -1    0    0    0    0 -0.00000000000E+00 -0.00000000000E+00 -0.18250000000E+03  0.18250000000E+03  0.00000000000E+00 0.  1.
        -11    1    1    2    0    0 -0.19403897703E+01  0.15472698660E+01  0.16868124801E+03  0.16869950381E+03  0.00000000000E+00 0. -1.
         11    1    1    2    0    0  0.23670606158E+01 -0.38760761064E+01 -0.17788780687E+03  0.17794577481E+03  0.00000000000E+00 0.  1.
        -15    1    1    2    0    0 -0.96674952014E+00  0.30878438059E+01 -0.37392038169E+01  0.52544036949E+01  0.17770000000E+01 0. -1.
         15    1    1    2    0    0  0.54007867468E+00 -0.75903756543E+00  0.12945762675E+02  0.13100317677E+02  0.17770000000E+01 0. -1.
</event>
<event>
 6    1  0.1697564E-002  0.1779675E+03  0.7546771E-02  0.1072121E+00
        -11   -1    0    0    0    0  0.00000000000E+00  0.00000000000E+00  0.18250000000E+03  0.18250000000E+03  0.00000000000E+00 0.  1.
         11   -1    0    0    0    0 -0.00000000000E+00 -0.00000000000E+00 -0.18250000000E+03  0.18250000000E+03  0.00000000000E+00 0. -1.
        -11    1    1    2    0    0 -0.16996150607E+01 -0.22731910659E+01  0.17818497089E+03  0.17820757543E+03  0.00000000000E+00 0.  1.
         11    1    1    2    0    0 -0.45487822418E+01 -0.15537418176E+01 -0.17773815501E+03  0.17780314193E+03  0.00000000000E+00 0. -1.
        -15    1    1    2    0    0  0.36476686545E+01  0.41593866061E+01 -0.31606953884E+00  0.58192450117E+01  0.17770000000E+01 0.  1.
         15    1    1    2    0    0  0.26007286480E+01 -0.33245372263E+00 -0.13074633573E+00  0.31700376311E+01  0.17770000000E+01 0. -1.
</event>
<event>
 6    1  0.1697564E-002  0.1846790E+03  0.7546771E-02  0.1066733E+00
        -11   -1    0    0    0    0  0.00000000000E+00  0.00000000000E+00  0.18250000000E+03  0.18250000000E+03  0.00000000000E+00 0.  1.
         11   -1    0    0    0    0 -0.00000000000E+00 -0.00000000000E+00 -0.18250000000E+03  0.18250000000E+03  0.00000000000E+00 0.  1.
        -11    1    1    2    0    0 -0.32547862987E+01  0.84085597825E+01  0.18009544536E+03  0.18032101084E+03  0.00000000000E+00 0.  1.
         11    1    1    2    0    0 -0.99193400043E+00 -0.33001610032E+01 -0.17120328445E+03  0.17123796192E+03  0.00000000000E+00 0.  1.
        -15    1    1    2    0    0  0.48153108420E+01 -0.52193231507E+01 -0.43159935161E+01  0.84978868955E+01  0.17770000000E+01 0. -1.
         15    1    1    2    0    0 -0.56859054289E+00  0.11092437141E+00 -0.45761673985E+01  0.49431403461E+01  0.17770000000E+01 0. -1.
</event>
<event>
 6    1  0.1697564E-002  0.1835633E+03  0.7546771E-02  0.1067612E+00
        -11   -1    0    0    0    0  0.00000000000E+00  0.00000000000E+00  0.18250000000E+03  0.18250000000E+03  0.00000000000E+00 0. -1.
         11   -1    0    0    0    0 -0.00000000000E+00 -0.00000000000E+00 -0.18250000000E+03  0.18250000000E+03  0.00000000000E+00 0. -1.
        -11    1    1    2    0    0 -0.26450428152E+01  0.28452328623E+01  0.18139508921E+03  0.18143668314E+03  0.00000000000E+00 0. -1.
         11    1    1    2    0    0  0.20514640438E+01  0.15803589060E+01 -0.12428183523E+03  0.12430881146E+03  0.00000000000E+00 0. -1.
        -15    1    1    2    0    0  0.55061797475E+01 -0.12642611073E+01 -0.91189950004E+01  0.10873369780E+02  0.17770000000E+01 0.  1.
         15    1    1    2    0    0 -0.49126009761E+01 -0.31613306610E+01 -0.47994258978E+02  0.48381135619E+02  0.17770000000E+01 0. -1.
</event>
<event>
 6    1  0.1697564E-002  0.1828511E+03  0.7546771E-02  0.1068176E+00
        -11   -1    0    0    0    0  0.00000000000E+00  0.00000000000E+00  0.18250000000E+03  0.18250000000E+03  0.00000000000E+00 0. -1.
         11   -1    0    0    0    0 -0.00000000000E+00 -0.00000000000E+00 -0.18250000000E+03  0.18250000000E+03  0.00000000000E+00 0. -1.
        -11    1    1    2    0    0  0.18094204987E+01  0.16898009321E+01  0.18213206247E+03  0.18214888858E+03  0.00000000000E+00 0. -1.
         11    1    1    2    0    0 -0.76823590964E+00 -0.66904466831E+00 -0.54751951995E+02  0.54761428528E+02  0.00000000000E+00 0. -1.
        -15    1    1    2    0    0 -0.11761479603E+01 -0.31956052780E+01 -0.10578370569E+02  0.11254104585E+02  0.17770000000E+01 0.  1.
         15    1    1    2    0    0  0.13496337128E+00  0.21748490142E+01 -0.11680173991E+03  0.11683557831E+03  0.17770000000E+01 0. -1.
</event>
<event>
 6    1  0.1697564E-002  0.1839758E+03  0.7546771E-02  0.1067286E+00
        -11   -1    0    0    0    0  0.00000000000E+00  0.00000000000E+00  0.18250000000E+03  0.18250000000E+03  0.00000000000E+00 0. -1.
         11   -1    0    0    0    0 -0.00000000000E+00 -0.00000000000E+00 -0.18250000000E+03  0.18250000000E+03  0.00000000000E+00 0. -1.
        -11    1    1    2    0    0 -0.32124071496E+01 -0.16507431178E+01  0.18098821353E+03  0.18102424686E+03  0.00000000000E+00 0. -1.
         11    1    1    2    0    0  0.22906354169E+01 -0.18949227322E+01 -0.17583863081E+03  0.17586375928E+03  0.00000000000E+00 0. -1.
        -15    1    1    2    0    0  0.14332970470E+01  0.91648644951E+00 -0.40044833431E+01  0.46997769822E+01  0.17770000000E+01 0.  1.
         15    1    1    2    0    0 -0.51152531423E+00  0.26291794006E+01 -0.11450993778E+01  0.34122168824E+01  0.17770000000E+01 0. -1.
</event>
<event>
 6    1  0.1697564E-002  0.1909113E+03  0.7546771E-02  0.1061950E+00
        -11   -1    0    0    0    0  0.00000000000E+00  0.00000000000E+00  0.18250000000E+03  0.18250000000E+03  0.00000000000E+00 0. -1.
         11   -1    0    0    0    0 -0.00000000000E+00 -0.00000000000E+00 -0.18250000000E+03  0.18250000000E+03  0.00000000000E+00 0.  1.
        -11    1    1    2    0    0 -0.49560853045E+01  0.39486210365E+00  0.17401769161E+03  0.17408870064E+03  0.00000000000E+00 0. -1.
         11    1    1    2    0    0  0.87667778493E+00  0.16526262972E+02 -0.15018213879E+03  0.15109123317E+03  0.00000000000E+00 0.  1.
        -15    1    1    2    0    0  0.74540907256E+01 -0.80792563405E+01  0.28129634947E+01  0.11485135793E+02  0.17770000000E+01 0.  1.
         15    1    1    2    0    0 -0.33746832060E+01 -0.88418687348E+01 -0.26648516317E+02  0.28334930393E+02  0.17770000000E+01 0. -1.
</event>
<event>
 6    1  0.1697564E-002  0.1830847E+03  0.7546771E-02  0.1067990E+00
        -11   -1    0    0    0    0  0.00000000000E+00  0.00000000000E+00  0.18250000000E+03  0.18250000000E+03  0.00000000000E+00 0. -1.
         11   -1    0    0    0    0 -0.00000000000E+00 -0.00000000000E+00 -0.18250000000E+03  0.18250000000E+03  0.00000000000E+00 0. -1.
        -11    1    1    2    0    0 -0.15624920945E+01 -0.19797079395E+01  0.11032916625E+03  0.11035798816E+03  0.00000000000E+00 0. -1.
         11    1    1    2    0    0 -0.25935845716E+01  0.43456741527E+01 -0.18184486863E+03  0.18191527646E+03  0.00000000000E+00 0. -1.
        -15    1    1    2    0    0  0.10181604700E+01 -0.54341919037E+01  0.16212301858E+02  0.17221020670E+02  0.17770000000E+01 0. -1.
         15    1    1    2    0    0  0.31379161962E+01  0.30682256905E+01  0.55303400517E+02  0.55505714702E+02  0.17770000000E+01 0.  1.
</event>
<event>
 6    1  0.1697564E-002  0.1828610E+03  0.7546771E-02  0.1068168E+00
        -11   -1    0    0    0    0  0.00000000000E+00  0.00000000000E+00  0.18250000000E+03  0.18250000000E+03  0.00000000000E+00 0.  1.
         11   -1    0    0    0    0 -0.00000000000E+00 -0.00000000000E+00 -0.18250000000E+03  0.18250000000E+03  0.00000000000E+00 0. -1.
        -11    1    1    2    0    0 -0.22371754692E+01  0.13523214825E+01  0.98719278985E+02  0.98753884839E+02  0.00000000000E+00 0.  1.
         11    1    1    2    0    0 -0.92775446670E+00  0.58155513010E+01 -0.18204377916E+03  0.18213900981E+03  0.00000000000E+00 0. -1.
        -15    1    1    2    0    0 -0.16761385303E+01 -0.15532633694E+01  0.10737322527E+02  0.11120696539E+02  0.17770000000E+01 0.  1.
         15    1    1    2    0    0  0.48410684662E+01 -0.56146094142E+01  0.72587177648E+02  0.72986408808E+02  0.17770000000E+01 0. -1.
</event>
<event>
 6    1  0.1697564E-002  0.1843872E+03  0.7546771E-02  0.1066962E+00
        -11   -1    0    0    0    0  0.00000000000E+00  0.00000000000E+00  0.18250000000E+03  0.18250000000E+03  0.00000000000E+00 0.  1.
         11   -1    0    0    0    0 -0.00000000000E+00 -0.00000000000E+00 -0.18250000000E+03  0.18250000000E+03  0.00000000000E+00 0.  1.
        -11    1    1    2    0    0 -0.85004644979E+01 -0.37723729543E+01  0.18037323982E+03  0.18061282994E+03  0.00000000000E+00 0.  1.
         11    1    1    2    0    0 -0.11849756108E+01 -0.10081943634E+02 -0.11931426435E+03  0.11974532739E+03  0.00000000000E+00 0.  1.
        -15    1    1    2    0    0  0.39570860355E+01  0.90365975224E+01 -0.15643673376E+02  0.18579582083E+02  0.17770000000E+01 0.  1.
         15    1    1    2    0    0  0.57283540732E+01  0.48177190659E+01 -0.45415302098E+02  0.46062260595E+02  0.17770000000E+01 0. -1.
</event>
<event>
 6    1  0.1697564E-002  0.1834064E+03  0.7546771E-02  0.1067736E+00
        -11   -1    0    0    0    0  0.00000000000E+00  0.00000000000E+00  0.18250000000E+03  0.18250000000E+03  0.00000000000E+00 0. -1.
         11   -1    0    0    0    0 -0.00000000000E+00 -0.00000000000E+00 -0.18250000000E+03  0.18250000000E+03  0.00000000000E+00 0. -1.
        -11    1    1    2    0    0  0.18721343946E+01 -0.18652091714E+00  0.13265856985E+03  0.13267191049E+03  0.00000000000E+00 0. -1.
         11    1    1    2    0    0  0.11344554187E+01  0.23408749844E+01 -0.18157494473E+03  0.18159357709E+03  0.00000000000E+00 0. -1.
        -15    1    1    2    0    0 -0.13367063126E+01 -0.57386753266E+01  0.11283748990E+02  0.12853011263E+02  0.17770000000E+01 0. -1.
         15    1    1    2    0    0 -0.16698835006E+01  0.35843212594E+01  0.37632625888E+02  0.37881501159E+02  0.17770000000E+01 0. -1.
</event>
<event>
 6    1  0.1697564E-002  0.1740430E+03  0.7546771E-02  0.1075393E+00
        -11   -1    0    0    0    0  0.00000000000E+00  0.00000000000E+00  0.18250000000E+03  0.18250000000E+03  0.00000000000E+00 0. -1.
         11   -1    0    0    0    0 -0.00000000000E+00 -0.00000000000E+00 -0.18250000000E+03  0.18250000000E+03  0.00000000000E+00 0. -1.
        -11    1    1    2    0    0 -0.13140323473E+01 -0.32055364962E+01  0.17580802400E+03  0.17584215492E+03  0.00000000000E+00 0. -1.
         11    1    1    2    0    0 -0.54949619908E+01  0.13574685894E+01 -0.17224066917E+03  0.17233364572E+03  0.00000000000E+00 0. -1.
        -15    1    1    2    0    0  0.45797544515E+01 -0.29147114995E+01 -0.79237940158E+01  0.97680056596E+01  0.17770000000E+01 0. -1.
         15    1    1    2    0    0  0.22292398866E+01  0.47627794064E+01  0.43564391952E+01  0.70561937053E+01  0.17770000000E+01 0.  1.
</event>
<event>
 6    1  0.1697564E-002  0.1682437E+03  0.7546771E-02  0.1080405E+00
        -11   -1    0    0    0    0  0.00000000000E+00  0.00000000000E+00  0.18250000000E+03  0.18250000000E+03  0.00000000000E+00 0.  1.
         11   -1    0    0    0    0 -0.00000000000E+00 -0.00000000000E+00 -0.18250000000E+03  0.18250000000E+03  0.00000000000E+00 0.  1.
        -11    1    1    2    0    0  0.49595710926E+01 -0.52054000398E+01  0.16521645683E+03  0.16537282468E+03  0.00000000000E+00 0.  1.
         11    1    1    2    0    0  0.58561857401E+01 -0.23149598806E+01 -0.17131173857E+03  0.17142743573E+03  0.00000000000E+00 0.  1.
        -15    1    1    2    0    0 -0.73680749204E+01  0.90358796734E+01  0.14577221497E+02  0.18750700389E+02  0.17770000000E+01 0. -1.
         15    1    1    2    0    0 -0.34476819122E+01 -0.15155197530E+01 -0.84819397625E+01  0.94490392011E+01  0.17770000000E+01 0.  1.
</event>
<event>
 6    1  0.1697564E-002  0.1745591E+03  0.7546771E-02  0.1074958E+00
        -11   -1    0    0    0    0  0.00000000000E+00  0.00000000000E+00  0.18250000000E+03  0.18250000000E+03  0.00000000000E+00 0.  1.
         11   -1    0    0    0    0 -0.00000000000E+00 -0.00000000000E+00 -0.18250000000E+03  0.18250000000E+03  0.00000000000E+00 0. -1.
        -11    1    1    2    0    0 -0.25792274201E+01 -0.10812330776E+02  0.17645414674E+03  0.17680391628E+03  0.00000000000E+00 0.  1.
         11    1    1    2    0    0 -0.15668381711E+01  0.18870565399E+01 -0.17245834082E+03  0.17247578173E+03  0.00000000000E+00 0. -1.
        -15    1    1    2    0    0 -0.83149655934E+00 -0.21355892110E+01 -0.29401391578E+00  0.29148415033E+01  0.17770000000E+01 0.  1.
         15    1    1    2    0    0  0.49775621506E+01  0.11060863447E+02 -0.37017920046E+01  0.12805460483E+02  0.17770000000E+01 0. -1.
</event>
<event>
 6    1  0.1697564E-002  0.1646635E+03  0.7546771E-02  0.1083612E+00
        -11   -1    0    0    0    0  0.00000000000E+00  0.00000000000E+00  0.18250000000E+03  0.18250000000E+03  0.00000000000E+00 0.  1.
         11   -1    0    0    0    0 -0.00000000000E+00 -0.00000000000E+00 -0.18250000000E+03  0.18250000000E+03  0.00000000000E+00 0.  1.
        -11    1    1    2    0    0 -0.41228708212E+01 -0.93783373825E+00  0.16190133418E+03  0.16195653616E+03  0.00000000000E+00 0.  1.
         11    1    1    2    0    0 -0.61187576330E+01  0.55656555922E+01 -0.16740396297E+03  0.16760818159E+03  0.00000000000E+00 0.  1.
        -15    1    1    2    0    0  0.40218176380E+01  0.19475023494E+01  0.18714332880E+02  0.19322312663E+02  0.17770000000E+01 0.  1.
         15    1    1    2    0    0  0.62198108162E+01 -0.65753242033E+01 -0.13211704090E+02  0.16112969587E+02  0.17770000000E+01 0.  1.
</event>
<event>
 6    1  0.1697564E-002  0.1847826E+03  0.7546771E-02  0.1066652E+00
        -11   -1    0    0    0    0  0.00000000000E+00  0.00000000000E+00  0.18250000000E+03  0.18250000000E+03  0.00000000000E+00 0.  1.
         11   -1    0    0    0    0 -0.00000000000E+00 -0.00000000000E+00 -0.18250000000E+03  0.18250000000E+03  0.00000000000E+00 0.  1.
        -11    1    1    2    0    0  0.44538722111E+01  0.15603654958E+01  0.17043996580E+03  0.17050528924E+03  0.00000000000E+00 0.  1.
         11    1    1    2    0    0  0.20478341421E+01 -0.29784583441E+01 -0.18018112257E+03  0.18021737366E+03  0.00000000000E+00 0.  1.
        -15    1    1    2    0    0 -0.46415426129E+01  0.27672437440E+01  0.98453892424E+01  0.11370618897E+02  0.17770000000E+01 0. -1.
         15    1    1    2    0    0 -0.18601637403E+01 -0.13491508958E+01 -0.10423246982E+00  0.29067181989E+01  0.17770000000E+01 0.  1.
</event>
<event>
 6    1  0.1697564E-002  0.1841972E+03  0.7546771E-02  0.1067112E+00
        -11   -1    0    0    0    0  0.00000000000E+00  0.00000000000E+00  0.18250000000E+03  0.18250000000E+03  0.00000000000E+00 0.  1.
         11   -1    0    0    0    0 -0.00000000000E+00 -0.00000000000E+00 -0.18250000000E+03  0.18250000000E+03  0.00000000000E+00 0.  1.
        -11    1    1    2    0    0 -0.17199370159E+01  0.15508988169E+01  0.15337917624E+03  0.15339665960E+03  0.00000000000E+00 0.  1.
         11    1    1    2    0    0 -0.16840127675E+01 -0.18528486756E+01 -0.18078545324E+03  0.18080279049E+03  0.00000000000E+00 0.  1.
        -15    1    1    2    0    0 -0.15464221323E+01  0.23850765485E+01  0.60212901051E+00  0.34059212995E+01  0.17770000000E+01 0. -1.
         15    1    1    2    0    0  0.49503719158E+01 -0.20831266898E+01  0.26804147982E+02  0.27394628615E+02  0.17770000000E+01 0.  1.
</event>
<event>
 6    1  0.1697564E-002  0.1827478E+03  0.7546771E-02  0.1068258E+00
        -11   -1    0    0    0    0  0.00000000000E+00  0.00000000000E+00  0.18250000000E+03  0.18250000000E+03  0.00000000000E+00 0. -1.
         11   -1    0    0    0    0 -0.00000000000E+00 -0.00000000000E+00 -0.18250000000E+03  0.18250000000E+03  0.00000000000E+00 0.  1.
        -11    1    1    2    0    0 -0.11841423182E+01  0.26770224773E+01  0.13820932453E+03  0.13824031984E+03  0.00000000000E+00 0. -1.
         11    1    1    2    0    0 -0.57382333606E+00 -0.33710298845E+01 -0.18222014859E+03  0.18225223090E+03  0.00000000000E+00 0.  1.
        -15    1    1    2    0    0  0.29224730925E+00  0.28608750264E+01  0.19122518670E+02  0.19419023242E+02  0.17770000000E+01 0. -1.
         15    1    1    2    0    0  0.14657183451E+01 -0.21668676191E+01  0.24888305394E+02  0.25088426015E+02  0.17770000000E+01 0. -1.
</event>
<event>
 6    1  0.1697564E-002  0.1830717E+03  0.7546771E-02  0.1068001E+00
        -11   -1    0    0    0    0  0.00000000000E+00  0.00000000000E+00  0.18250000000E+03  0.18250000000E+03  0.00000000000E+00 0. -1.
         11   -1    0    0    0    0 -0.00000000000E+00 -0.00000000000E+00 -0.18250000000E+03  0.18250000000E+03  0.00000000000E+00 0. -1.
        -11    1    1    2    0    0  0.22122551883E+01  0.19864516440E+01  0.14241199883E+03  0.14244303238E+03  0.00000000000E+00 0. -1.
         11    1    1    2    0    0 -0.10563897326E+02  0.22773441036E+01 -0.18160710150E+03  0.18192834177E+03  0.00000000000E+00 0. -1.
        -15    1    1    2    0    0  0.24805582824E+01 -0.13808768569E+01  0.74532199151E+01  0.81711814561E+01  0.17770000000E+01 0. -1.
         15    1    1    2    0    0  0.58710838555E+01 -0.28829188907E+01  0.31741882752E+02  0.32457444394E+02  0.17770000000E+01 0. -1.
</event>
<event>
 6    1  0.1697564E-002  0.1854090E+03  0.7546771E-02  0.1066163E+00
        -11   -1    0    0    0    0  0.00000000000E+00  0.00000000000E+00  0.18250000000E+03  0.18250000000E+03  0.00000000000E+00 0.  1.
         11   -1    0    0    0    0 -0.00000000000E+00 -0.00000000000E+00 -0.18250000000E+03  0.18250000000E+03  0.00000000000E+00 0. -1.
        -11    1    1    2    0    0  0.41107721540E+01 -0.20608670885E-01  0.16768491453E+03  0.16773529573E+03  0.00000000000E+00 0.  1.
         11    1    1    2    0    0  0.24556291974E+01  0.66057470656E+01 -0.17945268701E+03  0.17959101560E+03  0.00000000000E+00 0. -1.
        -15    1    1    2    0    0 -0.30209084224E+01 -0.81800814363E+01  0.83048483853E+01  0.12172421933E+02  0.17770000000E+01 0.  1.
         15    1    1    2    0    0 -0.35454929290E+01  0.15949430416E+01  0.34629240910E+01  0.55012667337E+01  0.17770000000E+01 0.  1.
</event>
<event>
 6    1  0.1697564E-002  0.1688773E+03  0.7546771E-02  0.1079847E+00
        -11   -1    0    0    0    0  0.00000000000E+00  0.00000000000E+00  0.18250000000E+03  0.18250000000E+03  0.00000000000E+00 0.  1.
         11   -1    0    0    0    0 -0.00000000000E+00 -0.00000000000E+00 -0.18250000000E+03  0.18250000000E+03  0.00000000000E+00 0.  1.
        -11    1    1    2    0    0 -0.28771249914E+01  0.42284833229E+01  0.16764959367E+03  0.16772758919E+03  0.00000000000E+00 0.  1.
         11    1    1    2    0    0 -0.45672504970E+01  0.54135804207E+01 -0.17010822212E+03  0.17025561331E+03  0.00000000000E+00 0.  1.
        -15    1    1    2    0    0 -0.12590523157E+01 -0.10792952562E+02 -0.77282220645E+01  0.13451995503E+02  0.17770000000E+01 0. -1.
         15    1    1    2    0    0  0.87034278041E+01  0.11508888182E+01  0.10186850518E+02  0.13564801992E+02  0.17770000000E+01 0.  1.
</event>
<event>
 6    1  0.1697564E-002  0.1834780E+03  0.7546771E-02  0.1067679E+00
        -11   -1    0    0    0    0  0.00000000000E+00  0.00000000000E+00  0.18250000000E+03  0.18250000000E+03  0.00000000000E+00 0.  1.
         11   -1    0    0    0    0 -0.00000000000E+00 -0.00000000000E+00 -0.18250000000E+03  0.18250000000E+03  0.00000000000E+00 0. -1.
        -11    1    1    2    0    0 -0.33859104614E+01 -0.84247609156E+00  0.18148843231E+03  0.18152196897E+03  0.00000000000E+00 0.  1.
         11    1    1    2    0    0  0.28226433578E+01 -0.10727707712E+01 -0.16410654491E+03  0.16413432376E+03  0.00000000000E+00 0. -1.
        -15    1    1    2    0    0  0.35897271918E+01 -0.57248613617E+00 -0.10182826376E+02  0.10957260775E+02  0.17770000000E+01 0. -1.
         15    1    1    2    0    0 -0.30264600882E+01  0.24877329989E+01 -0.71990610263E+01  0.83864464942E+01  0.17770000000E+01 0.  1.
</event>
<event>
 6    1  0.1697564E-002  0.1833731E+03  0.7546771E-02  0.1067762E+00
        -11   -1    0    0    0    0  0.00000000000E+00  0.00000000000E+00  0.18250000000E+03  0.18250000000E+03  0.00000000000E+00 0. -1.
         11   -1    0    0    0    0 -0.00000000000E+00 -0.00000000000E+00 -0.18250000000E+03  0.18250000000E+03  0.00000000000E+00 0. -1.
        -11    1    1    2    0    0  0.27596391738E+00 -0.26504528361E+01  0.12554448229E+03  0.12557276015E+03  0.00000000000E+00 0. -1.
         11    1    1    2    0    0  0.24485827201E+00 -0.70597926943E+01 -0.18148949526E+03  0.18162691849E+03  0.00000000000E+00 0. -1.
        -15    1    1    2    0    0  0.24297941468E+01  0.12157091426E+01  0.31943260550E+02  0.32107810139E+02  0.17770000000E+01 0. -1.
         15    1    1    2    0    0 -0.29506163362E+01  0.84945363877E+01  0.24001752416E+02  0.25692511229E+02  0.17770000000E+01 0.  1.
</event>
<event>
 6    1  0.1697564E-002  0.1841430E+03  0.7546771E-02  0.1067154E+00
        -11   -1    0    0    0    0  0.00000000000E+00  0.00000000000E+00  0.18250000000E+03  0.18250000000E+03  0.00000000000E+00 0.  1.
         11   -1    0    0    0    0 -0.00000000000E+00 -0.00000000000E+00 -0.18250000000E+03  0.18250000000E+03  0.00000000000E+00 0. -1.
        -11    1    1    2    0    0 -0.32225467922E+01 -0.90978943379E+00  0.18082597473E+03  0.18085697570E+03  0.00000000000E+00 0.  1.
         11    1    1    2    0    0  0.30338731068E+01  0.60954103569E+00 -0.16667217378E+03  0.16670089813E+03  0.00000000000E+00 0. -1.
        -15    1    1    2    0    0  0.33342226242E+01  0.71685268386E+00 -0.12622922873E+01  0.40474719389E+01  0.17770000000E+01 0.  1.
         15    1    1    2    0    0 -0.31455489387E+01 -0.41660428576E+00 -0.12891508664E+02  0.13394654228E+02  0.17770000000E+01 0.  1.
</event>
<event>
 6    1  0.1697564E-002  0.1830719E+03  0.7546771E-02  0.1068000E+00
        -11   -1    0    0    0    0  0.00000000000E+00  0.00000000000E+00  0.18250000000E+03  0.18250000000E+03  0.00000000000E+00 0.  1.
         11   -1    0    0    0    0 -0.00000000000E+00 -0.00000000000E+00 -0.18250000000E+03  0.18250000000E+03  0.00000000000E+00 0. -1.
        -11    1    1    2    0    0 -0.14607682059E+01 -0.17107879256E+01  0.75993600858E+02  0.76026890048E+02  0.00000000000E+00 0.  1.
         11    1    1    2    0    0  0.14091309359E+01  0.40142147964E+01 -0.18187834228E+03  0.18192809283E+03  0.00000000000E+00 0. -1.
        -15    1    1    2    0    0  0.80296276528E+00 -0.45482213271E+01  0.10219498641E+03  0.10231473033E+03  0.17770000000E+01 0.  1.
         15    1    1    2    0    0 -0.75132549528E+00  0.22447944562E+01  0.36897550108E+01  0.47302867979E+01  0.17770000000E+01 0. -1.
</event>
<event>
 6    1  0.1697564E-002  0.1846322E+03  0.7546771E-02  0.1066770E+00
        -11   -1    0    0    0    0  0.00000000000E+00  0.00000000000E+00  0.18250000000E+03  0.18250000000E+03  0.00000000000E+00 0. -1.
         11   -1    0    0    0    0 -0.00000000000E+00 -0.00000000000E+00 -0.18250000000E+03  0.18250000000E+03  0.00000000000E+00 0.  1.
        -11    1    1    2    0    0 -0.12180284100E+01  0.41253934880E+01  0.16979622136E+03  0.16985069694E+03  0.00000000000E+00 0. -1.
         11    1    1    2    0    0  0.11093194142E+01  0.30871680747E+01 -0.18033796063E+03  0.18036779436E+03  0.00000000000E+00 0.  1.
        -15    1    1    2    0    0  0.70919372143E+00 -0.30212250294E+00 -0.11741823776E+00  0.19405539889E+01  0.17770000000E+01 0. -1.
         15    1    1    2    0    0 -0.60048472564E+00 -0.69104390597E+01  0.10659157517E+02  0.12840954711E+02  0.17770000000E+01 0.  1.
</event>
<event>
 6    1  0.1697564E-002  0.1825723E+03  0.7546771E-02  0.1068397E+00
        -11   -1    0    0    0    0  0.00000000000E+00  0.00000000000E+00  0.18250000000E+03  0.18250000000E+03  0.00000000000E+00 0.  1.
         11   -1    0    0    0    0 -0.00000000000E+00 -0.00000000000E+00 -0.18250000000E+03  0.18250000000E+03  0.00000000000E+00 0. -1.
        -11    1    1    2    0    0  0.10186963178E+01  0.14138925997E+01  0.57102698295E+02  0.57129283096E+02  0.00000000000E+00 0.  1.
         11    1    1    2    0    0 -0.81497641397E+00  0.25537725687E+01 -0.18240803855E+03  0.18242773492E+03  0.00000000000E+00 0. -1.
        -15    1    1    2    0    0  0.87852014366E-01 -0.10225088537E+01  0.69959724516E+02  0.69989813728E+02  0.17770000000E+01 0.  1.
         15    1    1    2    0    0 -0.29157191816E+00 -0.29451563147E+01  0.55345615735E+02  0.55453168259E+02  0.17770000000E+01 0. -1.
</event>
<event>
 6    1  0.1697564E-002  0.1836964E+03  0.7546771E-02  0.1067506E+00
        -11   -1    0    0    0    0  0.00000000000E+00  0.00000000000E+00  0.18250000000E+03  0.18250000000E+03  0.00000000000E+00 0. -1.
         11   -1    0    0    0    0 -0.00000000000E+00 -0.00000000000E+00 -0.18250000000E+03  0.18250000000E+03  0.00000000000E+00 0.  1.
        -11    1    1    2    0    0 -0.20182785982E+01 -0.14919823211E+01  0.18128620081E+03  0.18130357433E+03  0.00000000000E+00 0. -1.
         11    1    1    2    0    0 -0.22848533015E+01  0.58362060413E+00 -0.14143592749E+03  0.14145558580E+03  0.00000000000E+00 0.  1.
        -15    1    1    2    0    0  0.55692908126E+01  0.29589819074E+01 -0.38323827060E+02  0.38879892279E+02  0.17770000000E+01 0.  1.
         15    1    1    2    0    0 -0.12661589129E+01 -0.20506201905E+01 -0.15264462564E+01  0.33609475944E+01  0.17770000000E+01 0. -1.
</event>
<event>
 6    1  0.1697564E-002  0.1941548E+03  0.7546771E-02  0.1059538E+00
        -11   -1    0    0    0    0  0.00000000000E+00  0.00000000000E+00  0.18250000000E+03  0.18250000000E+03  0.00000000000E+00 0.  1.
         11   -1    0    0    0    0 -0.00000000000E+00 -0.00000000000E+00 -0.18250000000E+03  0.18250000000E+03  0.00000000000E+00 0.  1.
        -11    1    1    2    0    0 -0.10406194765E+02  0.18906499205E+00  0.36905241257E+02  0.38344771056E+02  0.00000000000E+00 0.  1.
         11    1    1    2    0    0 -0.22477578660E+01  0.35127454729E+01 -0.17079432996E+03  0.17084523681E+03  0.00000000000E+00 0.  1.
        -15    1    1    2    0    0  0.15293781600E+02  0.65971925256E+01  0.14158045597E+03  0.14256789943E+03  0.17770000000E+01 0.  1.
         15    1    1    2    0    0 -0.26398289690E+01 -0.10299002991E+02 -0.76913672729E+01  0.13242092701E+02  0.17770000000E+01 0. -1.
</event>
<event>
 6    1  0.1697564E-002  0.1826583E+03  0.7546771E-02  0.1068329E+00
        -11   -1    0    0    0    0  0.00000000000E+00  0.00000000000E+00  0.18250000000E+03  0.18250000000E+03  0.00000000000E+00 0. -1.
         11   -1    0    0    0    0 -0.00000000000E+00 -0.00000000000E+00 -0.18250000000E+03  0.18250000000E+03  0.00000000000E+00 0.  1.
        -11    1    1    2    0    0 -0.29334094252E+01 -0.10006359312E+01  0.72944218663E+02  0.73010034924E+02  0.00000000000E+00 0. -1.
         11    1    1    2    0    0  0.14061398537E+01  0.36447851320E+01 -0.18229984730E+03  0.18234170125E+03  0.00000000000E+00 0.  1.
        -15    1    1    2    0    0 -0.97856002692E+00 -0.24490330058E+01  0.21036589771E+02  0.21275600593E+02  0.17770000000E+01 0.  1.
         15    1    1    2    0    0  0.25058295984E+01 -0.19511619502E+00  0.88319038866E+02  0.88372663237E+02  0.17770000000E+01 0. -1.
</event>
<event>
 6    1  0.1697564E-002  0.1853118E+03  0.7546771E-02  0.1066238E+00
        -11   -1    0    0    0    0  0.00000000000E+00  0.00000000000E+00  0.18250000000E+03  0.18250000000E+03  0.00000000000E+00 0.  1.
         11   -1    0    0    0    0 -0.00000000000E+00 -0.00000000000E+00 -0.18250000000E+03  0.18250000000E+03  0.00000000000E+00 0. -1.
        -11    1    1    2    0    0  0.11230363535E+01 -0.31734333245E+01  0.17965667050E+03  0.17968820535E+03  0.00000000000E+00 0.  1.
         11    1    1    2    0    0 -0.27528115938E+01 -0.64340218490E+01 -0.71764742467E+02  0.72105151481E+02  0.00000000000E+00 0. -1.
        -15    1    1    2    0    0 -0.12587300926E+02  0.13848847963E+02 -0.49989725908E+02  0.53407500970E+02  0.17770000000E+01 0.  1.
         15    1    1    2    0    0  0.14217076167E+02 -0.42413927894E+01 -0.57902202122E+02  0.59799142194E+02  0.17770000000E+01 0. -1.
</event>
<event>
 6    1  0.1697564E-002  0.1935120E+03  0.7546771E-02  0.1060012E+00
        -11   -1    0    0    0    0  0.00000000000E+00  0.00000000000E+00  0.18250000000E+03  0.18250000000E+03  0.00000000000E+00 0.  1.
         11   -1    0    0    0    0 -0.00000000000E+00 -0.00000000000E+00 -0.18250000000E+03  0.18250000000E+03  0.00000000000E+00 0.  1.
        -11    1    1    2    0    0  0.91642496236E+01  0.15524024594E+01  0.13134881278E+03  0.13167727231E+03  0.00000000000E+00 0.  1.
         11    1    1    2    0    0  0.58163088581E+01 -0.30506481074E+00 -0.17138905659E+03  0.17148799151E+03  0.00000000000E+00 0.  1.
        -15    1    1    2    0    0 -0.10679208343E+02  0.89374519478E+01 -0.53953310001E+01  0.15039643073E+02  0.17770000000E+01 0.  1.
         15    1    1    2    0    0 -0.43013501383E+01 -0.10184789597E+02  0.45435574810E+02  0.46795093113E+02  0.17770000000E+01 0. -1.
</event>
<event>
 6    1  0.1697564E-002  0.1902923E+03  0.7546771E-02  0.1062416E+00
        -11   -1    0    0    0    0  0.00000000000E+00  0.00000000000E+00  0.18250000000E+03  0.18250000000E+03  0.00000000000E+00 0. -1.
         11   -1    0    0    0    0 -0.00000000000E+00 -0.00000000000E+00 -0.18250000000E+03  0.18250000000E+03  0.00000000000E+00 0. -1.
        -11    1    1    2    0    0 -0.42754036380E+01 -0.41458645130E+01  0.14256654963E+03  0.14269088388E+03  0.00000000000E+00 0. -1.
         11    1    1    2    0    0 -0.54982322670E+01  0.64167770446E+01 -0.17450322612E+03  0.17470770307E+03  0.00000000000E+00 0. -1.
        -15    1    1    2    0    0  0.88187941569E+01  0.38294245127E+01  0.37714007968E+02  0.38960746251E+02  0.17770000000E+01 0. -1.
         15    1    1    2    0    0  0.95484174811E+00 -0.61003370443E+01 -0.57773314697E+01  0.86406667989E+01  0.17770000000E+01 0.  1.
</event>
<event>
 6    1  0.1697564E-002  0.1862079E+03  0.7546771E-02  0.1065541E+00
        -11   -1    0    0    0    0  0.00000000000E+00  0.00000000000E+00  0.18250000000E+03  0.18250000000E+03  0.00000000000E+00 0. -1.
         11   -1    0    0    0    0 -0.00000000000E+00 -0.00000000000E+00 -0.18250000000E+03  0.18250000000E+03  0.00000000000E+00 0. -1.
        -11    1    1    2    0    0 -0.30499022788E+01  0.39332716720E+01  0.16226744807E+03  0.16234376253E+03  0.00000000000E+00 0. -1.
         11    1    1    2    0    0  0.19760858255E+01  0.21127860678E+01 -0.17876872283E+03  0.17879212802E+03  0.00000000000E+00 0. -1.
        -15    1    1    2    0    0  0.24370149684E+01 -0.60513704944E+01  0.19200792423E+02  0.20356480185E+02  0.17770000000E+01 0. -1.
         15    1    1    2    0    0 -0.13631985151E+01  0.53127545511E-02 -0.26995176680E+01  0.35076292644E+01  0.17770000000E+01 0.  1.
</event>
<event>
 6    1  0.1697564E-002  0.2128804E+03  0.7546771E-02  0.1046554E+00
        -11   -1    0    0    0    0  0.00000000000E+00  0.00000000000E+00  0.18250000000E+03  0.18250000000E+03  0.00000000000E+00 0.  1.
         11   -1    0    0    0    0 -0.00000000000E+00 -0.00000000000E+00 -0.18250000000E+03  0.18250000000E+03  0.00000000000E+00 0. -1.
        -11    1    1    2    0    0  0.84886115763E+01 -0.41082230741E+01  0.11868417248E+03  0.11905824969E+03  0.00000000000E+00 0.  1.
         11    1    1    2    0    0 -0.12587195873E+02  0.18943882234E+02 -0.15040965755E+03  0.15211960183E+03  0.00000000000E+00 0. -1.
        -15    1    1    2    0    0 -0.28519821571E+02 -0.70755969880E+01  0.48156426587E+02  0.56441504638E+02  0.17770000000E+01 0.  1.
         15    1    1    2    0    0  0.32618405868E+02 -0.77600621720E+01 -0.16430941510E+02  0.37380643844E+02  0.17770000000E+01 0. -1.
</event>
<event>
 6    1  0.1697564E-002  0.1863552E+03  0.7546771E-02  0.1065427E+00
        -11   -1    0    0    0    0  0.00000000000E+00  0.00000000000E+00  0.18250000000E+03  0.18250000000E+03  0.00000000000E+00 0. -1.
         11   -1    0    0    0    0 -0.00000000000E+00 -0.00000000000E+00 -0.18250000000E+03  0.18250000000E+03  0.00000000000E+00 0.  1.
        -11    1    1    2    0    0  0.39353671413E+01  0.35800325759E+01  0.17856560717E+03  0.17864484267E+03  0.00000000000E+00 0. -1.
         11    1    1    2    0    0 -0.25422175281E+01  0.40275235225E+00 -0.16202801016E+03  0.16204845311E+03  0.00000000000E+00 0.  1.
        -15    1    1    2    0    0  0.15023865032E+01 -0.33325539637E+01 -0.19397349068E+02  0.19818626618E+02  0.17770000000E+01 0. -1.
         15    1    1    2    0    0 -0.28955361164E+01 -0.65023096446E+00  0.28597520611E+01  0.44880776018E+01  0.17770000000E+01 0.  1.
</event>
<event>
 6    1  0.1697564E-002  0.1850374E+03  0.7546771E-02  0.1066453E+00
        -11   -1    0    0    0    0  0.00000000000E+00  0.00000000000E+00  0.18250000000E+03  0.18250000000E+03  0.00000000000E+00 0.  1.
         11   -1    0    0    0    0 -0.00000000000E+00 -0.00000000000E+00 -0.18250000000E+03  0.18250000000E+03  0.00000000000E+00 0. -1.
        -11    1    1    2    0    0  0.22298715460E+01  0.38036303902E-01  0.22240481367E+02  0.22352019715E+02  0.00000000000E+00 0.  1.
         11    1    1    2    0    0  0.21697728625E+01  0.32926421015E+01 -0.17991943179E+03  0.17996263874E+03  0.00000000000E+00 0. -1.
        -15    1    1    2    0    0 -0.87322330548E-01  0.11102716471E+02  0.12894824698E+02  0.17108833134E+02  0.17770000000E+01 0.  1.
         15    1    1    2    0    0 -0.43123220780E+01 -0.14433394876E+02  0.14478412573E+03  0.14557650841E+03  0.17770000000E+01 0.  1.
</event>
<event>
 6    1  0.1697564E-002  0.1868795E+03  0.7546771E-02  0.1065021E+00
        -11   -1    0    0    0    0  0.00000000000E+00  0.00000000000E+00  0.18250000000E+03  0.18250000000E+03  0.00000000000E+00 0. -1.
         11   -1    0    0    0    0 -0.00000000000E+00 -0.00000000000E+00 -0.18250000000E+03  0.18250000000E+03  0.00000000000E+00 0.  1.
        -11    1    1    2    0    0  0.36472551859E+01  0.61639590410E+00  0.17808204513E+03  0.17812045703E+03  0.00000000000E+00 0. -1.
         11    1    1    2    0    0  0.25067844903E+01  0.31308204563E+00 -0.16497521573E+03  0.16499455686E+03  0.00000000000E+00 0.  1.
        -15    1    1    2    0    0 -0.12347078184E+01 -0.20413809024E+01  0.34093601837E+01  0.45247326162E+01  0.17770000000E+01 0. -1.
         15    1    1    2    0    0 -0.49193318578E+01  0.11119029527E+01 -0.16516189580E+02  0.17360253494E+02  0.17770000000E+01 0.  1.
</event>
<event>
 6    1  0.1697564E-002  0.1693942E+03  0.7546771E-02  0.1079394E+00
        -11   -1    0    0    0    0  0.00000000000E+00  0.00000000000E+00  0.18250000000E+03  0.18250000000E+03  0.00000000000E+00 0. -1.
         11   -1    0    0    0    0 -0.00000000000E+00 -0.00000000000E+00 -0.18250000000E+03  0.18250000000E+03  0.00000000000E+00 0.  1.
        -11    1    1    2    0    0  0.24733317688E+01  0.27294083176E+01  0.16562644983E+03  0.16566740151E+03  0.00000000000E+00 0. -1.
         11    1    1    2    0    0  0.80693745778E+01  0.73078776392E+01 -0.17317576862E+03  0.17351762654E+03  0.00000000000E+00 0.  1.
        -15    1    1    2    0    0 -0.40383493638E+01 -0.48086546802E+01 -0.66066442692E+01  0.92863826605E+01  0.17770000000E+01 0.  1.
         15    1    1    2    0    0 -0.65043569827E+01 -0.52286312767E+01  0.14155963064E+02  0.16528589294E+02  0.17770000000E+01 0. -1.
</event>
<event>
 6    1  0.1697564E-002  0.1826076E+03  0.7546771E-02  0.1068369E+00
        -11   -1    0    0    0    0  0.00000000000E+00  0.00000000000E+00  0.18250000000E+03  0.18250000000E+03  0.00000000000E+00 0. -1.
         11   -1    0    0    0    0 -0.00000000000E+00 -0.00000000000E+00 -0.18250000000E+03  0.18250000000E+03  0.00000000000E+00 0.  1.
        -11    1    1    2    0    0 -0.22929340466E+01  0.34643727826E+01  0.18234510826E+03  0.18239242838E+03  0.00000000000E+00 0. -1.
         11    1    1    2    0    0 -0.16804923846E+01 -0.81208214272E-01 -0.20763118886E+02  0.20831172682E+02  0.00000000000E+00 0.  1.
        -15    1    1    2    0    0  0.35772749626E+01 -0.23703925375E+01 -0.14343979201E+03  0.14351497245E+03  0.17770000000E+01 0.  1.
         15    1    1    2    0    0  0.39615146866E+00 -0.10127720309E+01 -0.18142197359E+02  0.18261426483E+02  0.17770000000E+01 0. -1.
</event>
<event>
 6    1  0.1697564E-002  0.1842186E+03  0.7546771E-02  0.1067095E+00
        -11   -1    0    0    0    0  0.00000000000E+00  0.00000000000E+00  0.18250000000E+03  0.18250000000E+03  0.00000000000E+00 0.  1.
         11   -1    0    0    0    0 -0.00000000000E+00 -0.00000000000E+00 -0.18250000000E+03  0.18250000000E+03  0.00000000000E+00 0.  1.
        -11    1    1    2    0    0 -0.64647161412E+01  0.20285018145E+01  0.13592684658E+03  0.13609560976E+03  0.00000000000E+00 0.  1.
         11    1    1    2    0    0  0.35869117256E+01 -0.32832207314E+00 -0.18074552945E+03  0.18078141539E+03  0.00000000000E+00 0.  1.
        -15    1    1    2    0    0  0.15359196116E+01  0.10781430642E+00  0.45171848770E+02  0.45233000379E+02  0.17770000000E+01 0.  1.
         15    1    1    2    0    0  0.13418848040E+01 -0.18079940478E+01 -0.35316590002E+00  0.28899744734E+01  0.17770000000E+01 0. -1.
</event>
<event>
 6    1  0.3776045E-002  0.1851963E+03  0.7546771E-02  0.1066329E+00
        -11   -1    0    0    0    0  0.00000000000E+00  0.00000000000E+00  0.18250000000E+03  0.18250000000E+03  0.00000000000E+00 0.  1.
         11   -1    0    0    0    0 -0.00000000000E+00 -0.00000000000E+00 -0.18250000000E+03  0.18250000000E+03  0.00000000000E+00 0.  1.
        -11    1    1    2    0    0  0.17157671561E+01 -0.26346063001E+01  0.17977616800E+03  0.17980365844E+03  0.00000000000E+00 0.  1.
         11    1    1    2    0    0  0.14765200207E+01  0.38592150825E+01 -0.10090144823E+03  0.10098601838E+03  0.00000000000E+00 0.  1.
        -15    1    1    2    0    0 -0.27942410443E+00 -0.31155759021E+01 -0.80054091678E+02  0.80134887624E+02  0.17770000000E+01 0.  1.
         15    1    1    2    0    0 -0.29128630724E+01  0.18909671198E+01  0.11793719110E+01  0.40754355634E+01  0.17770000000E+01 0.  1.
</event>
<event>
 6    1  0.1697564E-002  0.1847644E+03  0.7546771E-02  0.1066666E+00
        -11   -1    0    0    0    0  0.00000000000E+00  0.00000000000E+00  0.18250000000E+03  0.18250000000E+03  0.00000000000E+00 0.  1.
         11   -1    0    0    0    0 -0.00000000000E+00 -0.00000000000E+00 -0.18250000000E+03  0.18250000000E+03  0.00000000000E+00 0. -1.
        -11    1    1    2    0    0  0.10879702414E+00  0.58402391715E+01  0.18014087733E+03  0.18023555675E+03  0.00000000000E+00 0.  1.
         11    1    1    2    0    0 -0.50451103420E+00  0.65400890137E+01 -0.15308264323E+03  0.15322311494E+03  0.00000000000E+00 0. -1.
        -15    1    1    2    0    0 -0.31584975827E+01 -0.11591211110E+02 -0.19744518475E+02  0.23180509502E+02  0.17770000000E+01 0. -1.
         15    1    1    2    0    0  0.35542115928E+01 -0.78911707494E+00 -0.73137156318E+01  0.83608188084E+01  0.17770000000E+01 0.  1.
</event>
<event>
 6    1  0.1697564E-002  0.1987437E+03  0.7546771E-02  0.1056213E+00
        -11   -1    0    0    0    0  0.00000000000E+00  0.00000000000E+00  0.18250000000E+03  0.18250000000E+03  0.00000000000E+00 0.  1.
         11   -1    0    0    0    0 -0.00000000000E+00 -0.00000000000E+00 -0.18250000000E+03  0.18250000000E+03  0.00000000000E+00 0.  1.
        -11    1    1    2    0    0  0.22837862192E+01  0.10902185457E+02  0.16588273672E+03  0.16625629512E+03  0.00000000000E+00 0.  1.
         11    1    1    2    0    0  0.47969735371E+00  0.18278743822E+01 -0.13287283347E+03  0.13288627134E+03  0.00000000000E+00 0.  1.
        -15    1    1    2    0    0 -0.17019301545E+01 -0.34741035950E+01 -0.47962162054E+02  0.48150728758E+02  0.17770000000E+01 0.  1.
         15    1    1    2    0    0 -0.10615534184E+01 -0.92559562444E+01  0.14952258814E+02  0.17706704783E+02  0.17770000000E+01 0. -1.
</event>
<event>
 6    1  0.1697564E-002  0.1857432E+03  0.7546771E-02  0.1065902E+00
        -11   -1    0    0    0    0  0.00000000000E+00  0.00000000000E+00  0.18250000000E+03  0.18250000000E+03  0.00000000000E+00 0.  1.
         11   -1    0    0    0    0 -0.00000000000E+00 -0.00000000000E+00 -0.18250000000E+03  0.18250000000E+03  0.00000000000E+00 0. -1.
        -11    1    1    2    0    0  0.41111394254E+01  0.17012526651E+01  0.17920157137E+03  0.17925679599E+03  0.00000000000E+00 0.  1.
         11    1    1    2    0    0 -0.13975792853E+01  0.21568839661E+01 -0.16675303224E+03  0.16677283693E+03  0.00000000000E+00 0. -1.
        -15    1    1    2    0    0  0.11827836538E+01  0.53260063851E+00 -0.12643936992E+02  0.12833920378E+02  0.17770000000E+01 0. -1.
         15    1    1    2    0    0 -0.38963437938E+01 -0.43907372697E+01  0.19539786659E+00  0.61364466964E+01  0.17770000000E+01 0.  1.
</event>
<event>
 6    1  0.1697564E-002  0.1827186E+03  0.7546771E-02  0.1068281E+00
        -11   -1    0    0    0    0  0.00000000000E+00  0.00000000000E+00  0.18250000000E+03  0.18250000000E+03  0.00000000000E+00 0.  1.
         11   -1    0    0    0    0 -0.00000000000E+00 -0.00000000000E+00 -0.18250000000E+03  0.18250000000E+03  0.00000000000E+00 0.  1.
        -11    1    1    2    0    0  0.23957968707E+01  0.84582216035E+00  0.12386998632E+03  0.12389604016E+03  0.00000000000E+00 0.  1.
         11    1    1    2    0    0 -0.46718954461E+01  0.49118330830E+01 -0.18215528105E+03  0.18228137350E+03  0.00000000000E+00 0.  1.
        -15    1    1    2    0    0  0.23555022287E+01 -0.22536821710E+01  0.20500686092E+02  0.20834186649E+02  0.17770000000E+01 0. -1.
         15    1    1    2    0    0 -0.79403653393E-01 -0.35039730724E+01  0.37784608638E+02  0.37988399692E+02  0.17770000000E+01 0.  1.
</event>
<event>
 6    1  0.1697564E-002  0.1833265E+03  0.7546771E-02  0.1067799E+00
        -11   -1    0    0    0    0  0.00000000000E+00  0.00000000000E+00  0.18250000000E+03  0.18250000000E+03  0.00000000000E+00 0.  1.
         11   -1    0    0    0    0 -0.00000000000E+00 -0.00000000000E+00 -0.18250000000E+03  0.18250000000E+03  0.00000000000E+00 0.  1.
        -11    1    1    2    0    0 -0.28108276387E+01  0.12463565549E+00  0.18165173176E+03  0.18167352019E+03  0.00000000000E+00 0.  1.
         11    1    1    2    0    0 -0.22728709532E+01 -0.68214531378E+00 -0.15258406103E+03  0.15260251290E+03  0.00000000000E+00 0.  1.
        -15    1    1    2    0    0  0.35733654510E+01  0.44189507471E+00 -0.27757722679E+02  0.28046623847E+02  0.17770000000E+01 0.  1.
         15    1    1    2    0    0  0.15103331409E+01  0.11561458358E+00 -0.13099480562E+01  0.26773430558E+01  0.17770000000E+01 0. -1.
</event>
<event>
 6    1  0.1697564E-002  0.1849959E+03  0.7546771E-02  0.1066485E+00
        -11   -1    0    0    0    0  0.00000000000E+00  0.00000000000E+00  0.18250000000E+03  0.18250000000E+03  0.00000000000E+00 0.  1.
         11   -1    0    0    0    0 -0.00000000000E+00 -0.00000000000E+00 -0.18250000000E+03  0.18250000000E+03  0.00000000000E+00 0. -1.
        -11    1    1    2    0    0 -0.36110394863E+01  0.22376388922E+01  0.56604750533E+02  0.56763935882E+02  0.00000000000E+00 0.  1.
         11    1    1    2    0    0 -0.24604492959E+01 -0.31449689939E+02 -0.17721830881E+03  0.18000407158E+03  0.00000000000E+00 0. -1.
        -15    1    1    2    0    0  0.21190055378E+01  0.28093710849E+02  0.49546965669E+02  0.57024611439E+02  0.17770000000E+01 0.  1.
         15    1    1    2    0    0  0.39524832444E+01  0.11183401970E+01  0.71066592610E+02  0.71207381097E+02  0.17770000000E+01 0. -1.
</event>
<event>
 6    1  0.1697564E-002  0.1843841E+03  0.7546771E-02  0.1066965E+00
        -11   -1    0    0    0    0  0.00000000000E+00  0.00000000000E+00  0.18250000000E+03  0.18250000000E+03  0.00000000000E+00 0.  1.
         11   -1    0    0    0    0 -0.00000000000E+00 -0.00000000000E+00 -0.18250000000E+03  0.18250000000E+03  0.00000000000E+00 0. -1.
        -11    1    1    2    0    0 -0.10398576776E+01  0.20610420245E+00  0.65472812858E+02  0.65481394354E+02  0.00000000000E+00 0.  1.
         11    1    1    2    0    0  0.44789355570E+01 -0.10847023219E+00 -0.18056029800E+03  0.18061587373E+03  0.00000000000E+00 0. -1.
        -15    1    1    2    0    0 -0.26253518981E+01 -0.10163968427E+01  0.11635234184E+03  0.11639996012E+03  0.17770000000E+01 0.  1.
         15    1    1    2    0    0 -0.81372598142E+00  0.91876287243E+00 -0.12648567011E+01  0.25027717960E+01  0.17770000000E+01 0. -1.
</event>
<event>
 6    1  0.1697564E-002  0.1862505E+03  0.7546771E-02  0.1065508E+00
        -11   -1    0    0    0    0  0.00000000000E+00  0.00000000000E+00  0.18250000000E+03  0.18250000000E+03  0.00000000000E+00 0. -1.
         11   -1    0    0    0    0 -0.00000000000E+00 -0.00000000000E+00 -0.18250000000E+03  0.18250000000E+03  0.00000000000E+00 0.  1.
        -11    1    1    2    0    0 -0.25532569373E+01 -0.22280893856E+01  0.13019105875E+03  0.13023515378E+03  0.00000000000E+00 0. -1.
         11    1    1    2    0    0 -0.64539621762E+01 -0.27364055477E+01 -0.17861201049E+03  0.17874952262E+03  0.00000000000E+00 0.  1.
        -15    1    1    2    0    0  0.79076739346E+01  0.73300448272E+01  0.42397546958E+01  0.11721523498E+02  0.17770000000E+01 0.  1.
         15    1    1    2    0    0  0.10995451789E+01 -0.23655498938E+01  0.44181197050E+02  0.44293800104E+02  0.17770000000E+01 0. -1.
</event>
<event>
 6    1  0.1697564E-002  0.1940145E+03  0.7546771E-02  0.1059642E+00
        -11   -1    0    0    0    0  0.00000000000E+00  0.00000000000E+00  0.18250000000E+03  0.18250000000E+03  0.00000000000E+00 0. -1.
         11   -1    0    0    0    0 -0.00000000000E+00 -0.00000000000E+00 -0.18250000000E+03  0.18250000000E+03  0.00000000000E+00 0. -1.
        -11    1    1    2    0    0  0.88376378930E+00  0.29974218582E+01  0.16395754987E+03  0.16398732797E+03  0.00000000000E+00 0. -1.
         11    1    1    2    0    0 -0.11068365194E+02 -0.44710648520E+01 -0.17056824826E+03  0.17098545682E+03  0.00000000000E+00 0. -1.
        -15    1    1    2    0    0 -0.44874547412E+01 -0.49821714108E+01  0.11275529529E+02  0.13238375172E+02  0.17770000000E+01 0.  1.
         15    1    1    2    0    0  0.14672056146E+02  0.64558144046E+01 -0.46648311335E+01  0.16788840034E+02  0.17770000000E+01 0. -1.
</event>
<event>
 6    1  0.1797473E-002  0.1832319E+03  0.7546771E-02  0.1067874E+00
        -11   -1    0    0    0    0  0.00000000000E+00  0.00000000000E+00  0.18250000000E+03  0.18250000000E+03  0.00000000000E+00 0.  1.
         11   -1    0    0    0    0 -0.00000000000E+00 -0.00000000000E+00 -0.18250000000E+03  0.18250000000E+03  0.00000000000E+00 0.  1.
        -11    1    1    2    0    0 -0.17440228929E+01 -0.16194709980E+01  0.16153299613E+03  0.16155052813E+03  0.00000000000E+00 0.  1.
         11    1    1    2    0    0 -0.62530909366E+00  0.27477701550E+01 -0.18174624245E+03  0.18176808823E+03  0.00000000000E+00 0.  1.
        -15    1    1    2    0    0  0.10188808784E+01 -0.21754421365E+01  0.28014399540E+01  0.40959079030E+01  0.17770000000E+01 0. -1.
         15    1    1    2    0    0  0.13504511082E+01  0.10471429795E+01  0.17411806375E+02  0.17585475736E+02  0.17770000000E+01 0.  1.
</event>
<event>
 6    1  0.1697564E-002  0.1856480E+03  0.7546771E-02  0.1065976E+00
        -11   -1    0    0    0    0  0.00000000000E+00  0.00000000000E+00  0.18250000000E+03  0.18250000000E+03  0.00000000000E+00 0.  1.
         11   -1    0    0    0    0 -0.00000000000E+00 -0.00000000000E+00 -0.18250000000E+03  0.18250000000E+03  0.00000000000E+00 0. -1.
        -11    1    1    2    0    0 -0.63694217894E+01  0.38740559576E+01  0.17919695199E+03  0.17935195970E+03  0.00000000000E+00 0.  1.
         11    1    1    2    0    0 -0.10785070581E+01 -0.23682475114E+01 -0.17235641889E+03  0.17237606245E+03  0.00000000000E+00 0. -1.
        -15    1    1    2    0    0  0.70521050716E+01 -0.25507877021E+01 -0.19497022278E+01  0.79497026120E+01  0.17770000000E+01 0.  1.
         15    1    1    2    0    0  0.39582377586E+00  0.10449792560E+01 -0.48908308748E+01  0.53222752421E+01  0.17770000000E+01 0.  1.
</event>
<event>
 6    1  0.1697564E-002  0.1833955E+03  0.7546771E-02  0.1067744E+00
        -11   -1    0    0    0    0  0.00000000000E+00  0.00000000000E+00  0.18250000000E+03  0.18250000000E+03  0.00000000000E+00 0. -1.
         11   -1    0    0    0    0 -0.00000000000E+00 -0.00000000000E+00 -0.18250000000E+03  0.18250000000E+03  0.00000000000E+00 0.  1.
        -11    1    1    2    0    0 -0.80589191598E+00  0.32452709492E+01  0.16205613711E+03  0.16209063150E+03  0.00000000000E+00 0. -1.
         11    1    1    2    0    0  0.34267649400E+01  0.20201364772E+01 -0.18156092930E+03  0.18160450082E+03  0.00000000000E+00 0.  1.
        -15    1    1    2    0    0  0.13621336950E+01 -0.23387266316E+01  0.89000954377E+01  0.94707168821E+01  0.17770000000E+01 0.  1.
         15    1    1    2    0    0 -0.39830067190E+01 -0.29266807947E+01  0.10604696748E+02  0.11834150798E+02  0.17770000000E+01 0.  1.
</event>
<event>
 6    1  0.1697564E-002  0.1924468E+03  0.7546771E-02  0.1060802E+00
        -11   -1    0    0    0    0  0.00000000000E+00  0.00000000000E+00  0.18250000000E+03  0.18250000000E+03  0.00000000000E+00 0. -1.
         11   -1    0    0    0    0 -0.00000000000E+00 -0.00000000000E+00 -0.18250000000E+03  0.18250000000E+03  0.00000000000E+00 0.  1.
        -11    1    1    2    0    0 -0.42768897758E+01 -0.11953027372E+01  0.17249602657E+03  0.17255317939E+03  0.00000000000E+00 0. -1.
         11    1    1    2    0    0  0.21382214852E+01  0.87233029080E+01 -0.15757900304E+03  0.15783475600E+03  0.00000000000E+00 0.  1.
        -15    1    1    2    0    0  0.68393200353E+01 -0.10494168235E+01  0.77305494175E+01  0.10526001022E+02  0.17770000000E+01 0. -1.
         15    1    1    2    0    0 -0.47006517447E+01 -0.64785833473E+01 -0.22647572955E+02  0.24086063579E+02  0.17770000000E+01 0.  1.
</event>
<event>
 6    1  0.1697564E-002  0.2204367E+03  0.7546771E-02  0.1041720E+00
        -11   -1    0    0    0    0  0.00000000000E+00  0.00000000000E+00  0.18250000000E+03  0.18250000000E+03  0.00000000000E+00 0. -1.
         11   -1    0    0    0    0 -0.00000000000E+00 -0.00000000000E+00 -0.18250000000E+03  0.18250000000E+03  0.00000000000E+00 0.  1.
        -11    1    1    2    0    0 -0.32403570565E+01  0.14506864572E+01  0.14451970428E+03  0.14456330561E+03  0.00000000000E+00 0. -1.
         11    1    1    2    0    0 -0.13756138437E+01 -0.99628579673E+01 -0.83897733357E+02  0.84498405397E+02  0.00000000000E+00 0.  1.
        -15    1    1    2    0    0  0.13164924534E+02 -0.56805314689E+01  0.35528874826E+02  0.38354169932E+02  0.17770000000E+01 0. -1.
         15    1    1    2    0    0 -0.85489536334E+01  0.14192702979E+02 -0.96150845746E+02  0.97584119060E+02  0.17770000000E+01 0.  1.
</event>
<event>
 6    1  0.1697564E-002  0.1844295E+03  0.7546771E-02  0.1066929E+00
        -11   -1    0    0    0    0  0.00000000000E+00  0.00000000000E+00  0.18250000000E+03  0.18250000000E+03  0.00000000000E+00 0. -1.
         11   -1    0    0    0    0 -0.00000000000E+00 -0.00000000000E+00 -0.18250000000E+03  0.18250000000E+03  0.00000000000E+00 0. -1.
        -11    1    1    2    0    0  0.31792856812E+01  0.10747910667E+00  0.18054244636E+03  0.18057046920E+03  0.00000000000E+00 0. -1.
         11    1    1    2    0    0  0.63191552400E+00 -0.35554814302E+01 -0.17472876099E+03  0.17476607417E+03  0.00000000000E+00 0. -1.
        -15    1    1    2    0    0 -0.68148097181E-01 -0.64109736754E+00 -0.16083623164E+01  0.24819766998E+01  0.17770000000E+01 0. -1.
         15    1    1    2    0    0 -0.37430531080E+01  0.40890996911E+01 -0.42053230613E+01  0.71814799243E+01  0.17770000000E+01 0. -1.
</event>
<event>
 6    1  0.1697564E-002  0.1742704E+03  0.7546771E-02  0.1075201E+00
        -11   -1    0    0    0    0  0.00000000000E+00  0.00000000000E+00  0.18250000000E+03  0.18250000000E+03  0.00000000000E+00 0. -1.
         11   -1    0    0    0    0 -0.00000000000E+00 -0.00000000000E+00 -0.18250000000E+03  0.18250000000E+03  0.00000000000E+00 0.  1.
        -11    1    1    2    0    0  0.27810750869E+01 -0.14569406778E+01  0.17431329253E+03  0.17434156420E+03  0.00000000000E+00 0. -1.
         11    1    1    2    0    0  0.32850820895E+01  0.63221012577E+01 -0.17414033394E+03  0.17428601962E+03  0.00000000000E+00 0.  1.
        -15    1    1    2    0    0 -0.41565274996E+01 -0.61974908280E+01 -0.60739287751E+01  0.97844751103E+01  0.17770000000E+01 0. -1.
         15    1    1    2    0    0 -0.19096296769E+01  0.13323302481E+01  0.59009701896E+01  0.65879410722E+01  0.17770000000E+01 0.  1.
</event>
<event>
 6    1  0.1697564E-002  0.1837785E+03  0.7546771E-02  0.1067442E+00
        -11   -1    0    0    0    0  0.00000000000E+00  0.00000000000E+00  0.18250000000E+03  0.18250000000E+03  0.00000000000E+00 0.  1.
         11   -1    0    0    0    0 -0.00000000000E+00 -0.00000000000E+00 -0.18250000000E+03  0.18250000000E+03  0.00000000000E+00 0.  1.
        -11    1    1    2    0    0 -0.24338037715E+01 -0.56172428766E+00  0.18120428935E+03  0.18122150373E+03  0.00000000000E+00 0.  1.
         11    1    1    2    0    0 -0.15830114984E+01  0.30364051583E+01 -0.17390948955E+03  0.17394319831E+03  0.00000000000E+00 0.  1.
        -15    1    1    2    0    0  0.37403347970E+01 -0.19603266730E+01 -0.41791477517E+01  0.62012893812E+01  0.17770000000E+01 0.  1.
         15    1    1    2    0    0  0.27648047294E+00 -0.51435419770E+00 -0.31156520449E+01  0.36340085797E+01  0.17770000000E+01 0. -1.
</event>
<event>
 6    1  0.1697564E-002  0.1829076E+03  0.7546771E-02  0.1068131E+00
        -11   -1    0    0    0    0  0.00000000000E+00  0.00000000000E+00  0.18250000000E+03  0.18250000000E+03  0.00000000000E+00 0. -1.
         11   -1    0    0    0    0 -0.00000000000E+00 -0.00000000000E+00 -0.18250000000E+03  0.18250000000E+03  0.00000000000E+00 0.  1.
        -11    1    1    2    0    0  0.18093477001E+01  0.15439269271E+01  0.12465428451E+03  0.12467697500E+03  0.00000000000E+00 0. -1.
         11    1    1    2    0    0  0.47855152673E+01 -0.41317855535E+01 -0.18198262190E+03  0.18209241467E+03  0.00000000000E+00 0.  1.
        -15    1    1    2    0    0 -0.18024696167E+01  0.75313349938E+00  0.39629167099E+02  0.39717058310E+02  0.17770000000E+01 0. -1.
         15    1    1    2    0    0 -0.47923933507E+01  0.18347251270E+01  0.17699170293E+02  0.18513552019E+02  0.17770000000E+01 0. -1.
</event>
<event>
 6    1  0.1697564E-002  0.1848785E+03  0.7546771E-02  0.1066577E+00
        -11   -1    0    0    0    0  0.00000000000E+00  0.00000000000E+00  0.18250000000E+03  0.18250000000E+03  0.00000000000E+00 0. -1.
         11   -1    0    0    0    0 -0.00000000000E+00 -0.00000000000E+00 -0.18250000000E+03  0.18250000000E+03  0.00000000000E+00 0.  1.
        -11    1    1    2    0    0 -0.18007236005E+01 -0.58273975707E+01  0.15796426479E+03  0.15808197278E+03  0.00000000000E+00 0. -1.
         11    1    1    2    0    0  0.40415464833E+01  0.92314589351E+01 -0.17983935635E+03  0.18012148129E+03  0.00000000000E+00 0.  1.
        -15    1    1    2    0    0 -0.80727333074E+01 -0.85543811371E+00  0.85507425958E+01  0.11923662414E+02  0.17770000000E+01 0.  1.
         15    1    1    2    0    0  0.58319104247E+01 -0.25486232506E+01  0.13324348965E+02  0.14872883514E+02  0.17770000000E+01 0. -1.
</event>
<event>
 6    1  0.1697564E-002  0.1839118E+03  0.7546771E-02  0.1067337E+00
        -11   -1    0    0    0    0  0.00000000000E+00  0.00000000000E+00  0.18250000000E+03  0.18250000000E+03  0.00000000000E+00 0.  1.
         11   -1    0    0    0    0 -0.00000000000E+00 -0.00000000000E+00 -0.18250000000E+03  0.18250000000E+03  0.00000000000E+00 0. -1.
        -11    1    1    2    0    0  0.48283632879E+00 -0.30191252021E+01  0.18106241048E+03  0.18108822363E+03  0.00000000000E+00 0.  1.
         11    1    1    2    0    0  0.35199819373E+01  0.40161649103E+01 -0.10105342483E+03  0.10119443919E+03  0.00000000000E+00 0. -1.
        -15    1    1    2    0    0 -0.25506974902E+01 -0.10603883310E+01 -0.67881188262E+00  0.33539522464E+01  0.17770000000E+01 0.  1.
         15    1    1    2    0    0 -0.14521207758E+01  0.63348622862E-01 -0.79330173776E+02  0.79363384934E+02  0.17770000000E+01 0. -1.
</event>
<event>
 6    1  0.1697564E-002  0.8129417E+02  0.7546771E-02  0.1200805E+00
        -11   -1    0    0    0    0  0.00000000000E+00  0.00000000000E+00  0.18250000000E+03  0.18250000000E+03  0.00000000000E+00 0.  1.
         11   -1    0    0    0    0 -0.00000000000E+00 -0.00000000000E+00 -0.18250000000E+03  0.18250000000E+03  0.00000000000E+00 0.  1.
        -11    1    1    2    0    0  0.39675259330E+01 -0.77689669512E+01  0.97021002416E+02  0.97412386375E+02  0.00000000000E+00 0.  1.
         11    1    1    2    0    0 -0.15677569721E+02  0.52480727356E+01 -0.14439294799E+03  0.14533634057E+03  0.00000000000E+00 0.  1.
        -15    1    1    2    0    0 -0.19705148297E+02  0.50406581899E+02  0.32110513843E+02  0.62955215800E+02  0.17770000000E+01 0.  1.
         15    1    1    2    0    0  0.31415192085E+02 -0.47885687684E+02  0.15261431732E+02  0.59296057257E+02  0.17770000000E+01 0. -1.
</event>
<event>
 6    1  0.1697564E-002  0.1849544E+03  0.7546771E-02  0.1066518E+00
        -11   -1    0    0    0    0  0.00000000000E+00  0.00000000000E+00  0.18250000000E+03  0.18250000000E+03  0.00000000000E+00 0. -1.
         11   -1    0    0    0    0 -0.00000000000E+00 -0.00000000000E+00 -0.18250000000E+03  0.18250000000E+03  0.00000000000E+00 0. -1.
        -11    1    1    2    0    0  0.49795873031E+00 -0.61513424846E+01  0.17993977895E+03  0.18004558041E+03  0.00000000000E+00 0. -1.
         11    1    1    2    0    0 -0.23306137500E+01 -0.14385013416E+01 -0.16862059963E+03  0.16864284055E+03  0.00000000000E+00 0. -1.
        -15    1    1    2    0    0  0.89271037127E+00  0.74893340519E+01 -0.11914429822E+02  0.14212614937E+02  0.17770000000E+01 0.  1.
         15    1    1    2    0    0  0.93994464841E+00  0.10050977435E+00  0.59525050748E+00  0.20989641072E+01  0.17770000000E+01 0.  1.
</event>
<event>
 6    1  0.1697564E-002  0.1899586E+03  0.7546771E-02  0.1062668E+00
        -11   -1    0    0    0    0  0.00000000000E+00  0.00000000000E+00  0.18250000000E+03  0.18250000000E+03  0.00000000000E+00 0. -1.
         11   -1    0    0    0    0 -0.00000000000E+00 -0.00000000000E+00 -0.18250000000E+03  0.18250000000E+03  0.00000000000E+00 0. -1.
        -11    1    1    2    0    0 -0.28381925963E+01 -0.53384786483E+01  0.16143041859E+03  0.16154360011E+03  0.00000000000E+00 0. -1.
         11    1    1    2    0    0  0.93966674263E+00 -0.70393168996E+01 -0.17489726015E+03  0.17504138529E+03  0.00000000000E+00 0. -1.
        -15    1    1    2    0    0  0.51670298188E+01 -0.45029415313E+01  0.11105211293E+01  0.71669844260E+01  0.17770000000E+01 0.  1.
         15    1    1    2    0    0 -0.32685039651E+01  0.16880737079E+02  0.12356320433E+02  0.21248030171E+02  0.17770000000E+01 0. -1.
</event>
<event>
 6    1  0.1697564E-002  0.1856875E+03  0.7546771E-02  0.1065945E+00
        -11   -1    0    0    0    0  0.00000000000E+00  0.00000000000E+00  0.18250000000E+03  0.18250000000E+03  0.00000000000E+00 0. -1.
         11   -1    0    0    0    0 -0.00000000000E+00 -0.00000000000E+00 -0.18250000000E+03  0.18250000000E+03  0.00000000000E+00 0. -1.
        -11    1    1    2    0    0 -0.26103756537E+01  0.13458492639E+01  0.12635175022E+03  0.12638587799E+03  0.00000000000E+00 0. -1.
         11    1    1    2    0    0  0.11878593666E+02  0.14712856522E+01 -0.17891252547E+03  0.17931245757E+03  0.00000000000E+00 0. -1.
        -15    1    1    2    0    0 -0.19780599007E+01  0.55563498865E+01  0.65784920506E+00  0.61948558989E+01  0.17770000000E+01 0.  1.
         15    1    1    2    0    0 -0.72901581120E+01 -0.83734848026E+01  0.51902926041E+02  0.53106808543E+02  0.17770000000E+01 0. -1.
</event>
<event>
 6    1  0.1797729E-002  0.1853063E+03  0.7546771E-02  0.1066243E+00
        -11   -1    0    0    0    0  0.00000000000E+00  0.00000000000E+00  0.18250000000E+03  0.18250000000E+03  0.00000000000E+00 0.  1.
         11   -1    0    0    0    0 -0.00000000000E+00 -0.00000000000E+00 -0.18250000000E+03  0.18250000000E+03  0.00000000000E+00 0.  1.
        -11    1    1    2    0    0  0.20812423928E+01 -0.12878298008E+01  0.17967702253E+03  0.17969369077E+03  0.00000000000E+00 0.  1.
         11    1    1    2    0    0 -0.77781128973E+00  0.17684622444E+01 -0.13648469985E+03  0.13649837267E+03  0.00000000000E+00 0.  1.
        -15    1    1    2    0    0 -0.12184362050E+01  0.52221621617E+00  0.23437031580E+01  0.32261385672E+01  0.17770000000E+01 0. -1.
         15    1    1    2    0    0 -0.84994898082E-01 -0.10028486597E+01 -0.45536025844E+02  0.45581797993E+02  0.17770000000E+01 0.  1.
</event>
<event>
 6    1  0.1697564E-002  0.1843252E+03  0.7546771E-02  0.1067011E+00
        -11   -1    0    0    0    0  0.00000000000E+00  0.00000000000E+00  0.18250000000E+03  0.18250000000E+03  0.00000000000E+00 0.  1.
         11   -1    0    0    0    0 -0.00000000000E+00 -0.00000000000E+00 -0.18250000000E+03  0.18250000000E+03  0.00000000000E+00 0. -1.
        -11    1    1    2    0    0 -0.27704902965E+01 -0.53283813433E+01  0.18057492726E+03  0.18067476752E+03  0.00000000000E+00 0.  1.
         11    1    1    2    0    0  0.27450754698E+01 -0.18118809491E+01 -0.15241766220E+03  0.15245314724E+03  0.00000000000E+00 0. -1.
        -15    1    1    2    0    0 -0.31044468490E+01  0.27519532438E+01 -0.24946273295E+02  0.25351235023E+02  0.17770000000E+01 0. -1.
         15    1    1    2    0    0  0.31298616757E+01  0.43883090486E+01 -0.32109917678E+01  0.65208502167E+01  0.17770000000E+01 0.  1.
</event>
<event>
 6    1  0.1697564E-002  0.1853819E+03  0.7546771E-02  0.1066184E+00
        -11   -1    0    0    0    0  0.00000000000E+00  0.00000000000E+00  0.18250000000E+03  0.18250000000E+03  0.00000000000E+00 0.  1.
         11   -1    0    0    0    0 -0.00000000000E+00 -0.00000000000E+00 -0.18250000000E+03  0.18250000000E+03  0.00000000000E+00 0. -1.
        -11    1    1    2    0    0 -0.26835291303E+01  0.15056000184E+00  0.17354876334E+03  0.17356957468E+03  0.00000000000E+00 0.  1.
         11    1    1    2    0    0  0.52148477420E+01 -0.28772285586E+01 -0.17951933852E+03  0.17961811151E+03  0.00000000000E+00 0. -1.
        -15    1    1    2    0    0 -0.21104522908E+01  0.87722692634E+00 -0.19404990981E+01  0.34852262053E+01  0.17770000000E+01 0. -1.
         15    1    1    2    0    0 -0.42086632090E+00  0.18494416305E+01  0.79110742745E+01  0.83270876050E+01  0.17770000000E+01 0.  1.
</event>
<event>
 6    1  0.1697564E-002  0.1830196E+03  0.7546771E-02  0.1068042E+00
        -11   -1    0    0    0    0  0.00000000000E+00  0.00000000000E+00  0.18250000000E+03  0.18250000000E+03  0.00000000000E+00 0. -1.
         11   -1    0    0    0    0 -0.00000000000E+00 -0.00000000000E+00 -0.18250000000E+03  0.18250000000E+03  0.00000000000E+00 0.  1.
        -11    1    1    2    0    0 -0.30844109401E+01 -0.14856303705E+01  0.12179049926E+03  0.12183860800E+03  0.00000000000E+00 0. -1.
         11    1    1    2    0    0 -0.52259763627E+01 -0.39589610385E+01 -0.18186228221E+03  0.18198042173E+03  0.00000000000E+00 0.  1.
        -15    1    1    2    0    0  0.33070745964E+01  0.34487890560E+01  0.17324002850E+02  0.18058507471E+02  0.17770000000E+01 0.  1.
         15    1    1    2    0    0  0.50033127064E+01  0.19958023530E+01  0.42747780102E+02  0.43122462797E+02  0.17770000000E+01 0. -1.
</event>
<event>
 6    1  0.1697564E-002  0.1840042E+03  0.7546771E-02  0.1067264E+00
        -11   -1    0    0    0    0  0.00000000000E+00  0.00000000000E+00  0.18250000000E+03  0.18250000000E+03  0.00000000000E+00 0.  1.
         11   -1    0    0    0    0 -0.00000000000E+00 -0.00000000000E+00 -0.18250000000E+03  0.18250000000E+03  0.00000000000E+00 0. -1.
        -11    1    1    2    0    0  0.26538007073E+01  0.13639994339E+01  0.13415491033E+03  0.13418808859E+03  0.00000000000E+00 0.  1.
         11    1    1    2    0    0 -0.38230594943E+01  0.38876576381E+01 -0.18091361179E+03  0.18099575851E+03  0.00000000000E+00 0. -1.
        -15    1    1    2    0    0  0.71443454223E+01  0.14881690834E+01  0.27061736062E+02  0.28084721940E+02  0.17770000000E+01 0.  1.
         15    1    1    2    0    0 -0.59750866352E+01 -0.67398261554E+01  0.19696965401E+02  0.21731430968E+02  0.17770000000E+01 0. -1.
</event>
<event>
 6    1  0.1697564E-002  0.1830718E+03  0.7546771E-02  0.1068001E+00
        -11   -1    0    0    0    0  0.00000000000E+00  0.00000000000E+00  0.18250000000E+03  0.18250000000E+03  0.00000000000E+00 0.  1.
         11   -1    0    0    0    0 -0.00000000000E+00 -0.00000000000E+00 -0.18250000000E+03  0.18250000000E+03  0.00000000000E+00 0. -1.
        -11    1    1    2    0    0  0.29155011094E+01  0.34474789581E+01  0.16286489028E+03  0.16292746160E+03  0.00000000000E+00 0.  1.
         11    1    1    2    0    0  0.47365000110E+00 -0.34114346503E+01 -0.18189559481E+03  0.18192819913E+03  0.00000000000E+00 0. -1.
        -15    1    1    2    0    0 -0.37630915429E+00  0.18272295114E+01  0.61547709775E+01  0.66722792996E+01  0.17770000000E+01 0.  1.
         15    1    1    2    0    0 -0.30128419562E+01 -0.18632738192E+01  0.12875933546E+02  0.13472059963E+02  0.17770000000E+01 0. -1.
</event>
<event>
 6    1  0.1697564E-002  0.1706529E+03  0.7546771E-02  0.1078297E+00
        -11   -1    0    0    0    0  0.00000000000E+00  0.00000000000E+00  0.18250000000E+03  0.18250000000E+03  0.00000000000E+00 0. -1.
         11   -1    0    0    0    0 -0.00000000000E+00 -0.00000000000E+00 -0.18250000000E+03  0.18250000000E+03  0.00000000000E+00 0.  1.
        -11    1    1    2    0    0 -0.85436771790E+01 -0.94365392454E+01  0.17241728271E+03  0.17288655838E+03  0.00000000000E+00 0. -1.
         11    1    1    2    0    0 -0.32547702280E+01  0.82133785911E+01 -0.16841723637E+03  0.16864880261E+03  0.00000000000E+00 0.  1.
        -15    1    1    2    0    0  0.98277530306E+01 -0.43474377687E+01 -0.10051992067E+02  0.14821781887E+02  0.17770000000E+01 0.  1.
         15    1    1    2    0    0  0.19706943764E+01  0.55705984230E+01  0.60519457281E+01  0.86428571208E+01  0.17770000000E+01 0. -1.
</event>
<event>
 6    1  0.1697564E-002  0.1858240E+03  0.7546771E-02  0.1065839E+00
        -11   -1    0    0    0    0  0.00000000000E+00  0.00000000000E+00  0.18250000000E+03  0.18250000000E+03  0.00000000000E+00 0. -1.
         11   -1    0    0    0    0 -0.00000000000E+00 -0.00000000000E+00 -0.18250000000E+03  0.18250000000E+03  0.00000000000E+00 0. -1.
        -11    1    1    2    0    0 -0.97738508448E+01 -0.53192997001E+01  0.15366176709E+03  0.15406414825E+03  0.00000000000E+00 0. -1.
         11    1    1    2    0    0  0.40965867975E+01  0.91954386796E+00 -0.17912683246E+03  0.17917602990E+03  0.00000000000E+00 0. -1.
        -15    1    1    2    0    0  0.11491385593E+02  0.59772510902E+00  0.13673506016E+02  0.17959167964E+02  0.17770000000E+01 0.  1.
         15    1    1    2    0    0 -0.58141215460E+01  0.38020307231E+01  0.11791559349E+02  0.13800653892E+02  0.17770000000E+01 0. -1.
</event>
<event>
 6    1  0.1697564E-002  0.1827906E+03  0.7546771E-02  0.1068224E+00
        -11   -1    0    0    0    0  0.00000000000E+00  0.00000000000E+00  0.18250000000E+03  0.18250000000E+03  0.00000000000E+00 0. -1.
         11   -1    0    0    0    0 -0.00000000000E+00 -0.00000000000E+00 -0.18250000000E+03  0.18250000000E+03  0.00000000000E+00 0.  1.
        -11    1    1    2    0    0 -0.36882312822E+01  0.86146153643E+00  0.18217005527E+03  0.18220942402E+03  0.00000000000E+00 0. -1.
         11    1    1    2    0    0 -0.14312163877E+01  0.12973157292E+01 -0.13712713032E+03  0.13714073530E+03  0.00000000000E+00 0.  1.
        -15    1    1    2    0    0  0.15580581419E+00 -0.89164038319E+00 -0.11587079927E+02  0.11757442250E+02  0.17770000000E+01 0.  1.
         15    1    1    2    0    0  0.49636418558E+01 -0.12671368824E+01 -0.33455845019E+02  0.33892398429E+02  0.17770000000E+01 0.  1.
</event>
<event>
 6    1  0.1697564E-002  0.1855131E+03  0.7546771E-02  0.1066081E+00
        -11   -1    0    0    0    0  0.00000000000E+00  0.00000000000E+00  0.18250000000E+03  0.18250000000E+03  0.00000000000E+00 0.  1.
         11   -1    0    0    0    0 -0.00000000000E+00 -0.00000000000E+00 -0.18250000000E+03  0.18250000000E+03  0.00000000000E+00 0. -1.
        -11    1    1    2    0    0 -0.31725156700E+01 -0.23726023159E+01  0.17944315164E+03  0.17948687631E+03  0.00000000000E+00 0.  1.
         11    1    1    2    0    0 -0.21207545369E+01 -0.38632081906E+01 -0.14425716000E+03  0.14432446151E+03  0.00000000000E+00 0. -1.
        -15    1    1    2    0    0  0.43627826697E+00  0.29530682535E+01 -0.34882881697E+02  0.35055443447E+02  0.17770000000E+01 0.  1.
         15    1    1    2    0    0  0.48569919400E+01  0.32827422530E+01 -0.30310994063E+00  0.61332187341E+01  0.17770000000E+01 0.  1.
</event>
<event>
 6    1  0.1697564E-002  0.1993307E+03  0.7546771E-02  0.1055795E+00
        -11   -1    0    0    0    0  0.00000000000E+00  0.00000000000E+00  0.18250000000E+03  0.18250000000E+03  0.00000000000E+00 0.  1.
         11   -1    0    0    0    0 -0.00000000000E+00 -0.00000000000E+00 -0.18250000000E+03  0.18250000000E+03  0.00000000000E+00 0. -1.
        -11    1    1    2    0    0  0.13150128467E+02 -0.29448898745E+01  0.16512028381E+03  0.16566926807E+03  0.00000000000E+00 0.  1.
         11    1    1    2    0    0  0.44400512686E+00  0.16187419974E+01 -0.91602850766E+02  0.91618228179E+02  0.00000000000E+00 0. -1.
        -15    1    1    2    0    0 -0.89689838315E+01  0.11651349577E+01  0.15781517198E+02  0.18276056044E+02  0.17770000000E+01 0.  1.
         15    1    1    2    0    0 -0.46251497622E+01  0.16101291937E+00 -0.89298950244E+02  0.89436447711E+02  0.17770000000E+01 0. -1.
</event>
<event>
 6    1  0.1697564E-002  0.1838637E+03  0.7546771E-02  0.1067374E+00
        -11   -1    0    0    0    0  0.00000000000E+00  0.00000000000E+00  0.18250000000E+03  0.18250000000E+03  0.00000000000E+00 0. -1.
         11   -1    0    0    0    0 -0.00000000000E+00 -0.00000000000E+00 -0.18250000000E+03  0.18250000000E+03  0.00000000000E+00 0. -1.
        -11    1    1    2    0    0 -0.17149374797E+01 -0.20598109691E+01  0.16064729568E+03  0.16066965315E+03  0.00000000000E+00 0. -1.
         11    1    1    2    0    0  0.12358832449E+01  0.27996536230E+01 -0.18111049460E+03  0.18113634843E+03  0.00000000000E+00 0. -1.
        -15    1    1    2    0    0  0.50999318340E+01  0.11615603777E+01  0.11932563408E+02  0.13149232894E+02  0.17770000000E+01 0. -1.
         15    1    1    2    0    0 -0.46208775991E+01 -0.19014030315E+01  0.85306355121E+01  0.10044765528E+02  0.17770000000E+01 0.  1.
</event>
<event>
 6    1  0.1697564E-002  0.1841081E+03  0.7546771E-02  0.1067182E+00
        -11   -1    0    0    0    0  0.00000000000E+00  0.00000000000E+00  0.18250000000E+03  0.18250000000E+03  0.00000000000E+00 0. -1.
         11   -1    0    0    0    0 -0.00000000000E+00 -0.00000000000E+00 -0.18250000000E+03  0.18250000000E+03  0.00000000000E+00 0. -1.
        -11    1    1    2    0    0 -0.71545174308E+01 -0.22158911983E+01  0.18073678040E+03  0.18089190441E+03  0.00000000000E+00 0. -1.
         11    1    1    2    0    0  0.30188817841E+01  0.13665404161E+01 -0.17124551478E+03  0.17127757416E+03  0.00000000000E+00 0. -1.
        -15    1    1    2    0    0  0.29865018682E+01  0.69192901371E+00 -0.10033078914E+02  0.10640411677E+02  0.17770000000E+01 0.  1.
         15    1    1    2    0    0  0.11491337785E+01  0.15742176854E+00  0.54181329349E+00  0.21901097459E+01  0.17770000000E+01 0. -1.
</event>
<event>
 6    1  0.1697564E-002  0.1897386E+03  0.7546771E-02  0.1062835E+00
        -11   -1    0    0    0    0  0.00000000000E+00  0.00000000000E+00  0.18250000000E+03  0.18250000000E+03  0.00000000000E+00 0.  1.
         11   -1    0    0    0    0 -0.00000000000E+00 -0.00000000000E+00 -0.18250000000E+03  0.18250000000E+03  0.00000000000E+00 0. -1.
        -11    1    1    2    0    0  0.15528279320E+01  0.84712910003E+01  0.14822759312E+03  0.14847758554E+03  0.00000000000E+00 0.  1.
         11    1    1    2    0    0  0.52256340302E+01  0.33933362840E+01 -0.17515062859E+03  0.17526141811E+03  0.00000000000E+00 0. -1.
        -15    1    1    2    0    0 -0.10887889590E+01 -0.10217888003E+02  0.31748364297E+02  0.33417167162E+02  0.17770000000E+01 0.  1.
         15    1    1    2    0    0 -0.56896730031E+01 -0.16467392810E+01 -0.48253288236E+01  0.78438291923E+01  0.17770000000E+01 0. -1.
</event>
<event>
 6    1  0.1697564E-002  0.1875531E+03  0.7546771E-02  0.1064502E+00
        -11   -1    0    0    0    0  0.00000000000E+00  0.00000000000E+00  0.18250000000E+03  0.18250000000E+03  0.00000000000E+00 0.  1.
         11   -1    0    0    0    0 -0.00000000000E+00 -0.00000000000E+00 -0.18250000000E+03  0.18250000000E+03  0.00000000000E+00 0.  1.
        -11    1    1    2    0    0  0.63399967240E+01 -0.35643307700E+00  0.16089105395E+03  0.16101631546E+03  0.00000000000E+00 0.  1.
         11    1    1    2    0    0  0.12710976139E+01 -0.89308262841E+01 -0.17721742699E+03  0.17744687029E+03  0.00000000000E+00 0.  1.
        -15    1    1    2    0    0 -0.16492973761E+01  0.12662180194E+02  0.65309337905E+01  0.14452052251E+02  0.17770000000E+01 0.  1.
         15    1    1    2    0    0 -0.59617969618E+01 -0.33749208328E+01  0.97954392490E+01  0.12084762005E+02  0.17770000000E+01 0. -1.
</event>
<event>
 6    1  0.1697564E-002  0.1881599E+03  0.7546771E-02  0.1064037E+00
        -11   -1    0    0    0    0  0.00000000000E+00  0.00000000000E+00  0.18250000000E+03  0.18250000000E+03  0.00000000000E+00 0. -1.
         11   -1    0    0    0    0 -0.00000000000E+00 -0.00000000000E+00 -0.18250000000E+03  0.18250000000E+03  0.00000000000E+00 0. -1.
        -11    1    1    2    0    0  0.65262471792E+00 -0.24419696010E+01  0.17682202171E+03  0.17684008736E+03  0.00000000000E+00 0. -1.
         11    1    1    2    0    0 -0.23117958414E+01  0.36437510205E+00 -0.17089681025E+03  0.17091283428E+03  0.00000000000E+00 0. -1.
        -15    1    1    2    0    0  0.67212975964E+01 -0.26905656033E+00  0.21410443542E+01  0.72794253028E+01  0.17770000000E+01 0.  1.
         15    1    1    2    0    0 -0.50621264729E+01  0.23466510593E+01 -0.80662558136E+01  0.99676530574E+01  0.17770000000E+01 0. -1.
</event>
<event>
 6    1  0.1697564E-002  0.1858392E+03  0.7546771E-02  0.1065827E+00
        -11   -1    0    0    0    0  0.00000000000E+00  0.00000000000E+00  0.18250000000E+03  0.18250000000E+03  0.00000000000E+00 0. -1.
         11   -1    0    0    0    0 -0.00000000000E+00 -0.00000000000E+00 -0.18250000000E+03  0.18250000000E+03  0.00000000000E+00 0.  1.
        -11    1    1    2    0    0 -0.63338759956E+01  0.10655093273E+02  0.76059815050E+02  0.77063249758E+02  0.00000000000E+00 0. -1.
         11    1    1    2    0    0  0.33857860389E+02 -0.12760237980E+02 -0.17546908243E+03  0.17916075818E+03  0.00000000000E+00 0.  1.
        -15    1    1    2    0    0 -0.22469147711E+02  0.25770456390E+01  0.10071707966E+03  0.10324045538E+03  0.17770000000E+01 0. -1.
         15    1    1    2    0    0 -0.50548366828E+01 -0.47190093251E+00 -0.13078122820E+01  0.55355366808E+01  0.17770000000E+01 0.  1.
</event>
<event>
 6    1  0.1697564E-002  0.1826766E+03  0.7546771E-02  0.1068314E+00
        -11   -1    0    0    0    0  0.00000000000E+00  0.00000000000E+00  0.18250000000E+03  0.18250000000E+03  0.00000000000E+00 0. -1.
         11   -1    0    0    0    0 -0.00000000000E+00 -0.00000000000E+00 -0.18250000000E+03  0.18250000000E+03  0.00000000000E+00 0.  1.
        -11    1    1    2    0    0  0.90429773697E+00 -0.10091042053E+01  0.11653188730E+02  0.11731702914E+02  0.00000000000E+00 0. -1.
         11    1    1    2    0    0  0.27382566855E+01 -0.14187743955E+01 -0.18229732617E+03  0.18232341072E+03  0.00000000000E+00 0.  1.
        -15    1    1    2    0    0 -0.36373381791E+01  0.55503453984E+00  0.15731314853E+03  0.15736620578E+03  0.17770000000E+01 0. -1.
         15    1    1    2    0    0 -0.52162434422E-02  0.18728440609E+01  0.13330988905E+02  0.13578680579E+02  0.17770000000E+01 0.  1.
</event>
<event>
 6    1  0.1697564E-002  0.1863245E+03  0.7546771E-02  0.1065451E+00
        -11   -1    0    0    0    0  0.00000000000E+00  0.00000000000E+00  0.18250000000E+03  0.18250000000E+03  0.00000000000E+00 0.  1.
         11   -1    0    0    0    0 -0.00000000000E+00 -0.00000000000E+00 -0.18250000000E+03  0.18250000000E+03  0.00000000000E+00 0.  1.
        -11    1    1    2    0    0  0.24155100664E+01  0.23803245961E+01  0.17864329836E+03  0.17867548428E+03  0.00000000000E+00 0.  1.
         11    1    1    2    0    0  0.43980009469E+00 -0.50412465572E+01 -0.16703443223E+03  0.16711106827E+03  0.00000000000E+00 0.  1.
        -15    1    1    2    0    0 -0.51530621253E+00  0.55586140339E+01 -0.13468184891E+02  0.14687187060E+02  0.17770000000E+01 0. -1.
         15    1    1    2    0    0 -0.23400039485E+01 -0.28976920728E+01  0.18593187542E+01  0.45262603833E+01  0.17770000000E+01 0. -1.
</event>
<event>
 6    1  0.1697564E-002  0.1829589E+03  0.7546771E-02  0.1068090E+00
        -11   -1    0    0    0    0  0.00000000000E+00  0.00000000000E+00  0.18250000000E+03  0.18250000000E+03  0.00000000000E+00 0.  1.
         11   -1    0    0    0    0 -0.00000000000E+00 -0.00000000000E+00 -0.18250000000E+03  0.18250000000E+03  0.00000000000E+00 0. -1.
        -11    1    1    2    0    0 -0.74692315702E+01 -0.31743297469E+01  0.18186010646E+03  0.18204110556E+03  0.00000000000E+00 0.  1.
         11    1    1    2    0    0  0.12128307337E+01  0.13524819347E+01 -0.11357902171E+03  0.11359354884E+03  0.00000000000E+00 0. -1.
        -15    1    1    2    0    0  0.34543525052E+01  0.43395129296E+01 -0.18151234430E+02  0.19062763809E+02  0.17770000000E+01 0.  1.
         15    1    1    2    0    0  0.28020483313E+01 -0.25176651174E+01 -0.50129850329E+02  0.50302581797E+02  0.17770000000E+01 0. -1.
</event>
<event>
 6    1  0.1697564E-002  0.1831290E+03  0.7546771E-02  0.1067955E+00
        -11   -1    0    0    0    0  0.00000000000E+00  0.00000000000E+00  0.18250000000E+03  0.18250000000E+03  0.00000000000E+00 0.  1.
         11   -1    0    0    0    0 -0.00000000000E+00 -0.00000000000E+00 -0.18250000000E+03  0.18250000000E+03  0.00000000000E+00 0. -1.
        -11    1    1    2    0    0  0.30985588371E+01  0.49935196544E+01  0.18177600360E+03  0.18187097567E+03  0.00000000000E+00 0.  1.
         11    1    1    2    0    0 -0.22233919385E+01 -0.14709604659E+01 -0.12455660441E+03  0.12458513113E+03  0.00000000000E+00 0. -1.
        -15    1    1    2    0    0 -0.56397441582E+00  0.35780796726E+01 -0.32856281963E+02  0.33103077119E+02  0.17770000000E+01 0. -1.
         15    1    1    2    0    0 -0.31119248277E+00 -0.71006388612E+01 -0.24363117229E+02  0.25440816086E+02  0.17770000000E+01 0.  1.
</event>
<event>
 6    1  0.1697564E-002  0.2129088E+03  0.7546771E-02  0.1046535E+00
        -11   -1    0    0    0    0  0.00000000000E+00  0.00000000000E+00  0.18250000000E+03  0.18250000000E+03  0.00000000000E+00 0. -1.
         11   -1    0    0    0    0 -0.00000000000E+00 -0.00000000000E+00 -0.18250000000E+03  0.18250000000E+03  0.00000000000E+00 0.  1.
        -11    1    1    2    0    0 -0.31820256290E+01  0.15054371504E+00  0.11768052495E+03  0.11772363358E+03  0.00000000000E+00 0. -1.
         11    1    1    2    0    0 -0.18118369691E+01  0.99013260521E+00 -0.15207715838E+03  0.15209117403E+03  0.00000000000E+00 0.  1.
        -15    1    1    2    0    0 -0.14892659973E+02 -0.65318001390E+01  0.60047401671E+02  0.62235873181E+02  0.17770000000E+01 0. -1.
         15    1    1    2    0    0  0.19886522571E+02  0.53911238188E+01 -0.25650768240E+02  0.32949319209E+02  0.17770000000E+01 0.  1.
</event>
<event>
 6    1  0.1697564E-002  0.1853104E+03  0.7546771E-02  0.1066240E+00
        -11   -1    0    0    0    0  0.00000000000E+00  0.00000000000E+00  0.18250000000E+03  0.18250000000E+03  0.00000000000E+00 0. -1.
         11   -1    0    0    0    0 -0.00000000000E+00 -0.00000000000E+00 -0.18250000000E+03  0.18250000000E+03  0.00000000000E+00 0.  1.
        -11    1    1    2    0    0  0.17740704135E+01  0.61073753737E+01  0.17957704563E+03  0.17968962874E+03  0.00000000000E+00 0. -1.
         11    1    1    2    0    0 -0.30724708272E+01  0.61679890721E+01 -0.12199372701E+03  0.12218818926E+03  0.00000000000E+00 0.  1.
        -15    1    1    2    0    0 -0.49165448059E+00 -0.86273853642E+01 -0.45922704548E+01  0.99458624202E+01  0.17770000000E+01 0.  1.
         15    1    1    2    0    0  0.17900548943E+01 -0.36479790816E+01 -0.52991048174E+02  0.53176319574E+02  0.17770000000E+01 0. -1.
</event>
<event>
 6    1  0.1697564E-002  0.1852617E+03  0.7546771E-02  0.1066278E+00
        -11   -1    0    0    0    0  0.00000000000E+00  0.00000000000E+00  0.18250000000E+03  0.18250000000E+03  0.00000000000E+00 0. -1.
         11   -1    0    0    0    0 -0.00000000000E+00 -0.00000000000E+00 -0.18250000000E+03  0.18250000000E+03  0.00000000000E+00 0.  1.
        -11    1    1    2    0    0 -0.71216556426E+00 -0.42491275327E+01  0.17968667267E+03  0.17973831700E+03  0.00000000000E+00 0. -1.
         11    1    1    2    0    0  0.87421775787E+01  0.11143139503E+01 -0.15681461244E+03  0.15706205792E+03  0.00000000000E+00 0.  1.
        -15    1    1    2    0    0 -0.76383755677E+01 -0.40625607196E+01 -0.10015017002E+02  0.13353182223E+02  0.17770000000E+01 0. -1.
         15    1    1    2    0    0 -0.39163644671E+00  0.71973743021E+01 -0.12857043225E+02  0.14846442854E+02  0.17770000000E+01 0.  1.
</event>
<event>
 6    1  0.1697564E-002  0.1839142E+03  0.7546771E-02  0.1067335E+00
        -11   -1    0    0    0    0  0.00000000000E+00  0.00000000000E+00  0.18250000000E+03  0.18250000000E+03  0.00000000000E+00 0. -1.
         11   -1    0    0    0    0 -0.00000000000E+00 -0.00000000000E+00 -0.18250000000E+03  0.18250000000E+03  0.00000000000E+00 0.  1.
        -11    1    1    2    0    0 -0.16813124841E+01 -0.18566430401E+01  0.18106845544E+03  0.18108577937E+03  0.00000000000E+00 0. -1.
         11    1    1    2    0    0  0.34331555524E+01 -0.48574198263E+01 -0.16629439268E+03  0.16640073955E+03  0.00000000000E+00 0.  1.
        -15    1    1    2    0    0  0.46535934685E+00  0.19168684579E+01 -0.13518417360E+01  0.29792866740E+01  0.17770000000E+01 0. -1.
         15    1    1    2    0    0 -0.22172024151E+01  0.47971944085E+01 -0.13422221025E+02  0.14534194405E+02  0.17770000000E+01 0.  1.
</event>
<event>
 6    1  0.1697564E-002  0.1652613E+03  0.7546771E-02  0.1083070E+00
        -11   -1    0    0    0    0  0.00000000000E+00  0.00000000000E+00  0.18250000000E+03  0.18250000000E+03  0.00000000000E+00 0.  1.
         11   -1    0    0    0    0 -0.00000000000E+00 -0.00000000000E+00 -0.18250000000E+03  0.18250000000E+03  0.00000000000E+00 0. -1.
        -11    1    1    2    0    0 -0.11573865166E+02  0.13374931180E+01  0.16120092921E+03  0.16162141820E+03  0.00000000000E+00 0.  1.
         11    1    1    2    0    0  0.19428374216E+01  0.64018439424E+01 -0.16909386384E+03  0.16922615936E+03  0.00000000000E+00 0. -1.
        -15    1    1    2    0    0 -0.26147682477E+00 -0.11517241740E+02  0.16630736318E+02  0.20308972079E+02  0.17770000000E+01 0. -1.
         15    1    1    2    0    0  0.98925045690E+01  0.37779046791E+01 -0.87378016923E+01  0.13843450358E+02  0.17770000000E+01 0.  1.
</event>
<event>
 6    1  0.1697564E-002  0.1849097E+03  0.7546771E-02  0.1066553E+00
        -11   -1    0    0    0    0  0.00000000000E+00  0.00000000000E+00  0.18250000000E+03  0.18250000000E+03  0.00000000000E+00 0. -1.
         11   -1    0    0    0    0 -0.00000000000E+00 -0.00000000000E+00 -0.18250000000E+03  0.18250000000E+03  0.00000000000E+00 0. -1.
        -11    1    1    2    0    0 -0.26696636441E+01  0.38811491675E+01  0.86637393500E+02  0.86765363915E+02  0.00000000000E+00 0. -1.
         11    1    1    2    0    0  0.14393653679E+01 -0.34319622732E+01 -0.18005179648E+03  0.18009025391E+03  0.00000000000E+00 0. -1.
        -15    1    1    2    0    0  0.52323765920E+01 -0.23051099466E+01  0.93191074395E+02  0.93383217831E+02  0.17770000000E+01 0. -1.
         15    1    1    2    0    0 -0.40020783158E+01  0.18559230523E+01  0.22332858798E+00  0.47611643408E+01  0.17770000000E+01 0.  1.
</event>
<event>
 6    1  0.1697564E-002  0.1887207E+03  0.7546771E-02  0.1063608E+00
        -11   -1    0    0    0    0  0.00000000000E+00  0.00000000000E+00  0.18250000000E+03  0.18250000000E+03  0.00000000000E+00 0. -1.
         11   -1    0    0    0    0 -0.00000000000E+00 -0.00000000000E+00 -0.18250000000E+03  0.18250000000E+03  0.00000000000E+00 0.  1.
        -11    1    1    2    0    0 -0.56774147558E+00 -0.38088801464E+01  0.17190881683E+03  0.17195194445E+03  0.00000000000E+00 0. -1.
         11    1    1    2    0    0 -0.21148341455E+01  0.26213414433E+01 -0.17624709847E+03  0.17627927750E+03  0.00000000000E+00 0.  1.
        -15    1    1    2    0    0 -0.54456878277E+00  0.16531709035E+01  0.98297891737E+01  0.10139625900E+02  0.17770000000E+01 0. -1.
         15    1    1    2    0    0  0.32271444038E+01 -0.46563220040E+00 -0.54915075269E+01  0.66291521530E+01  0.17770000000E+01 0. -1.
</event>
<event>
 6    1  0.1697564E-002  0.1856455E+03  0.7546771E-02  0.1065978E+00
        -11   -1    0    0    0    0  0.00000000000E+00  0.00000000000E+00  0.18250000000E+03  0.18250000000E+03  0.00000000000E+00 0. -1.
         11   -1    0    0    0    0 -0.00000000000E+00 -0.00000000000E+00 -0.18250000000E+03  0.18250000000E+03  0.00000000000E+00 0. -1.
        -11    1    1    2    0    0 -0.38021532790E+01 -0.26486407435E+01  0.17929461782E+03  0.17935448600E+03  0.00000000000E+00 0. -1.
         11    1    1    2    0    0 -0.72007427688E+01  0.34134223428E+00 -0.17032179571E+03  0.17047428341E+03  0.00000000000E+00 0. -1.
        -15    1    1    2    0    0  0.77148506272E+01  0.26994862748E+01 -0.52164677115E+01  0.98577589103E+01  0.17770000000E+01 0.  1.
         15    1    1    2    0    0  0.32880454206E+01 -0.39218776555E+00 -0.37563544032E+01  0.53134716837E+01  0.17770000000E+01 0. -1.
</event>
<event>
 6    1  0.1697564E-002  0.1833156E+03  0.7546771E-02  0.1067807E+00
        -11   -1    0    0    0    0  0.00000000000E+00  0.00000000000E+00  0.18250000000E+03  0.18250000000E+03  0.00000000000E+00 0.  1.
         11   -1    0    0    0    0 -0.00000000000E+00 -0.00000000000E+00 -0.18250000000E+03  0.18250000000E+03  0.00000000000E+00 0. -1.
        -11    1    1    2    0    0  0.19359375468E+01  0.26427645741E+01  0.18165481382E+03  0.18168435112E+03  0.00000000000E+00 0.  1.
         11    1    1    2    0    0  0.24920176508E+01 -0.24791751842E+01 -0.53894104013E+02  0.54008618840E+02  0.00000000000E+00 0. -1.
        -15    1    1    2    0    0 -0.64831773753E-01  0.27996515081E+01 -0.11818404912E+03  0.11823057747E+03  0.17770000000E+01 0. -1.
         15    1    1    2    0    0 -0.43631234238E+01 -0.29632408980E+01 -0.95766606863E+01  0.11076452570E+02  0.17770000000E+01 0.  1.
</event>
<event>
 6    1  0.1697564E-002  0.1520310E+03  0.7546771E-02  0.1095681E+00
        -11   -1    0    0    0    0  0.00000000000E+00  0.00000000000E+00  0.18250000000E+03  0.18250000000E+03  0.00000000000E+00 0.  1.
         11   -1    0    0    0    0 -0.00000000000E+00 -0.00000000000E+00 -0.18250000000E+03  0.18250000000E+03  0.00000000000E+00 0. -1.
        -11    1    1    2    0    0 -0.69224680777E+01  0.47538488582E+01  0.15165201700E+03  0.15188434384E+03  0.00000000000E+00 0.  1.
         11    1    1    2    0    0  0.18696627252E+02 -0.18643025239E+02 -0.15042519386E+03  0.15272480220E+03  0.00000000000E+00 0. -1.
        -15    1    1    2    0    0  0.93496849110E+01 -0.28568540285E+01  0.22397894123E+02  0.24503093948E+02  0.17770000000E+01 0.  1.
         15    1    1    2    0    0 -0.21123844085E+02  0.16746030409E+02 -0.23624717268E+02  0.35887760008E+02  0.17770000000E+01 0. -1.
</event>
<event>
 6    1  0.1697564E-002  0.1832862E+03  0.7546771E-02  0.1067831E+00
        -11   -1    0    0    0    0  0.00000000000E+00  0.00000000000E+00  0.18250000000E+03  0.18250000000E+03  0.00000000000E+00 0. -1.
         11   -1    0    0    0    0 -0.00000000000E+00 -0.00000000000E+00 -0.18250000000E+03  0.18250000000E+03  0.00000000000E+00 0.  1.
        -11    1    1    2    0    0  0.13539524517E+01  0.10791623186E+01  0.11116196223E+03  0.11117544524E+03  0.00000000000E+00 0. -1.
         11    1    1    2    0    0  0.10070077279E+01  0.24435343593E+01 -0.18169458472E+03  0.18171380532E+03  0.00000000000E+00 0.  1.
        -15    1    1    2    0    0 -0.48133725221E+00  0.72413969338E+00  0.69580435881E+00  0.20971257835E+01  0.17770000000E+01 0. -1.
         15    1    1    2    0    0 -0.18796229273E+01 -0.42468363713E+01  0.69836818136E+02  0.70013623659E+02  0.17770000000E+01 0. -1.
</event>
<event>
 6    1  0.1697564E-002  0.1830636E+03  0.7546771E-02  0.1068007E+00
        -11   -1    0    0    0    0  0.00000000000E+00  0.00000000000E+00  0.18250000000E+03  0.18250000000E+03  0.00000000000E+00 0.  1.
         11   -1    0    0    0    0 -0.00000000000E+00 -0.00000000000E+00 -0.18250000000E+03  0.18250000000E+03  0.00000000000E+00 0. -1.
        -11    1    1    2    0    0  0.25018731252E+01 -0.13256161242E+01  0.18191436432E+03  0.18193639706E+03  0.00000000000E+00 0.  1.
         11    1    1    2    0    0 -0.43477290140E+01 -0.25032337286E+00 -0.16201754662E+03  0.16207606493E+03  0.00000000000E+00 0. -1.
        -15    1    1    2    0    0 -0.12639700701E+01  0.21146588288E+01 -0.83089538841E+01  0.88467986271E+01  0.17770000000E+01 0. -1.
         15    1    1    2    0    0  0.31098259588E+01 -0.53871933175E+00 -0.11587863814E+02  0.12140739384E+02  0.17770000000E+01 0.  1.
</event>
<event>
 6    1  0.1697564E-002  0.1830846E+03  0.7546771E-02  0.1067990E+00
        -11   -1    0    0    0    0  0.00000000000E+00  0.00000000000E+00  0.18250000000E+03  0.18250000000E+03  0.00000000000E+00 0. -1.
         11   -1    0    0    0    0 -0.00000000000E+00 -0.00000000000E+00 -0.18250000000E+03  0.18250000000E+03  0.00000000000E+00 0.  1.
        -11    1    1    2    0    0 -0.24320103967E+01  0.48097467237E+00  0.15282121715E+03  0.15284132433E+03  0.00000000000E+00 0. -1.
         11    1    1    2    0    0  0.17033893681E+00  0.26570262921E+01 -0.18189593451E+03  0.18191541934E+03  0.00000000000E+00 0.  1.
        -15    1    1    2    0    0  0.26055770329E+01  0.78576325305E+00  0.66000472454E+01  0.73569564499E+01  0.17770000000E+01 0.  1.
         15    1    1    2    0    0 -0.34390557302E+00 -0.39237642175E+01  0.22474670112E+02  0.22886299882E+02  0.17770000000E+01 0. -1.
</event>
<event>
 6    1  0.1697564E-002  0.1855690E+03  0.7546771E-02  0.1066038E+00
        -11   -1    0    0    0    0  0.00000000000E+00  0.00000000000E+00  0.18250000000E+03  0.18250000000E+03  0.00000000000E+00 0. -1.
         11   -1    0    0    0    0 -0.00000000000E+00 -0.00000000000E+00 -0.18250000000E+03  0.18250000000E+03  0.00000000000E+00 0.  1.
        -11    1    1    2    0    0 -0.28647486399E+01  0.13149473637E+01  0.16485023577E+03  0.16488036907E+03  0.00000000000E+00 0. -1.
         11    1    1    2    0    0  0.83680594992E+00  0.27645272175E+01 -0.17940773812E+03  0.17943098771E+03  0.00000000000E+00 0.  1.
        -15    1    1    2    0    0  0.51949901797E+01 -0.35126220457E+01  0.94192755887E+00  0.65856961005E+01  0.17770000000E+01 0.  1.
         15    1    1    2    0    0 -0.31670474896E+01 -0.56685253557E+00  0.13615574785E+02  0.14102947115E+02  0.17770000000E+01 0. -1.
</event>
<event>
 6    1  0.1697564E-002  0.1836779E+03  0.7546771E-02  0.1067521E+00
        -11   -1    0    0    0    0  0.00000000000E+00  0.00000000000E+00  0.18250000000E+03  0.18250000000E+03  0.00000000000E+00 0.  1.
         11   -1    0    0    0    0 -0.00000000000E+00 -0.00000000000E+00 -0.18250000000E+03  0.18250000000E+03  0.00000000000E+00 0. -1.
        -11    1    1    2    0    0  0.25712169184E+01 -0.30768423028E+01  0.16150575491E+03  0.16155552291E+03  0.00000000000E+00 0.  1.
         11    1    1    2    0    0 -0.30160515559E+01 -0.26071819564E+01 -0.18127830812E+03  0.18132214139E+03  0.00000000000E+00 0. -1.
        -15    1    1    2    0    0 -0.28427752648E+01  0.45064525038E+01  0.14526337709E+02  0.15574392496E+02  0.17770000000E+01 0. -1.
         15    1    1    2    0    0  0.32876099023E+01  0.11775717553E+01  0.52462155028E+01  0.65479432046E+01  0.17770000000E+01 0.  1.
</event>
<event>
 6    1  0.1697564E-002  0.1889125E+03  0.7546771E-02  0.1063462E+00
        -11   -1    0    0    0    0  0.00000000000E+00  0.00000000000E+00  0.18250000000E+03  0.18250000000E+03  0.00000000000E+00 0. -1.
         11   -1    0    0    0    0 -0.00000000000E+00 -0.00000000000E+00 -0.18250000000E+03  0.18250000000E+03  0.00000000000E+00 0.  1.
        -11    1    1    2    0    0 -0.85410089815E+01  0.22188676275E+01  0.16661648144E+03  0.16685000478E+03  0.00000000000E+00 0. -1.
         11    1    1    2    0    0 -0.48912001166E+01  0.99883829720E+00 -0.17601671859E+03  0.17608749740E+03  0.00000000000E+00 0.  1.
        -15    1    1    2    0    0  0.14191249080E+02 -0.28602789004E+01  0.11941416958E+02  0.18850143602E+02  0.17770000000E+01 0.  1.
         15    1    1    2    0    0 -0.75903998166E+00 -0.35742702425E+00 -0.25411798119E+01  0.32123542158E+01  0.17770000000E+01 0. -1.
</event>
<event>
 6    1  0.1697564E-002  0.1834593E+03  0.7546771E-02  0.1067694E+00
        -11   -1    0    0    0    0  0.00000000000E+00  0.00000000000E+00  0.18250000000E+03  0.18250000000E+03  0.00000000000E+00 0. -1.
         11   -1    0    0    0    0 -0.00000000000E+00 -0.00000000000E+00 -0.18250000000E+03  0.18250000000E+03  0.00000000000E+00 0. -1.
        -11    1    1    2    0    0 -0.70856051087E+00 -0.31874231520E+01  0.18151130889E+03  0.18154067583E+03  0.00000000000E+00 0. -1.
         11    1    1    2    0    0 -0.48023593072E+01 -0.66299632304E+00 -0.68438195275E+02  0.68609684386E+02  0.00000000000E+00 0. -1.
        -15    1    1    2    0    0  0.11003017077E+01  0.33887534750E+01 -0.39043137334E+01  0.55763526333E+01  0.17770000000E+01 0. -1.
         15    1    1    2    0    0  0.44106181104E+01  0.46166600003E+00 -0.10916879989E+03  0.10927328715E+03  0.17770000000E+01 0. -1.
</event>
<event>
 6    1  0.1697564E-002  0.1858520E+03  0.7546771E-02  0.1065817E+00
        -11   -1    0    0    0    0  0.00000000000E+00  0.00000000000E+00  0.18250000000E+03  0.18250000000E+03  0.00000000000E+00 0.  1.
         11   -1    0    0    0    0 -0.00000000000E+00 -0.00000000000E+00 -0.18250000000E+03  0.18250000000E+03  0.00000000000E+00 0.  1.
        -11    1    1    2    0    0 -0.22133818421E+01  0.12918376800E+01  0.16508265154E+03  0.16510254311E+03  0.00000000000E+00 0.  1.
         11    1    1    2    0    0  0.92864443275E+00 -0.27399651521E+01 -0.17912464097E+03  0.17914800248E+03  0.00000000000E+00 0.  1.
        -15    1    1    2    0    0  0.18365051477E+01 -0.10311996520E+01  0.16540215622E+02  0.16768201624E+02  0.17770000000E+01 0.  1.
         15    1    1    2    0    0 -0.55176773842E+00  0.24793271242E+01 -0.24982261858E+01  0.39812527804E+01  0.17770000000E+01 0. -1.
</event>
<event>
 6    1  0.1697564E-002  0.1869146E+03  0.7546771E-02  0.1064994E+00
        -11   -1    0    0    0    0  0.00000000000E+00  0.00000000000E+00  0.18250000000E+03  0.18250000000E+03  0.00000000000E+00 0.  1.
         11   -1    0    0    0    0 -0.00000000000E+00 -0.00000000000E+00 -0.18250000000E+03  0.18250000000E+03  0.00000000000E+00 0. -1.
        -11    1    1    2    0    0  0.44241440430E+01  0.41658821100E+01  0.17798164604E+03  0.17808535580E+03  0.00000000000E+00 0.  1.
         11    1    1    2    0    0 -0.34268545125E+01  0.13405339004E+01 -0.17124049307E+03  0.17128002461E+03  0.00000000000E+00 0. -1.
        -15    1    1    2    0    0 -0.60550198568E+01  0.12638014004E+00 -0.26179536878E+01  0.68330555330E+01  0.17770000000E+01 0.  1.
         15    1    1    2    0    0  0.50577303262E+01 -0.56327961504E+01 -0.41231992846E+01  0.88015640580E+01  0.17770000000E+01 0. -1.
</event>
<event>
 6    1  0.2497522E-002  0.1857857E+03  0.7546771E-02  0.1065869E+00
        -11   -1    0    0    0    0  0.00000000000E+00  0.00000000000E+00  0.18250000000E+03  0.18250000000E+03  0.00000000000E+00 0. -1.
         11   -1    0    0    0    0 -0.00000000000E+00 -0.00000000000E+00 -0.18250000000E+03  0.18250000000E+03  0.00000000000E+00 0.  1.
        -11    1    1    2    0    0  0.32401525042E+01 -0.47525605121E+00  0.17918434901E+03  0.17921427227E+03  0.00000000000E+00 0. -1.
         11    1    1    2    0    0 -0.10172612477E+02 -0.31907023166E+01 -0.15277992316E+03  0.15315145297E+03  0.00000000000E+00 0.  1.
        -15    1    1    2    0    0  0.94043072933E+01  0.75579234780E+00 -0.26738229568E+02  0.28409555913E+02  0.17770000000E+01 0.  1.
         15    1    1    2    0    0 -0.24718473207E+01  0.29101660200E+01  0.33380371680E+00  0.42247188501E+01  0.17770000000E+01 0.  1.
</event>
<event>
 6    1  0.1697564E-002  0.1870035E+03  0.7546771E-02  0.1064926E+00
        -11   -1    0    0    0    0  0.00000000000E+00  0.00000000000E+00  0.18250000000E+03  0.18250000000E+03  0.00000000000E+00 0.  1.
         11   -1    0    0    0    0 -0.00000000000E+00 -0.00000000000E+00 -0.18250000000E+03  0.18250000000E+03  0.00000000000E+00 0. -1.
        -11    1    1    2    0    0 -0.29692601341E+01 -0.56976515556E+01  0.17788055333E+03  0.17799654770E+03  0.00000000000E+00 0.  1.
         11    1    1    2    0    0  0.73908306327E+00 -0.49417540140E+01 -0.16306866859E+03  0.16314520481E+03  0.00000000000E+00 0. -1.
        -15    1    1    2    0    0 -0.38111278010E+01  0.80409936489E+01 -0.14416485870E+02  0.17034525758E+02  0.17770000000E+01 0.  1.
         15    1    1    2    0    0  0.60413048718E+01  0.25984119208E+01 -0.39539887528E+00  0.68237217363E+01  0.17770000000E+01 0. -1.
</event>
<event>
 6    1  0.1697564E-002  0.1762889E+03  0.7546771E-02  0.1073509E+00
        -11   -1    0    0    0    0  0.00000000000E+00  0.00000000000E+00  0.18250000000E+03  0.18250000000E+03  0.00000000000E+00 0. -1.
         11   -1    0    0    0    0 -0.00000000000E+00 -0.00000000000E+00 -0.18250000000E+03  0.18250000000E+03  0.00000000000E+00 0.  1.
        -11    1    1    2    0    0 -0.36623404901E+01 -0.26849173956E+01  0.17687844948E+03  0.17693673279E+03  0.00000000000E+00 0. -1.
         11    1    1    2    0    0 -0.22144172441E+01 -0.36042034959E+01 -0.17569721639E+03  0.17574813164E+03  0.00000000000E+00 0.  1.
        -15    1    1    2    0    0  0.14004444375E+00  0.41787449107E+01 -0.32900917636E+01  0.56092739537E+01  0.17770000000E+01 0.  1.
         15    1    1    2    0    0  0.57367132905E+01  0.21103759807E+01  0.21088586758E+01  0.67058616204E+01  0.17770000000E+01 0. -1.
</event>
<event>
 6    1  0.1697564E-002  0.1834430E+03  0.7546771E-02  0.1067707E+00
        -11   -1    0    0    0    0  0.00000000000E+00  0.00000000000E+00  0.18250000000E+03  0.18250000000E+03  0.00000000000E+00 0. -1.
         11   -1    0    0    0    0 -0.00000000000E+00 -0.00000000000E+00 -0.18250000000E+03  0.18250000000E+03  0.00000000000E+00 0. -1.
        -11    1    1    2    0    0  0.16820066132E+01  0.26659877479E+01  0.18152964213E+03  0.18155700925E+03  0.00000000000E+00 0. -1.
         11    1    1    2    0    0 -0.76711961130E-01 -0.11256156764E+01 -0.48331290267E+02  0.48344456914E+02  0.00000000000E+00 0. -1.
        -15    1    1    2    0    0  0.48233836422E+01 -0.44014714684E+01 -0.12775161496E+02  0.14456848242E+02  0.17770000000E+01 0.  1.
         15    1    1    2    0    0 -0.64286782943E+01  0.28610993969E+01 -0.12042319037E+03  0.12064168559E+03  0.17770000000E+01 0. -1.
</event>
<event>
 6    1  0.1697564E-002  0.1848088E+03  0.7546771E-02  0.1066632E+00
        -11   -1    0    0    0    0  0.00000000000E+00  0.00000000000E+00  0.18250000000E+03  0.18250000000E+03  0.00000000000E+00 0.  1.
         11   -1    0    0    0    0 -0.00000000000E+00 -0.00000000000E+00 -0.18250000000E+03  0.18250000000E+03  0.00000000000E+00 0.  1.
        -11    1    1    2    0    0  0.28932668114E+01 -0.72492358949E+00  0.17313750603E+03  0.17316319615E+03  0.00000000000E+00 0.  1.
         11    1    1    2    0    0 -0.21352107146E+00  0.25759757081E+01 -0.18017269297E+03  0.18019123324E+03  0.00000000000E+00 0.  1.
        -15    1    1    2    0    0  0.52312843308E+00  0.86061530149E+00  0.67801194597E+01  0.70811066185E+01  0.17770000000E+01 0.  1.
         15    1    1    2    0    0 -0.32028741731E+01 -0.27116674201E+01  0.25506748684E+00  0.45644639980E+01  0.17770000000E+01 0. -1.
</event>
<event>
 6    1  0.1697564E-002  0.1872134E+03  0.7546771E-02  0.1064764E+00
        -11   -1    0    0    0    0  0.00000000000E+00  0.00000000000E+00  0.18250000000E+03  0.18250000000E+03  0.00000000000E+00 0.  1.
         11   -1    0    0    0    0 -0.00000000000E+00 -0.00000000000E+00 -0.18250000000E+03  0.18250000000E+03  0.00000000000E+00 0. -1.
        -11    1    1    2    0    0 -0.20354941026E+01 -0.39632128363E+01  0.17773076365E+03  0.17778659859E+03  0.00000000000E+00 0.  1.
         11    1    1    2    0    0  0.55179162861E+00 -0.26726787998E+01 -0.17254905055E+03  0.17257063056E+03  0.00000000000E+00 0. -1.
        -15    1    1    2    0    0  0.10836425872E+00  0.56210219426E+01 -0.86005488190E+01  0.10427597973E+02  0.17770000000E+01 0. -1.
         15    1    1    2    0    0  0.13753382152E+01  0.10148696936E+01  0.34188357213E+01  0.42151728779E+01  0.17770000000E+01 0. -1.
</event>
<event>
 6    1  0.1697564E-002  0.1825530E+03  0.7546771E-02  0.1068413E+00
        -11   -1    0    0    0    0  0.00000000000E+00  0.00000000000E+00  0.18250000000E+03  0.18250000000E+03  0.00000000000E+00 0. -1.
         11   -1    0    0    0    0 -0.00000000000E+00 -0.00000000000E+00 -0.18250000000E+03  0.18250000000E+03  0.00000000000E+00 0.  1.
        -11    1    1    2    0    0 -0.33126124769E+00 -0.44534812209E+00  0.40137445395E+02  0.40141282887E+02  0.00000000000E+00 0. -1.
         11    1    1    2    0    0 -0.15626832185E+01 -0.22408796141E+01 -0.18242651944E+03  0.18244697453E+03  0.00000000000E+00 0.  1.
        -15    1    1    2    0    0  0.10663787744E+01 -0.52504688889E+00  0.55490900263E+02  0.55532068023E+02  0.17770000000E+01 0. -1.
         15    1    1    2    0    0  0.82756569185E+00  0.32112746251E+01  0.86798173786E+02  0.86879674557E+02  0.17770000000E+01 0. -1.
</event>
<event>
 6    1  0.1697564E-002  0.1848354E+03  0.7546771E-02  0.1066611E+00
        -11   -1    0    0    0    0  0.00000000000E+00  0.00000000000E+00  0.18250000000E+03  0.18250000000E+03  0.00000000000E+00 0. -1.
         11   -1    0    0    0    0 -0.00000000000E+00 -0.00000000000E+00 -0.18250000000E+03  0.18250000000E+03  0.00000000000E+00 0. -1.
        -11    1    1    2    0    0 -0.10159676863E+02 -0.15903223790E+01  0.17987083807E+03  0.18016455408E+03  0.00000000000E+00 0. -1.
         11    1    1    2    0    0  0.13130745953E+01  0.37866348352E+01 -0.15669703298E+03  0.15674827882E+03  0.00000000000E+00 0. -1.
        -15    1    1    2    0    0 -0.13362668891E+01 -0.13624876947E+01 -0.14002255250E+02  0.14242993471E+02  0.17770000000E+01 0.  1.
         15    1    1    2    0    0  0.10182869157E+02 -0.83382476150E+00 -0.91715498352E+01  0.13844173626E+02  0.17770000000E+01 0. -1.
</event>
<event>
 6    1  0.2390741E-002  0.2059818E+03  0.7546771E-02  0.1051162E+00
        -11   -1    0    0    0    0  0.00000000000E+00  0.00000000000E+00  0.18250000000E+03  0.18250000000E+03  0.00000000000E+00 0. -1.
         11   -1    0    0    0    0 -0.00000000000E+00 -0.00000000000E+00 -0.18250000000E+03  0.18250000000E+03  0.00000000000E+00 0. -1.
        -11    1    1    2    0    0  0.81850698046E+01 -0.42983194063E+00  0.14909017453E+03  0.14931530486E+03  0.00000000000E+00 0. -1.
         11    1    1    2    0    0 -0.69963527927E+01 -0.97357581575E+01 -0.15856562146E+03  0.15901820729E+03  0.00000000000E+00 0. -1.
        -15    1    1    2    0    0 -0.23455800020E+00  0.13145850674E+02 -0.21618469504E+02  0.25365022375E+02  0.17770000000E+01 0.  1.
         15    1    1    2    0    0 -0.95415901168E+00 -0.29802605763E+01  0.31093916439E+02  0.31301465477E+02  0.17770000000E+01 0. -1.
</event>
<event>
 6    1  0.1697564E-002  0.2266296E+03  0.7546771E-02  0.1037912E+00
        -11   -1    0    0    0    0  0.00000000000E+00  0.00000000000E+00  0.18250000000E+03  0.18250000000E+03  0.00000000000E+00 0. -1.
         11   -1    0    0    0    0 -0.00000000000E+00 -0.00000000000E+00 -0.18250000000E+03  0.18250000000E+03  0.00000000000E+00 0. -1.
        -11    1    1    2    0    0 -0.26532561864E+01 -0.80776137894E+00  0.13351138374E+03  0.13354018809E+03  0.00000000000E+00 0. -1.
         11    1    1    2    0    0  0.42984771736E+00 -0.25490620524E+01 -0.13834620599E+03  0.13837035520E+03  0.00000000000E+00 0. -1.
        -15    1    1    2    0    0 -0.19509784460E+01  0.16931853167E+01 -0.43952104151E+02  0.44063798994E+02  0.17770000000E+01 0. -1.
         15    1    1    2    0    0  0.41743869150E+01  0.16636381146E+01  0.48786926404E+02  0.49025657720E+02  0.17770000000E+01 0. -1.
</event>
<event>
 6    1  0.1697564E-002  0.1827844E+03  0.7546771E-02  0.1068229E+00
        -11   -1    0    0    0    0  0.00000000000E+00  0.00000000000E+00  0.18250000000E+03  0.18250000000E+03  0.00000000000E+00 0.  1.
         11   -1    0    0    0    0 -0.00000000000E+00 -0.00000000000E+00 -0.18250000000E+03  0.18250000000E+03  0.00000000000E+00 0.  1.
        -11    1    1    2    0    0  0.44463351554E+01 -0.35862885536E+01  0.18212606200E+03  0.18221562453E+03  0.00000000000E+00 0.  1.
         11    1    1    2    0    0  0.29778928994E+00  0.79208356757E+00 -0.22153815154E+02  0.22169970698E+02  0.00000000000E+00 0.  1.
        -15    1    1    2    0    0 -0.15202169796E+01  0.66989971385E+01 -0.48846068680E+02  0.49358725438E+02  0.17770000000E+01 0. -1.
         15    1    1    2    0    0 -0.32239074656E+01 -0.39047921525E+01 -0.11112617817E+03  0.11125567934E+03  0.17770000000E+01 0.  1.
</event>
<event>
 6    1  0.1697564E-002  0.1889052E+03  0.7546771E-02  0.1063468E+00
        -11   -1    0    0    0    0  0.00000000000E+00  0.00000000000E+00  0.18250000000E+03  0.18250000000E+03  0.00000000000E+00 0.  1.
         11   -1    0    0    0    0 -0.00000000000E+00 -0.00000000000E+00 -0.18250000000E+03  0.18250000000E+03  0.00000000000E+00 0.  1.
        -11    1    1    2    0    0 -0.81574949443E+00 -0.15856585070E+02  0.13940572399E+03  0.14030699419E+03  0.00000000000E+00 0.  1.
         11    1    1    2    0    0 -0.18071313673E+01 -0.97705464195E+01 -0.17581422540E+03  0.17609477889E+03  0.00000000000E+00 0.  1.
        -15    1    1    2    0    0  0.84081130966E+01  0.90975336661E+01  0.23982872664E+02  0.27051754007E+02  0.17770000000E+01 0.  1.
         15    1    1    2    0    0 -0.57852322349E+01  0.16529597824E+02  0.12425628746E+02  0.21546472912E+02  0.17770000000E+01 0. -1.
</event>
<event>
 6    1  0.1697564E-002  0.1825724E+03  0.7546771E-02  0.1068397E+00
        -11   -1    0    0    0    0  0.00000000000E+00  0.00000000000E+00  0.18250000000E+03  0.18250000000E+03  0.00000000000E+00 0.  1.
         11   -1    0    0    0    0 -0.00000000000E+00 -0.00000000000E+00 -0.18250000000E+03  0.18250000000E+03  0.00000000000E+00 0. -1.
        -11    1    1    2    0    0  0.11628473662E+01 -0.12376550089E+01  0.49601781798E+02  0.49630844859E+02  0.00000000000E+00 0.  1.
         11    1    1    2    0    0  0.55236034023E-01  0.28371454782E+01 -0.18240556625E+03  0.18242763783E+03  0.00000000000E+00 0. -1.
        -15    1    1    2    0    0  0.11676877182E+01  0.70531376546E+00  0.41854872992E+02  0.41914783601E+02  0.17770000000E+01 0.  1.
         15    1    1    2    0    0 -0.23857711184E+01 -0.23048042347E+01  0.90948911457E+02  0.91026733714E+02  0.17770000000E+01 0.  1.
</event>
<event>
 6    1  0.1697564E-002  0.1834568E+03  0.7546771E-02  0.1067696E+00
        -11   -1    0    0    0    0  0.00000000000E+00  0.00000000000E+00  0.18250000000E+03  0.18250000000E+03  0.00000000000E+00 0.  1.
         11   -1    0    0    0    0 -0.00000000000E+00 -0.00000000000E+00 -0.18250000000E+03  0.18250000000E+03  0.00000000000E+00 0.  1.
        -11    1    1    2    0    0  0.12872703704E+01 -0.22917876324E+01  0.18152415153E+03  0.18154318204E+03  0.00000000000E+00 0.  1.
         11    1    1    2    0    0 -0.16001804019E+01  0.24071077581E+01 -0.15408591733E+03  0.15411302561E+03  0.00000000000E+00 0.  1.
        -15    1    1    2    0    0 -0.12010793790E+01  0.68363224904E+00 -0.51704383575E+00  0.23097636361E+01  0.17770000000E+01 0. -1.
         15    1    1    2    0    0  0.15139894105E+01 -0.79895237474E+00 -0.26921190366E+02  0.27034028715E+02  0.17770000000E+01 0. -1.
</event>
<event>
 6    1  0.1697564E-002  0.1849487E+03  0.7546771E-02  0.1066522E+00
        -11   -1    0    0    0    0  0.00000000000E+00  0.00000000000E+00  0.18250000000E+03  0.18250000000E+03  0.00000000000E+00 0.  1.
         11   -1    0    0    0    0 -0.00000000000E+00 -0.00000000000E+00 -0.18250000000E+03  0.18250000000E+03  0.00000000000E+00 0.  1.
        -11    1    1    2    0    0  0.10010233108E+01 -0.41880751252E+01  0.16826385399E+03  0.16831894302E+03  0.00000000000E+00 0.  1.
         11    1    1    2    0    0  0.27291977032E+00  0.24951098386E+01 -0.18003380728E+03  0.18005130331E+03  0.00000000000E+00 0.  1.
        -15    1    1    2    0    0 -0.21773096679E+01  0.27052628679E+01  0.13339443808E+02  0.13898115508E+02  0.17770000000E+01 0.  1.
         15    1    1    2    0    0  0.90336658678E+00 -0.10122975814E+01 -0.15694905102E+01  0.27316381614E+01  0.17770000000E+01 0. -1.
</event>
<event>
 6    1  0.1697564E-002  0.1710744E+03  0.7546771E-02  0.1077932E+00
        -11   -1    0    0    0    0  0.00000000000E+00  0.00000000000E+00  0.18250000000E+03  0.18250000000E+03  0.00000000000E+00 0. -1.
         11   -1    0    0    0    0 -0.00000000000E+00 -0.00000000000E+00 -0.18250000000E+03  0.18250000000E+03  0.00000000000E+00 0. -1.
        -11    1    1    2    0    0  0.12726104659E+02 -0.12021923668E+01  0.16562817741E+03  0.16612071562E+03  0.00000000000E+00 0. -1.
         11    1    1    2    0    0  0.33108855394E+01 -0.47583946980E+01 -0.17653394370E+03  0.17662909602E+03  0.00000000000E+00 0. -1.
        -15    1    1    2    0    0 -0.13013378562E+01  0.18605104198E+01 -0.70130598708E+00  0.29672442309E+01  0.17770000000E+01 0. -1.
         15    1    1    2    0    0 -0.14735652342E+02  0.41000766449E+01  0.11607072280E+02  0.19282944131E+02  0.17770000000E+01 0.  1.
</event>
<event>
 6    1  0.1697564E-002  0.1873747E+03  0.7546771E-02  0.1064639E+00
        -11   -1    0    0    0    0  0.00000000000E+00  0.00000000000E+00  0.18250000000E+03  0.18250000000E+03  0.00000000000E+00 0.  1.
         11   -1    0    0    0    0 -0.00000000000E+00 -0.00000000000E+00 -0.18250000000E+03  0.18250000000E+03  0.00000000000E+00 0.  1.
        -11    1    1    2    0    0 -0.75012743125E+01 -0.21998489320E+01  0.17745322819E+03  0.17762532659E+03  0.00000000000E+00 0.  1.
         11    1    1    2    0    0 -0.23768996212E+00 -0.27504848797E+01 -0.14124455893E+03  0.14127153673E+03  0.00000000000E+00 0.  1.
        -15    1    1    2    0    0 -0.33964970240E+01 -0.68849093619E+01 -0.25178331184E+02  0.26382650723E+02  0.17770000000E+01 0. -1.
         15    1    1    2    0    0  0.11135461299E+02  0.11835243174E+02 -0.11030338073E+02  0.19720485955E+02  0.17770000000E+01 0.  1.
</event>
<event>
 6    1  0.2153701E-002  0.1963714E+03  0.7546771E-02  0.1057920E+00
        -11   -1    0    0    0    0  0.00000000000E+00  0.00000000000E+00  0.18250000000E+03  0.18250000000E+03  0.00000000000E+00 0. -1.
         11   -1    0    0    0    0 -0.00000000000E+00 -0.00000000000E+00 -0.18250000000E+03  0.18250000000E+03  0.00000000000E+00 0.  1.
        -11    1    1    2    0    0 -0.64148505762E+00 -0.72575406088E+01  0.16847108047E+03  0.16862855142E+03  0.00000000000E+00 0. -1.
         11    1    1    2    0    0  0.44756429472E+00 -0.20941332912E+01 -0.11123276624E+03  0.11125337745E+03  0.00000000000E+00 0.  1.
        -15    1    1    2    0    0  0.19526875441E+01 -0.37128792357E+01 -0.67911245692E+02  0.68063892640E+02  0.17770000000E+01 0.  1.
         15    1    1    2    0    0 -0.17587667812E+01  0.13064553136E+02  0.10672931461E+02  0.17054178497E+02  0.17770000000E+01 0.  1.
</event>
<event>
 6    1  0.1697564E-002  0.1826824E+03  0.7546771E-02  0.1068310E+00
        -11   -1    0    0    0    0  0.00000000000E+00  0.00000000000E+00  0.18250000000E+03  0.18250000000E+03  0.00000000000E+00 0.  1.
         11   -1    0    0    0    0 -0.00000000000E+00 -0.00000000000E+00 -0.18250000000E+03  0.18250000000E+03  0.00000000000E+00 0.  1.
        -11    1    1    2    0    0 -0.14359963554E+01 -0.41379905691E+00  0.86856385296E+02  0.86869240712E+02  0.00000000000E+00 0.  1.
         11    1    1    2    0    0 -0.23152160029E+01  0.33990953784E+01 -0.18227124209E+03  0.18231763427E+03  0.00000000000E+00 0.  1.
        -15    1    1    2    0    0  0.16101658713E+01 -0.25237928906E+00  0.74422540522E+02  0.74461591415E+02  0.17770000000E+01 0.  1.
         15    1    1    2    0    0  0.21410464870E+01 -0.27329170324E+01  0.20992316272E+02  0.21351533599E+02  0.17770000000E+01 0. -1.
</event>
<event>
 6    1  0.1697564E-002  0.1842515E+03  0.7546771E-02  0.1067069E+00
        -11   -1    0    0    0    0  0.00000000000E+00  0.00000000000E+00  0.18250000000E+03  0.18250000000E+03  0.00000000000E+00 0. -1.
         11   -1    0    0    0    0 -0.00000000000E+00 -0.00000000000E+00 -0.18250000000E+03  0.18250000000E+03  0.00000000000E+00 0.  1.
        -11    1    1    2    0    0  0.10489183900E+01 -0.30073902705E+01  0.18072042352E+03  0.18074848852E+03  0.00000000000E+00 0. -1.
         11    1    1    2    0    0 -0.15136115098E-01  0.21968331329E+01 -0.15430151450E+03  0.15431715291E+03  0.00000000000E+00 0.  1.
        -15    1    1    2    0    0  0.13976724147E+00 -0.61825007526E+00  0.11742800152E+01  0.22222579939E+01  0.17770000000E+01 0.  1.
         15    1    1    2    0    0 -0.11735495164E+01  0.14288072129E+01 -0.27593189032E+02  0.27712100578E+02  0.17770000000E+01 0.  1.
</event>
<event>
 6    1  0.1697564E-002  0.1826656E+03  0.7546771E-02  0.1068323E+00
        -11   -1    0    0    0    0  0.00000000000E+00  0.00000000000E+00  0.18250000000E+03  0.18250000000E+03  0.00000000000E+00 0.  1.
         11   -1    0    0    0    0 -0.00000000000E+00 -0.00000000000E+00 -0.18250000000E+03  0.18250000000E+03  0.00000000000E+00 0. -1.
        -11    1    1    2    0    0 -0.29469154768E+01 -0.24998112358E+01  0.18229340787E+03  0.18233436297E+03  0.00000000000E+00 0.  1.
         11    1    1    2    0    0 -0.87804333219E-02  0.17906357362E+01 -0.11978122953E+03  0.11979461341E+03  0.00000000000E+00 0. -1.
        -15    1    1    2    0    0  0.44373111513E-01  0.22889825925E+01 -0.23450750863E+02  0.23629152658E+02  0.17770000000E+01 0.  1.
         15    1    1    2    0    0  0.29113227986E+01 -0.15798070929E+01 -0.39061427475E+02  0.39241870958E+02  0.17770000000E+01 0. -1.
</event>
<event>
 6    1  0.1697564E-002  0.1691366E+03  0.7546771E-02  0.1079619E+00
        -11   -1    0    0    0    0  0.00000000000E+00  0.00000000000E+00  0.18250000000E+03  0.18250000000E+03  0.00000000000E+00 0.  1.
         11   -1    0    0    0    0 -0.00000000000E+00 -0.00000000000E+00 -0.18250000000E+03  0.18250000000E+03  0.00000000000E+00 0. -1.
        -11    1    1    2    0    0  0.42874421391E+01 -0.10184471826E+02  0.16921698199E+03  0.16957739419E+03  0.00000000000E+00 0.  1.
         11    1    1    2    0    0  0.30882943164E+01 -0.24901877439E+01 -0.16896712658E+03  0.16901369312E+03  0.00000000000E+00 0. -1.
        -15    1    1    2    0    0 -0.12909444264E+02  0.11065150478E+02  0.56177803276E+01  0.17994679523E+02  0.17770000000E+01 0. -1.
         15    1    1    2    0    0  0.55337078087E+01  0.16095090916E+01 -0.58676357357E+01  0.84142331650E+01  0.17770000000E+01 0.  1.
</event>
<event>
 6    1  0.1697564E-002  0.1322810E+03  0.7546771E-02  0.1117392E+00
        -11   -1    0    0    0    0  0.00000000000E+00  0.00000000000E+00  0.18250000000E+03  0.18250000000E+03  0.00000000000E+00 0. -1.
         11   -1    0    0    0    0 -0.00000000000E+00 -0.00000000000E+00 -0.18250000000E+03  0.18250000000E+03  0.00000000000E+00 0.  1.
        -11    1    1    2    0    0 -0.21585592283E+02  0.34076930005E+02  0.12120178958E+03  0.12773820396E+03  0.00000000000E+00 0. -1.
         11    1    1    2    0    0 -0.20135363214E+02 -0.19768064662E+02 -0.13815868638E+03  0.14101075085E+03  0.00000000000E+00 0.  1.
        -15    1    1    2    0    0 -0.26968886940E+00 -0.16941555876E+02 -0.29177746541E+02  0.33787389212E+02  0.17770000000E+01 0. -1.
         15    1    1    2    0    0  0.41990644366E+02  0.26326905322E+01  0.46134643340E+02  0.62463655983E+02  0.17770000000E+01 0.  1.
</event>
<event>
 6    1  0.1697564E-002  0.1833690E+03  0.7546771E-02  0.1067765E+00
        -11   -1    0    0    0    0  0.00000000000E+00  0.00000000000E+00  0.18250000000E+03  0.18250000000E+03  0.00000000000E+00 0.  1.
         11   -1    0    0    0    0 -0.00000000000E+00 -0.00000000000E+00 -0.18250000000E+03  0.18250000000E+03  0.00000000000E+00 0.  1.
        -11    1    1    2    0    0 -0.82111827220E+01  0.69248761426E+00  0.18144396933E+03  0.18163099149E+03  0.00000000000E+00 0.  1.
         11    1    1    2    0    0 -0.62982072867E+00  0.96797688385E+00 -0.73354406449E+02  0.73363496365E+02  0.00000000000E+00 0.  1.
        -15    1    1    2    0    0  0.21191091028E+00 -0.18944594387E+01 -0.88343117721E+02  0.88381548190E+02  0.17770000000E+01 0. -1.
         15    1    1    2    0    0  0.86290925404E+01  0.23399494058E+00 -0.19746445164E+02  0.21623963959E+02  0.17770000000E+01 0. -1.
</event>
<event>
 6    1  0.1697564E-002  0.1825624E+03  0.7546771E-02  0.1068405E+00
        -11   -1    0    0    0    0  0.00000000000E+00  0.00000000000E+00  0.18250000000E+03  0.18250000000E+03  0.00000000000E+00 0.  1.
         11   -1    0    0    0    0 -0.00000000000E+00 -0.00000000000E+00 -0.18250000000E+03  0.18250000000E+03  0.00000000000E+00 0.  1.
        -11    1    1    2    0    0  0.17757508820E+00  0.63468271084E+00  0.22214929198E+02  0.22224703245E+02  0.00000000000E+00 0.  1.
         11    1    1    2    0    0 -0.46300202205E+01 -0.17280927814E+01 -0.18237061928E+03  0.18243756786E+03  0.00000000000E+00 0.  1.
        -15    1    1    2    0    0  0.29356983804E+01  0.30334909592E+01  0.10206199030E+03  0.10216471008E+03  0.17770000000E+01 0.  1.
         15    1    1    2    0    0  0.15167467519E+01 -0.19400808886E+01  0.58093699782E+02  0.58173018814E+02  0.17770000000E+01 0. -1.
</event>
<event>
 6    1  0.1697564E-002  0.1832497E+03  0.7546771E-02  0.1067860E+00
        -11   -1    0    0    0    0  0.00000000000E+00  0.00000000000E+00  0.18250000000E+03  0.18250000000E+03  0.00000000000E+00 0. -1.
         11   -1    0    0    0    0 -0.00000000000E+00 -0.00000000000E+00 -0.18250000000E+03  0.18250000000E+03  0.00000000000E+00 0.  1.
        -11    1    1    2    0    0  0.60936055477E+01  0.30152519095E+01  0.12868150485E+03  0.12886098503E+03  0.00000000000E+00 0. -1.
         11    1    1    2    0    0  0.20185424084E+00  0.32334465379E+01 -0.18172139038E+03  0.18175026725E+03  0.00000000000E+00 0.  1.
        -15    1    1    2    0    0  0.32989688652E+00  0.97179373299E+00  0.77829312186E+01  0.80489106324E+01  0.17770000000E+01 0. -1.
         15    1    1    2    0    0 -0.66253566750E+01 -0.72204921803E+01  0.45256954318E+02  0.46339837090E+02  0.17770000000E+01 0. -1.
</event>
<event>
 6    1  0.1697564E-002  0.1843949E+03  0.7546771E-02  0.1066956E+00
        -11   -1    0    0    0    0  0.00000000000E+00  0.00000000000E+00  0.18250000000E+03  0.18250000000E+03  0.00000000000E+00 0. -1.
         11   -1    0    0    0    0 -0.00000000000E+00 -0.00000000000E+00 -0.18250000000E+03  0.18250000000E+03  0.00000000000E+00 0.  1.
        -11    1    1    2    0    0 -0.42415215663E+01  0.44564763491E+01  0.11296678843E+03  0.11313419455E+03  0.00000000000E+00 0. -1.
         11    1    1    2    0    0  0.11181874511E+01 -0.63423039657E+01 -0.18049028729E+03  0.18060514657E+03  0.00000000000E+00 0.  1.
        -15    1    1    2    0    0  0.32019046659E+01 -0.28147221741E+01  0.65778566599E+02  0.65940521740E+02  0.17770000000E+01 0. -1.
         15    1    1    2    0    0 -0.78570550704E-01  0.47005497908E+01  0.17449322550E+01  0.53201371450E+01  0.17770000000E+01 0.  1.
</event>
<event>
 6    1  0.1697564E-002  0.1826264E+03  0.7546771E-02  0.1068354E+00
        -11   -1    0    0    0    0  0.00000000000E+00  0.00000000000E+00  0.18250000000E+03  0.18250000000E+03  0.00000000000E+00 0. -1.
         11   -1    0    0    0    0 -0.00000000000E+00 -0.00000000000E+00 -0.18250000000E+03  0.18250000000E+03  0.00000000000E+00 0. -1.
        -11    1    1    2    0    0  0.24570633286E+01 -0.15131891881E+01  0.18235075638E+03  0.18237358705E+03  0.00000000000E+00 0. -1.
         11    1    1    2    0    0  0.83504875076E+00 -0.11603326272E+01 -0.69286998284E+02  0.69301744635E+02  0.00000000000E+00 0. -1.
        -15    1    1    2    0    0 -0.26127959475E+01  0.41886323077E+01 -0.75022969426E+02  0.75206216590E+02  0.17770000000E+01 0. -1.
         15    1    1    2    0    0 -0.67931613183E+00 -0.15151104924E+01 -0.38040788670E+02  0.38118451724E+02  0.17770000000E+01 0. -1.
</event>
<event>
 6    1  0.1697564E-002  0.1898956E+03  0.7546771E-02  0.1062716E+00
        -11   -1    0    0    0    0  0.00000000000E+00  0.00000000000E+00  0.18250000000E+03  0.18250000000E+03  0.00000000000E+00 0.  1.
         11   -1    0    0    0    0 -0.00000000000E+00 -0.00000000000E+00 -0.18250000000E+03  0.18250000000E+03  0.00000000000E+00 0.  1.
        -11    1    1    2    0    0  0.14994085982E+02 -0.15822035149E+02  0.17374235496E+03  0.17510444118E+03  0.00000000000E+00 0.  1.
         11    1    1    2    0    0 -0.67037923359E+01  0.58757564994E+01 -0.15027601489E+03  0.15054018067E+03  0.00000000000E+00 0.  1.
        -15    1    1    2    0    0 -0.13248281979E+02  0.14660679823E+02 -0.63405643410E+01  0.20828177871E+02  0.17770000000E+01 0.  1.
         15    1    1    2    0    0  0.49579883335E+01 -0.47144011732E+01 -0.17125775733E+02  0.18527200279E+02  0.17770000000E+01 0.  1.
</event>
<event>
 6    1  0.1697564E-002  0.1828395E+03  0.7546771E-02  0.1068185E+00
        -11   -1    0    0    0    0  0.00000000000E+00  0.00000000000E+00  0.18250000000E+03  0.18250000000E+03  0.00000000000E+00 0. -1.
         11   -1    0    0    0    0 -0.00000000000E+00 -0.00000000000E+00 -0.18250000000E+03  0.18250000000E+03  0.00000000000E+00 0. -1.
        -11    1    1    2    0    0  0.30729686159E+01 -0.30780828525E+01  0.18210853066E+03  0.18216046406E+03  0.00000000000E+00 0. -1.
         11    1    1    2    0    0 -0.91616176394E+00 -0.10973825423E+01 -0.87258027627E+02  0.87269736943E+02  0.00000000000E+00 0. -1.
        -15    1    1    2    0    0  0.18074348275E+01  0.26657138897E+01 -0.11110227255E+02  0.11703321317E+02  0.17770000000E+01 0.  1.
         15    1    1    2    0    0 -0.39642416794E+01  0.15097515050E+01 -0.83740275775E+02  0.83866477675E+02  0.17770000000E+01 0. -1.
</event>
<event>
 6    1  0.4089210E-002  0.1618786E+03  0.7546771E-02  0.1086168E+00
        -11   -1    0    0    0    0  0.00000000000E+00  0.00000000000E+00  0.18250000000E+03  0.18250000000E+03  0.00000000000E+00 0.  1.
         11   -1    0    0    0    0 -0.00000000000E+00 -0.00000000000E+00 -0.18250000000E+03  0.18250000000E+03  0.00000000000E+00 0.  1.
        -11    1    1    2    0    0 -0.30162716941E+01  0.29161125383E+01  0.16044549107E+03  0.16050033399E+03  0.00000000000E+00 0.  1.
         11    1    1    2    0    0  0.10121311043E+02  0.68228519862E+01 -0.16303525648E+03  0.16349155055E+03  0.00000000000E+00 0.  1.
        -15    1    1    2    0    0 -0.54483043940E+01 -0.50633406601E+01 -0.18104644751E+02  0.19653430489E+02  0.17770000000E+01 0.  1.
         15    1    1    2    0    0 -0.16567349547E+01 -0.46756238644E+01  0.20694410162E+02  0.21354684971E+02  0.17770000000E+01 0. -1.
</event>
<event>
 6    1  0.1697564E-002  0.1844516E+03  0.7546771E-02  0.1066912E+00
        -11   -1    0    0    0    0  0.00000000000E+00  0.00000000000E+00  0.18250000000E+03  0.18250000000E+03  0.00000000000E+00 0. -1.
         11   -1    0    0    0    0 -0.00000000000E+00 -0.00000000000E+00 -0.18250000000E+03  0.18250000000E+03  0.00000000000E+00 0. -1.
        -11    1    1    2    0    0 -0.80147478088E+01  0.39283949545E+01  0.18032768562E+03  0.18054844965E+03  0.00000000000E+00 0. -1.
         11    1    1    2    0    0  0.28692317475E+01 -0.20136528375E+01 -0.83564857066E+02  0.83638344227E+02  0.00000000000E+00 0. -1.
        -15    1    1    2    0    0  0.15592653693E+02  0.35276590560E+01 -0.48315646518E+02  0.50922830391E+02  0.17770000000E+01 0.  1.
         15    1    1    2    0    0 -0.10447137632E+02 -0.54424011730E+01 -0.48447182033E+02  0.49890375736E+02  0.17770000000E+01 0. -1.
</event>
<event>
 6    1  0.1697564E-002  0.1890484E+03  0.7546771E-02  0.1063359E+00
        -11   -1    0    0    0    0  0.00000000000E+00  0.00000000000E+00  0.18250000000E+03  0.18250000000E+03  0.00000000000E+00 0.  1.
         11   -1    0    0    0    0 -0.00000000000E+00 -0.00000000000E+00 -0.18250000000E+03  0.18250000000E+03  0.00000000000E+00 0.  1.
        -11    1    1    2    0    0  0.61585954158E+01  0.37354866477E+00  0.69917247985E+02  0.70188954985E+02  0.00000000000E+00 0.  1.
         11    1    1    2    0    0  0.48718526257E+01 -0.41486866395E+01 -0.17583521774E+03  0.17595161365E+03  0.00000000000E+00 0.  1.
        -15    1    1    2    0    0 -0.89239921489E+00  0.41059399547E+01  0.10821279124E+03  0.10830891485E+03  0.17770000000E+01 0.  1.
         15    1    1    2    0    0 -0.10138048827E+02 -0.33080197994E+00 -0.22948214890E+01  0.10550516510E+02  0.17770000000E+01 0. -1.
</event>
<event>
 6    1  0.1697564E-002  0.1944896E+03  0.7546771E-02  0.1059292E+00
        -11   -1    0    0    0    0  0.00000000000E+00  0.00000000000E+00  0.18250000000E+03  0.18250000000E+03  0.00000000000E+00 0.  1.
         11   -1    0    0    0    0 -0.00000000000E+00 -0.00000000000E+00 -0.18250000000E+03  0.18250000000E+03  0.00000000000E+00 0.  1.
        -11    1    1    2    0    0 -0.44760423285E+01 -0.90137684438E+00  0.16151188466E+03  0.16157641016E+03  0.00000000000E+00 0.  1.
         11    1    1    2    0    0  0.33947291297E+00  0.72205517048E+01 -0.17035710564E+03  0.17051039572E+03  0.00000000000E+00 0.  1.
        -15    1    1    2    0    0  0.34987510221E+01  0.12363676467E+01  0.19380239192E+02  0.19812149399E+02  0.17770000000E+01 0. -1.
         15    1    1    2    0    0  0.63781839337E+00 -0.75555425071E+01 -0.10535018214E+02  0.13101044716E+02  0.17770000000E+01 0. -1.
</event>
<event>
 6    1  0.1697564E-002  0.1866182E+03  0.7546771E-02  0.1065223E+00
        -11   -1    0    0    0    0  0.00000000000E+00  0.00000000000E+00  0.18250000000E+03  0.18250000000E+03  0.00000000000E+00 0. -1.
         11   -1    0    0    0    0 -0.00000000000E+00 -0.00000000000E+00 -0.18250000000E+03  0.18250000000E+03  0.00000000000E+00 0. -1.
        -11    1    1    2    0    0  0.73360400600E+00  0.89990851406E+01  0.17815314123E+03  0.17838179122E+03  0.00000000000E+00 0. -1.
         11    1    1    2    0    0  0.21816651764E+01  0.17089143345E+01 -0.13388977755E+03  0.13391845498E+03  0.00000000000E+00 0. -1.
        -15    1    1    2    0    0  0.36475632603E+01 -0.50894564221E+01  0.99983139301E+00  0.65851861192E+01  0.17770000000E+01 0.  1.
         15    1    1    2    0    0 -0.65628324427E+01 -0.56185430531E+01 -0.45263195069E+02  0.46114567683E+02  0.17770000000E+01 0. -1.
</event>
<event>
 6    1  0.1697564E-002  0.1895278E+03  0.7546771E-02  0.1062994E+00
        -11   -1    0    0    0    0  0.00000000000E+00  0.00000000000E+00  0.18250000000E+03  0.18250000000E+03  0.00000000000E+00 0.  1.
         11   -1    0    0    0    0 -0.00000000000E+00 -0.00000000000E+00 -0.18250000000E+03  0.18250000000E+03  0.00000000000E+00 0. -1.
        -11    1    1    2    0    0 -0.47493912180E+01  0.25572139262E+01  0.16163768497E+03  0.16172766387E+03  0.00000000000E+00 0.  1.
         11    1    1    2    0    0  0.12773280765E+01 -0.26236303044E+01 -0.17544792116E+03  0.17547218595E+03  0.00000000000E+00 0. -1.
        -15    1    1    2    0    0 -0.90397081722E+01  0.45699357933E+01  0.86079199252E+01  0.13410989950E+02  0.17770000000E+01 0.  1.
         15    1    1    2    0    0  0.12511771314E+02 -0.45035194152E+01  0.52023162635E+01  0.14389160227E+02  0.17770000000E+01 0. -1.
</event>
<event>
 6    1  0.1697564E-002  0.1870448E+03  0.7546771E-02  0.1064894E+00
        -11   -1    0    0    0    0  0.00000000000E+00  0.00000000000E+00  0.18250000000E+03  0.18250000000E+03  0.00000000000E+00 0.  1.
         11   -1    0    0    0    0 -0.00000000000E+00 -0.00000000000E+00 -0.18250000000E+03  0.18250000000E+03  0.00000000000E+00 0. -1.
        -11    1    1    2    0    0  0.63784583701E+00  0.52565788736E+01  0.16080653466E+03  0.16089369179E+03  0.00000000000E+00 0.  1.
         11    1    1    2    0    0 -0.11066597215E+01 -0.26182074051E+01 -0.17793249848E+03  0.17795520144E+03  0.00000000000E+00 0. -1.
        -15    1    1    2    0    0 -0.58034327932E+00 -0.35496545374E+01  0.21155804236E+02  0.21532826743E+02  0.17770000000E+01 0. -1.
         15    1    1    2    0    0  0.10491571638E+01  0.91128306896E+00 -0.40298404159E+01  0.46182800222E+01  0.17770000000E+01 0. -1.
</event>
<event>
 6    1  0.1697564E-002  0.1750486E+03  0.7546771E-02  0.1074546E+00
        -11   -1    0    0    0    0  0.00000000000E+00  0.00000000000E+00  0.18250000000E+03  0.18250000000E+03  0.00000000000E+00 0.  1.
         11   -1    0    0    0    0 -0.00000000000E+00 -0.00000000000E+00 -0.18250000000E+03  0.18250000000E+03  0.00000000000E+00 0.  1.
        -11    1    1    2    0    0 -0.95235487469E+00  0.33752119799E+01  0.17678747603E+03  0.17682225741E+03  0.00000000000E+00 0.  1.
         11    1    1    2    0    0 -0.75777458318E+01 -0.81915366052E+01 -0.17307234876E+03  0.17343171973E+03  0.00000000000E+00 0.  1.
        -15    1    1    2    0    0 -0.10191589003E+01  0.13790508427E+01  0.18033316132E+01  0.30578096733E+01  0.17770000000E+01 0.  1.
         15    1    1    2    0    0  0.95492596069E+01  0.34372737825E+01 -0.55184588827E+01  0.11688213188E+02  0.17770000000E+01 0.  1.
</event>
<event>
 6    1  0.1697564E-002  0.1980846E+03  0.7546771E-02  0.1056685E+00
        -11   -1    0    0    0    0  0.00000000000E+00  0.00000000000E+00  0.18250000000E+03  0.18250000000E+03  0.00000000000E+00 0.  1.
         11   -1    0    0    0    0 -0.00000000000E+00 -0.00000000000E+00 -0.18250000000E+03  0.18250000000E+03  0.00000000000E+00 0.  1.
        -11    1    1    2    0    0 -0.25932679309E+01  0.29801298983E+01  0.60149478175E+02  0.60279067158E+02  0.00000000000E+00 0.  1.
         11    1    1    2    0    0 -0.98949206571E+01  0.39234992183E+01 -0.16657560813E+03  0.16691535736E+03  0.00000000000E+00 0.  1.
        -15    1    1    2    0    0  0.21140618029E+02 -0.43771006099E+01  0.11971004250E+03  0.12165416863E+03  0.17770000000E+01 0.  1.
         15    1    1    2    0    0 -0.86524294414E+01 -0.25265285067E+01 -0.13283912552E+02  0.16151406849E+02  0.17770000000E+01 0. -1.
</event>
<event>
 6    1  0.1697564E-002  0.1825547E+03  0.7546771E-02  0.1068411E+00
        -11   -1    0    0    0    0  0.00000000000E+00  0.00000000000E+00  0.18250000000E+03  0.18250000000E+03  0.00000000000E+00 0.  1.
         11   -1    0    0    0    0 -0.00000000000E+00 -0.00000000000E+00 -0.18250000000E+03  0.18250000000E+03  0.00000000000E+00 0.  1.
        -11    1    1    2    0    0 -0.25302722828E+01 -0.22383951978E+01  0.18241400214E+03  0.18244528184E+03  0.00000000000E+00 0.  1.
         11    1    1    2    0    0 -0.57731912989E+00  0.87439482118E-01 -0.19745489190E+02  0.19754120745E+02  0.00000000000E+00 0.  1.
        -15    1    1    2    0    0  0.29535416031E+01  0.58217999195E+00 -0.12948252854E+03  0.12952970805E+03  0.17770000000E+01 0.  1.
         15    1    1    2    0    0  0.15404980956E+00  0.15687757237E+01 -0.33185984413E+02  0.33270889364E+02  0.17770000000E+01 0. -1.
</event>
<event>
 6    1  0.1697564E-002  0.1952518E+03  0.7546771E-02  0.1058734E+00
        -11   -1    0    0    0    0  0.00000000000E+00  0.00000000000E+00  0.18250000000E+03  0.18250000000E+03  0.00000000000E+00 0.  1.
         11   -1    0    0    0    0 -0.00000000000E+00 -0.00000000000E+00 -0.18250000000E+03  0.18250000000E+03  0.00000000000E+00 0. -1.
        -11    1    1    2    0    0  0.92804821347E+01 -0.24245361088E+01  0.16947701735E+03  0.16974824044E+03  0.00000000000E+00 0.  1.
         11    1    1    2    0    0 -0.14693253842E+01 -0.26840066480E+01 -0.13105120166E+03  0.13108691875E+03  0.00000000000E+00 0. -1.
        -15    1    1    2    0    0  0.10748481953E+02  0.11306795297E+01 -0.43154694434E+02  0.44522956789E+02  0.17770000000E+01 0. -1.
         15    1    1    2    0    0 -0.18559638704E+02  0.39778632271E+01  0.47288787484E+01  0.19641884021E+02  0.17770000000E+01 0.  1.
</event>
<event>
 6    1  0.1697564E-002  0.1833494E+03  0.7546771E-02  0.1067781E+00
        -11   -1    0    0    0    0  0.00000000000E+00  0.00000000000E+00  0.18250000000E+03  0.18250000000E+03  0.00000000000E+00 0. -1.
         11   -1    0    0    0    0 -0.00000000000E+00 -0.00000000000E+00 -0.18250000000E+03  0.18250000000E+03  0.00000000000E+00 0. -1.
        -11    1    1    2    0    0 -0.71900473344E+01 -0.53329054638E+01  0.10517788869E+03  0.10555815900E+03  0.00000000000E+00 0. -1.
         11    1    1    2    0    0  0.27547727681E+01  0.12225683219E+01 -0.18162560522E+03  0.18165060946E+03  0.00000000000E+00 0. -1.
        -15    1    1    2    0    0 -0.39073682723E+01  0.29363043656E+01  0.18880785690E+02  0.19583952804E+02  0.17770000000E+01 0.  1.
         15    1    1    2    0    0  0.83426428386E+01  0.11740327764E+01  0.57566930838E+02  0.58207278733E+02  0.17770000000E+01 0. -1.
</event>
<event>
 6    1  0.1697564E-002  0.1866498E+03  0.7546771E-02  0.1065199E+00
        -11   -1    0    0    0    0  0.00000000000E+00  0.00000000000E+00  0.18250000000E+03  0.18250000000E+03  0.00000000000E+00 0.  1.
         11   -1    0    0    0    0 -0.00000000000E+00 -0.00000000000E+00 -0.18250000000E+03  0.18250000000E+03  0.00000000000E+00 0. -1.
        -11    1    1    2    0    0 -0.15478139565E+01  0.20098078667E+01  0.15603843938E+03  0.15605905812E+03  0.00000000000E+00 0.  1.
         11    1    1    2    0    0 -0.34579217307E+01 -0.52177478095E+01 -0.17824028979E+03  0.17835016967E+03  0.00000000000E+00 0. -1.
        -15    1    1    2    0    0  0.68456134922E+01 -0.10826762109E+01  0.24181330645E+02  0.25217634556E+02  0.17770000000E+01 0.  1.
         15    1    1    2    0    0 -0.18398778050E+01  0.42906161537E+01 -0.19794802321E+01  0.53731376592E+01  0.17770000000E+01 0. -1.
</event>
<event>
 6    1  0.1697564E-002  0.1898850E+03  0.7546771E-02  0.1062724E+00
        -11   -1    0    0    0    0  0.00000000000E+00  0.00000000000E+00  0.18250000000E+03  0.18250000000E+03  0.00000000000E+00 0.  1.
         11   -1    0    0    0    0 -0.00000000000E+00 -0.00000000000E+00 -0.18250000000E+03  0.18250000000E+03  0.00000000000E+00 0.  1.
        -11    1    1    2    0    0  0.18157186625E+01  0.53678279531E+01  0.12684280621E+03  0.12696931873E+03  0.00000000000E+00 0.  1.
         11    1    1    2    0    0  0.95923084968E+01 -0.35673643686E+01 -0.17481565717E+03  0.17511496927E+03  0.00000000000E+00 0.  1.
        -15    1    1    2    0    0 -0.17433526598E+02  0.14797153042E+02  0.28110901019E+02  0.36280353814E+02  0.17770000000E+01 0.  1.
         15    1    1    2    0    0  0.60254994386E+01 -0.16597616626E+02  0.19861949945E+02  0.26635358187E+02  0.17770000000E+01 0. -1.
</event>
<event>
 6    1  0.1697564E-002  0.1833191E+03  0.7546771E-02  0.1067805E+00
        -11   -1    0    0    0    0  0.00000000000E+00  0.00000000000E+00  0.18250000000E+03  0.18250000000E+03  0.00000000000E+00 0.  1.
         11   -1    0    0    0    0 -0.00000000000E+00 -0.00000000000E+00 -0.18250000000E+03  0.18250000000E+03  0.00000000000E+00 0. -1.
        -11    1    1    2    0    0 -0.99259262307E+01 -0.33516677925E+01  0.18137856209E+03  0.18168087536E+03  0.00000000000E+00 0.  1.
         11    1    1    2    0    0  0.22105465919E+01 -0.16832168037E+00 -0.42744117951E+02  0.42801570857E+02  0.00000000000E+00 0. -1.
        -15    1    1    2    0    0  0.61994006898E+01  0.12204014256E+02 -0.91129920361E+02  0.92169358503E+02  0.17770000000E+01 0. -1.
         15    1    1    2    0    0  0.15159789490E+01 -0.86840247832E+01 -0.47504523774E+02  0.48348195278E+02  0.17770000000E+01 0. -1.
</event>
<event>
 6    1  0.1697564E-002  0.1828595E+03  0.7546771E-02  0.1068169E+00
        -11   -1    0    0    0    0  0.00000000000E+00  0.00000000000E+00  0.18250000000E+03  0.18250000000E+03  0.00000000000E+00 0.  1.
         11   -1    0    0    0    0 -0.00000000000E+00 -0.00000000000E+00 -0.18250000000E+03  0.18250000000E+03  0.00000000000E+00 0. -1.
        -11    1    1    2    0    0 -0.77178007992E+00 -0.42470852825E+01  0.77407213619E+02  0.77527479632E+02  0.00000000000E+00 0.  1.
         11    1    1    2    0    0  0.32427294696E+01  0.19548290135E+01 -0.18210111580E+03  0.18214047608E+03  0.00000000000E+00 0. -1.
        -15    1    1    2    0    0 -0.37370479810E+01 -0.33049861950E+01  0.60566540213E+02  0.60797631399E+02  0.17770000000E+01 0.  1.
         15    1    1    2    0    0  0.12660985913E+01  0.55972424640E+01  0.44127361964E+02  0.44534412894E+02  0.17770000000E+01 0. -1.
</event>
<event>
 6    1  0.1697564E-002  0.1847391E+03  0.7546771E-02  0.1066686E+00
        -11   -1    0    0    0    0  0.00000000000E+00  0.00000000000E+00  0.18250000000E+03  0.18250000000E+03  0.00000000000E+00 0.  1.
         11   -1    0    0    0    0 -0.00000000000E+00 -0.00000000000E+00 -0.18250000000E+03  0.18250000000E+03  0.00000000000E+00 0.  1.
        -11    1    1    2    0    0 -0.30691314140E+01  0.22087903180E+01  0.18022127350E+03  0.18026093793E+03  0.00000000000E+00 0.  1.
         11    1    1    2    0    0 -0.41829472494E+01  0.43691680849E+01 -0.16285489938E+03  0.16296718973E+03  0.00000000000E+00 0.  1.
        -15    1    1    2    0    0  0.24455651415E+01 -0.65678199831E+01 -0.63532828665E+01  0.96249145645E+01  0.17770000000E+01 0.  1.
         15    1    1    2    0    0  0.48065135219E+01 -0.10138419875E-01 -0.11013091254E+02  0.12146957767E+02  0.17770000000E+01 0.  1.
</event>
<event>
 6    1  0.1697564E-002  0.1840795E+03  0.7546771E-02  0.1067204E+00
        -11   -1    0    0    0    0  0.00000000000E+00  0.00000000000E+00  0.18250000000E+03  0.18250000000E+03  0.00000000000E+00 0.  1.
         11   -1    0    0    0    0 -0.00000000000E+00 -0.00000000000E+00 -0.18250000000E+03  0.18250000000E+03  0.00000000000E+00 0. -1.
        -11    1    1    2    0    0  0.19465091481E+02  0.41010606824E+01  0.17982356696E+03  0.18092049005E+03  0.00000000000E+00 0.  1.
         11    1    1    2    0    0  0.11094787471E+01 -0.32479039970E-01 -0.24812868616E+02  0.24837681996E+02  0.00000000000E+00 0. -1.
        -15    1    1    2    0    0  0.12611337935E+01 -0.45134216887E+01 -0.98561248483E+02  0.98688595417E+02  0.17770000000E+01 0. -1.
         15    1    1    2    0    0 -0.21835704021E+02  0.44484004627E+00 -0.56449449860E+02  0.60553232541E+02  0.17770000000E+01 0.  1.
</event>
<event>
 6    1  0.1697564E-002  0.1830898E+03  0.7546771E-02  0.1067986E+00
        -11   -1    0    0    0    0  0.00000000000E+00  0.00000000000E+00  0.18250000000E+03  0.18250000000E+03  0.00000000000E+00 0.  1.
         11   -1    0    0    0    0 -0.00000000000E+00 -0.00000000000E+00 -0.18250000000E+03  0.18250000000E+03  0.00000000000E+00 0. -1.
        -11    1    1    2    0    0  0.66693801632E+00  0.45122062267E+01  0.18185300104E+03  0.18191019432E+03  0.00000000000E+00 0.  1.
         11    1    1    2    0    0 -0.98711235352E+00 -0.28233969789E+01 -0.11394257852E+03  0.11398182821E+03  0.00000000000E+00 0. -1.
        -15    1    1    2    0    0  0.42046254511E+00  0.46610830490E+01 -0.15600562158E+02  0.16384070086E+02  0.17770000000E+01 0.  1.
         15    1    1    2    0    0 -0.10028820791E+00 -0.63498922968E+01 -0.52309860362E+02  0.52723907386E+02  0.17770000000E+01 0. -1.
</event>
<event>
 6    1  0.1697564E-002  0.1835952E+03  0.7546771E-02  0.1067586E+00
        -11   -1    0    0    0    0  0.00000000000E+00  0.00000000000E+00  0.18250000000E+03  0.18250000000E+03  0.00000000000E+00 0.  1.
         11   -1    0    0    0    0 -0.00000000000E+00 -0.00000000000E+00 -0.18250000000E+03  0.18250000000E+03  0.00000000000E+00 0. -1.
        -11    1    1    2    0    0 -0.30110429428E+01 -0.20406318930E+00  0.18137968928E+03  0.18140479515E+03  0.00000000000E+00 0.  1.
         11    1    1    2    0    0 -0.24046786358E+01  0.12663320364E+01 -0.61349021657E+02  0.61409189332E+02  0.00000000000E+00 0. -1.
        -15    1    1    2    0    0  0.10594449317E+01 -0.41937840482E+01 -0.11330318609E+03  0.11339964707E+03  0.17770000000E+01 0. -1.
         15    1    1    2    0    0  0.43562766469E+01  0.31315152010E+01 -0.67274815364E+01  0.87863684478E+01  0.17770000000E+01 0.  1.
</event>
<event>
 6    1  0.1697564E-002  0.1877378E+03  0.7546771E-02  0.1064360E+00
        -11   -1    0    0    0    0  0.00000000000E+00  0.00000000000E+00  0.18250000000E+03  0.18250000000E+03  0.00000000000E+00 0.  1.
         11   -1    0    0    0    0 -0.00000000000E+00 -0.00000000000E+00 -0.18250000000E+03  0.18250000000E+03  0.00000000000E+00 0.  1.
        -11    1    1    2    0    0 -0.12479439860E+01 -0.19770880483E+01  0.14484137237E+03  0.14486024089E+03  0.00000000000E+00 0.  1.
         11    1    1    2    0    0 -0.17460569736E+01 -0.32732409775E+01 -0.17722335404E+03  0.17726217881E+03  0.00000000000E+00 0.  1.
        -15    1    1    2    0    0 -0.47796696455E+00  0.49566890085E+01 -0.37832982250E+01  0.65014069866E+01  0.17770000000E+01 0. -1.
         15    1    1    2    0    0  0.34719679241E+01  0.29364001727E+00  0.36165279893E+02  0.36376173307E+02  0.17770000000E+01 0.  1.
</event>
<event>
 6    1  0.1697564E-002  0.1859751E+03  0.7546771E-02  0.1065722E+00
        -11   -1    0    0    0    0  0.00000000000E+00  0.00000000000E+00  0.18250000000E+03  0.18250000000E+03  0.00000000000E+00 0. -1.
         11   -1    0    0    0    0 -0.00000000000E+00 -0.00000000000E+00 -0.18250000000E+03  0.18250000000E+03  0.00000000000E+00 0.  1.
        -11    1    1    2    0    0  0.90904609203E+01 -0.91592066551E+00  0.15245993775E+03  0.15273345412E+03  0.00000000000E+00 0. -1.
         11    1    1    2    0    0  0.51694828496E+00  0.30135577430E+01 -0.17899882327E+03  0.17902493541E+03  0.00000000000E+00 0.  1.
        -15    1    1    2    0    0 -0.96378853711E+01 -0.41339068445E+01  0.28151775991E+02  0.30094156254E+02  0.17770000000E+01 0. -1.
         15    1    1    2    0    0  0.30476165892E-01  0.20362697670E+01 -0.16128904703E+01  0.31474542141E+01  0.17770000000E+01 0. -1.
</event>
<event>
 6    1  0.1697564E-002  0.1532979E+03  0.7546771E-02  0.1094413E+00
        -11   -1    0    0    0    0  0.00000000000E+00  0.00000000000E+00  0.18250000000E+03  0.18250000000E+03  0.00000000000E+00 0.  1.
         11   -1    0    0    0    0 -0.00000000000E+00 -0.00000000000E+00 -0.18250000000E+03  0.18250000000E+03  0.00000000000E+00 0.  1.
        -11    1    1    2    0    0  0.41872911162E+01  0.11598217280E+01  0.15506619237E+03  0.15512705311E+03  0.00000000000E+00 0.  1.
         11    1    1    2    0    0  0.26921912969E+01  0.45830005228E+01 -0.15152685471E+03  0.15162004975E+03  0.00000000000E+00 0.  1.
        -15    1    1    2    0    0 -0.60118031140E+01 -0.16084087538E+01  0.26799474564E+02  0.27569880691E+02  0.17770000000E+01 0.  1.
         15    1    1    2    0    0 -0.86767929902E+00 -0.41344134970E+01 -0.30338812215E+02  0.30683016441E+02  0.17770000000E+01 0. -1.
</event>
<event>
 6    1  0.1697564E-002  0.1831614E+03  0.7546771E-02  0.1067930E+00
        -11   -1    0    0    0    0  0.00000000000E+00  0.00000000000E+00  0.18250000000E+03  0.18250000000E+03  0.00000000000E+00 0. -1.
         11   -1    0    0    0    0 -0.00000000000E+00 -0.00000000000E+00 -0.18250000000E+03  0.18250000000E+03  0.00000000000E+00 0. -1.
        -11    1    1    2    0    0  0.19027823613E+01  0.73685907326E+01  0.64010164180E+02  0.64460979115E+02  0.00000000000E+00 0. -1.
         11    1    1    2    0    0 -0.18521552353E+01  0.29421952096E+01 -0.18180531775E+03  0.18183855629E+03  0.00000000000E+00 0. -1.
        -15    1    1    2    0    0 -0.38221805337E+01 -0.55421254211E+01  0.85942802401E+02  0.86224400443E+02  0.17770000000E+01 0.  1.
         15    1    1    2    0    0  0.37715534077E+01 -0.47686605212E+01  0.31852351172E+02  0.32476064147E+02  0.17770000000E+01 0. -1.
</event>
<event>
 6    1  0.1697564E-002  0.1849347E+03  0.7546771E-02  0.1066533E+00
        -11   -1    0    0    0    0  0.00000000000E+00  0.00000000000E+00  0.18250000000E+03  0.18250000000E+03  0.00000000000E+00 0. -1.
         11   -1    0    0    0    0 -0.00000000000E+00 -0.00000000000E+00 -0.18250000000E+03  0.18250000000E+03  0.00000000000E+00 0. -1.
        -11    1    1    2    0    0 -0.38990924489E+01 -0.14625246238E+01  0.17488736333E+03  0.17493693651E+03  0.00000000000E+00 0. -1.
         11    1    1    2    0    0  0.52745087595E+01 -0.86433658111E-01 -0.17998804923E+03  0.18006533753E+03  0.00000000000E+00 0. -1.
        -15    1    1    2    0    0 -0.38361730956E+01  0.19393913800E+00  0.51594393350E+01  0.66731836225E+01  0.17770000000E+01 0. -1.
         15    1    1    2    0    0  0.24607567850E+01  0.13550191439E+01 -0.58753441216E-01  0.33245423448E+01  0.17770000000E+01 0.  1.
</event>
<event>
 6    1  0.1697564E-002  0.1826841E+03  0.7546771E-02  0.1068308E+00
        -11   -1    0    0    0    0  0.00000000000E+00  0.00000000000E+00  0.18250000000E+03  0.18250000000E+03  0.00000000000E+00 0.  1.
         11   -1    0    0    0    0 -0.00000000000E+00 -0.00000000000E+00 -0.18250000000E+03  0.18250000000E+03  0.00000000000E+00 0.  1.
        -11    1    1    2    0    0 -0.67293493742E+00 -0.44173810456E+01  0.18226114519E+03  0.18231591029E+03  0.00000000000E+00 0.  1.
         11    1    1    2    0    0  0.36091397752E+00  0.10478954799E+01 -0.37960997754E+02  0.37977173332E+02  0.00000000000E+00 0.  1.
        -15    1    1    2    0    0 -0.39785652976E+00  0.67251419840E+01 -0.96077207842E+02  0.96329504412E+02  0.17770000000E+01 0. -1.
         15    1    1    2    0    0  0.70987748966E+00 -0.33556564183E+01 -0.48222939599E+02  0.48377411967E+02  0.17770000000E+01 0.  1.
</event>
<event>
 6    1  0.1697564E-002  0.1855113E+03  0.7546771E-02  0.1066083E+00
        -11   -1    0    0    0    0  0.00000000000E+00  0.00000000000E+00  0.18250000000E+03  0.18250000000E+03  0.00000000000E+00 0. -1.
         11   -1    0    0    0    0 -0.00000000000E+00 -0.00000000000E+00 -0.18250000000E+03  0.18250000000E+03  0.00000000000E+00 0.  1.
        -11    1    1    2    0    0  0.80412793343E+01  0.27030580544E+02  0.17725935870E+03  0.17948870355E+03  0.00000000000E+00 0. -1.
         11    1    1    2    0    0  0.32420575368E+01  0.91186878305E-01 -0.95491590027E+02  0.95546653620E+02  0.00000000000E+00 0.  1.
        -15    1    1    2    0    0  0.20306276652E+01 -0.11526816525E+02 -0.10634507801E+02  0.15913561295E+02  0.17770000000E+01 0. -1.
         15    1    1    2    0    0 -0.13313964536E+02 -0.15594950898E+02 -0.71133260868E+02  0.74051081531E+02  0.17770000000E+01 0.  1.
</event>
<event>
 6    1  0.1697564E-002  0.1861751E+03  0.7546771E-02  0.1065566E+00
        -11   -1    0    0    0    0  0.00000000000E+00  0.00000000000E+00  0.18250000000E+03  0.18250000000E+03  0.00000000000E+00 0. -1.
         11   -1    0    0    0    0 -0.00000000000E+00 -0.00000000000E+00 -0.18250000000E+03  0.18250000000E+03  0.00000000000E+00 0. -1.
        -11    1    1    2    0    0 -0.25022751196E+01 -0.33483846779E+01  0.17063461729E+03  0.17068580983E+03  0.00000000000E+00 0. -1.
         11    1    1    2    0    0  0.69343733342E+01 -0.10771580272E+01 -0.17868713968E+03  0.17882488555E+03  0.00000000000E+00 0. -1.
        -15    1    1    2    0    0 -0.79248367655E+01  0.27322222005E+01  0.35222947086E+01  0.92645758093E+01  0.17770000000E+01 0. -1.
         15    1    1    2    0    0  0.34927385509E+01  0.16933205046E+01  0.45302276835E+01  0.62247288119E+01  0.17770000000E+01 0.  1.
</event>
<event>
 6    1  0.1697564E-002  0.1850733E+03  0.7546771E-02  0.1066425E+00
        -11   -1    0    0    0    0  0.00000000000E+00  0.00000000000E+00  0.18250000000E+03  0.18250000000E+03  0.00000000000E+00 0. -1.
         11   -1    0    0    0    0 -0.00000000000E+00 -0.00000000000E+00 -0.18250000000E+03  0.18250000000E+03  0.00000000000E+00 0.  1.
        -11    1    1    2    0    0 -0.39762292113E+01  0.78046178402E+00  0.16343101102E+03  0.16348123709E+03  0.00000000000E+00 0. -1.
         11    1    1    2    0    0  0.35224508619E+01 -0.39853382991E+01 -0.17984806192E+03  0.17992669606E+03  0.00000000000E+00 0.  1.
        -15    1    1    2    0    0 -0.46155863556E+01  0.22899936817E+01  0.14148936192E+01  0.56309290017E+01  0.17770000000E+01 0. -1.
         15    1    1    2    0    0  0.50693647050E+01  0.91488283338E+00  0.15002157279E+02  0.15961137839E+02  0.17770000000E+01 0. -1.
</event>
<event>
 6    1  0.1697564E-002  0.1807689E+03  0.7546771E-02  0.1069841E+00
        -11   -1    0    0    0    0  0.00000000000E+00  0.00000000000E+00  0.18250000000E+03  0.18250000000E+03  0.00000000000E+00 0. -1.
         11   -1    0    0    0    0 -0.00000000000E+00 -0.00000000000E+00 -0.18250000000E+03  0.18250000000E+03  0.00000000000E+00 0. -1.
        -11    1    1    2    0    0  0.23632230852E+01 -0.41907954065E+01  0.18218281117E+03  0.18224632857E+03  0.00000000000E+00 0. -1.
         11    1    1    2    0    0 -0.96193383679E+00 -0.19919970378E-01 -0.37079924507E+01  0.38307860193E+01  0.00000000000E+00 0. -1.
        -15    1    1    2    0    0 -0.33223428522E+00 -0.33332116816E+01 -0.29490796932E+02  0.29733575507E+02  0.17770000000E+01 0.  1.
         15    1    1    2    0    0 -0.10690549632E+01  0.75439270586E+01 -0.14898402179E+03  0.14918930991E+03  0.17770000000E+01 0. -1.
</event>
<event>
 6    1  0.1697564E-002  0.1832088E+03  0.7546771E-02  0.1067892E+00
        -11   -1    0    0    0    0  0.00000000000E+00  0.00000000000E+00  0.18250000000E+03  0.18250000000E+03  0.00000000000E+00 0. -1.
         11   -1    0    0    0    0 -0.00000000000E+00 -0.00000000000E+00 -0.18250000000E+03  0.18250000000E+03  0.00000000000E+00 0.  1.
        -11    1    1    2    0    0 -0.52101316426E+00 -0.35960811206E+01  0.18175490991E+03  0.18179122787E+03  0.00000000000E+00 0. -1.
         11    1    1    2    0    0 -0.27734701480E+01  0.53988085819E+01 -0.11020730210E+03  0.11037431180E+03  0.00000000000E+00 0.  1.
        -15    1    1    2    0    0  0.34135230092E+01 -0.60656350474E+01 -0.59488711478E+02  0.59920852715E+02  0.17770000000E+01 0. -1.
         15    1    1    2    0    0 -0.11903969692E+00  0.42629075861E+01 -0.12058896338E+02  0.12913607607E+02  0.17770000000E+01 0. -1.
</event>
<event>
 6    1  0.1697564E-002  0.1826013E+03  0.7546771E-02  0.1068374E+00
        -11   -1    0    0    0    0  0.00000000000E+00  0.00000000000E+00  0.18250000000E+03  0.18250000000E+03  0.00000000000E+00 0. -1.
         11   -1    0    0    0    0 -0.00000000000E+00 -0.00000000000E+00 -0.18250000000E+03  0.18250000000E+03  0.00000000000E+00 0. -1.
        -11    1    1    2    0    0  0.31953178360E+01  0.62592191113E+00  0.18236961114E+03  0.18239867571E+03  0.00000000000E+00 0. -1.
         11    1    1    2    0    0 -0.59210065783E+00 -0.16196414043E+01 -0.27485598977E+02  0.27539643654E+02  0.00000000000E+00 0. -1.
        -15    1    1    2    0    0 -0.18295064349E+01 -0.17174260085E+01 -0.36033021565E+02  0.36163974035E+02  0.17770000000E+01 0.  1.
         15    1    1    2    0    0 -0.77371074323E+00  0.27111455016E+01 -0.11885099060E+03  0.11889770660E+03  0.17770000000E+01 0. -1.
</event>
<event>
 6    1  0.1697564E-002  0.1865196E+03  0.7546771E-02  0.1065300E+00
        -11   -1    0    0    0    0  0.00000000000E+00  0.00000000000E+00  0.18250000000E+03  0.18250000000E+03  0.00000000000E+00 0. -1.
         11   -1    0    0    0    0 -0.00000000000E+00 -0.00000000000E+00 -0.18250000000E+03  0.18250000000E+03  0.00000000000E+00 0.  1.
        -11    1    1    2    0    0 -0.54462304613E+00 -0.43622597548E+01  0.14532869236E+03  0.14539516755E+03  0.00000000000E+00 0. -1.
         11    1    1    2    0    0  0.20305036007E+02  0.15710416882E+01 -0.17731471190E+03  0.17848044631E+03  0.00000000000E+00 0.  1.
        -15    1    1    2    0    0  0.17580462344E-01  0.10335564884E+01 -0.12224066035E+01  0.23917681727E+01  0.17770000000E+01 0.  1.
         15    1    1    2    0    0 -0.19777993423E+02  0.17576615782E+01  0.33208426144E+02  0.38732617960E+02  0.17770000000E+01 0. -1.
</event>
<event>
 6    1  0.1697564E-002  0.1983098E+03  0.7546771E-02  0.1056523E+00
        -11   -1    0    0    0    0  0.00000000000E+00  0.00000000000E+00  0.18250000000E+03  0.18250000000E+03  0.00000000000E+00 0. -1.
         11   -1    0    0    0    0 -0.00000000000E+00 -0.00000000000E+00 -0.18250000000E+03  0.18250000000E+03  0.00000000000E+00 0.  1.
        -11    1    1    2    0    0 -0.29912409332E+01 -0.64513443084E+00  0.16269875682E+03  0.16272753053E+03  0.00000000000E+00 0. -1.
         11    1    1    2    0    0 -0.23646974336E+01  0.11524415761E+01 -0.16666944065E+03  0.16669019876E+03  0.00000000000E+00 0.  1.
        -15    1    1    2    0    0 -0.13298984975E+00 -0.51841200417E+01 -0.14592673695E+02  0.15588349543E+02  0.17770000000E+01 0. -1.
         15    1    1    2    0    0  0.54889282165E+01  0.46768128964E+01  0.18563357532E+02  0.19993921168E+02  0.17770000000E+01 0.  1.
</event>
<event>
 6    1  0.1697564E-002  0.1826393E+03  0.7546771E-02  0.1068344E+00
        -11   -1    0    0    0    0  0.00000000000E+00  0.00000000000E+00  0.18250000000E+03  0.18250000000E+03  0.00000000000E+00 0.  1.
         11   -1    0    0    0    0 -0.00000000000E+00 -0.00000000000E+00 -0.18250000000E+03  0.18250000000E+03  0.00000000000E+00 0.  1.
        -11    1    1    2    0    0  0.34759354991E+01  0.31929358018E+01  0.18229960145E+03  0.18236069109E+03  0.00000000000E+00 0.  1.
         11    1    1    2    0    0  0.50540846536E+00 -0.44308244524E+00 -0.11943626119E+02  0.11962523340E+02  0.00000000000E+00 0.  1.
        -15    1    1    2    0    0 -0.46826886617E+01 -0.36579640639E+01 -0.64007959366E+02  0.64307735658E+02  0.17770000000E+01 0.  1.
         15    1    1    2    0    0  0.70134469723E+00  0.90811070740E+00 -0.10634801597E+03  0.10636904991E+03  0.17770000000E+01 0.  1.
</event>
<event>
 6    1  0.1697564E-002  0.1843965E+03  0.7546771E-02  0.1066955E+00
        -11   -1    0    0    0    0  0.00000000000E+00  0.00000000000E+00  0.18250000000E+03  0.18250000000E+03  0.00000000000E+00 0. -1.
         11   -1    0    0    0    0 -0.00000000000E+00 -0.00000000000E+00 -0.18250000000E+03  0.18250000000E+03  0.00000000000E+00 0. -1.
        -11    1    1    2    0    0 -0.12008494485E+01  0.30067376053E+01  0.18057448145E+03  0.18060350457E+03  0.00000000000E+00 0. -1.
         11    1    1    2    0    0  0.17274877490E+01 -0.10595662103E+01 -0.41654010683E+02  0.41703279253E+02  0.00000000000E+00 0. -1.
        -15    1    1    2    0    0  0.14420784050E+01 -0.58623024925E+00  0.11245955481E+01  0.26164288980E+01  0.17770000000E+01 0. -1.
         15    1    1    2    0    0 -0.19687167054E+01 -0.13609411457E+01 -0.14004506632E+03  0.14007678728E+03  0.17770000000E+01 0. -1.
</event>
<event>
 6    1  0.1697564E-002  0.1735469E+03  0.7546771E-02  0.1075814E+00
        -11   -1    0    0    0    0  0.00000000000E+00  0.00000000000E+00  0.18250000000E+03  0.18250000000E+03  0.00000000000E+00 0. -1.
         11   -1    0    0    0    0 -0.00000000000E+00 -0.00000000000E+00 -0.18250000000E+03  0.18250000000E+03  0.00000000000E+00 0.  1.
        -11    1    1    2    0    0 -0.29519795135E+01  0.10615654303E+02  0.17313993681E+03  0.17349018421E+03  0.00000000000E+00 0. -1.
         11    1    1    2    0    0  0.22818309116E+01 -0.33559539703E+01 -0.17363312306E+03  0.17368054181E+03  0.00000000000E+00 0.  1.
        -15    1    1    2    0    0  0.64949630338E+00 -0.34154177787E+01 -0.76847525936E+01  0.86197491539E+01  0.17770000000E+01 0. -1.
         15    1    1    2    0    0  0.20652298478E-01 -0.38442825538E+01  0.81779388431E+01  0.92095248299E+01  0.17770000000E+01 0.  1.
</event>
<event>
 6    1  0.1697564E-002  0.1871927E+03  0.7546771E-02  0.1064780E+00
        -11   -1    0    0    0    0  0.00000000000E+00  0.00000000000E+00  0.18250000000E+03  0.18250000000E+03  0.00000000000E+00 0. -1.
         11   -1    0    0    0    0 -0.00000000000E+00 -0.00000000000E+00 -0.18250000000E+03  0.18250000000E+03  0.00000000000E+00 0.  1.
        -11    1    1    2    0    0  0.67844857785E+00  0.42050651876E+01  0.17253304667E+03  0.17258561661E+03  0.00000000000E+00 0. -1.
         11    1    1    2    0    0  0.35665360223E+01 -0.23003827182E+01 -0.17775660224E+03  0.17780725964E+03  0.00000000000E+00 0.  1.
        -15    1    1    2    0    0  0.17430808479E+01 -0.19379410433E+01 -0.29507147410E+01  0.43195361802E+01  0.17770000000E+01 0.  1.
         15    1    1    2    0    0 -0.59880654480E+01  0.33258573966E-01  0.81742703097E+01  0.10287587571E+02  0.17770000000E+01 0. -1.
</event>
<event>
 6    1  0.1697564E-002  0.1855752E+03  0.7546771E-02  0.1066033E+00
        -11   -1    0    0    0    0  0.00000000000E+00  0.00000000000E+00  0.18250000000E+03  0.18250000000E+03  0.00000000000E+00 0. -1.
         11   -1    0    0    0    0 -0.00000000000E+00 -0.00000000000E+00 -0.18250000000E+03  0.18250000000E+03  0.00000000000E+00 0.  1.
        -11    1    1    2    0    0 -0.13052397382E+02  0.87723715936E+01  0.11563636509E+03  0.11670085052E+03  0.00000000000E+00 0. -1.
         11    1    1    2    0    0 -0.17460796234E+01  0.31545675920E+01 -0.17938860480E+03  0.17942483558E+03  0.00000000000E+00 0.  1.
        -15    1    1    2    0    0  0.43885396261E+01  0.26776115461E+01  0.31157402736E+02  0.31628631932E+02  0.17770000000E+01 0.  1.
         15    1    1    2    0    0  0.10409937379E+02 -0.14604550732E+02  0.32594836977E+02  0.37245681963E+02  0.17770000000E+01 0. -1.
</event>
<event>
 6    1  0.1697564E-002  0.1844057E+03  0.7546771E-02  0.1066948E+00
        -11   -1    0    0    0    0  0.00000000000E+00  0.00000000000E+00  0.18250000000E+03  0.18250000000E+03  0.00000000000E+00 0.  1.
         11   -1    0    0    0    0 -0.00000000000E+00 -0.00000000000E+00 -0.18250000000E+03  0.18250000000E+03  0.00000000000E+00 0.  1.
        -11    1    1    2    0    0 -0.12533490087E+01 -0.19125709079E+01  0.16241551648E+03  0.16243161271E+03  0.00000000000E+00 0.  1.
         11    1    1    2    0    0  0.16705024248E+01  0.21137577283E+01 -0.18057425039E+03  0.18059434779E+03  0.00000000000E+00 0.  1.
        -15    1    1    2    0    0 -0.13353240999E+01 -0.49175216985E+01  0.34658353517E+01  0.64136459048E+01  0.17770000000E+01 0.  1.
         15    1    1    2    0    0  0.91817068378E+00  0.47163348781E+01  0.14692898553E+02  0.15560393599E+02  0.17770000000E+01 0.  1.
</event>
<event>
 6    1  0.1697564E-002  0.1827482E+03  0.7546771E-02  0.1068257E+00
        -11   -1    0    0    0    0  0.00000000000E+00  0.00000000000E+00  0.18250000000E+03  0.18250000000E+03  0.00000000000E+00 0.  1.
         11   -1    0    0    0    0 -0.00000000000E+00 -0.00000000000E+00 -0.18250000000E+03  0.18250000000E+03  0.00000000000E+00 0.  1.
        -11    1    1    2    0    0 -0.38289669306E+01  0.15215890332E+01  0.18220519154E+03  0.18225177104E+03  0.00000000000E+00 0.  1.
         11    1    1    2    0    0  0.11779159877E+01  0.31627590673E+01 -0.11921988671E+03  0.11926764824E+03  0.00000000000E+00 0.  1.
        -15    1    1    2    0    0  0.12328353520E+01 -0.31387919614E+00 -0.86276840249E+01  0.89001721213E+01  0.17770000000E+01 0.  1.
         15    1    1    2    0    0  0.14182155909E+01 -0.43704689044E+01 -0.54357620811E+02  0.54580408602E+02  0.17770000000E+01 0. -1.
</event>
<event>
 6    1  0.1697564E-002  0.1874996E+03  0.7546771E-02  0.1064543E+00
        -11   -1    0    0    0    0  0.00000000000E+00  0.00000000000E+00  0.18250000000E+03  0.18250000000E+03  0.00000000000E+00 0. -1.
         11   -1    0    0    0    0 -0.00000000000E+00 -0.00000000000E+00 -0.18250000000E+03  0.18250000000E+03  0.00000000000E+00 0.  1.
        -11    1    1    2    0    0  0.31960268419E+01  0.91377778449E+00  0.15427532516E+03  0.15431113223E+03  0.00000000000E+00 0. -1.
         11    1    1    2    0    0  0.31486312397E+01 -0.48845810716E+01 -0.17740526790E+03  0.17750042842E+03  0.00000000000E+00 0.  1.
        -15    1    1    2    0    0 -0.55787066192E+01 -0.11707845476E+01  0.26215986939E+02  0.26887327948E+02  0.17770000000E+01 0. -1.
         15    1    1    2    0    0 -0.76595146245E+00  0.51415878348E+01 -0.30860442005E+01  0.63011114030E+01  0.17770000000E+01 0. -1.
</event>
<event>
 6    1  0.1697564E-002  0.1930046E+03  0.7546771E-02  0.1060388E+00
        -11   -1    0    0    0    0  0.00000000000E+00  0.00000000000E+00  0.18250000000E+03  0.18250000000E+03  0.00000000000E+00 0. -1.
         11   -1    0    0    0    0 -0.00000000000E+00 -0.00000000000E+00 -0.18250000000E+03  0.18250000000E+03  0.00000000000E+00 0. -1.
        -11    1    1    2    0    0 -0.16469061548E+02 -0.10889513959E+02  0.86443470304E+02  0.88669527239E+02  0.00000000000E+00 0. -1.
         11    1    1    2    0    0 -0.19981810232E+02  0.42847527477E+02 -0.16536997671E+03  0.17199538525E+03  0.00000000000E+00 0. -1.
        -15    1    1    2    0    0  0.49049023878E+01 -0.23752623731E+02  0.69351362276E+01  0.25288318352E+02  0.17770000000E+01 0.  1.
         15    1    1    2    0    0  0.31545969392E+02 -0.82053897866E+01  0.71991370174E+02  0.79046769162E+02  0.17770000000E+01 0. -1.
</event>
<event>
 6    1  0.1697564E-002  0.1693146E+03  0.7546771E-02  0.1079463E+00
        -11   -1    0    0    0    0  0.00000000000E+00  0.00000000000E+00  0.18250000000E+03  0.18250000000E+03  0.00000000000E+00 0.  1.
         11   -1    0    0    0    0 -0.00000000000E+00 -0.00000000000E+00 -0.18250000000E+03  0.18250000000E+03  0.00000000000E+00 0. -1.
        -11    1    1    2    0    0  0.49578687631E+01  0.55838841240E+01  0.16615318824E+03  0.16632090123E+03  0.00000000000E+00 0.  1.
         11    1    1    2    0    0  0.81380201340E+00  0.73405583150E+01 -0.17250541565E+03  0.17266344286E+03  0.00000000000E+00 0. -1.
        -15    1    1    2    0    0 -0.13037874191E+02 -0.79449054473E+01  0.67375856193E+00  0.15385687037E+02  0.17770000000E+01 0. -1.
         15    1    1    2    0    0  0.72662034145E+01 -0.49795369917E+01  0.56784688536E+01  0.10629968873E+02  0.17770000000E+01 0.  1.
</event>
<event>
 6    1  0.1697564E-002  0.1016664E+03  0.7546771E-02  0.1160964E+00
        -11   -1    0    0    0    0  0.00000000000E+00  0.00000000000E+00  0.18250000000E+03  0.18250000000E+03  0.00000000000E+00 0. -1.
         11   -1    0    0    0    0 -0.00000000000E+00 -0.00000000000E+00 -0.18250000000E+03  0.18250000000E+03  0.00000000000E+00 0.  1.
        -11    1    1    2    0    0  0.40658272140E+01 -0.48026955526E+01  0.71713744163E+02  0.71989290435E+02  0.00000000000E+00 0. -1.
         11    1    1    2    0    0 -0.22812498608E+01  0.26794188884E+01 -0.97824836036E+02  0.97888109247E+02  0.00000000000E+00 0.  1.
        -15    1    1    2    0    0 -0.39977340048E+02 -0.19163197951E+01  0.10225485539E+03  0.10982291736E+03  0.17770000000E+01 0. -1.
         15    1    1    2    0    0  0.38192762694E+02  0.40395964593E+01 -0.76143763512E+02  0.85299682957E+02  0.17770000000E+01 0.  1.
</event>
<event>
 6    1  0.1697564E-002  0.1135627E+03  0.7546771E-02  0.1142231E+00
        -11   -1    0    0    0    0  0.00000000000E+00  0.00000000000E+00  0.18250000000E+03  0.18250000000E+03  0.00000000000E+00 0.  1.
         11   -1    0    0    0    0 -0.00000000000E+00 -0.00000000000E+00 -0.18250000000E+03  0.18250000000E+03  0.00000000000E+00 0. -1.
        -11    1    1    2    0    0 -0.14150591974E+01  0.14382791763E+01  0.12112229172E+03  0.12113909605E+03  0.00000000000E+00 0.  1.
         11    1    1    2    0    0  0.57696399067E+01  0.98582932072E+00 -0.75829936257E+02  0.76055504974E+02  0.00000000000E+00 0. -1.
        -15    1    1    2    0    0 -0.44172634447E+00 -0.37245203143E+01  0.61138837477E+02  0.61279542677E+02  0.17770000000E+01 0.  1.
         15    1    1    2    0    0 -0.39128543649E+01  0.13004118173E+01 -0.10643119294E+03  0.10652585630E+03  0.17770000000E+01 0.  1.
</event>
<event>
 6    1  0.2208214E-002  0.1917189E+03  0.7546771E-02  0.1061345E+00
        -11   -1    0    0    0    0  0.00000000000E+00  0.00000000000E+00  0.18250000000E+03  0.18250000000E+03  0.00000000000E+00 0.  1.
         11   -1    0    0    0    0 -0.00000000000E+00 -0.00000000000E+00 -0.18250000000E+03  0.18250000000E+03  0.00000000000E+00 0.  1.
        -11    1    1    2    0    0 -0.67146883214E+01  0.69630174168E+01  0.15415571604E+03  0.15445891182E+03  0.00000000000E+00 0.  1.
         11    1    1    2    0    0  0.50205664571E+01 -0.35550790520E+01 -0.17317185226E+03  0.17328108693E+03  0.00000000000E+00 0.  1.
        -15    1    1    2    0    0 -0.43367242017E+00  0.18377624648E+01 -0.86161831537E+01  0.89978766263E+01  0.17770000000E+01 0. -1.
         15    1    1    2    0    0  0.21277942845E+01 -0.52457008296E+01  0.27632319366E+02  0.28262124623E+02  0.17770000000E+01 0.  1.
</event>
<event>
 6    1  0.1697564E-002  0.1855008E+03  0.7546771E-02  0.1066091E+00
        -11   -1    0    0    0    0  0.00000000000E+00  0.00000000000E+00  0.18250000000E+03  0.18250000000E+03  0.00000000000E+00 0.  1.
         11   -1    0    0    0    0 -0.00000000000E+00 -0.00000000000E+00 -0.18250000000E+03  0.18250000000E+03  0.00000000000E+00 0. -1.
        -11    1    1    2    0    0 -0.67015896978E+01 -0.99840294685E+01  0.95445971075E+02  0.96200444611E+02  0.00000000000E+00 0.  1.
         11    1    1    2    0    0  0.32737505474E+01 -0.13000916466E+02 -0.17899780170E+03  0.17949917628E+03  0.00000000000E+00 0. -1.
        -15    1    1    2    0    0  0.21423268214E+01  0.21879136375E+01  0.47428448493E+02  0.47560403550E+02  0.17770000000E+01 0.  1.
         15    1    1    2    0    0  0.12855123290E+01  0.20797032297E+02  0.36123382130E+02  0.41739975561E+02  0.17770000000E+01 0. -1.
</event>
<event>
 6    1  0.1697564E-002  0.1860595E+03  0.7546771E-02  0.1065656E+00
        -11   -1    0    0    0    0  0.00000000000E+00  0.00000000000E+00  0.18250000000E+03  0.18250000000E+03  0.00000000000E+00 0.  1.
         11   -1    0    0    0    0 -0.00000000000E+00 -0.00000000000E+00 -0.18250000000E+03  0.18250000000E+03  0.00000000000E+00 0.  1.
        -11    1    1    2    0    0  0.94429498506E+01  0.12942691571E+01  0.17868648004E+03  0.17894050012E+03  0.00000000000E+00 0.  1.
         11    1    1    2    0    0 -0.21329674217E+01 -0.22579114897E+01 -0.13100976597E+03  0.13104658139E+03  0.00000000000E+00 0.  1.
        -15    1    1    2    0    0 -0.13098506808E+02  0.15164876372E+01 -0.94843005079E+01  0.16339531831E+02  0.17770000000E+01 0. -1.
         15    1    1    2    0    0  0.57885243787E+01 -0.55284530465E+00 -0.38192413567E+02  0.38673386656E+02  0.17770000000E+01 0.  1.
</event>
<event>
 6    1  0.1697564E-002  0.1667745E+03  0.7546771E-02  0.1081710E+00
        -11   -1    0    0    0    0  0.00000000000E+00  0.00000000000E+00  0.18250000000E+03  0.18250000000E+03  0.00000000000E+00 0.  1.
         11   -1    0    0    0    0 -0.00000000000E+00 -0.00000000000E+00 -0.18250000000E+03  0.18250000000E+03  0.00000000000E+00 0.  1.
        -11    1    1    2    0    0  0.51752613891E+01 -0.37920548474E+01  0.16613491997E+03  0.16625875809E+03  0.00000000000E+00 0.  1.
         11    1    1    2    0    0 -0.98324821532E+01 -0.55339592615E+01 -0.16707383683E+03  0.16745437995E+03  0.00000000000E+00 0.  1.
        -15    1    1    2    0    0  0.50871145509E+01  0.12953472007E+02 -0.11538435392E+02  0.18164922014E+02  0.17770000000E+01 0. -1.
         15    1    1    2    0    0 -0.42989378682E+00 -0.36274578985E+01  0.12477352257E+02  0.13121939941E+02  0.17770000000E+01 0.  1.
</event>
<event>
 6    1  0.1697564E-002  0.1680770E+03  0.7546771E-02  0.1080553E+00
        -11   -1    0    0    0    0  0.00000000000E+00  0.00000000000E+00  0.18250000000E+03  0.18250000000E+03  0.00000000000E+00 0.  1.
         11   -1    0    0    0    0 -0.00000000000E+00 -0.00000000000E+00 -0.18250000000E+03  0.18250000000E+03  0.00000000000E+00 0. -1.
        -11    1    1    2    0    0  0.31492961971E+01  0.33449315774E+00  0.16769688685E+03  0.16772678919E+03  0.00000000000E+00 0.  1.
         11    1    1    2    0    0 -0.20382020186E+01 -0.15784993380E+01 -0.16841229912E+03  0.16843202909E+03  0.00000000000E+00 0. -1.
        -15    1    1    2    0    0 -0.44664767971E+01 -0.10296539419E+01  0.14000414184E+02  0.14838427429E+02  0.17770000000E+01 0.  1.
         15    1    1    2    0    0  0.33553826186E+01  0.22736601222E+01 -0.13285001919E+02  0.14002754295E+02  0.17770000000E+01 0.  1.
</event>
<event>
 6    1  0.1697564E-002  0.1827699E+03  0.7546771E-02  0.1068240E+00
        -11   -1    0    0    0    0  0.00000000000E+00  0.00000000000E+00  0.18250000000E+03  0.18250000000E+03  0.00000000000E+00 0. -1.
         11   -1    0    0    0    0 -0.00000000000E+00 -0.00000000000E+00 -0.18250000000E+03  0.18250000000E+03  0.00000000000E+00 0. -1.
        -11    1    1    2    0    0  0.14249743563E+01 -0.24713205472E+01  0.18220772185E+03  0.18223005207E+03  0.00000000000E+00 0. -1.
         11    1    1    2    0    0 -0.23328848925E+01  0.12951332583E+00 -0.14874222919E+03  0.14876057902E+03  0.00000000000E+00 0. -1.
        -15    1    1    2    0    0 -0.14569219101E+01  0.15557949847E+01 -0.20530088906E+02  0.20716790267E+02  0.17770000000E+01 0.  1.
         15    1    1    2    0    0  0.23648324463E+01  0.78601223665E+00 -0.12935403754E+02  0.13292578644E+02  0.17770000000E+01 0.  1.
</event>
<event>
 6    1  0.1697564E-002  0.1837599E+03  0.7546771E-02  0.1067456E+00
        -11   -1    0    0    0    0  0.00000000000E+00  0.00000000000E+00  0.18250000000E+03  0.18250000000E+03  0.00000000000E+00 0.  1.
         11   -1    0    0    0    0 -0.00000000000E+00 -0.00000000000E+00 -0.18250000000E+03  0.18250000000E+03  0.00000000000E+00 0. -1.
        -11    1    1    2    0    0 -0.16616266541E+01  0.15938134784E+01  0.16831696642E+03  0.16833271349E+03  0.00000000000E+00 0.  1.
         11    1    1    2    0    0 -0.43021704026E+01 -0.82903552206E+00 -0.18118714006E+03  0.18124010509E+03  0.00000000000E+00 0. -1.
        -15    1    1    2    0    0  0.75313770543E+00 -0.15173706957E+01  0.18115902949E+01  0.30511012156E+01  0.17770000000E+01 0. -1.
         15    1    1    2    0    0  0.52106593513E+01  0.75259273934E+00  0.11058583341E+02  0.12376080204E+02  0.17770000000E+01 0. -1.
</event>
<event>
 6    1  0.1697564E-002  0.1837724E+03  0.7546771E-02  0.1067446E+00
        -11   -1    0    0    0    0  0.00000000000E+00  0.00000000000E+00  0.18250000000E+03  0.18250000000E+03  0.00000000000E+00 0. -1.
         11   -1    0    0    0    0 -0.00000000000E+00 -0.00000000000E+00 -0.18250000000E+03  0.18250000000E+03  0.00000000000E+00 0. -1.
        -11    1    1    2    0    0  0.82947045891E+00  0.15692167191E+01  0.19520901681E+02  0.19601430172E+02  0.00000000000E+00 0. -1.
         11    1    1    2    0    0  0.15454734030E+01 -0.51862485116E+01 -0.18114675580E+03  0.18122757185E+03  0.00000000000E+00 0. -1.
        -15    1    1    2    0    0 -0.52729708152E+01  0.48283387153E+01  0.95937450938E+01  0.12096063405E+02  0.17770000000E+01 0.  1.
         15    1    1    2    0    0  0.28980269533E+01 -0.12113069227E+01  0.15203210902E+03  0.15207493458E+03  0.17770000000E+01 0. -1.
</event>
<event>
 6    1  0.1697564E-002  0.1954328E+03  0.7546771E-02  0.1058602E+00
        -11   -1    0    0    0    0  0.00000000000E+00  0.00000000000E+00  0.18250000000E+03  0.18250000000E+03  0.00000000000E+00 0.  1.
         11   -1    0    0    0    0 -0.00000000000E+00 -0.00000000000E+00 -0.18250000000E+03  0.18250000000E+03  0.00000000000E+00 0. -1.
        -11    1    1    2    0    0  0.48019923086E+01 -0.26388018273E+01  0.16210163746E+03  0.16219421467E+03  0.00000000000E+00 0.  1.
         11    1    1    2    0    0 -0.11761136163E+02 -0.50837430357E+01 -0.16908246640E+03  0.16956724098E+03  0.00000000000E+00 0. -1.
        -15    1    1    2    0    0  0.67726382844E+01 -0.11348760171E+02  0.25154198621E+01  0.13570116169E+02  0.17770000000E+01 0.  1.
         15    1    1    2    0    0  0.18650556979E+00  0.19071305034E+02  0.44654090839E+01  0.19668428186E+02  0.17770000000E+01 0. -1.
</event>
<event>
 6    1  0.1697564E-002  0.1854775E+03  0.7546771E-02  0.1066109E+00
        -11   -1    0    0    0    0  0.00000000000E+00  0.00000000000E+00  0.18250000000E+03  0.18250000000E+03  0.00000000000E+00 0. -1.
         11   -1    0    0    0    0 -0.00000000000E+00 -0.00000000000E+00 -0.18250000000E+03  0.18250000000E+03  0.00000000000E+00 0. -1.
        -11    1    1    2    0    0 -0.21970817608E+00 -0.36285276378E+01  0.14404983313E+03  0.14409569358E+03  0.00000000000E+00 0. -1.
         11    1    1    2    0    0  0.80101979439E+01  0.15857273706E+02 -0.17864130012E+03  0.17952250697E+03  0.00000000000E+00 0. -1.
        -15    1    1    2    0    0 -0.59326349130E-01  0.30441480636E+01  0.14521594321E+02  0.14943386084E+02  0.17770000000E+01 0. -1.
         15    1    1    2    0    0 -0.77311634187E+01 -0.15272894132E+02  0.20069872675E+02  0.26438413363E+02  0.17770000000E+01 0. -1.
</event>
<event>
 6    1  0.1697564E-002  0.1934736E+03  0.7546771E-02  0.1060041E+00
        -11   -1    0    0    0    0  0.00000000000E+00  0.00000000000E+00  0.18250000000E+03  0.18250000000E+03  0.00000000000E+00 0. -1.
         11   -1    0    0    0    0 -0.00000000000E+00 -0.00000000000E+00 -0.18250000000E+03  0.18250000000E+03  0.00000000000E+00 0.  1.
        -11    1    1    2    0    0 -0.52306344087E+00 -0.74100864720E+00  0.32196494919E+02  0.32209268452E+02  0.00000000000E+00 0. -1.
         11    1    1    2    0    0 -0.32066738634E+01 -0.10867770172E+00 -0.17149640280E+03  0.17152641413E+03  0.00000000000E+00 0.  1.
        -15    1    1    2    0    0 -0.46238057093E+01  0.26453066311E+01 -0.10128603672E+02  0.11581172987E+02  0.17770000000E+01 0.  1.
         15    1    1    2    0    0  0.83535430136E+01 -0.17956202821E+01  0.14942851156E+03  0.14968314444E+03  0.17770000000E+01 0. -1.
</event>
<event>
 6    1  0.1697564E-002  0.1845056E+03  0.7546771E-02  0.1066869E+00
        -11   -1    0    0    0    0  0.00000000000E+00  0.00000000000E+00  0.18250000000E+03  0.18250000000E+03  0.00000000000E+00 0. -1.
         11   -1    0    0    0    0 -0.00000000000E+00 -0.00000000000E+00 -0.18250000000E+03  0.18250000000E+03  0.00000000000E+00 0.  1.
        -11    1    1    2    0    0  0.28511377775E+01  0.68638303540E+00  0.18047058301E+03  0.18049440833E+03  0.00000000000E+00 0. -1.
         11    1    1    2    0    0 -0.69000541210E+00  0.22502059015E+01 -0.16900591909E+03  0.16902230687E+03  0.00000000000E+00 0.  1.
        -15    1    1    2    0    0  0.24206193123E+00 -0.15757432065E+01 -0.11929922446E+02  0.12166443162E+02  0.17770000000E+01 0.  1.
         15    1    1    2    0    0 -0.24031942967E+01 -0.13608457304E+01  0.46525852645E+00  0.33168416341E+01  0.17770000000E+01 0.  1.
</event>
<event>
 6    1  0.1697564E-002  0.1850709E+03  0.7546771E-02  0.1066427E+00
        -11   -1    0    0    0    0  0.00000000000E+00  0.00000000000E+00  0.18250000000E+03  0.18250000000E+03  0.00000000000E+00 0.  1.
         11   -1    0    0    0    0 -0.00000000000E+00 -0.00000000000E+00 -0.18250000000E+03  0.18250000000E+03  0.00000000000E+00 0. -1.
        -11    1    1    2    0    0  0.26020835160E+01 -0.34767083026E+01  0.16921661790E+03  0.16927233121E+03  0.00000000000E+00 0.  1.
         11    1    1    2    0    0  0.32369826550E+01  0.56653599441E+01 -0.17981074751E+03  0.17992909515E+03  0.00000000000E+00 0. -1.
        -15    1    1    2    0    0 -0.30074773376E+01  0.35295451465E+01  0.33927781959E+01  0.60142565429E+01  0.17770000000E+01 0. -1.
         15    1    1    2    0    0 -0.28315888334E+01 -0.57181967880E+01  0.72013514175E+01  0.97843170976E+01  0.17770000000E+01 0.  1.
</event>
<event>
 6    1  0.1697564E-002  0.1837918E+03  0.7546771E-02  0.1067431E+00
        -11   -1    0    0    0    0  0.00000000000E+00  0.00000000000E+00  0.18250000000E+03  0.18250000000E+03  0.00000000000E+00 0. -1.
         11   -1    0    0    0    0 -0.00000000000E+00 -0.00000000000E+00 -0.18250000000E+03  0.18250000000E+03  0.00000000000E+00 0.  1.
        -11    1    1    2    0    0  0.53666195063E+01  0.25498990563E+00  0.15327578214E+03  0.15336991562E+03  0.00000000000E+00 0. -1.
         11    1    1    2    0    0  0.37557118809E+01 -0.17773279575E+01 -0.18116053905E+03  0.18120818187E+03  0.00000000000E+00 0.  1.
        -15    1    1    2    0    0  0.43414022980E+00  0.54854261751E+00  0.20492936322E+01  0.28011979818E+01  0.17770000000E+01 0. -1.
         15    1    1    2    0    0 -0.95564716169E+01  0.97379543433E+00  0.25835463274E+02  0.27620704533E+02  0.17770000000E+01 0.  1.
</event>
<event>
 6    1  0.1697564E-002  0.1830388E+03  0.7546771E-02  0.1068027E+00
        -11   -1    0    0    0    0  0.00000000000E+00  0.00000000000E+00  0.18250000000E+03  0.18250000000E+03  0.00000000000E+00 0. -1.
         11   -1    0    0    0    0 -0.00000000000E+00 -0.00000000000E+00 -0.18250000000E+03  0.18250000000E+03  0.00000000000E+00 0.  1.
        -11    1    1    2    0    0 -0.54228694787E+01  0.44171331687E+00  0.18187981357E+03  0.18196117501E+03  0.00000000000E+00 0. -1.
         11    1    1    2    0    0  0.16092134732E+01 -0.26273024697E+01 -0.15796207527E+03  0.15799211850E+03  0.00000000000E+00 0.  1.
        -15    1    1    2    0    0 -0.66127472060E-02  0.73914761484E+00 -0.14515669422E+02  0.14642703668E+02  0.17770000000E+01 0.  1.
         15    1    1    2    0    0  0.38202687527E+01  0.14464415380E+01 -0.94020688846E+01  0.10404002825E+02  0.17770000000E+01 0.  1.
</event>
<event>
 6    1  0.1697564E-002  0.1843738E+03  0.7546771E-02  0.1066973E+00
        -11   -1    0    0    0    0  0.00000000000E+00  0.00000000000E+00  0.18250000000E+03  0.18250000000E+03  0.00000000000E+00 0.  1.
         11   -1    0    0    0    0 -0.00000000000E+00 -0.00000000000E+00 -0.18250000000E+03  0.18250000000E+03  0.00000000000E+00 0. -1.
        -11    1    1    2    0    0 -0.13450012065E+01  0.46323226735E+01  0.16080496295E+03  0.16087729346E+03  0.00000000000E+00 0.  1.
         11    1    1    2    0    0  0.29863321138E+01  0.33073607723E+01 -0.18057124900E+03  0.18062622395E+03  0.00000000000E+00 0. -1.
        -15    1    1    2    0    0 -0.22708329053E+01 -0.22231594336E+01  0.98167821703E+00  0.37710132687E+01  0.17770000000E+01 0.  1.
         15    1    1    2    0    0  0.62950199804E+00 -0.57165240122E+01  0.18784607829E+02  0.19725469319E+02  0.17770000000E+01 0. -1.
</event>
<event>
 6    1  0.1705413E-002  0.1844772E+03  0.7546771E-02  0.1066892E+00
        -11   -1    0    0    0    0  0.00000000000E+00  0.00000000000E+00  0.18250000000E+03  0.18250000000E+03  0.00000000000E+00 0.  1.
         11   -1    0    0    0    0 -0.00000000000E+00 -0.00000000000E+00 -0.18250000000E+03  0.18250000000E+03  0.00000000000E+00 0.  1.
        -11    1    1    2    0    0 -0.57161806323E+01 -0.49426090873E+01  0.18036461721E+03  0.18052284965E+03  0.00000000000E+00 0.  1.
         11    1    1    2    0    0 -0.12184355870E+01  0.19732239472E+01 -0.12826334245E+03  0.12828430619E+03  0.00000000000E+00 0.  1.
        -15    1    1    2    0    0  0.13604699496E+01 -0.27071383120E+01 -0.45682348010E+02  0.45817181548E+02  0.17770000000E+01 0.  1.
         15    1    1    2    0    0  0.55741462698E+01  0.56765234520E+01 -0.64189267473E+01  0.10375662616E+02  0.17770000000E+01 0. -1.
</event>
<event>
 6    1  0.1697564E-002  0.1838878E+03  0.7546771E-02  0.1067355E+00
        -11   -1    0    0    0    0  0.00000000000E+00  0.00000000000E+00  0.18250000000E+03  0.18250000000E+03  0.00000000000E+00 0. -1.
         11   -1    0    0    0    0 -0.00000000000E+00 -0.00000000000E+00 -0.18250000000E+03  0.18250000000E+03  0.00000000000E+00 0.  1.
        -11    1    1    2    0    0  0.25940883125E+01  0.46399913520E+01  0.17341716551E+03  0.17349862278E+03  0.00000000000E+00 0. -1.
         11    1    1    2    0    0  0.61472022264E+00 -0.37643040852E+01 -0.18107205736E+03  0.18111222439E+03  0.00000000000E+00 0.  1.
        -15    1    1    2    0    0 -0.24522187306E+01  0.12913905079E+01  0.64589735810E+01  0.72496299813E+01  0.17770000000E+01 0. -1.
         15    1    1    2    0    0 -0.75658980448E+00 -0.21670777747E+01  0.11959182665E+01  0.31395228481E+01  0.17770000000E+01 0.  1.
</event>
<event>
 6    1  0.1697564E-002  0.1836400E+03  0.7546771E-02  0.1067551E+00
        -11   -1    0    0    0    0  0.00000000000E+00  0.00000000000E+00  0.18250000000E+03  0.18250000000E+03  0.00000000000E+00 0.  1.
         11   -1    0    0    0    0 -0.00000000000E+00 -0.00000000000E+00 -0.18250000000E+03  0.18250000000E+03  0.00000000000E+00 0.  1.
        -11    1    1    2    0    0  0.15007231585E+01  0.39693295940E+00  0.11381327032E+03  0.11382385614E+03  0.00000000000E+00 0.  1.
         11    1    1    2    0    0  0.38300040118E+01  0.35164264165E+01 -0.18128544465E+03  0.18135999180E+03  0.00000000000E+00 0.  1.
        -15    1    1    2    0    0 -0.10938780797E+02 -0.30296431849E+01  0.51656380688E+02  0.52918570067E+02  0.17770000000E+01 0.  1.
         15    1    1    2    0    0  0.56080536269E+01 -0.88371619096E+00  0.15815793641E+02  0.16897581995E+02  0.17770000000E+01 0. -1.
</event>
<event>
 6    1  0.1697564E-002  0.1937682E+03  0.7546771E-02  0.1059823E+00
        -11   -1    0    0    0    0  0.00000000000E+00  0.00000000000E+00  0.18250000000E+03  0.18250000000E+03  0.00000000000E+00 0. -1.
         11   -1    0    0    0    0 -0.00000000000E+00 -0.00000000000E+00 -0.18250000000E+03  0.18250000000E+03  0.00000000000E+00 0.  1.
        -11    1    1    2    0    0  0.48601187235E+00 -0.19430655012E+01  0.30522920614E+02  0.30588566392E+02  0.00000000000E+00 0. -1.
         11    1    1    2    0    0 -0.20834327181E+02  0.26395055382E+02 -0.16789748164E+03  0.17123180919E+03  0.00000000000E+00 0.  1.
        -15    1    1    2    0    0  0.14948954728E+02 -0.14438449320E+02  0.14681532031E+03  0.14828970319E+03  0.17770000000E+01 0. -1.
         15    1    1    2    0    0  0.53993605812E+01 -0.10013540561E+02 -0.94407592791E+01  0.14889921223E+02  0.17770000000E+01 0.  1.
</event>
<event>
 6    1  0.1697564E-002  0.1904393E+03  0.7546771E-02  0.1062305E+00
        -11   -1    0    0    0    0  0.00000000000E+00  0.00000000000E+00  0.18250000000E+03  0.18250000000E+03  0.00000000000E+00 0. -1.
         11   -1    0    0    0    0 -0.00000000000E+00 -0.00000000000E+00 -0.18250000000E+03  0.18250000000E+03  0.00000000000E+00 0. -1.
        -11    1    1    2    0    0  0.39754294358E+01 -0.98228210361E-01  0.17451539400E+03  0.17456069555E+03  0.00000000000E+00 0. -1.
         11    1    1    2    0    0 -0.11151287440E+01 -0.24818530903E+02 -0.13329028363E+03  0.13558577617E+03  0.00000000000E+00 0. -1.
        -15    1    1    2    0    0  0.11307410314E+02  0.76264691702E+01 -0.15135821294E+02  0.20451683922E+02  0.17770000000E+01 0.  1.
         15    1    1    2    0    0 -0.14167711005E+02  0.17290289943E+02 -0.26089289080E+02  0.34401844357E+02  0.17770000000E+01 0. -1.
</event>
<event>
 6    1  0.1697564E-002  0.1855025E+03  0.7546771E-02  0.1066090E+00
        -11   -1    0    0    0    0  0.00000000000E+00  0.00000000000E+00  0.18250000000E+03  0.18250000000E+03  0.00000000000E+00 0.  1.
         11   -1    0    0    0    0 -0.00000000000E+00 -0.00000000000E+00 -0.18250000000E+03  0.18250000000E+03  0.00000000000E+00 0.  1.
        -11    1    1    2    0    0 -0.20167726456E+01  0.19325145711E+01  0.17947572665E+03  0.17949746082E+03  0.00000000000E+00 0.  1.
         11    1    1    2    0    0  0.36622779421E+01  0.56790009342E+01 -0.17391282319E+03  0.17404405592E+03  0.00000000000E+00 0.  1.
        -15    1    1    2    0    0  0.15602484214E+01 -0.12483160395E+01 -0.14570607775E+01  0.30452295776E+01  0.17770000000E+01 0. -1.
         15    1    1    2    0    0 -0.32057537179E+01 -0.63631994658E+01 -0.41058426864E+01  0.84132536814E+01  0.17770000000E+01 0.  1.
</event>
<event>
 6    1  0.1697564E-002  0.2028508E+03  0.7546771E-02  0.1053319E+00
        -11   -1    0    0    0    0  0.00000000000E+00  0.00000000000E+00  0.18250000000E+03  0.18250000000E+03  0.00000000000E+00 0.  1.
         11   -1    0    0    0    0 -0.00000000000E+00 -0.00000000000E+00 -0.18250000000E+03  0.18250000000E+03  0.00000000000E+00 0. -1.
        -11    1    1    2    0    0  0.13275420586E+01  0.17422337676E+01  0.16213439796E+03  0.16214919287E+03  0.00000000000E+00 0.  1.
         11    1    1    2    0    0 -0.17159451689E+01 -0.20099464818E+02 -0.13986485211E+03  0.14131210072E+03  0.00000000000E+00 0. -1.
        -15    1    1    2    0    0  0.74105732681E+01  0.25425809158E-01  0.16428459907E+02  0.18109921771E+02  0.17770000000E+01 0.  1.
         15    1    1    2    0    0 -0.70221701578E+01  0.18331805241E+02 -0.38698005751E+02  0.43428784639E+02  0.17770000000E+01 0. -1.
</event>
<event>
 6    1  0.1697564E-002  0.1827860E+03  0.7546771E-02  0.1068227E+00
        -11   -1    0    0    0    0  0.00000000000E+00  0.00000000000E+00  0.18250000000E+03  0.18250000000E+03  0.00000000000E+00 0.  1.
         11   -1    0    0    0    0 -0.00000000000E+00 -0.00000000000E+00 -0.18250000000E+03  0.18250000000E+03  0.00000000000E+00 0.  1.
        -11    1    1    2    0    0 -0.80991855607E+01  0.76284534913E+01  0.18187399336E+03  0.18221399389E+03  0.00000000000E+00 0.  1.
         11    1    1    2    0    0  0.23779666849E+01 -0.48611915352E+01 -0.68836447768E+02  0.69048841048E+02  0.00000000000E+00 0.  1.
        -15    1    1    2    0    0  0.23636019269E+01 -0.40561231592E+01 -0.20247120489E+02  0.20860066305E+02  0.17770000000E+01 0. -1.
         15    1    1    2    0    0  0.33576169490E+01  0.12888612031E+01 -0.92790425099E+02  0.92877098759E+02  0.17770000000E+01 0.  1.
</event>
<event>
 6    1  0.1697564E-002  0.1851402E+03  0.7546771E-02  0.1066372E+00
        -11   -1    0    0    0    0  0.00000000000E+00  0.00000000000E+00  0.18250000000E+03  0.18250000000E+03  0.00000000000E+00 0. -1.
         11   -1    0    0    0    0 -0.00000000000E+00 -0.00000000000E+00 -0.18250000000E+03  0.18250000000E+03  0.00000000000E+00 0.  1.
        -11    1    1    2    0    0  0.18914698714E+01  0.19086492321E+01  0.17983969326E+03  0.17985976724E+03  0.00000000000E+00 0. -1.
         11    1    1    2    0    0  0.59532242242E+00  0.12571013973E+01 -0.17663857402E+02  0.17718537497E+02  0.00000000000E+00 0.  1.
        -15    1    1    2    0    0 -0.88523234627E+01 -0.24146657330E+01 -0.60046014660E+01  0.11108879739E+02  0.17770000000E+01 0. -1.
         15    1    1    2    0    0  0.63655311689E+01 -0.75108489643E+00 -0.15617123439E+03  0.15631281552E+03  0.17770000000E+01 0.  1.
</event>
<event>
 6    1  0.1697564E-002  0.1842939E+03  0.7546771E-02  0.1067036E+00
        -11   -1    0    0    0    0  0.00000000000E+00  0.00000000000E+00  0.18250000000E+03  0.18250000000E+03  0.00000000000E+00 0. -1.
         11   -1    0    0    0    0 -0.00000000000E+00 -0.00000000000E+00 -0.18250000000E+03  0.18250000000E+03  0.00000000000E+00 0.  1.
        -11    1    1    2    0    0  0.21769290257E+01  0.79827554301E+01  0.15048215392E+03  0.15070946239E+03  0.00000000000E+00 0. -1.
         11    1    1    2    0    0  0.13022632192E+01 -0.37318990123E+01 -0.18066290954E+03  0.18070614224E+03  0.00000000000E+00 0.  1.
        -15    1    1    2    0    0  0.89676534122E+00 -0.71840895400E+01  0.24608601021E+02  0.25712959841E+02  0.17770000000E+01 0.  1.
         15    1    1    2    0    0 -0.43759575861E+01  0.29332331221E+01  0.55721545997E+01  0.78714355252E+01  0.17770000000E+01 0. -1.
</event>
<event>
 6    1  0.1697564E-002  0.1795995E+03  0.7546771E-02  0.1070787E+00
        -11   -1    0    0    0    0  0.00000000000E+00  0.00000000000E+00  0.18250000000E+03  0.18250000000E+03  0.00000000000E+00 0. -1.
         11   -1    0    0    0    0 -0.00000000000E+00 -0.00000000000E+00 -0.18250000000E+03  0.18250000000E+03  0.00000000000E+00 0. -1.
        -11    1    1    2    0    0 -0.28557780723E+01  0.37637631765E+00  0.17967742724E+03  0.17970051471E+03  0.00000000000E+00 0. -1.
         11    1    1    2    0    0  0.19573619410E+01  0.23305305685E+01 -0.17948400780E+03  0.17950980947E+03  0.00000000000E+00 0. -1.
        -15    1    1    2    0    0 -0.45992640095E+00 -0.22377979640E+01 -0.13891389422E+01  0.32104062084E+01  0.17770000000E+01 0. -1.
         15    1    1    2    0    0  0.13583425322E+01 -0.46910892220E+00  0.11957194973E+01  0.25792696121E+01  0.17770000000E+01 0. -1.
</event>
<event>
 6    1  0.1697564E-002  0.1881742E+03  0.7546771E-02  0.1064026E+00
        -11   -1    0    0    0    0  0.00000000000E+00  0.00000000000E+00  0.18250000000E+03  0.18250000000E+03  0.00000000000E+00 0. -1.
         11   -1    0    0    0    0 -0.00000000000E+00 -0.00000000000E+00 -0.18250000000E+03  0.18250000000E+03  0.00000000000E+00 0.  1.
        -11    1    1    2    0    0  0.13508531571E+01 -0.15020409715E+01  0.55020871302E+02  0.55057944115E+02  0.00000000000E+00 0. -1.
         11    1    1    2    0    0 -0.62123474108E+01 -0.92726145201E+01 -0.17647317593E+03  0.17682577997E+03  0.00000000000E+00 0.  1.
        -15    1    1    2    0    0  0.14636732949E+02  0.14331728440E+01  0.46583915722E+01  0.15528885242E+02  0.17770000000E+01 0.  1.
         15    1    1    2    0    0 -0.97752386958E+01  0.93414826476E+01  0.11679391305E+03  0.11758739067E+03  0.17770000000E+01 0. -1.
</event>
<event>
 6    1  0.1697564E-002  0.1863519E+03  0.7546771E-02  0.1065429E+00
        -11   -1    0    0    0    0  0.00000000000E+00  0.00000000000E+00  0.18250000000E+03  0.18250000000E+03  0.00000000000E+00 0. -1.
         11   -1    0    0    0    0 -0.00000000000E+00 -0.00000000000E+00 -0.18250000000E+03  0.18250000000E+03  0.00000000000E+00 0.  1.
        -11    1    1    2    0    0 -0.33332267911E+01  0.26340582788E+01  0.17010837473E+03  0.17016141695E+03  0.00000000000E+00 0. -1.
         11    1    1    2    0    0  0.13531323547E+01  0.31899338790E+01 -0.17861450981E+03  0.17864811715E+03  0.00000000000E+00 0.  1.
        -15    1    1    2    0    0 -0.42037898704E+01  0.32172441629E+00  0.45513289880E+01  0.64535014087E+01  0.17770000000E+01 0.  1.
         15    1    1    2    0    0  0.61838843068E+01 -0.61457165741E+01  0.39548060955E+01  0.97369644953E+01  0.17770000000E+01 0. -1.
</event>
<event>
 6    1  0.1697564E-002  0.1827134E+03  0.7546771E-02  0.1068285E+00
        -11   -1    0    0    0    0  0.00000000000E+00  0.00000000000E+00  0.18250000000E+03  0.18250000000E+03  0.00000000000E+00 0.  1.
         11   -1    0    0    0    0 -0.00000000000E+00 -0.00000000000E+00 -0.18250000000E+03  0.18250000000E+03  0.00000000000E+00 0. -1.
        -11    1    1    2    0    0 -0.99828402049E+00  0.82996105316E+00  0.52932782629E+02  0.52948700486E+02  0.00000000000E+00 0.  1.
         11    1    1    2    0    0 -0.89020757435E+00  0.66570131411E+01 -0.18216282352E+03  0.18228659458E+03  0.00000000000E+00 0. -1.
        -15    1    1    2    0    0  0.17424247504E+01 -0.46535681572E+01  0.11592174197E+03  0.11604180165E+03  0.17770000000E+01 0.  1.
         15    1    1    2    0    0  0.14606684445E+00 -0.28334060371E+01  0.13308298918E+02  0.13722903278E+02  0.17770000000E+01 0. -1.
</event>
<event>
 6    1  0.1697564E-002  0.1841186E+03  0.7546771E-02  0.1067174E+00
        -11   -1    0    0    0    0  0.00000000000E+00  0.00000000000E+00  0.18250000000E+03  0.18250000000E+03  0.00000000000E+00 0.  1.
         11   -1    0    0    0    0 -0.00000000000E+00 -0.00000000000E+00 -0.18250000000E+03  0.18250000000E+03  0.00000000000E+00 0.  1.
        -11    1    1    2    0    0  0.23055032333E+01 -0.18184670230E+00  0.16675982825E+03  0.16677586376E+03  0.00000000000E+00 0.  1.
         11    1    1    2    0    0  0.27076637868E+01  0.85722286340E+00 -0.18085911678E+03  0.18088141528E+03  0.00000000000E+00 0.  1.
        -15    1    1    2    0    0 -0.56557188703E+01 -0.39799319703E+00  0.14237811097E+02  0.15427849765E+02  0.17770000000E+01 0. -1.
         15    1    1    2    0    0  0.64255185020E+00 -0.27738296407E+00 -0.13852257295E+00  0.19148711947E+01  0.17770000000E+01 0. -1.
</event>
<event>
 6    1  0.1697564E-002  0.1838404E+03  0.7546771E-02  0.1067393E+00
        -11   -1    0    0    0    0  0.00000000000E+00  0.00000000000E+00  0.18250000000E+03  0.18250000000E+03  0.00000000000E+00 0.  1.
         11   -1    0    0    0    0 -0.00000000000E+00 -0.00000000000E+00 -0.18250000000E+03  0.18250000000E+03  0.00000000000E+00 0. -1.
        -11    1    1    2    0    0  0.38329417545E+00  0.26919301056E+01  0.14225704303E+03  0.14228302673E+03  0.00000000000E+00 0.  1.
         11    1    1    2    0    0  0.25640916135E+01  0.46062949643E+00 -0.18114088789E+03  0.18115962026E+03  0.00000000000E+00 0. -1.
        -15    1    1    2    0    0  0.18960197100E+01 -0.30420969084E+01  0.34656295174E+02  0.34886469706E+02  0.17770000000E+01 0.  1.
         15    1    1    2    0    0 -0.48434054990E+01 -0.11046269357E+00  0.42275496822E+01  0.66708833110E+01  0.17770000000E+01 0.  1.
</event>
<event>
 6    1  0.1697564E-002  0.2009444E+03  0.7546771E-02  0.1054653E+00
        -11   -1    0    0    0    0  0.00000000000E+00  0.00000000000E+00  0.18250000000E+03  0.18250000000E+03  0.00000000000E+00 0.  1.
         11   -1    0    0    0    0 -0.00000000000E+00 -0.00000000000E+00 -0.18250000000E+03  0.18250000000E+03  0.00000000000E+00 0. -1.
        -11    1    1    2    0    0  0.86394714449E+01 -0.17440361120E+00  0.16382788631E+03  0.16405562233E+03  0.00000000000E+00 0.  1.
         11    1    1    2    0    0 -0.52383425943E+01 -0.46533134395E+01 -0.12329599520E+03  0.12349492294E+03  0.00000000000E+00 0. -1.
        -15    1    1    2    0    0  0.15564754708E+02 -0.13495553132E+02  0.80129077020E+01  0.22175571296E+02  0.17770000000E+01 0.  1.
         15    1    1    2    0    0 -0.18965883558E+02  0.18323270183E+02 -0.48544798816E+02  0.55273883439E+02  0.17770000000E+01 0. -1.
</event>
<event>
 6    1  0.1697564E-002  0.1837278E+03  0.7546771E-02  0.1067482E+00
        -11   -1    0    0    0    0  0.00000000000E+00  0.00000000000E+00  0.18250000000E+03  0.18250000000E+03  0.00000000000E+00 0. -1.
         11   -1    0    0    0    0 -0.00000000000E+00 -0.00000000000E+00 -0.18250000000E+03  0.18250000000E+03  0.00000000000E+00 0. -1.
        -11    1    1    2    0    0  0.27217196806E+01 -0.27266096997E+01  0.18123127603E+03  0.18127221952E+03  0.00000000000E+00 0. -1.
         11    1    1    2    0    0  0.70132241732E-01  0.41402913801E+01 -0.16133340136E+03  0.16138653391E+03  0.00000000000E+00 0. -1.
        -15    1    1    2    0    0  0.25845709793E+01 -0.28515300070E+01 -0.97540638507E+01  0.10635352422E+02  0.17770000000E+01 0. -1.
         15    1    1    2    0    0 -0.53764229016E+01  0.14378483265E+01 -0.10143810815E+02  0.11705894151E+02  0.17770000000E+01 0.  1.
</event>
<event>
 6    1  0.1697564E-002  0.1831159E+03  0.7546771E-02  0.1067966E+00
        -11   -1    0    0    0    0  0.00000000000E+00  0.00000000000E+00  0.18250000000E+03  0.18250000000E+03  0.00000000000E+00 0. -1.
         11   -1    0    0    0    0 -0.00000000000E+00 -0.00000000000E+00 -0.18250000000E+03  0.18250000000E+03  0.00000000000E+00 0.  1.
        -11    1    1    2    0    0 -0.26071806911E+01 -0.33786410122E+00  0.18186512407E+03  0.18188412492E+03  0.00000000000E+00 0. -1.
         11    1    1    2    0    0 -0.21063478373E+01 -0.46500050794E+01 -0.10492324641E+03  0.10504735544E+03  0.00000000000E+00 0.  1.
        -15    1    1    2    0    0  0.17431569341E+01  0.25058153452E+01 -0.68703557708E+02  0.68794289570E+02  0.17770000000E+01 0.  1.
         15    1    1    2    0    0  0.29703715943E+01  0.24820538354E+01 -0.82383199601E+01  0.92742300713E+01  0.17770000000E+01 0.  1.
</event>
<event>
 6    1  0.1697564E-002  0.1668562E+03  0.7546771E-02  0.1081637E+00
        -11   -1    0    0    0    0  0.00000000000E+00  0.00000000000E+00  0.18250000000E+03  0.18250000000E+03  0.00000000000E+00 0.  1.
         11   -1    0    0    0    0 -0.00000000000E+00 -0.00000000000E+00 -0.18250000000E+03  0.18250000000E+03  0.00000000000E+00 0. -1.
        -11    1    1    2    0    0  0.55337129171E+01 -0.10362533521E+01  0.16761959678E+03  0.16771411695E+03  0.00000000000E+00 0.  1.
         11    1    1    2    0    0  0.22691150526E+01  0.83015190916E+00 -0.16607562494E+03  0.16609320045E+03  0.00000000000E+00 0. -1.
        -15    1    1    2    0    0  0.47443539241E+01 -0.64716640773E+01 -0.11218866801E+02  0.13907265417E+02  0.17770000000E+01 0. -1.
         15    1    1    2    0    0 -0.12547181894E+02  0.66777655202E+01  0.96748949593E+01  0.17285417186E+02  0.17770000000E+01 0.  1.
</event>
<event>
 6    1  0.1697564E-002  0.1924178E+03  0.7546771E-02  0.1060823E+00
        -11   -1    0    0    0    0  0.00000000000E+00  0.00000000000E+00  0.18250000000E+03  0.18250000000E+03  0.00000000000E+00 0.  1.
         11   -1    0    0    0    0 -0.00000000000E+00 -0.00000000000E+00 -0.18250000000E+03  0.18250000000E+03  0.00000000000E+00 0. -1.
        -11    1    1    2    0    0  0.43063229927E+00 -0.72619905735E+01  0.15675030821E+03  0.15691902713E+03  0.00000000000E+00 0.  1.
         11    1    1    2    0    0 -0.20936108699E+01  0.10303954333E+01 -0.17256642057E+03  0.17258219615E+03  0.00000000000E+00 0. -1.
        -15    1    1    2    0    0  0.67020159126E+00  0.67857537802E+01  0.25052452763E+02  0.26024579592E+02  0.17770000000E+01 0. -1.
         15    1    1    2    0    0  0.99277697941E+00 -0.55415863999E+00 -0.92363404074E+01  0.94741971190E+01  0.17770000000E+01 0. -1.
</event>
<event>
 6    1  0.1697564E-002  0.1839304E+03  0.7546771E-02  0.1067322E+00
        -11   -1    0    0    0    0  0.00000000000E+00  0.00000000000E+00  0.18250000000E+03  0.18250000000E+03  0.00000000000E+00 0.  1.
         11   -1    0    0    0    0 -0.00000000000E+00 -0.00000000000E+00 -0.18250000000E+03  0.18250000000E+03  0.00000000000E+00 0. -1.
        -11    1    1    2    0    0 -0.23681511780E+01 -0.32199807776E+01  0.14492908375E+03  0.14498419132E+03  0.00000000000E+00 0.  1.
         11    1    1    2    0    0  0.79666359060E+00 -0.55094200253E+01 -0.18098397135E+03  0.18106956196E+03  0.00000000000E+00 0. -1.
        -15    1    1    2    0    0  0.23190026453E+01  0.24504065864E+00  0.23435491001E+02  0.23618166432E+02  0.17770000000E+01 0.  1.
         15    1    1    2    0    0 -0.74751505793E+00  0.84843601443E+01  0.12619396604E+02  0.15328080293E+02  0.17770000000E+01 0. -1.
</event>
<event>
 6    1  0.1697564E-002  0.1840028E+03  0.7546771E-02  0.1067265E+00
        -11   -1    0    0    0    0  0.00000000000E+00  0.00000000000E+00  0.18250000000E+03  0.18250000000E+03  0.00000000000E+00 0.  1.
         11   -1    0    0    0    0 -0.00000000000E+00 -0.00000000000E+00 -0.18250000000E+03  0.18250000000E+03  0.00000000000E+00 0.  1.
        -11    1    1    2    0    0 -0.18173567144E+01  0.14067383251E+01  0.12207472880E+03  0.12209635994E+03  0.00000000000E+00 0.  1.
         11    1    1    2    0    0 -0.49471422436E+00 -0.95513502906E+01 -0.18074430240E+03  0.18099717093E+03  0.00000000000E+00 0.  1.
        -15    1    1    2    0    0  0.29400567070E+01  0.55127363290E+01  0.51508729695E+01  0.82899587829E+01  0.17770000000E+01 0.  1.
         15    1    1    2    0    0 -0.62798576830E+00  0.26318756365E+01  0.53518700633E+02  0.53616510348E+02  0.17770000000E+01 0. -1.
</event>
<event>
 6    1  0.1697564E-002  0.1838667E+03  0.7546771E-02  0.1067372E+00
        -11   -1    0    0    0    0  0.00000000000E+00  0.00000000000E+00  0.18250000000E+03  0.18250000000E+03  0.00000000000E+00 0. -1.
         11   -1    0    0    0    0 -0.00000000000E+00 -0.00000000000E+00 -0.18250000000E+03  0.18250000000E+03  0.00000000000E+00 0.  1.
        -11    1    1    2    0    0 -0.10583071608E+01  0.12479392783E+01  0.70639204399E+02  0.70658152854E+02  0.00000000000E+00 0. -1.
         11    1    1    2    0    0  0.92916844399E+01  0.77456769817E+00 -0.18089321154E+03  0.18113334684E+03  0.00000000000E+00 0.  1.
        -15    1    1    2    0    0 -0.15741265912E+02 -0.60306089720E+01  0.76150644472E+02  0.78014319708E+02  0.17770000000E+01 0. -1.
         15    1    1    2    0    0  0.75078886331E+01  0.40081019955E+01  0.34103362673E+02  0.35194180597E+02  0.17770000000E+01 0.  1.
</event>
<event>
 6    1  0.1697564E-002  0.1849614E+03  0.7546771E-02  0.1066512E+00
        -11   -1    0    0    0    0  0.00000000000E+00  0.00000000000E+00  0.18250000000E+03  0.18250000000E+03  0.00000000000E+00 0.  1.
         11   -1    0    0    0    0 -0.00000000000E+00 -0.00000000000E+00 -0.18250000000E+03  0.18250000000E+03  0.00000000000E+00 0.  1.
        -11    1    1    2    0    0  0.25460201265E+01 -0.10888341454E+01  0.15869045459E+03  0.15871461229E+03  0.00000000000E+00 0.  1.
         11    1    1    2    0    0 -0.20269216574E+01  0.31761786354E+01 -0.17999912146E+03  0.18003855212E+03  0.00000000000E+00 0.  1.
        -15    1    1    2    0    0  0.68691461088E+01  0.67903467716E+00  0.84266226157E+01  0.11036845295E+02  0.17770000000E+01 0.  1.
         15    1    1    2    0    0 -0.73882445779E+01 -0.27663791672E+01  0.12882044255E+02  0.15209990297E+02  0.17770000000E+01 0. -1.
</event>
<event>
 6    1  0.1697564E-002  0.1826550E+03  0.7546771E-02  0.1068332E+00
        -11   -1    0    0    0    0  0.00000000000E+00  0.00000000000E+00  0.18250000000E+03  0.18250000000E+03  0.00000000000E+00 0. -1.
         11   -1    0    0    0    0 -0.00000000000E+00 -0.00000000000E+00 -0.18250000000E+03  0.18250000000E+03  0.00000000000E+00 0. -1.
        -11    1    1    2    0    0 -0.23270991197E+01  0.62201942653E+00  0.11657358301E+03  0.11659846721E+03  0.00000000000E+00 0. -1.
         11    1    1    2    0    0  0.38843558904E+01 -0.54640085378E+00 -0.18230282311E+03  0.18234501937E+03  0.00000000000E+00 0. -1.
        -15    1    1    2    0    0 -0.33130700334E+01  0.80858300884E+00  0.33991314745E+02  0.34208148833E+02  0.17770000000E+01 0. -1.
         15    1    1    2    0    0  0.17558132627E+01 -0.88420158159E+00  0.31737925351E+02  0.31848364593E+02  0.17770000000E+01 0. -1.
</event>
<event>
 6    1  0.1697564E-002  0.1866949E+03  0.7546771E-02  0.1065164E+00
        -11   -1    0    0    0    0  0.00000000000E+00  0.00000000000E+00  0.18250000000E+03  0.18250000000E+03  0.00000000000E+00 0.  1.
         11   -1    0    0    0    0 -0.00000000000E+00 -0.00000000000E+00 -0.18250000000E+03  0.18250000000E+03  0.00000000000E+00 0.  1.
        -11    1    1    2    0    0  0.55214714532E+01 -0.11232621135E+01  0.17821604013E+03  0.17830509057E+03  0.00000000000E+00 0.  1.
         11    1    1    2    0    0 -0.12674877559E+01 -0.18465271479E+01 -0.15793130357E+03  0.15794718369E+03  0.00000000000E+00 0.  1.
        -15    1    1    2    0    0 -0.56393457695E+01  0.17682663927E+01  0.18682685503E+01  0.64480340508E+01  0.17770000000E+01 0.  1.
         15    1    1    2    0    0  0.13853620722E+01  0.12015228687E+01 -0.22153005104E+02  0.22299691689E+02  0.17770000000E+01 0.  1.
</event>
<event>
 6    1  0.1697564E-002  0.1877743E+03  0.7546771E-02  0.1064332E+00
        -11   -1    0    0    0    0  0.00000000000E+00  0.00000000000E+00  0.18250000000E+03  0.18250000000E+03  0.00000000000E+00 0.  1.
         11   -1    0    0    0    0 -0.00000000000E+00 -0.00000000000E+00 -0.18250000000E+03  0.18250000000E+03  0.00000000000E+00 0. -1.
        -11    1    1    2    0    0 -0.24978624920E+00 -0.50321111408E+01  0.16581338619E+03  0.16588991403E+03  0.00000000000E+00 0.  1.
         11    1    1    2    0    0 -0.81702608130E+01 -0.33797487364E-01 -0.17703721999E+03  0.17722565155E+03  0.00000000000E+00 0. -1.
        -15    1    1    2    0    0  0.95939795255E+01  0.63666485650E+00  0.16120633607E+00  0.97792383015E+01  0.17770000000E+01 0.  1.
         15    1    1    2    0    0 -0.11739324633E+01  0.44292437717E+01  0.11062627461E+02  0.12105196122E+02  0.17770000000E+01 0. -1.
</event>
<event>
 6    1  0.1697564E-002  0.1792398E+03  0.7546771E-02  0.1071080E+00
        -11   -1    0    0    0    0  0.00000000000E+00  0.00000000000E+00  0.18250000000E+03  0.18250000000E+03  0.00000000000E+00 0.  1.
         11   -1    0    0    0    0 -0.00000000000E+00 -0.00000000000E+00 -0.18250000000E+03  0.18250000000E+03  0.00000000000E+00 0. -1.
        -11    1    1    2    0    0 -0.13392103847E+01  0.29472346850E+01  0.17949236050E+03  0.17952155067E+03  0.00000000000E+00 0.  1.
         11    1    1    2    0    0 -0.31379442280E+01 -0.23045668384E+01 -0.17894463431E+03  0.17898698241E+03  0.00000000000E+00 0. -1.
        -15    1    1    2    0    0  0.22993723166E+01  0.88618560034E+00 -0.11258051725E+01  0.32400006566E+01  0.17770000000E+01 0. -1.
         15    1    1    2    0    0  0.21777822961E+01 -0.15288534469E+01  0.57807898847E+00  0.32514662705E+01  0.17770000000E+01 0.  1.
</event>
<event>
 6    1  0.1697564E-002  0.1828554E+03  0.7546771E-02  0.1068172E+00
        -11   -1    0    0    0    0  0.00000000000E+00  0.00000000000E+00  0.18250000000E+03  0.18250000000E+03  0.00000000000E+00 0.  1.
         11   -1    0    0    0    0 -0.00000000000E+00 -0.00000000000E+00 -0.18250000000E+03  0.18250000000E+03  0.00000000000E+00 0. -1.
        -11    1    1    2    0    0  0.86259622707E+00 -0.97831582073E+00  0.90042740394E+02  0.90052186380E+02  0.00000000000E+00 0.  1.
         11    1    1    2    0    0 -0.51544006020E+01  0.38039814641E+00 -0.18207126011E+03  0.18214460274E+03  0.00000000000E+00 0. -1.
        -15    1    1    2    0    0  0.12637023793E+01  0.10837527456E+01  0.38624943588E+01  0.45659670815E+01  0.17770000000E+01 0.  1.
         15    1    1    2    0    0  0.30281019956E+01 -0.48583507128E+00  0.88166025357E+02  0.88237243802E+02  0.17770000000E+01 0. -1.
</event>
<event>
 6    1  0.1697564E-002  0.1837334E+03  0.7546771E-02  0.1067477E+00
        -11   -1    0    0    0    0  0.00000000000E+00  0.00000000000E+00  0.18250000000E+03  0.18250000000E+03  0.00000000000E+00 0.  1.
         11   -1    0    0    0    0 -0.00000000000E+00 -0.00000000000E+00 -0.18250000000E+03  0.18250000000E+03  0.00000000000E+00 0.  1.
        -11    1    1    2    0    0 -0.74417178980E+00 -0.42632588755E+01  0.15054027365E+03  0.15060246731E+03  0.00000000000E+00 0.  1.
         11    1    1    2    0    0 -0.16297410428E+01  0.39292878206E+01 -0.18121666407E+03  0.18126658460E+03  0.00000000000E+00 0.  1.
        -15    1    1    2    0    0  0.41024101550E+01 -0.49064149794E+01  0.14498631420E+02  0.15945868402E+02  0.17770000000E+01 0. -1.
         15    1    1    2    0    0 -0.17284973224E+01  0.52403860343E+01  0.16177758993E+02  0.17185079686E+02  0.17770000000E+01 0.  1.
</event>
<event>
 6    1  0.1697564E-002  0.1920410E+03  0.7546771E-02  0.1061104E+00
        -11   -1    0    0    0    0  0.00000000000E+00  0.00000000000E+00  0.18250000000E+03  0.18250000000E+03  0.00000000000E+00 0.  1.
         11   -1    0    0    0    0 -0.00000000000E+00 -0.00000000000E+00 -0.18250000000E+03  0.18250000000E+03  0.00000000000E+00 0. -1.
        -11    1    1    2    0    0  0.26578698594E+01  0.11127027997E+02  0.17258026665E+03  0.17295902249E+03  0.00000000000E+00 0.  1.
         11    1    1    2    0    0 -0.85740465795E+01 -0.25255024813E+01 -0.16609438179E+03  0.16633471105E+03  0.00000000000E+00 0. -1.
        -15    1    1    2    0    0  0.85213961693E+01 -0.30187828276E+01 -0.13409583089E+02  0.16269661645E+02  0.17770000000E+01 0. -1.
         15    1    1    2    0    0 -0.26052194493E+01 -0.55827426881E+01  0.69236982317E+01  0.94366048187E+01  0.17770000000E+01 0.  1.
</event>
<event>
 6    1  0.1697564E-002  0.1835394E+03  0.7546771E-02  0.1067630E+00
        -11   -1    0    0    0    0  0.00000000000E+00  0.00000000000E+00  0.18250000000E+03  0.18250000000E+03  0.00000000000E+00 0.  1.
         11   -1    0    0    0    0 -0.00000000000E+00 -0.00000000000E+00 -0.18250000000E+03  0.18250000000E+03  0.00000000000E+00 0.  1.
        -11    1    1    2    0    0  0.37181675813E+01 -0.42610152528E+01  0.18137244893E+03  0.18146059146E+03  0.00000000000E+00 0.  1.
         11    1    1    2    0    0 -0.18166117894E+01 -0.45292382724E+01 -0.89974232918E+02  0.90106474057E+02  0.00000000000E+00 0.  1.
        -15    1    1    2    0    0  0.90349816341E+00  0.60152891904E+01 -0.87111728160E+02  0.87341919632E+02  0.17770000000E+01 0.  1.
         15    1    1    2    0    0 -0.28050539553E+01  0.27749643348E+01 -0.42864878569E+01  0.60910148496E+01  0.17770000000E+01 0. -1.
</event>
<event>
 6    1  0.1697564E-002  0.1885743E+03  0.7546771E-02  0.1063720E+00
        -11   -1    0    0    0    0  0.00000000000E+00  0.00000000000E+00  0.18250000000E+03  0.18250000000E+03  0.00000000000E+00 0. -1.
         11   -1    0    0    0    0 -0.00000000000E+00 -0.00000000000E+00 -0.18250000000E+03  0.18250000000E+03  0.00000000000E+00 0.  1.
        -11    1    1    2    0    0  0.12191691476E+01 -0.11033266302E+02  0.17607610714E+03  0.17642566379E+03  0.00000000000E+00 0. -1.
         11    1    1    2    0    0 -0.49937384023E+00 -0.31800277480E+01 -0.14939062572E+03  0.14942530242E+03  0.00000000000E+00 0.  1.
        -15    1    1    2    0    0  0.39368582472E+01  0.84740632372E+01  0.17883392897E+01  0.96780414868E+01  0.17770000000E+01 0. -1.
         15    1    1    2    0    0 -0.46566535545E+01  0.57392308124E+01 -0.28473820711E+02  0.29470992307E+02  0.17770000000E+01 0.  1.
</event>
<event>
 6    1  0.1697564E-002  0.1713512E+03  0.7546771E-02  0.1077693E+00
        -11   -1    0    0    0    0  0.00000000000E+00  0.00000000000E+00  0.18250000000E+03  0.18250000000E+03  0.00000000000E+00 0. -1.
         11   -1    0    0    0    0 -0.00000000000E+00 -0.00000000000E+00 -0.18250000000E+03  0.18250000000E+03  0.00000000000E+00 0.  1.
        -11    1    1    2    0    0 -0.33804549611E+01  0.19398039982E+00  0.17026999230E+03  0.17030365640E+03  0.00000000000E+00 0. -1.
         11    1    1    2    0    0  0.28727938743E+01  0.34712773074E+01 -0.17236618963E+03  0.17242507370E+03  0.00000000000E+00 0.  1.
        -15    1    1    2    0    0 -0.26743374637E+01 -0.11108372846E+02  0.60931359689E+01  0.13070274025E+02  0.17770000000E+01 0.  1.
         15    1    1    2    0    0  0.31819985506E+01  0.74431151385E+01 -0.39969386365E+01  0.92009958811E+01  0.17770000000E+01 0. -1.
</event>
<event>
 6    1  0.1697564E-002  0.1737434E+03  0.7546771E-02  0.1075647E+00
        -11   -1    0    0    0    0  0.00000000000E+00  0.00000000000E+00  0.18250000000E+03  0.18250000000E+03  0.00000000000E+00 0.  1.
         11   -1    0    0    0    0 -0.00000000000E+00 -0.00000000000E+00 -0.18250000000E+03  0.18250000000E+03  0.00000000000E+00 0. -1.
        -11    1    1    2    0    0 -0.37859737647E+01  0.48641786836E+00  0.17329560054E+03  0.17333763401E+03  0.00000000000E+00 0.  1.
         11    1    1    2    0    0  0.46672709057E+01 -0.30117177617E+01 -0.17407167935E+03  0.17416028081E+03  0.00000000000E+00 0. -1.
        -15    1    1    2    0    0  0.32235129989E+01  0.44095561488E+01  0.73514684540E+01  0.93293643360E+01  0.17770000000E+01 0.  1.
         15    1    1    2    0    0 -0.41048101399E+01 -0.18842562555E+01 -0.65753896429E+01  0.81727208368E+01  0.17770000000E+01 0. -1.
</event>
<event>
 6    1  0.1697564E-002  0.1626674E+03  0.7546771E-02  0.1085438E+00
        -11   -1    0    0    0    0  0.00000000000E+00  0.00000000000E+00  0.18250000000E+03  0.18250000000E+03  0.00000000000E+00 0. -1.
         11   -1    0    0    0    0 -0.00000000000E+00 -0.00000000000E+00 -0.18250000000E+03  0.18250000000E+03  0.00000000000E+00 0. -1.
        -11    1    1    2    0    0  0.40538600779E+02  0.16173394504E+02  0.16941163996E+03  0.17494359261E+03  0.00000000000E+00 0. -1.
         11    1    1    2    0    0 -0.73615898541E+00  0.24070605655E+00 -0.47553144983E+02  0.47559451923E+02  0.00000000000E+00 0. -1.
        -15    1    1    2    0    0 -0.47628818282E+02 -0.45276904669E+01 -0.50016522922E+02  0.69237378677E+02  0.17770000000E+01 0. -1.
         15    1    1    2    0    0  0.78263764880E+01 -0.11886410094E+02 -0.71841972052E+02  0.73259576788E+02  0.17770000000E+01 0.  1.
</event>
<event>
 6    1  0.1697564E-002  0.1900197E+03  0.7546771E-02  0.1062622E+00
        -11   -1    0    0    0    0  0.00000000000E+00  0.00000000000E+00  0.18250000000E+03  0.18250000000E+03  0.00000000000E+00 0. -1.
         11   -1    0    0    0    0 -0.00000000000E+00 -0.00000000000E+00 -0.18250000000E+03  0.18250000000E+03  0.00000000000E+00 0.  1.
        -11    1    1    2    0    0 -0.81909363838E+01 -0.46844924340E+01  0.17472569401E+03  0.17498029619E+03  0.00000000000E+00 0. -1.
         11    1    1    2    0    0 -0.23693709806E+01 -0.52075027648E-01 -0.15031658010E+03  0.15033526161E+03  0.00000000000E+00 0.  1.
        -15    1    1    2    0    0 -0.14106619282E+01  0.34176765917E+01  0.58060455917E+01  0.71090347287E+01  0.17770000000E+01 0. -1.
         15    1    1    2    0    0  0.11970969293E+02  0.13188908699E+01 -0.30215159507E+02  0.32575407472E+02  0.17770000000E+01 0.  1.
</event>
<event>
 6    1  0.1697564E-002  0.1853623E+03  0.7546771E-02  0.1066199E+00
        -11   -1    0    0    0    0  0.00000000000E+00  0.00000000000E+00  0.18250000000E+03  0.18250000000E+03  0.00000000000E+00 0. -1.
         11   -1    0    0    0    0 -0.00000000000E+00 -0.00000000000E+00 -0.18250000000E+03  0.18250000000E+03  0.00000000000E+00 0. -1.
        -11    1    1    2    0    0 -0.20850359397E+01  0.20603083287E+01  0.17456685329E+03  0.17459146174E+03  0.00000000000E+00 0. -1.
         11    1    1    2    0    0 -0.41582265338E+01 -0.17834221885E+01 -0.17958073245E+03  0.17963772129E+03  0.00000000000E+00 0. -1.
        -15    1    1    2    0    0 -0.91594525672E+00  0.40729568898E+00  0.51717853603E+00  0.21047679515E+01  0.17770000000E+01 0. -1.
         15    1    1    2    0    0  0.71592077302E+01 -0.68418182917E+00  0.44967006211E+01  0.86660490176E+01  0.17770000000E+01 0. -1.
</event>
<event>
 6    1  0.1697564E-002  0.1830927E+03  0.7546771E-02  0.1067984E+00
        -11   -1    0    0    0    0  0.00000000000E+00  0.00000000000E+00  0.18250000000E+03  0.18250000000E+03  0.00000000000E+00 0.  1.
         11   -1    0    0    0    0 -0.00000000000E+00 -0.00000000000E+00 -0.18250000000E+03  0.18250000000E+03  0.00000000000E+00 0. -1.
        -11    1    1    2    0    0  0.32239550369E+01  0.25601737214E+00  0.12642985834E+03  0.12647121614E+03  0.00000000000E+00 0.  1.
         11    1    1    2    0    0 -0.35215654796E+00  0.31119145419E+01 -0.18188038781E+03  0.18190734866E+03  0.00000000000E+00 0. -1.
        -15    1    1    2    0    0 -0.98569921753E+00 -0.25295356007E+01  0.42425557547E+01  0.53410824404E+01  0.17770000000E+01 0.  1.
         15    1    1    2    0    0 -0.18860992714E+01 -0.83839631327E+00  0.51207973714E+02  0.51280352765E+02  0.17770000000E+01 0. -1.
</event>
<event>
 6    1  0.1697564E-002  0.1900493E+03  0.7546771E-02  0.1062599E+00
        -11   -1    0    0    0    0  0.00000000000E+00  0.00000000000E+00  0.18250000000E+03  0.18250000000E+03  0.00000000000E+00 0.  1.
         11   -1    0    0    0    0 -0.00000000000E+00 -0.00000000000E+00 -0.18250000000E+03  0.18250000000E+03  0.00000000000E+00 0. -1.
        -11    1    1    2    0    0  0.33925858510E+01  0.34499296887E+01  0.14724773479E+03  0.14732721085E+03  0.00000000000E+00 0.  1.
         11    1    1    2    0    0  0.78702242392E+01  0.11413704311E+01 -0.17476986696E+03  0.17495070606E+03  0.00000000000E+00 0. -1.
        -15    1    1    2    0    0 -0.31566778744E+01 -0.17218119002E+01  0.32420379323E+02  0.32667537034E+02  0.17770000000E+01 0.  1.
         15    1    1    2    0    0 -0.81061322157E+01 -0.28694882196E+01 -0.48982471610E+01  0.10054546056E+02  0.17770000000E+01 0.  1.
</event>
<event>
 6    1  0.1697564E-002  0.1833319E+03  0.7546771E-02  0.1067795E+00
        -11   -1    0    0    0    0  0.00000000000E+00  0.00000000000E+00  0.18250000000E+03  0.18250000000E+03  0.00000000000E+00 0. -1.
         11   -1    0    0    0    0 -0.00000000000E+00 -0.00000000000E+00 -0.18250000000E+03  0.18250000000E+03  0.00000000000E+00 0.  1.
        -11    1    1    2    0    0  0.14397051438E+01 -0.24327850128E+01  0.18164605588E+03  0.18166805115E+03  0.00000000000E+00 0. -1.
         11    1    1    2    0    0  0.14160788841E+01 -0.11335232004E+00 -0.98504557354E+02  0.98514800653E+02  0.00000000000E+00 0.  1.
        -15    1    1    2    0    0  0.16826085597E+01  0.77794940872E+01 -0.26514773802E+02  0.27740631907E+02  0.17770000000E+01 0. -1.
         15    1    1    2    0    0 -0.45383925876E+01 -0.52333567543E+01 -0.56626724719E+02  0.57076516288E+02  0.17770000000E+01 0.  1.
</event>
<event>
 6    1  0.1697564E-002  0.1740892E+03  0.7546771E-02  0.1075354E+00
        -11   -1    0    0    0    0  0.00000000000E+00  0.00000000000E+00  0.18250000000E+03  0.18250000000E+03  0.00000000000E+00 0. -1.
         11   -1    0    0    0    0 -0.00000000000E+00 -0.00000000000E+00 -0.18250000000E+03  0.18250000000E+03  0.00000000000E+00 0.  1.
        -11    1    1    2    0    0  0.11611964687E+01  0.23422791496E+01  0.17378109388E+03  0.17380075730E+03  0.00000000000E+00 0. -1.
         11    1    1    2    0    0 -0.47546720154E+00 -0.43166320205E+01 -0.17433031418E+03  0.17438439673E+03  0.00000000000E+00 0.  1.
        -15    1    1    2    0    0  0.63301637545E+01  0.44527388911E+01 -0.28592641648E+01  0.84398446286E+01  0.17770000000E+01 0.  1.
         15    1    1    2    0    0 -0.70158930217E+01 -0.24783860202E+01  0.34084844593E+01  0.83750013412E+01  0.17770000000E+01 0. -1.
</event>
<event>
 6    1  0.1697564E-002  0.1825716E+03  0.7546771E-02  0.1068398E+00
        -11   -1    0    0    0    0  0.00000000000E+00  0.00000000000E+00  0.18250000000E+03  0.18250000000E+03  0.00000000000E+00 0.  1.
         11   -1    0    0    0    0 -0.00000000000E+00 -0.00000000000E+00 -0.18250000000E+03  0.18250000000E+03  0.00000000000E+00 0.  1.
        -11    1    1    2    0    0  0.86016911063E+00  0.35500836562E+00  0.22795373907E+02  0.22814359369E+02  0.00000000000E+00 0.  1.
         11    1    1    2    0    0 -0.36104048525E+00  0.25340274205E+01 -0.18241039742E+03  0.18242835506E+03  0.00000000000E+00 0.  1.
        -15    1    1    2    0    0 -0.11935753036E+01  0.95106516410E+00  0.43377843470E+02  0.43441042576E+02  0.17770000000E+01 0.  1.
         15    1    1    2    0    0  0.69444667823E+00 -0.38401009503E+01  0.11623718004E+03  0.11631624299E+03  0.17770000000E+01 0.  1.
</event>
<event>
 6    1  0.1697564E-002  0.1834950E+03  0.7546771E-02  0.1067665E+00
        -11   -1    0    0    0    0  0.00000000000E+00  0.00000000000E+00  0.18250000000E+03  0.18250000000E+03  0.00000000000E+00 0. -1.
         11   -1    0    0    0    0 -0.00000000000E+00 -0.00000000000E+00 -0.18250000000E+03  0.18250000000E+03  0.00000000000E+00 0. -1.
        -11    1    1    2    0    0 -0.55782129389E+01 -0.50536046885E+01  0.18134881389E+03  0.18150495222E+03  0.00000000000E+00 0. -1.
         11    1    1    2    0    0 -0.67316379484E+01  0.14736138973E+01 -0.12024931165E+03  0.12044659996E+03  0.00000000000E+00 0. -1.
        -15    1    1    2    0    0  0.10082028979E+02  0.38599137755E+01 -0.32211704999E+02  0.34019081566E+02  0.17770000000E+01 0.  1.
         15    1    1    2    0    0  0.22278219086E+01 -0.27992298432E+00 -0.28887797237E+02  0.29029366261E+02  0.17770000000E+01 0. -1.
</event>
<event>
 6    1  0.1697564E-002  0.1987416E+03  0.7546771E-02  0.1056215E+00
        -11   -1    0    0    0    0  0.00000000000E+00  0.00000000000E+00  0.18250000000E+03  0.18250000000E+03  0.00000000000E+00 0. -1.
         11   -1    0    0    0    0 -0.00000000000E+00 -0.00000000000E+00 -0.18250000000E+03  0.18250000000E+03  0.00000000000E+00 0. -1.
        -11    1    1    2    0    0 -0.64820589139E+01  0.33317086162E+01  0.16609858996E+03  0.16625841019E+03  0.00000000000E+00 0. -1.
         11    1    1    2    0    0  0.61848157262E+00 -0.20087232117E+01 -0.14022066055E+03  0.14023641158E+03  0.00000000000E+00 0. -1.
        -15    1    1    2    0    0  0.73521181204E+01 -0.57521372480E+01  0.14763571097E+02  0.17557376920E+02  0.17770000000E+01 0. -1.
         15    1    1    2    0    0 -0.14885407791E+01  0.44291518436E+01 -0.40641500508E+02  0.40947801311E+02  0.17770000000E+01 0. -1.
</event>
<event>
 6    1  0.1697564E-002  0.1848057E+03  0.7546771E-02  0.1066634E+00
        -11   -1    0    0    0    0  0.00000000000E+00  0.00000000000E+00  0.18250000000E+03  0.18250000000E+03  0.00000000000E+00 0.  1.
         11   -1    0    0    0    0 -0.00000000000E+00 -0.00000000000E+00 -0.18250000000E+03  0.18250000000E+03  0.00000000000E+00 0.  1.
        -11    1    1    2    0    0  0.71599770286E+01  0.21828657694E+01  0.12086882105E+03  0.12110038016E+03  0.00000000000E+00 0.  1.
         11    1    1    2    0    0 -0.23991556146E+01 -0.82147527862E+00 -0.18017646785E+03  0.18019431272E+03  0.00000000000E+00 0.  1.
        -15    1    1    2    0    0  0.15496013063E+01  0.13126276243E+01 -0.10780960230E+01  0.29059035640E+01  0.17770000000E+01 0. -1.
         15    1    1    2    0    0 -0.63104227203E+01 -0.26740181151E+01  0.60385742820E+02  0.60799403556E+02  0.17770000000E+01 0. -1.
</event>
<event>
 6    1  0.1697564E-002  0.1847002E+03  0.7546771E-02  0.1066717E+00
        -11   -1    0    0    0    0  0.00000000000E+00  0.00000000000E+00  0.18250000000E+03  0.18250000000E+03  0.00000000000E+00 0. -1.
         11   -1    0    0    0    0 -0.00000000000E+00 -0.00000000000E+00 -0.18250000000E+03  0.18250000000E+03  0.00000000000E+00 0. -1.
        -11    1    1    2    0    0  0.33034723612E+01 -0.29065980404E+01  0.17294623025E+03  0.17300219594E+03  0.00000000000E+00 0. -1.
         11    1    1    2    0    0  0.64542377919E-01 -0.36863116788E+01 -0.18026213624E+03  0.18029983588E+03  0.00000000000E+00 0. -1.
        -15    1    1    2    0    0 -0.59375098780E+00  0.44470144067E+01  0.23598232040E+01  0.53716824109E+01  0.17770000000E+01 0.  1.
         15    1    1    2    0    0 -0.27742637513E+01  0.21458953124E+01  0.49560827827E+01  0.63262857668E+01  0.17770000000E+01 0. -1.
</event>
<event>
 6    1  0.1697564E-002  0.1857013E+03  0.7546771E-02  0.1065935E+00
        -11   -1    0    0    0    0  0.00000000000E+00  0.00000000000E+00  0.18250000000E+03  0.18250000000E+03  0.00000000000E+00 0.  1.
         11   -1    0    0    0    0 -0.00000000000E+00 -0.00000000000E+00 -0.18250000000E+03  0.18250000000E+03  0.00000000000E+00 0. -1.
        -11    1    1    2    0    0 -0.48203519296E+01 -0.27864064663E+01  0.17921219327E+03  0.17929866165E+03  0.00000000000E+00 0.  1.
         11    1    1    2    0    0 -0.27448289129E+01 -0.61503909203E+01 -0.15724962817E+03  0.15739379579E+03  0.00000000000E+00 0. -1.
        -15    1    1    2    0    0  0.31820483574E+01 -0.26424180418E+01 -0.24363251816E+01  0.51187121668E+01  0.17770000000E+01 0. -1.
         15    1    1    2    0    0  0.43831324850E+01  0.11579215428E+02 -0.19526239918E+02  0.23188830386E+02  0.17770000000E+01 0.  1.
</event>
<event>
 6    1  0.1697564E-002  0.1827634E+03  0.7546771E-02  0.1068245E+00
        -11   -1    0    0    0    0  0.00000000000E+00  0.00000000000E+00  0.18250000000E+03  0.18250000000E+03  0.00000000000E+00 0.  1.
         11   -1    0    0    0    0 -0.00000000000E+00 -0.00000000000E+00 -0.18250000000E+03  0.18250000000E+03  0.00000000000E+00 0.  1.
        -11    1    1    2    0    0 -0.13795395195E-01 -0.19283389327E+01  0.10767471925E+03  0.10769198600E+03  0.00000000000E+00 0.  1.
         11    1    1    2    0    0  0.39054595736E+01  0.30756022605E+00 -0.18219449551E+03  0.18223660829E+03  0.00000000000E+00 0.  1.
        -15    1    1    2    0    0 -0.21020606784E+01  0.86257987014E+00  0.67690927456E+02  0.67752358571E+02  0.17770000000E+01 0. -1.
         15    1    1    2    0    0 -0.17896035000E+01  0.75819883648E+00  0.68288487984E+01  0.73190471425E+01  0.17770000000E+01 0.  1.
</event>
<event>
 6    1  0.1697564E-002  0.1834925E+03  0.7546771E-02  0.1067667E+00
        -11   -1    0    0    0    0  0.00000000000E+00  0.00000000000E+00  0.18250000000E+03  0.18250000000E+03  0.00000000000E+00 0. -1.
         11   -1    0    0    0    0 -0.00000000000E+00 -0.00000000000E+00 -0.18250000000E+03  0.18250000000E+03  0.00000000000E+00 0.  1.
        -11    1    1    2    0    0  0.26504896371E+01  0.29800297302E+01  0.13389137129E+03  0.13395075580E+03  0.00000000000E+00 0. -1.
         11    1    1    2    0    0 -0.16128957666E+01  0.66260602621E+01 -0.18137931811E+03  0.18150747408E+03  0.00000000000E+00 0.  1.
        -15    1    1    2    0    0  0.16157627381E+01 -0.82212616711E+01  0.18991148761E+02  0.20833177697E+02  0.17770000000E+01 0. -1.
         15    1    1    2    0    0 -0.26533566086E+01 -0.13848283212E+01  0.28496798057E+02  0.28708592429E+02  0.17770000000E+01 0.  1.
</event>
<event>
 6    1  0.1697564E-002  0.1865205E+03  0.7546771E-02  0.1065299E+00
        -11   -1    0    0    0    0  0.00000000000E+00  0.00000000000E+00  0.18250000000E+03  0.18250000000E+03  0.00000000000E+00 0. -1.
         11   -1    0    0    0    0 -0.00000000000E+00 -0.00000000000E+00 -0.18250000000E+03  0.18250000000E+03  0.00000000000E+00 0. -1.
        -11    1    1    2    0    0  0.20541773014E+01  0.26274561406E+01  0.17844832517E+03  0.17847948881E+03  0.00000000000E+00 0. -1.
         11    1    1    2    0    0  0.28446824370E+01  0.13940558612E+01 -0.16182033972E+03  0.16185134525E+03  0.00000000000E+00 0. -1.
        -15    1    1    2    0    0  0.56085648583E+01 -0.38996465560E+01 -0.38845778413E+01  0.80567311632E+01  0.17770000000E+01 0. -1.
         15    1    1    2    0    0 -0.10507424597E+02 -0.12186544571E+00 -0.12743407606E+02  0.16612434778E+02  0.17770000000E+01 0.  1.
</event>
<event>
 6    1  0.1697564E-002  0.2003082E+03  0.7546771E-02  0.1055102E+00
        -11   -1    0    0    0    0  0.00000000000E+00  0.00000000000E+00  0.18250000000E+03  0.18250000000E+03  0.00000000000E+00 0.  1.
         11   -1    0    0    0    0 -0.00000000000E+00 -0.00000000000E+00 -0.18250000000E+03  0.18250000000E+03  0.00000000000E+00 0.  1.
        -11    1    1    2    0    0  0.16004720242E+02 -0.28785664724E+01  0.11512449700E+03  0.11626730849E+03  0.00000000000E+00 0.  1.
         11    1    1    2    0    0  0.34103768126E+01 -0.90802351578E+01 -0.16440588227E+03  0.16469175895E+03  0.00000000000E+00 0.  1.
        -15    1    1    2    0    0 -0.14092679383E+02  0.11971623058E+02 -0.12251552802E+02  0.22252677274E+02  0.17770000000E+01 0. -1.
         15    1    1    2    0    0 -0.53224176721E+01 -0.12821427345E-01  0.61532938071E+02  0.61788255283E+02  0.17770000000E+01 0.  1.
</event>
<event>
 6    1  0.1697564E-002  0.1924918E+03  0.7546771E-02  0.1060768E+00
        -11   -1    0    0    0    0  0.00000000000E+00  0.00000000000E+00  0.18250000000E+03  0.18250000000E+03  0.00000000000E+00 0. -1.
         11   -1    0    0    0    0 -0.00000000000E+00 -0.00000000000E+00 -0.18250000000E+03  0.18250000000E+03  0.00000000000E+00 0.  1.
        -11    1    1    2    0    0  0.81967939817E+01 -0.23267118698E+02  0.17073530729E+03  0.17250823574E+03  0.00000000000E+00 0. -1.
         11    1    1    2    0    0 -0.12914748837E+02  0.14007416868E+01 -0.98870847295E+02  0.99720595965E+02  0.00000000000E+00 0.  1.
        -15    1    1    2    0    0 -0.13586412338E+01  0.24479072990E+02 -0.44144355643E+01  0.24974304611E+02  0.17770000000E+01 0. -1.
         15    1    1    2    0    0  0.60765960888E+01 -0.26126959789E+01 -0.67450024430E+02  0.67796863680E+02  0.17770000000E+01 0.  1.
</event>
<event>
 6    1  0.1697564E-002  0.1875704E+03  0.7546771E-02  0.1064489E+00
        -11   -1    0    0    0    0  0.00000000000E+00  0.00000000000E+00  0.18250000000E+03  0.18250000000E+03  0.00000000000E+00 0. -1.
         11   -1    0    0    0    0 -0.00000000000E+00 -0.00000000000E+00 -0.18250000000E+03  0.18250000000E+03  0.00000000000E+00 0.  1.
        -11    1    1    2    0    0  0.10261351349E+02  0.28327605132E+01  0.17711001385E+03  0.17742963921E+03  0.00000000000E+00 0. -1.
         11    1    1    2    0    0  0.18111121958E+01 -0.74879098900E-01 -0.36609244313E+02  0.36654092588E+02  0.00000000000E+00 0.  1.
        -15    1    1    2    0    0  0.16533042088E+01  0.22711793199E+02 -0.37447574127E+02  0.43863851884E+02  0.17770000000E+01 0.  1.
         15    1    1    2    0    0 -0.13725767754E+02 -0.25469674613E+02 -0.10305319541E+03  0.10705241632E+03  0.17770000000E+01 0. -1.
</event>
<event>
 6    1  0.1697564E-002  0.1826548E+03  0.7546771E-02  0.1068332E+00
        -11   -1    0    0    0    0  0.00000000000E+00  0.00000000000E+00  0.18250000000E+03  0.18250000000E+03  0.00000000000E+00 0.  1.
         11   -1    0    0    0    0 -0.00000000000E+00 -0.00000000000E+00 -0.18250000000E+03  0.18250000000E+03  0.00000000000E+00 0. -1.
        -11    1    1    2    0    0 -0.42415580409E+01  0.55442619953E+00  0.18229497275E+03  0.18234515429E+03  0.00000000000E+00 0.  1.
         11    1    1    2    0    0  0.57806335040E+00 -0.17448609506E+01 -0.94505666349E+02  0.94523540290E+02  0.00000000000E+00 0. -1.
        -15    1    1    2    0    0  0.27433108266E+00  0.20511380627E+01 -0.60510477222E+02  0.60571924252E+02  0.17770000000E+01 0.  1.
         15    1    1    2    0    0  0.33891636078E+01 -0.86070331163E+00 -0.27278829178E+02  0.27559381170E+02  0.17770000000E+01 0. -1.
</event>
<event>
 6    1  0.1697564E-002  0.1842839E+03  0.7546771E-02  0.1067044E+00
        -11   -1    0    0    0    0  0.00000000000E+00  0.00000000000E+00  0.18250000000E+03  0.18250000000E+03  0.00000000000E+00 0.  1.
         11   -1    0    0    0    0 -0.00000000000E+00 -0.00000000000E+00 -0.18250000000E+03  0.18250000000E+03  0.00000000000E+00 0. -1.
        -11    1    1    2    0    0  0.95411517061E+01 -0.44036184519E+01  0.18041032957E+03  0.18071611009E+03  0.00000000000E+00 0.  1.
         11    1    1    2    0    0  0.19862761900E+01  0.80207122750E+00 -0.15374277108E+03  0.15375769337E+03  0.00000000000E+00 0. -1.
        -15    1    1    2    0    0 -0.11709950896E+02  0.46264891246E+01 -0.23952534747E+02  0.27118425497E+02  0.17770000000E+01 0. -1.
         15    1    1    2    0    0  0.18252299996E+00 -0.10249419002E+01 -0.27150237452E+01  0.34077710429E+01  0.17770000000E+01 0. -1.
</event>
<event>
 6    1  0.1697564E-002  0.1840803E+03  0.7546771E-02  0.1067204E+00
        -11   -1    0    0    0    0  0.00000000000E+00  0.00000000000E+00  0.18250000000E+03  0.18250000000E+03  0.00000000000E+00 0.  1.
         11   -1    0    0    0    0 -0.00000000000E+00 -0.00000000000E+00 -0.18250000000E+03  0.18250000000E+03  0.00000000000E+00 0.  1.
        -11    1    1    2    0    0 -0.99978133961E+00 -0.26847694091E+01  0.15599355411E+03  0.15601985923E+03  0.00000000000E+00 0.  1.
         11    1    1    2    0    0  0.65280239624E+00  0.57783800410E+01 -0.18082622306E+03  0.18091970256E+03  0.00000000000E+00 0.  1.
        -15    1    1    2    0    0 -0.36003326385E+01  0.20950825019E+01  0.17553447803E+02  0.18128238319E+02  0.17770000000E+01 0.  1.
         15    1    1    2    0    0  0.39473115819E+01 -0.51886931338E+01  0.72792211498E+01  0.99321998927E+01  0.17770000000E+01 0.  1.
</event>
<event>
 6    1  0.1697564E-002  0.1848905E+03  0.7546771E-02  0.1066568E+00
        -11   -1    0    0    0    0  0.00000000000E+00  0.00000000000E+00  0.18250000000E+03  0.18250000000E+03  0.00000000000E+00 0. -1.
         11   -1    0    0    0    0 -0.00000000000E+00 -0.00000000000E+00 -0.18250000000E+03  0.18250000000E+03  0.00000000000E+00 0. -1.
        -11    1    1    2    0    0  0.48543819212E+01  0.63695881180E+01  0.17993133575E+03  0.18010947299E+03  0.00000000000E+00 0. -1.
         11    1    1    2    0    0 -0.88509974820E+01 -0.17854758848E+01 -0.16216428093E+03  0.16241546136E+03  0.00000000000E+00 0. -1.
        -15    1    1    2    0    0  0.75832967232E+01 -0.52216680277E+01 -0.99665784953E+01  0.13684393377E+02  0.17770000000E+01 0.  1.
         15    1    1    2    0    0 -0.35866811624E+01  0.63755579453E+00 -0.78004763254E+01  0.87906722755E+01  0.17770000000E+01 0. -1.
</event>
<event>
 6    1  0.1697564E-002  0.1873455E+03  0.7546771E-02  0.1064662E+00
        -11   -1    0    0    0    0  0.00000000000E+00  0.00000000000E+00  0.18250000000E+03  0.18250000000E+03  0.00000000000E+00 0.  1.
         11   -1    0    0    0    0 -0.00000000000E+00 -0.00000000000E+00 -0.18250000000E+03  0.18250000000E+03  0.00000000000E+00 0. -1.
        -11    1    1    2    0    0 -0.85843132458E+01  0.34524893289E+01  0.17741342222E+03  0.17765453132E+03  0.00000000000E+00 0.  1.
         11    1    1    2    0    0 -0.63218295979E+01 -0.61644056384E+01 -0.79241407705E+02  0.79731838819E+02  0.00000000000E+00 0. -1.
        -15    1    1    2    0    0  0.15732378737E+02  0.25817875784E+01 -0.89487595917E+01  0.18368761392E+02  0.17770000000E+01 0.  1.
         15    1    1    2    0    0 -0.82623589367E+00  0.13012873113E+00 -0.89223254923E+02  0.89244868464E+02  0.17770000000E+01 0. -1.
</event>
<event>
 6    1  0.1697564E-002  0.1837010E+03  0.7546771E-02  0.1067503E+00
        -11   -1    0    0    0    0  0.00000000000E+00  0.00000000000E+00  0.18250000000E+03  0.18250000000E+03  0.00000000000E+00 0. -1.
         11   -1    0    0    0    0 -0.00000000000E+00 -0.00000000000E+00 -0.18250000000E+03  0.18250000000E+03  0.00000000000E+00 0.  1.
        -11    1    1    2    0    0 -0.17021934046E+01  0.76652939979E-01  0.12135132175E+03  0.12136328370E+03  0.00000000000E+00 0. -1.
         11    1    1    2    0    0  0.29495201874E+01 -0.11128019385E+01 -0.18127158743E+03  0.18129899726E+03  0.00000000000E+00 0.  1.
        -15    1    1    2    0    0 -0.31046571438E+01 -0.22764579250E+01  0.28393641998E+01  0.51030260360E+01  0.17770000000E+01 0.  1.
         15    1    1    2    0    0  0.18573303610E+01  0.33126069235E+01  0.57080901480E+02  0.57234693006E+02  0.17770000000E+01 0. -1.
</event>
<event>
 6    1  0.1697564E-002  0.1827202E+03  0.7546771E-02  0.1068280E+00
        -11   -1    0    0    0    0  0.00000000000E+00  0.00000000000E+00  0.18250000000E+03  0.18250000000E+03  0.00000000000E+00 0. -1.
         11   -1    0    0    0    0 -0.00000000000E+00 -0.00000000000E+00 -0.18250000000E+03  0.18250000000E+03  0.00000000000E+00 0. -1.
        -11    1    1    2    0    0 -0.11025821791E+01  0.16864523909E+01  0.14577344181E+03  0.14578736621E+03  0.00000000000E+00 0. -1.
         11    1    1    2    0    0  0.13577780582E+01 -0.27838573132E+01 -0.18225352542E+03  0.18227984242E+03  0.00000000000E+00 0. -1.
        -15    1    1    2    0    0 -0.86804284180E+00 -0.35243686894E+00  0.29334484640E+02  0.29403187382E+02  0.17770000000E+01 0.  1.
         15    1    1    2    0    0  0.61284696266E+00  0.14498417912E+01  0.71455989751E+01  0.75296039957E+01  0.17770000000E+01 0. -1.
</event>
<event>
 6    1  0.1697564E-002  0.1893220E+03  0.7546771E-02  0.1063151E+00
        -11   -1    0    0    0    0  0.00000000000E+00  0.00000000000E+00  0.18250000000E+03  0.18250000000E+03  0.00000000000E+00 0.  1.
         11   -1    0    0    0    0 -0.00000000000E+00 -0.00000000000E+00 -0.18250000000E+03  0.18250000000E+03  0.00000000000E+00 0.  1.
        -11    1    1    2    0    0  0.34186323788E+01 -0.68398101611E+01  0.11023534572E+03  0.11050023302E+03  0.00000000000E+00 0.  1.
         11    1    1    2    0    0 -0.23908732224E+01 -0.33699880559E+01 -0.17562941623E+03  0.17567801496E+03  0.00000000000E+00 0.  1.
        -15    1    1    2    0    0 -0.55475826625E+01 -0.76225985915E+00  0.66511974190E+02  0.66770930450E+02  0.17770000000E+01 0.  1.
         15    1    1    2    0    0  0.45198235061E+01  0.10972058076E+02 -0.11179036803E+01  0.12050821573E+02  0.17770000000E+01 0. -1.
</event>
<event>
 6    1  0.1697564E-002  0.1828786E+03  0.7546771E-02  0.1068154E+00
        -11   -1    0    0    0    0  0.00000000000E+00  0.00000000000E+00  0.18250000000E+03  0.18250000000E+03  0.00000000000E+00 0. -1.
         11   -1    0    0    0    0 -0.00000000000E+00 -0.00000000000E+00 -0.18250000000E+03  0.18250000000E+03  0.00000000000E+00 0.  1.
        -11    1    1    2    0    0  0.62436441740E+01  0.31393299951E+01  0.10598134255E+03  0.10621150340E+03  0.00000000000E+00 0. -1.
         11    1    1    2    0    0 -0.18256303353E+01 -0.42978812725E+01 -0.18206148462E+03  0.18212135760E+03  0.00000000000E+00 0.  1.
        -15    1    1    2    0    0 -0.26249117237E+01 -0.24631049592E+01  0.54058913230E+02  0.54207756605E+02  0.17770000000E+01 0. -1.
         15    1    1    2    0    0 -0.17931021150E+01  0.36216562367E+01  0.22021228846E+02  0.22459382404E+02  0.17770000000E+01 0.  1.
</event>
<event>
 6    1  0.1697564E-002  0.1829106E+03  0.7546771E-02  0.1068128E+00
        -11   -1    0    0    0    0  0.00000000000E+00  0.00000000000E+00  0.18250000000E+03  0.18250000000E+03  0.00000000000E+00 0.  1.
         11   -1    0    0    0    0 -0.00000000000E+00 -0.00000000000E+00 -0.18250000000E+03  0.18250000000E+03  0.00000000000E+00 0. -1.
        -11    1    1    2    0    0 -0.16550882246E+01 -0.46796637540E+01  0.18202173528E+03  0.18208940300E+03  0.00000000000E+00 0.  1.
         11    1    1    2    0    0  0.17002666429E+01  0.21366422492E+01 -0.12330878079E+03  0.12333901073E+03  0.00000000000E+00 0. -1.
        -15    1    1    2    0    0 -0.10418858526E+01  0.30402426490E+01 -0.78620387371E+01  0.86774410743E+01  0.17770000000E+01 0. -1.
         15    1    1    2    0    0  0.99670743429E+00 -0.49722114413E+00 -0.50850915748E+02  0.50894145203E+02  0.17770000000E+01 0.  1.
</event>
<event>
 6    1  0.1697564E-002  0.1830502E+03  0.7546771E-02  0.1068018E+00
        -11   -1    0    0    0    0  0.00000000000E+00  0.00000000000E+00  0.18250000000E+03  0.18250000000E+03  0.00000000000E+00 0. -1.
         11   -1    0    0    0    0 -0.00000000000E+00 -0.00000000000E+00 -0.18250000000E+03  0.18250000000E+03  0.00000000000E+00 0.  1.
        -11    1    1    2    0    0  0.48262131010E+00 -0.56059053860E+01  0.13875209855E+03  0.13886613680E+03  0.00000000000E+00 0. -1.
         11    1    1    2    0    0  0.33926334023E+01  0.43711344715E+01 -0.18186568085E+03  0.18194983553E+03  0.00000000000E+00 0.  1.
        -15    1    1    2    0    0 -0.23958621610E+01 -0.10131650491E+01  0.38053618642E+02  0.38183796036E+02  0.17770000000E+01 0. -1.
         15    1    1    2    0    0 -0.14793925514E+01  0.22479359636E+01  0.50599636613E+01  0.60002316348E+01  0.17770000000E+01 0.  1.
</event>
<event>
 6    1  0.1697564E-002  0.1910819E+03  0.7546771E-02  0.1061822E+00
        -11   -1    0    0    0    0  0.00000000000E+00  0.00000000000E+00  0.18250000000E+03  0.18250000000E+03  0.00000000000E+00 0.  1.
         11   -1    0    0    0    0 -0.00000000000E+00 -0.00000000000E+00 -0.18250000000E+03  0.18250000000E+03  0.00000000000E+00 0.  1.
        -11    1    1    2    0    0  0.19877601622E+01  0.27936404315E+01  0.17388430520E+03  0.17391810490E+03  0.00000000000E+00 0.  1.
         11    1    1    2    0    0  0.16310027823E+02 -0.16455763526E+02 -0.14570561376E+03  0.14753621604E+03  0.00000000000E+00 0.  1.
        -15    1    1    2    0    0  0.56158993004E+00 -0.19553902825E+01  0.28845833798E+01  0.39518963399E+01  0.17770000000E+01 0.  1.
         15    1    1    2    0    0 -0.18859377915E+02  0.15617513377E+02 -0.31063274812E+02  0.39593782725E+02  0.17770000000E+01 0. -1.
</event>
<event>
 6    1  0.1697564E-002  0.1890108E+03  0.7546771E-02  0.1063387E+00
        -11   -1    0    0    0    0  0.00000000000E+00  0.00000000000E+00  0.18250000000E+03  0.18250000000E+03  0.00000000000E+00 0.  1.
         11   -1    0    0    0    0 -0.00000000000E+00 -0.00000000000E+00 -0.18250000000E+03  0.18250000000E+03  0.00000000000E+00 0. -1.
        -11    1    1    2    0    0 -0.30139458398E+01  0.73478741562E+00  0.15318048929E+03  0.15321189928E+03  0.00000000000E+00 0.  1.
         11    1    1    2    0    0  0.51364480234E+01 -0.80627847879E+00 -0.17591234802E+03  0.17598916833E+03  0.00000000000E+00 0. -1.
        -15    1    1    2    0    0 -0.12121922583E+02 -0.79987449163E+01  0.10951615337E+02  0.18276119250E+02  0.17770000000E+01 0. -1.
         15    1    1    2    0    0  0.99994203990E+01  0.80702359795E+01  0.11780243392E+02  0.17522813143E+02  0.17770000000E+01 0.  1.
</event>
<event>
 6    1  0.1697564E-002  0.1843039E+03  0.7546771E-02  0.1067028E+00
        -11   -1    0    0    0    0  0.00000000000E+00  0.00000000000E+00  0.18250000000E+03  0.18250000000E+03  0.00000000000E+00 0. -1.
         11   -1    0    0    0    0 -0.00000000000E+00 -0.00000000000E+00 -0.18250000000E+03  0.18250000000E+03  0.00000000000E+00 0.  1.
        -11    1    1    2    0    0  0.58972781027E+01  0.35621281436E+01  0.18056467977E+03  0.18069607142E+03  0.00000000000E+00 0. -1.
         11    1    1    2    0    0  0.57617826472E+01 -0.84650560107E+01 -0.10357430440E+03  0.10407925751E+03  0.00000000000E+00 0.  1.
        -15    1    1    2    0    0 -0.83291794330E+01  0.41096554681E+01 -0.12777756532E+02  0.15896329422E+02  0.17770000000E+01 0.  1.
         15    1    1    2    0    0 -0.33298813170E+01  0.79327239908E+00 -0.64212618846E+02  0.64328341644E+02  0.17770000000E+01 0. -1.
</event>
<event>
 6    1  0.1697564E-002  0.1827264E+03  0.7546771E-02  0.1068275E+00
        -11   -1    0    0    0    0  0.00000000000E+00  0.00000000000E+00  0.18250000000E+03  0.18250000000E+03  0.00000000000E+00 0.  1.
         11   -1    0    0    0    0 -0.00000000000E+00 -0.00000000000E+00 -0.18250000000E+03  0.18250000000E+03  0.00000000000E+00 0.  1.
        -11    1    1    2    0    0  0.31149169792E+01 -0.92102110457E+00  0.14510652472E+03  0.14514287617E+03  0.00000000000E+00 0.  1.
         11    1    1    2    0    0 -0.97698267766E+00  0.24582685590E+01 -0.18225439579E+03  0.18227359207E+03  0.00000000000E+00 0.  1.
        -15    1    1    2    0    0 -0.22116230814E+01  0.58464558876E+00  0.16751863393E+02  0.17000463030E+02  0.17770000000E+01 0.  1.
         15    1    1    2    0    0  0.73688779874E-01 -0.21218930432E+01  0.20396007679E+02  0.20583068730E+02  0.17770000000E+01 0.  1.
</event>
<event>
 6    1  0.1697564E-002  0.1866894E+03  0.7546771E-02  0.1065168E+00
        -11   -1    0    0    0    0  0.00000000000E+00  0.00000000000E+00  0.18250000000E+03  0.18250000000E+03  0.00000000000E+00 0.  1.
         11   -1    0    0    0    0 -0.00000000000E+00 -0.00000000000E+00 -0.18250000000E+03  0.18250000000E+03  0.00000000000E+00 0.  1.
        -11    1    1    2    0    0 -0.28306633565E+01 -0.82244673178E+00  0.17828623650E+03  0.17831060316E+03  0.00000000000E+00 0.  1.
         11    1    1    2    0    0 -0.15530813086E+01  0.20710927219E+01 -0.16780050817E+03  0.16782047559E+03  0.00000000000E+00 0.  1.
        -15    1    1    2    0    0  0.54645392520E+01 -0.71899199155E+01 -0.47713785928E+01  0.10367252302E+02  0.17770000000E+01 0. -1.
         15    1    1    2    0    0 -0.10807945869E+01  0.59412739253E+01 -0.57143497457E+01  0.85016689427E+01  0.17770000000E+01 0.  1.
</event>
<event>
 6    1  0.1697564E-002  0.1825363E+03  0.7546771E-02  0.1068426E+00
        -11   -1    0    0    0    0  0.00000000000E+00  0.00000000000E+00  0.18250000000E+03  0.18250000000E+03  0.00000000000E+00 0.  1.
         11   -1    0    0    0    0 -0.00000000000E+00 -0.00000000000E+00 -0.18250000000E+03  0.18250000000E+03  0.00000000000E+00 0. -1.
        -11    1    1    2    0    0 -0.87702559621E+00  0.10713912140E+01  0.45666343061E+02  0.45687328020E+02  0.00000000000E+00 0.  1.
         11    1    1    2    0    0  0.25420441646E+00 -0.46355533789E+01 -0.18240464646E+03  0.18246371701E+03  0.00000000000E+00 0. -1.
        -15    1    1    2    0    0  0.11018803055E+01  0.93012705395E+00  0.57600880449E+02  0.57646321947E+02  0.17770000000E+01 0.  1.
         15    1    1    2    0    0 -0.47905912574E+00  0.26340351109E+01  0.79137422947E+02  0.79202633026E+02  0.17770000000E+01 0. -1.
</event>
<event>
 6    1  0.1697564E-002  0.1827019E+03  0.7546771E-02  0.1068294E+00
        -11   -1    0    0    0    0  0.00000000000E+00  0.00000000000E+00  0.18250000000E+03  0.18250000000E+03  0.00000000000E+00 0.  1.
         11   -1    0    0    0    0 -0.00000000000E+00 -0.00000000000E+00 -0.18250000000E+03  0.18250000000E+03  0.00000000000E+00 0. -1.
        -11    1    1    2    0    0 -0.21246355734E+01 -0.19809955724E+00  0.73539000710E+02  0.73569952733E+02  0.00000000000E+00 0.  1.
         11    1    1    2    0    0  0.31837327090E+01  0.18880741854E+01 -0.18226050710E+03  0.18229808947E+03  0.00000000000E+00 0. -1.
        -15    1    1    2    0    0 -0.42333132751E+00 -0.11299560995E+01  0.10392466804E+03  0.10394686319E+03  0.17770000000E+01 0.  1.
         15    1    1    2    0    0 -0.63576580809E+00 -0.56001852873E+00  0.47968383496E+01  0.51850946054E+01  0.17770000000E+01 0. -1.
</event>
<event>
 6    1  0.1697564E-002  0.1885159E+03  0.7546771E-02  0.1063765E+00
        -11   -1    0    0    0    0  0.00000000000E+00  0.00000000000E+00  0.18250000000E+03  0.18250000000E+03  0.00000000000E+00 0. -1.
         11   -1    0    0    0    0 -0.00000000000E+00 -0.00000000000E+00 -0.18250000000E+03  0.18250000000E+03  0.00000000000E+00 0. -1.
        -11    1    1    2    0    0 -0.57893093332E+01 -0.66016689594E+01  0.17626552572E+03  0.17648408907E+03  0.00000000000E+00 0. -1.
         11    1    1    2    0    0 -0.22927387589E+01 -0.11258280506E+00 -0.15115454894E+03  0.15117197820E+03  0.00000000000E+00 0. -1.
        -15    1    1    2    0    0  0.14707892877E+02  0.91041485610E+01 -0.24514127136E+02  0.30055079306E+02  0.17770000000E+01 0. -1.
         15    1    1    2    0    0 -0.66258447847E+01 -0.23898967965E+01 -0.59684964398E+00  0.72888534288E+01  0.17770000000E+01 0. -1.
</event>
<event>
 6    1  0.1697564E-002  0.1837099E+03  0.7546771E-02  0.1067496E+00
        -11   -1    0    0    0    0  0.00000000000E+00  0.00000000000E+00  0.18250000000E+03  0.18250000000E+03  0.00000000000E+00 0.  1.
         11   -1    0    0    0    0 -0.00000000000E+00 -0.00000000000E+00 -0.18250000000E+03  0.18250000000E+03  0.00000000000E+00 0. -1.
        -11    1    1    2    0    0 -0.28258684047E+01  0.14089499501E+00  0.16758175037E+03  0.16760563368E+03  0.00000000000E+00 0.  1.
         11    1    1    2    0    0 -0.20311765876E+01 -0.20896652794E+01 -0.18126671921E+03  0.18129014279E+03  0.00000000000E+00 0. -1.
        -15    1    1    2    0    0  0.43431562604E+01  0.28084250760E+01  0.58503039871E+01  0.80083733337E+01  0.17770000000E+01 0. -1.
         15    1    1    2    0    0  0.51388873186E+00 -0.85965479165E+00  0.78346648540E+01  0.80958501941E+01  0.17770000000E+01 0.  1.
</event>
<event>
 6    1  0.1697564E-002  0.1834570E+03  0.7546771E-02  0.1067696E+00
        -11   -1    0    0    0    0  0.00000000000E+00  0.00000000000E+00  0.18250000000E+03  0.18250000000E+03  0.00000000000E+00 0. -1.
         11   -1    0    0    0    0 -0.00000000000E+00 -0.00000000000E+00 -0.18250000000E+03  0.18250000000E+03  0.00000000000E+00 0.  1.
        -11    1    1    2    0    0  0.12404895231E+01  0.18783089706E+01  0.14463420641E+03  0.14465172146E+03  0.00000000000E+00 0. -1.
         11    1    1    2    0    0 -0.73022817285E+01  0.52661875941E+01 -0.18131964853E+03  0.18154302793E+03  0.00000000000E+00 0.  1.
        -15    1    1    2    0    0  0.17953569124E+01 -0.40599003890E+01  0.28585270829E+02  0.28982434938E+02  0.17770000000E+01 0. -1.
         15    1    1    2    0    0  0.42664352930E+01 -0.30845961757E+01  0.81001712909E+01  0.98228156665E+01  0.17770000000E+01 0.  1.
</event>
<event>
 6    1  0.1697564E-002  0.1834753E+03  0.7546771E-02  0.1067681E+00
        -11   -1    0    0    0    0  0.00000000000E+00  0.00000000000E+00  0.18250000000E+03  0.18250000000E+03  0.00000000000E+00 0. -1.
         11   -1    0    0    0    0 -0.00000000000E+00 -0.00000000000E+00 -0.18250000000E+03  0.18250000000E+03  0.00000000000E+00 0.  1.
        -11    1    1    2    0    0  0.25779752083E+01 -0.45118029216E+00  0.18150587176E+03  0.18152473937E+03  0.00000000000E+00 0. -1.
         11    1    1    2    0    0 -0.30668260956E+00  0.20216023071E+01 -0.30278439587E+02  0.30347402425E+02  0.00000000000E+00 0.  1.
        -15    1    1    2    0    0  0.76318676016E+01 -0.82021416138E+01 -0.55698675539E+02  0.56842068189E+02  0.17770000000E+01 0. -1.
         15    1    1    2    0    0 -0.99031602004E+01  0.66317195988E+01 -0.95528756631E+02  0.96285790018E+02  0.17770000000E+01 0.  1.
</event>
<event>
 6    1  0.1697564E-002  0.1884698E+03  0.7546771E-02  0.1063800E+00
        -11   -1    0    0    0    0  0.00000000000E+00  0.00000000000E+00  0.18250000000E+03  0.18250000000E+03  0.00000000000E+00 0.  1.
         11   -1    0    0    0    0 -0.00000000000E+00 -0.00000000000E+00 -0.18250000000E+03  0.18250000000E+03  0.00000000000E+00 0.  1.
        -11    1    1    2    0    0  0.11802781959E+01  0.12975958717E+02  0.15126363333E+03  0.15182376404E+03  0.00000000000E+00 0.  1.
         11    1    1    2    0    0 -0.19848850585E+00  0.37887278297E+01 -0.17648946405E+03  0.17653023758E+03  0.00000000000E+00 0.  1.
        -15    1    1    2    0    0 -0.69423890851E+01 -0.17872861430E+02  0.22885036025E+02  0.29908502885E+02  0.17770000000E+01 0.  1.
         15    1    1    2    0    0  0.59605993951E+01  0.11081748835E+01  0.23407947014E+01  0.67374954957E+01  0.17770000000E+01 0. -1.
</event>
<event>
 6    1  0.1697564E-002  0.1831761E+03  0.7546771E-02  0.1067918E+00
        -11   -1    0    0    0    0  0.00000000000E+00  0.00000000000E+00  0.18250000000E+03  0.18250000000E+03  0.00000000000E+00 0.  1.
         11   -1    0    0    0    0 -0.00000000000E+00 -0.00000000000E+00 -0.18250000000E+03  0.18250000000E+03  0.00000000000E+00 0. -1.
        -11    1    1    2    0    0 -0.11082768397E+01 -0.41723519939E+01  0.34840251377E+02  0.35106693304E+02  0.00000000000E+00 0.  1.
         11    1    1    2    0    0  0.48675573861E+01  0.47309096456E+01 -0.18169720166E+03  0.18182394703E+03  0.00000000000E+00 0. -1.
        -15    1    1    2    0    0 -0.70860132450E+00 -0.45688339622E+01  0.10519879675E+02  0.11627637636E+02  0.17770000000E+01 0. -1.
         15    1    1    2    0    0 -0.30506792219E+01  0.40102763105E+01  0.13633707061E+03  0.13644172203E+03  0.17770000000E+01 0.  1.
</event>
<event>
 6    1  0.1697564E-002  0.1853695E+03  0.7546771E-02  0.1066193E+00
        -11   -1    0    0    0    0  0.00000000000E+00  0.00000000000E+00  0.18250000000E+03  0.18250000000E+03  0.00000000000E+00 0. -1.
         11   -1    0    0    0    0 -0.00000000000E+00 -0.00000000000E+00 -0.18250000000E+03  0.18250000000E+03  0.00000000000E+00 0.  1.
        -11    1    1    2    0    0  0.37873936901E+01 -0.25715204174E+01  0.16121045783E+03  0.16127544383E+03  0.00000000000E+00 0. -1.
         11    1    1    2    0    0 -0.27794959854E+01  0.93632047382E+00 -0.17960658725E+03  0.17963053326E+03  0.00000000000E+00 0.  1.
        -15    1    1    2    0    0  0.69927956949E+01  0.11866959457E+00  0.81309375682E+01  0.10871207331E+02  0.17770000000E+01 0. -1.
         15    1    1    2    0    0 -0.80006933996E+01  0.15165303490E+01  0.10265191854E+02  0.13222815584E+02  0.17770000000E+01 0. -1.
</event>
<event>
 6    1  0.1697564E-002  0.1839624E+03  0.7546771E-02  0.1067297E+00
        -11   -1    0    0    0    0  0.00000000000E+00  0.00000000000E+00  0.18250000000E+03  0.18250000000E+03  0.00000000000E+00 0.  1.
         11   -1    0    0    0    0 -0.00000000000E+00 -0.00000000000E+00 -0.18250000000E+03  0.18250000000E+03  0.00000000000E+00 0. -1.
        -11    1    1    2    0    0 -0.19335950005E+01 -0.41716790136E+01  0.15951116560E+03  0.15957742211E+03  0.00000000000E+00 0.  1.
         11    1    1    2    0    0  0.42064089441E+01  0.51241319175E+01 -0.18091615163E+03  0.18103757765E+03  0.00000000000E+00 0. -1.
        -15    1    1    2    0    0 -0.11532863101E+01  0.38296461139E+01  0.16994300713E+02  0.17548796095E+02  0.17770000000E+01 0.  1.
         15    1    1    2    0    0 -0.11195276336E+01 -0.47820990178E+01  0.44106853103E+01  0.68362041400E+01  0.17770000000E+01 0. -1.
</event>
<event>
 6    1  0.1697564E-002  0.1625435E+03  0.7546771E-02  0.1085552E+00
        -11   -1    0    0    0    0  0.00000000000E+00  0.00000000000E+00  0.18250000000E+03  0.18250000000E+03  0.00000000000E+00 0.  1.
         11   -1    0    0    0    0 -0.00000000000E+00 -0.00000000000E+00 -0.18250000000E+03  0.18250000000E+03  0.00000000000E+00 0. -1.
        -11    1    1    2    0    0  0.53229570047E+01  0.10124855727E+02  0.15761827304E+03  0.15803280220E+03  0.00000000000E+00 0.  1.
         11    1    1    2    0    0  0.40931863897E+01  0.86479237742E+01 -0.16761232214E+03  0.16788517294E+03  0.00000000000E+00 0. -1.
        -15    1    1    2    0    0 -0.67870922389E+01  0.24674861447E+01  0.15254740058E+02  0.16971091071E+02  0.17770000000E+01 0.  1.
         15    1    1    2    0    0 -0.26290511555E+01 -0.21240265646E+02 -0.52606909534E+01  0.22110933789E+02  0.17770000000E+01 0. -1.
</event>
<event>
 6    1  0.1697564E-002  0.1827464E+03  0.7546771E-02  0.1068259E+00
        -11   -1    0    0    0    0  0.00000000000E+00  0.00000000000E+00  0.18250000000E+03  0.18250000000E+03  0.00000000000E+00 0. -1.
         11   -1    0    0    0    0 -0.00000000000E+00 -0.00000000000E+00 -0.18250000000E+03  0.18250000000E+03  0.00000000000E+00 0. -1.
        -11    1    1    2    0    0  0.20110035339E+01  0.12229252924E+01  0.64711560661E+02  0.64754349388E+02  0.00000000000E+00 0. -1.
         11    1    1    2    0    0  0.18337780654E+01  0.90848486559E+01 -0.18201780293E+03  0.18225360847E+03  0.00000000000E+00 0. -1.
        -15    1    1    2    0    0 -0.25981317321E+01 -0.95958458476E+01  0.83457482003E+02  0.84066280858E+02  0.17770000000E+01 0. -1.
         15    1    1    2    0    0 -0.12466498673E+01 -0.71192810069E+00  0.33848760270E+02  0.33925761279E+02  0.17770000000E+01 0. -1.
</event>
<event>
 6    1  0.1697564E-002  0.1864438E+03  0.7546771E-02  0.1065358E+00
        -11   -1    0    0    0    0  0.00000000000E+00  0.00000000000E+00  0.18250000000E+03  0.18250000000E+03  0.00000000000E+00 0.  1.
         11   -1    0    0    0    0 -0.00000000000E+00 -0.00000000000E+00 -0.18250000000E+03  0.18250000000E+03  0.00000000000E+00 0. -1.
        -11    1    1    2    0    0  0.30331857275E+01 -0.22755548796E+00  0.17853030584E+03  0.17855621552E+03  0.00000000000E+00 0.  1.
         11    1    1    2    0    0 -0.32504221097E+00 -0.22183040468E+01 -0.14213876462E+03  0.14215644528E+03  0.00000000000E+00 0. -1.
        -15    1    1    2    0    0 -0.24611051423E+01  0.17248653209E+01  0.31477025845E+01  0.47008466745E+01  0.17770000000E+01 0.  1.
         15    1    1    2    0    0 -0.24703837432E+00  0.72099421394E+00 -0.39539243806E+02  0.39586492524E+02  0.17770000000E+01 0. -1.
</event>
<event>
 6    1  0.1697564E-002  0.1828438E+03  0.7546771E-02  0.1068181E+00
        -11   -1    0    0    0    0  0.00000000000E+00  0.00000000000E+00  0.18250000000E+03  0.18250000000E+03  0.00000000000E+00 0. -1.
         11   -1    0    0    0    0 -0.00000000000E+00 -0.00000000000E+00 -0.18250000000E+03  0.18250000000E+03  0.00000000000E+00 0. -1.
        -11    1    1    2    0    0  0.16755548097E+01  0.36696560215E+01  0.12764800245E+03  0.12771173160E+03  0.00000000000E+00 0. -1.
         11    1    1    2    0    0 -0.43324447839E+01 -0.29931819761E+01 -0.18208004149E+03  0.18215617125E+03  0.00000000000E+00 0. -1.
        -15    1    1    2    0    0  0.30211392172E+01  0.94646671084E+00  0.49491985826E+02  0.49624968226E+02  0.17770000000E+01 0.  1.
         15    1    1    2    0    0 -0.36424924306E+00 -0.16229407562E+01  0.49400532105E+01  0.55071289192E+01  0.17770000000E+01 0.  1.
</event>
<event>
 6    1  0.1697564E-002  0.2082015E+03  0.7546771E-02  0.1049658E+00
        -11   -1    0    0    0    0  0.00000000000E+00  0.00000000000E+00  0.18250000000E+03  0.18250000000E+03  0.00000000000E+00 0.  1.
         11   -1    0    0    0    0 -0.00000000000E+00 -0.00000000000E+00 -0.18250000000E+03  0.18250000000E+03  0.00000000000E+00 0.  1.
        -11    1    1    2    0    0  0.24378809942E+02 -0.41948688453E+01  0.10757725127E+03  0.11038472852E+03  0.00000000000E+00 0.  1.
         11    1    1    2    0    0 -0.19506094205E+01  0.21010008293E+01 -0.15677227889E+03  0.15679849014E+03  0.00000000000E+00 0.  1.
        -15    1    1    2    0    0 -0.20708678577E+02  0.18306834606E+01 -0.19807358727E+02  0.28769601302E+02  0.17770000000E+01 0.  1.
         15    1    1    2    0    0 -0.17195219450E+01  0.26318455544E+00  0.69002386342E+02  0.69047180042E+02  0.17770000000E+01 0. -1.
</event>
<event>
 6    1  0.1697564E-002  0.1832368E+03  0.7546771E-02  0.1067870E+00
        -11   -1    0    0    0    0  0.00000000000E+00  0.00000000000E+00  0.18250000000E+03  0.18250000000E+03  0.00000000000E+00 0.  1.
         11   -1    0    0    0    0 -0.00000000000E+00 -0.00000000000E+00 -0.18250000000E+03  0.18250000000E+03  0.00000000000E+00 0. -1.
        -11    1    1    2    0    0 -0.23747467148E+01  0.21468499891E+01  0.14734058758E+03  0.14737536136E+03  0.00000000000E+00 0.  1.
         11    1    1    2    0    0 -0.25544530077E+01 -0.97838896589E+00 -0.18174260887E+03  0.18176319307E+03  0.00000000000E+00 0. -1.
        -15    1    1    2    0    0  0.35942614192E+00 -0.14373013711E+01  0.26199205950E+02  0.26301162403E+02  0.17770000000E+01 0.  1.
         15    1    1    2    0    0  0.45697735805E+01  0.26884034784E+00  0.82028153398E+01  0.95602831657E+01  0.17770000000E+01 0. -1.
</event>
<event>
 6    1  0.1697564E-002  0.1873012E+03  0.7546771E-02  0.1064696E+00
        -11   -1    0    0    0    0  0.00000000000E+00  0.00000000000E+00  0.18250000000E+03  0.18250000000E+03  0.00000000000E+00 0. -1.
         11   -1    0    0    0    0 -0.00000000000E+00 -0.00000000000E+00 -0.18250000000E+03  0.18250000000E+03  0.00000000000E+00 0.  1.
        -11    1    1    2    0    0 -0.23206062816E+01  0.80325597814E+00  0.86578096324E+02  0.86612915877E+02  0.00000000000E+00 0. -1.
         11    1    1    2    0    0  0.20354449086E+01  0.77748963684E+01 -0.17751694365E+03  0.17769878259E+03  0.00000000000E+00 0.  1.
        -15    1    1    2    0    0  0.46073031481E+01  0.79809074989E+01  0.79442944388E+02  0.79995382797E+02  0.17770000000E+01 0. -1.
         15    1    1    2    0    0 -0.43221417752E+01 -0.16559059845E+02  0.11495902940E+02  0.20692918738E+02  0.17770000000E+01 0. -1.
</event>
<event>
 6    1  0.1697564E-002  0.1932581E+03  0.7546771E-02  0.1060200E+00
        -11   -1    0    0    0    0  0.00000000000E+00  0.00000000000E+00  0.18250000000E+03  0.18250000000E+03  0.00000000000E+00 0.  1.
         11   -1    0    0    0    0 -0.00000000000E+00 -0.00000000000E+00 -0.18250000000E+03  0.18250000000E+03  0.00000000000E+00 0. -1.
        -11    1    1    2    0    0 -0.30765962310E+01  0.11351724820E+01  0.17171055821E+03  0.17174186985E+03  0.00000000000E+00 0.  1.
         11    1    1    2    0    0 -0.13650912187E+01  0.18767572112E+01 -0.16593150305E+03  0.16594773092E+03  0.00000000000E+00 0. -1.
        -15    1    1    2    0    0  0.55634712642E+01  0.32980039476E+01 -0.14714794794E+02  0.16171331342E+02  0.17770000000E+01 0.  1.
         15    1    1    2    0    0 -0.11217838145E+01 -0.63099336409E+01  0.89357396404E+01  0.11139067887E+02  0.17770000000E+01 0. -1.
</event>
<event>
 6    1  0.1697564E-002  0.1828309E+03  0.7546771E-02  0.1068192E+00
        -11   -1    0    0    0    0  0.00000000000E+00  0.00000000000E+00  0.18250000000E+03  0.18250000000E+03  0.00000000000E+00 0. -1.
         11   -1    0    0    0    0 -0.00000000000E+00 -0.00000000000E+00 -0.18250000000E+03  0.18250000000E+03  0.00000000000E+00 0.  1.
        -11    1    1    2    0    0 -0.20854015421E+01  0.87646135616E+00  0.14152452673E+03  0.14154260401E+03  0.00000000000E+00 0. -1.
         11    1    1    2    0    0  0.38375803884E+01  0.27878905787E+01 -0.18210732092E+03  0.18216908543E+03  0.00000000000E+00 0.  1.
        -15    1    1    2    0    0  0.34151595782E+00 -0.28733461607E+01  0.33175918123E+02  0.33349243224E+02  0.17770000000E+01 0. -1.
         15    1    1    2    0    0 -0.20936948042E+01 -0.79100577417E+00  0.74068760627E+01  0.79390673303E+01  0.17770000000E+01 0.  1.
</event>
<event>
 6    1  0.1697564E-002  0.1896130E+03  0.7546771E-02  0.1062930E+00
        -11   -1    0    0    0    0  0.00000000000E+00  0.00000000000E+00  0.18250000000E+03  0.18250000000E+03  0.00000000000E+00 0.  1.
         11   -1    0    0    0    0 -0.00000000000E+00 -0.00000000000E+00 -0.18250000000E+03  0.18250000000E+03  0.00000000000E+00 0. -1.
        -11    1    1    2    0    0 -0.27904835033E+00  0.52969816583E+01  0.17271339939E+03  0.17279483271E+03  0.00000000000E+00 0.  1.
         11    1    1    2    0    0 -0.17550896761E+01 -0.21473748092E+01 -0.17536505959E+03  0.17538698835E+03  0.00000000000E+00 0. -1.
        -15    1    1    2    0    0  0.38754280744E+01 -0.54134638916E+00  0.87275025513E+01  0.97282592716E+01  0.17770000000E+01 0. -1.
         15    1    1    2    0    0 -0.18412900480E+01 -0.26082604600E+01 -0.60758423478E+01  0.70899196684E+01  0.17770000000E+01 0.  1.
</event>
<event>
 6    1  0.1697564E-002  0.1790665E+03  0.7546771E-02  0.1071221E+00
        -11   -1    0    0    0    0  0.00000000000E+00  0.00000000000E+00  0.18250000000E+03  0.18250000000E+03  0.00000000000E+00 0.  1.
         11   -1    0    0    0    0 -0.00000000000E+00 -0.00000000000E+00 -0.18250000000E+03  0.18250000000E+03  0.00000000000E+00 0. -1.
        -11    1    1    2    0    0 -0.25433809956E+01 -0.99558198222E+00  0.17883854873E+03  0.17885940423E+03  0.00000000000E+00 0.  1.
         11    1    1    2    0    0 -0.22073454320E+01  0.11579155454E+01 -0.17928814043E+03  0.17930546685E+03  0.00000000000E+00 0. -1.
        -15    1    1    2    0    0  0.17026239738E+01 -0.13385961272E+01  0.11886203656E+01  0.30432409306E+01  0.17770000000E+01 0. -1.
         15    1    1    2    0    0  0.30481024537E+01  0.11762625640E+01 -0.73902865880E+00  0.37918879923E+01  0.17770000000E+01 0.  1.
</event>
<event>
 6    1  0.1697564E-002  0.1831161E+03  0.7546771E-02  0.1067965E+00
        -11   -1    0    0    0    0  0.00000000000E+00  0.00000000000E+00  0.18250000000E+03  0.18250000000E+03  0.00000000000E+00 0.  1.
         11   -1    0    0    0    0 -0.00000000000E+00 -0.00000000000E+00 -0.18250000000E+03  0.18250000000E+03  0.00000000000E+00 0. -1.
        -11    1    1    2    0    0 -0.13581312538E+01 -0.26354089158E+01  0.18185973921E+03  0.18188390430E+03  0.00000000000E+00 0.  1.
         11    1    1    2    0    0 -0.45841517699E+00 -0.19604651985E+01 -0.12168456606E+03  0.12170122097E+03  0.00000000000E+00 0. -1.
        -15    1    1    2    0    0  0.10772739014E+01  0.32301182797E+01 -0.58230099663E+02  0.58356631319E+02  0.17770000000E+01 0.  1.
         15    1    1    2    0    0  0.73927252933E+00  0.13657558345E+01 -0.19450734796E+01  0.30582434032E+01  0.17770000000E+01 0. -1.
</event>
<event>
 6    1  0.1697564E-002  0.1860101E+03  0.7546771E-02  0.1065695E+00
        -11   -1    0    0    0    0  0.00000000000E+00  0.00000000000E+00  0.18250000000E+03  0.18250000000E+03  0.00000000000E+00 0. -1.
         11   -1    0    0    0    0 -0.00000000000E+00 -0.00000000000E+00 -0.18250000000E+03  0.18250000000E+03  0.00000000000E+00 0. -1.
        -11    1    1    2    0    0  0.74020665867E+01 -0.10785423246E+01  0.17883355493E+03  0.17898992769E+03  0.00000000000E+00 0. -1.
         11    1    1    2    0    0 -0.68793371537E+00  0.21534114641E+01 -0.14984249728E+03  0.14985954899E+03  0.00000000000E+00 0. -1.
        -15    1    1    2    0    0 -0.79695422492E+01  0.17182420659E+01 -0.15559584933E+01  0.84879146610E+01  0.17770000000E+01 0. -1.
         15    1    1    2    0    0  0.12554093779E+01 -0.27931112053E+01 -0.27435099160E+02  0.27662608659E+02  0.17770000000E+01 0. -1.
</event>
<event>
 6    1  0.1697564E-002  0.1835906E+03  0.7546771E-02  0.1067590E+00
        -11   -1    0    0    0    0  0.00000000000E+00  0.00000000000E+00  0.18250000000E+03  0.18250000000E+03  0.00000000000E+00 0.  1.
         11   -1    0    0    0    0 -0.00000000000E+00 -0.00000000000E+00 -0.18250000000E+03  0.18250000000E+03  0.00000000000E+00 0.  1.
        -11    1    1    2    0    0 -0.21126585235E+01 -0.40827600775E+01  0.52033604916E+02  0.52236273762E+02  0.00000000000E+00 0.  1.
         11    1    1    2    0    0 -0.73629702419E+01 -0.70006521767E+00 -0.18125855174E+03  0.18140938785E+03  0.00000000000E+00 0.  1.
        -15    1    1    2    0    0 -0.49679927999E+01 -0.30328116037E+01  0.53719232083E+02  0.54062857150E+02  0.17770000000E+01 0.  1.
         15    1    1    2    0    0  0.14443621565E+02  0.78156368989E+01  0.75505714741E+02  0.77291481236E+02  0.17770000000E+01 0. -1.
</event>
<event>
 6    1  0.1697564E-002  0.1828595E+03  0.7546771E-02  0.1068169E+00
        -11   -1    0    0    0    0  0.00000000000E+00  0.00000000000E+00  0.18250000000E+03  0.18250000000E+03  0.00000000000E+00 0.  1.
         11   -1    0    0    0    0 -0.00000000000E+00 -0.00000000000E+00 -0.18250000000E+03  0.18250000000E+03  0.00000000000E+00 0.  1.
        -11    1    1    2    0    0  0.74278586020E+00  0.47790902067E+00  0.64729882546E+02  0.64735908292E+02  0.00000000000E+00 0.  1.
         11    1    1    2    0    0  0.25398530716E+01 -0.10222959169E+00 -0.18212275449E+03  0.18214049250E+03  0.00000000000E+00 0.  1.
        -15    1    1    2    0    0 -0.31785473971E+01  0.46291545785E+01  0.30194455868E+02  0.30763535717E+02  0.17770000000E+01 0. -1.
         15    1    1    2    0    0 -0.10409153472E+00 -0.50048340075E+01  0.87198416075E+02  0.87360063493E+02  0.17770000000E+01 0.  1.
</event>
<event>
 6    1  0.1697564E-002  0.1829513E+03  0.7546771E-02  0.1068096E+00
        -11   -1    0    0    0    0  0.00000000000E+00  0.00000000000E+00  0.18250000000E+03  0.18250000000E+03  0.00000000000E+00 0.  1.
         11   -1    0    0    0    0 -0.00000000000E+00 -0.00000000000E+00 -0.18250000000E+03  0.18250000000E+03  0.00000000000E+00 0.  1.
        -11    1    1    2    0    0 -0.11209886329E+01  0.22168819258E-01  0.79820708526E+02  0.79828582704E+02  0.00000000000E+00 0.  1.
         11    1    1    2    0    0  0.48380403929E+01  0.28161708804E+00 -0.18198416298E+03  0.18204867898E+03  0.00000000000E+00 0.  1.
        -15    1    1    2    0    0 -0.66935203222E+01 -0.24776322336E+01  0.31763814722E+02  0.32604286995E+02  0.17770000000E+01 0. -1.
         15    1    1    2    0    0  0.29764685622E+01  0.21738463263E+01  0.70399639733E+02  0.70518451319E+02  0.17770000000E+01 0.  1.
</event>
<event>
 6    1  0.1697564E-002  0.1832076E+03  0.7546771E-02  0.1067893E+00
        -11   -1    0    0    0    0  0.00000000000E+00  0.00000000000E+00  0.18250000000E+03  0.18250000000E+03  0.00000000000E+00 0.  1.
         11   -1    0    0    0    0 -0.00000000000E+00 -0.00000000000E+00 -0.18250000000E+03  0.18250000000E+03  0.00000000000E+00 0. -1.
        -11    1    1    2    0    0 -0.26958472286E+01  0.12150193108E+01  0.18176833853E+03  0.18179238916E+03  0.00000000000E+00 0.  1.
         11    1    1    2    0    0 -0.10651246433E+01 -0.31568022903E+01 -0.15811597307E+03  0.15815106965E+03  0.00000000000E+00 0. -1.
        -15    1    1    2    0    0  0.25139671241E+01  0.38314782624E+00 -0.32993754196E+01  0.45288453404E+01  0.17770000000E+01 0.  1.
         15    1    1    2    0    0  0.12470047477E+01  0.15586351532E+01 -0.20352990043E+02  0.20527695854E+02  0.17770000000E+01 0. -1.
</event>
<event>
 6    1  0.1697564E-002  0.1884312E+03  0.7546771E-02  0.1063829E+00
        -11   -1    0    0    0    0  0.00000000000E+00  0.00000000000E+00  0.18250000000E+03  0.18250000000E+03  0.00000000000E+00 0.  1.
         11   -1    0    0    0    0 -0.00000000000E+00 -0.00000000000E+00 -0.18250000000E+03  0.18250000000E+03  0.00000000000E+00 0.  1.
        -11    1    1    2    0    0 -0.43534042342E+01 -0.25590905942E+01  0.17649659715E+03  0.17656882476E+03  0.00000000000E+00 0.  1.
         11    1    1    2    0    0  0.35370136666E+01  0.28207244811E+01 -0.16722424911E+03  0.16728543404E+03  0.00000000000E+00 0.  1.
        -15    1    1    2    0    0 -0.33288830006E+01  0.74550714151E+01 -0.88887494169E+01  0.12199473228E+02  0.17770000000E+01 0. -1.
         15    1    1    2    0    0  0.41452735683E+01 -0.77167053019E+01 -0.38359862224E+00  0.89462679691E+01  0.17770000000E+01 0.  1.
</event>
<event>
 6    1  0.1697564E-002  0.1850513E+03  0.7546771E-02  0.1066442E+00
        -11   -1    0    0    0    0  0.00000000000E+00  0.00000000000E+00  0.18250000000E+03  0.18250000000E+03  0.00000000000E+00 0.  1.
         11   -1    0    0    0    0 -0.00000000000E+00 -0.00000000000E+00 -0.18250000000E+03  0.18250000000E+03  0.00000000000E+00 0. -1.
        -11    1    1    2    0    0 -0.44588460561E+01  0.18901087919E+01  0.12596677101E+03  0.12605983190E+03  0.00000000000E+00 0.  1.
         11    1    1    2    0    0  0.47915005623E+01 -0.48511346432E+01 -0.17981951830E+03  0.17994874589E+03  0.00000000000E+00 0. -1.
        -15    1    1    2    0    0 -0.78517399238E+01  0.23476626044E+01  0.55158965755E+01  0.10037140209E+02  0.17770000000E+01 0. -1.
         15    1    1    2    0    0  0.75190854177E+01  0.61336324696E+00  0.48336850719E+02  0.48954282003E+02  0.17770000000E+01 0.  1.
</event>
<event>
 6    1  0.1697564E-002  0.1907292E+03  0.7546771E-02  0.1062087E+00
        -11   -1    0    0    0    0  0.00000000000E+00  0.00000000000E+00  0.18250000000E+03  0.18250000000E+03  0.00000000000E+00 0. -1.
         11   -1    0    0    0    0 -0.00000000000E+00 -0.00000000000E+00 -0.18250000000E+03  0.18250000000E+03  0.00000000000E+00 0. -1.
        -11    1    1    2    0    0  0.97275971674E+00 -0.43714050319E+00  0.47586587583E+02  0.47598536438E+02  0.00000000000E+00 0. -1.
         11    1    1    2    0    0 -0.41653031947E+01 -0.13473043206E+02 -0.17369924093E+03  0.17427076331E+03  0.00000000000E+00 0. -1.
        -15    1    1    2    0    0  0.43964465211E+00  0.10131357691E+02  0.13367125006E+03  0.13406714183E+03  0.17770000000E+01 0. -1.
         15    1    1    2    0    0  0.27528988258E+01  0.37788260190E+01 -0.75585967130E+01  0.90635584235E+01  0.17770000000E+01 0.  1.
</event>
<event>
 6    1  0.1697564E-002  0.1831428E+03  0.7546771E-02  0.1067944E+00
        -11   -1    0    0    0    0  0.00000000000E+00  0.00000000000E+00  0.18250000000E+03  0.18250000000E+03  0.00000000000E+00 0.  1.
         11   -1    0    0    0    0 -0.00000000000E+00 -0.00000000000E+00 -0.18250000000E+03  0.18250000000E+03  0.00000000000E+00 0. -1.
        -11    1    1    2    0    0 -0.10832843614E+01  0.23347553447E+01  0.18183896480E+03  0.18185717942E+03  0.00000000000E+00 0.  1.
         11    1    1    2    0    0  0.29622882080E+01 -0.22859095452E+00 -0.15751950014E+03  0.15754751769E+03  0.00000000000E+00 0. -1.
        -15    1    1    2    0    0 -0.76771866246E+00 -0.43655274782E+01 -0.16887386763E+02  0.17549609192E+02  0.17770000000E+01 0. -1.
         15    1    1    2    0    0 -0.11112851841E+01  0.22593630880E+01 -0.74320778958E+01  0.80456937037E+01  0.17770000000E+01 0. -1.
</event>
<event>
 6    1  0.1697564E-002  0.1842268E+03  0.7546771E-02  0.1067089E+00
        -11   -1    0    0    0    0  0.00000000000E+00  0.00000000000E+00  0.18250000000E+03  0.18250000000E+03  0.00000000000E+00 0.  1.
         11   -1    0    0    0    0 -0.00000000000E+00 -0.00000000000E+00 -0.18250000000E+03  0.18250000000E+03  0.00000000000E+00 0. -1.
        -11    1    1    2    0    0 -0.32144398524E+01 -0.10884978553E+01  0.15198758106E+03  0.15202546578E+03  0.00000000000E+00 0.  1.
         11    1    1    2    0    0  0.10693589128E+01 -0.46616195909E+01 -0.18070996844E+03  0.18077324725E+03  0.00000000000E+00 0. -1.
        -15    1    1    2    0    0 -0.38058012888E+01  0.30165765616E+01  0.39244869292E+01  0.64917782047E+01  0.17770000000E+01 0. -1.
         15    1    1    2    0    0  0.59508822284E+01  0.27335408846E+01  0.24797900454E+02  0.25709508766E+02  0.17770000000E+01 0.  1.
</event>
<event>
 6    1  0.1697564E-002  0.1827631E+03  0.7546771E-02  0.1068246E+00
        -11   -1    0    0    0    0  0.00000000000E+00  0.00000000000E+00  0.18250000000E+03  0.18250000000E+03  0.00000000000E+00 0.  1.
         11   -1    0    0    0    0 -0.00000000000E+00 -0.00000000000E+00 -0.18250000000E+03  0.18250000000E+03  0.00000000000E+00 0.  1.
        -11    1    1    2    0    0 -0.40006770302E+01  0.42880023319E+01  0.18214251433E+03  0.18223690051E+03  0.00000000000E+00 0.  1.
         11    1    1    2    0    0  0.11545509227E+01  0.10170343407E+00 -0.42240505555E+02  0.42256403550E+02  0.00000000000E+00 0.  1.
        -15    1    1    2    0    0 -0.41645953966E+01 -0.45957834232E+00 -0.37689750414E+02  0.37963536220E+02  0.17770000000E+01 0. -1.
         15    1    1    2    0    0  0.70107215041E+01 -0.39301274236E+01 -0.10221225836E+03  0.10254315972E+03  0.17770000000E+01 0.  1.
</event>
<event>
 6    1  0.1697564E-002  0.1826659E+03  0.7546771E-02  0.1068323E+00
        -11   -1    0    0    0    0  0.00000000000E+00  0.00000000000E+00  0.18250000000E+03  0.18250000000E+03  0.00000000000E+00 0.  1.
         11   -1    0    0    0    0 -0.00000000000E+00 -0.00000000000E+00 -0.18250000000E+03  0.18250000000E+03  0.00000000000E+00 0.  1.
        -11    1    1    2    0    0 -0.31442567808E+00  0.10209263263E+01  0.51690391172E+02  0.51701428351E+02  0.00000000000E+00 0.  1.
         11    1    1    2    0    0  0.68685899251E+00 -0.43207401753E+01 -0.18228157991E+03  0.18233407510E+03  0.00000000000E+00 0.  1.
        -15    1    1    2    0    0 -0.25480794272E+01 -0.21056596201E+01  0.44425471629E+02  0.44583705204E+02  0.17770000000E+01 0.  1.
         15    1    1    2    0    0  0.21756461128E+01  0.54054734691E+01  0.86165717105E+02  0.86380791341E+02  0.17770000000E+01 0. -1.
</event>
<event>
 6    1  0.1697564E-002  0.1843911E+03  0.7546771E-02  0.1066959E+00
        -11   -1    0    0    0    0  0.00000000000E+00  0.00000000000E+00  0.18250000000E+03  0.18250000000E+03  0.00000000000E+00 0.  1.
         11   -1    0    0    0    0 -0.00000000000E+00 -0.00000000000E+00 -0.18250000000E+03  0.18250000000E+03  0.00000000000E+00 0. -1.
        -11    1    1    2    0    0 -0.10697020014E+00  0.41443880799E+01  0.14962908436E+03  0.14968650668E+03  0.00000000000E+00 0.  1.
         11    1    1    2    0    0  0.25625025592E+01  0.12078100109E+01 -0.18058666837E+03  0.18060888687E+03  0.00000000000E+00 0. -1.
        -15    1    1    2    0    0 -0.14819202522E+01 -0.24317383613E+01  0.30968670788E+02  0.31150051982E+02  0.17770000000E+01 0.  1.
         15    1    1    2    0    0 -0.97361210683E+00 -0.29204597295E+01 -0.11086782275E-01  0.35545544704E+01  0.17770000000E+01 0. -1.
</event>
<event>
 6    1  0.1697564E-002  0.1893884E+03  0.7546771E-02  0.1063100E+00
        -11   -1    0    0    0    0  0.00000000000E+00  0.00000000000E+00  0.18250000000E+03  0.18250000000E+03  0.00000000000E+00 0.  1.
         11   -1    0    0    0    0 -0.00000000000E+00 -0.00000000000E+00 -0.18250000000E+03  0.18250000000E+03  0.00000000000E+00 0. -1.
        -11    1    1    2    0    0 -0.10412382989E+01  0.31409752478E+01  0.16540714811E+03  0.16544024465E+03  0.00000000000E+00 0.  1.
         11    1    1    2    0    0 -0.17495134388E+01 -0.30549487021E+01 -0.17557628237E+03  0.17561157262E+03  0.00000000000E+00 0. -1.
        -15    1    1    2    0    0 -0.35575217333E+01 -0.21036154337E+01  0.14914839791E+02  0.15578553648E+02  0.17770000000E+01 0.  1.
         15    1    1    2    0    0  0.63482734710E+01  0.20175888881E+01 -0.47457055319E+01  0.83696290825E+01  0.17770000000E+01 0. -1.
</event>
<event>
 6    1  0.1697564E-002  0.1919721E+03  0.7546771E-02  0.1061155E+00
        -11   -1    0    0    0    0  0.00000000000E+00  0.00000000000E+00  0.18250000000E+03  0.18250000000E+03  0.00000000000E+00 0.  1.
         11   -1    0    0    0    0 -0.00000000000E+00 -0.00000000000E+00 -0.18250000000E+03  0.18250000000E+03  0.00000000000E+00 0.  1.
        -11    1    1    2    0    0  0.27121950124E+00 -0.23992222334E+01  0.17301107617E+03  0.17302792348E+03  0.00000000000E+00 0.  1.
         11    1    1    2    0    0  0.38940686835E+01 -0.13747230776E+01 -0.14669552848E+03  0.14675364292E+03  0.00000000000E+00 0.  1.
        -15    1    1    2    0    0  0.81407889392E+01  0.12559717466E+01  0.61040236869E+01  0.10405130646E+02  0.17770000000E+01 0.  1.
         15    1    1    2    0    0 -0.12306077124E+02  0.25179735644E+01 -0.32419571375E+02  0.34813302948E+02  0.17770000000E+01 0. -1.
</event>
<event>
 6    1  0.1697564E-002  0.1854052E+03  0.7546771E-02  0.1066166E+00
        -11   -1    0    0    0    0  0.00000000000E+00  0.00000000000E+00  0.18250000000E+03  0.18250000000E+03  0.00000000000E+00 0.  1.
         11   -1    0    0    0    0 -0.00000000000E+00 -0.00000000000E+00 -0.18250000000E+03  0.18250000000E+03  0.00000000000E+00 0. -1.
        -11    1    1    2    0    0  0.13938704038E+01 -0.21657858499E+01  0.17402043459E+03  0.17403949310E+03  0.00000000000E+00 0.  1.
         11    1    1    2    0    0  0.63034951059E+01  0.20156711124E+01 -0.17947287058E+03  0.17959484473E+03  0.00000000000E+00 0. -1.
        -15    1    1    2    0    0 -0.41938417606E+01 -0.69322948030E+00  0.57130374025E+01  0.73393052252E+01  0.17770000000E+01 0. -1.
         15    1    1    2    0    0 -0.35035237490E+01  0.84334421779E+00 -0.26060141338E+00  0.40263569422E+01  0.17770000000E+01 0.  1.
</event>
<event>
 6    1  0.1697564E-002  0.1958768E+03  0.7546771E-02  0.1058279E+00
        -11   -1    0    0    0    0  0.00000000000E+00  0.00000000000E+00  0.18250000000E+03  0.18250000000E+03  0.00000000000E+00 0.  1.
         11   -1    0    0    0    0 -0.00000000000E+00 -0.00000000000E+00 -0.18250000000E+03  0.18250000000E+03  0.00000000000E+00 0. -1.
        -11    1    1    2    0    0  0.59192186956E+01 -0.87818416817E+00  0.16901731842E+03  0.16912321628E+03  0.00000000000E+00 0.  1.
         11    1    1    2    0    0 -0.17543082958E+01 -0.24384941702E+01 -0.16006374657E+03  0.16009193240E+03  0.00000000000E+00 0. -1.
        -15    1    1    2    0    0  0.33590751391E+01  0.33718207023E+01 -0.20925615950E+02  0.21533501632E+02  0.17770000000E+01 0. -1.
         15    1    1    2    0    0 -0.75239855388E+01 -0.55142363872E-01  0.11972044100E+02  0.14251349690E+02  0.17770000000E+01 0. -1.
</event>
<event>
 6    1  0.1697564E-002  0.1847561E+03  0.7546771E-02  0.1066673E+00
        -11   -1    0    0    0    0  0.00000000000E+00  0.00000000000E+00  0.18250000000E+03  0.18250000000E+03  0.00000000000E+00 0. -1.
         11   -1    0    0    0    0 -0.00000000000E+00 -0.00000000000E+00 -0.18250000000E+03  0.18250000000E+03  0.00000000000E+00 0. -1.
        -11    1    1    2    0    0 -0.37457109675E+01 -0.48288834989E+01  0.18014029094E+03  0.18024392607E+03  0.00000000000E+00 0. -1.
         11    1    1    2    0    0  0.76130978950E+00  0.87058790852E+00 -0.83694608420E+02  0.83702598493E+02  0.00000000000E+00 0. -1.
        -15    1    1    2    0    0  0.30502697294E+01  0.51829632718E+01 -0.19986431424E+01  0.65817594236E+01  0.17770000000E+01 0. -1.
         15    1    1    2    0    0 -0.65868551396E-01 -0.12246676814E+01 -0.94447039378E+02  0.94471716010E+02  0.17770000000E+01 0. -1.
</event>
<event>
 6    1  0.1697564E-002  0.1885065E+03  0.7546771E-02  0.1063772E+00
        -11   -1    0    0    0    0  0.00000000000E+00  0.00000000000E+00  0.18250000000E+03  0.18250000000E+03  0.00000000000E+00 0. -1.
         11   -1    0    0    0    0 -0.00000000000E+00 -0.00000000000E+00 -0.18250000000E+03  0.18250000000E+03  0.00000000000E+00 0. -1.
        -11    1    1    2    0    0 -0.29439193901E+01 -0.19659458266E+01  0.17645795636E+03  0.17649346155E+03  0.00000000000E+00 0. -1.
         11    1    1    2    0    0  0.55166447625E+01  0.28884917668E+01 -0.17264524493E+03  0.17275751026E+03  0.00000000000E+00 0. -1.
        -15    1    1    2    0    0 -0.67239337615E+01  0.21600948943E+01 -0.64047839235E+01  0.96982617663E+01  0.17770000000E+01 0.  1.
         15    1    1    2    0    0  0.41512083891E+01 -0.30826408345E+01  0.25920724878E+01  0.60507664296E+01  0.17770000000E+01 0. -1.
</event>
<event>
 6    1  0.1697564E-002  0.1870986E+03  0.7546771E-02  0.1064852E+00
        -11   -1    0    0    0    0  0.00000000000E+00  0.00000000000E+00  0.18250000000E+03  0.18250000000E+03  0.00000000000E+00 0.  1.
         11   -1    0    0    0    0 -0.00000000000E+00 -0.00000000000E+00 -0.18250000000E+03  0.18250000000E+03  0.00000000000E+00 0.  1.
        -11    1    1    2    0    0  0.25754484224E+01  0.31616589707E+01  0.17785469692E+03  0.17790143967E+03  0.00000000000E+00 0.  1.
         11    1    1    2    0    0 -0.47777267706E+01  0.69236036566E+01 -0.11700775896E+03  0.11730975500E+03  0.00000000000E+00 0.  1.
        -15    1    1    2    0    0 -0.25037862390E+01 -0.13249651715E+02 -0.62220157866E+02  0.63689308287E+02  0.17770000000E+01 0.  1.
         15    1    1    2    0    0  0.47060645871E+01  0.31643890875E+01  0.13732199102E+01  0.60994970381E+01  0.17770000000E+01 0. -1.
</event>
<event>
 6    1  0.1697564E-002  0.1832203E+03  0.7546771E-02  0.1067883E+00
        -11   -1    0    0    0    0  0.00000000000E+00  0.00000000000E+00  0.18250000000E+03  0.18250000000E+03  0.00000000000E+00 0. -1.
         11   -1    0    0    0    0 -0.00000000000E+00 -0.00000000000E+00 -0.18250000000E+03  0.18250000000E+03  0.00000000000E+00 0.  1.
        -11    1    1    2    0    0  0.23637302284E+01 -0.31554826526E+01  0.15966257704E+03  0.15971124819E+03  0.00000000000E+00 0. -1.
         11    1    1    2    0    0  0.41238312940E+01  0.25225802006E+01 -0.18171545254E+03  0.18177974334E+03  0.00000000000E+00 0.  1.
        -15    1    1    2    0    0 -0.12246032209E+01  0.13261581629E+01  0.62407895197E+01  0.67352454559E+01  0.17770000000E+01 0. -1.
         15    1    1    2    0    0 -0.52629583015E+01 -0.69325571099E+00  0.15812085984E+02  0.16773763017E+02  0.17770000000E+01 0.  1.
</event>
<event>
 6    1  0.1697564E-002  0.1772834E+03  0.7546771E-02  0.1072685E+00
        -11   -1    0    0    0    0  0.00000000000E+00  0.00000000000E+00  0.18250000000E+03  0.18250000000E+03  0.00000000000E+00 0. -1.
         11   -1    0    0    0    0 -0.00000000000E+00 -0.00000000000E+00 -0.18250000000E+03  0.18250000000E+03  0.00000000000E+00 0. -1.
        -11    1    1    2    0    0  0.58837094702E+00  0.24337272408E+01  0.17727502787E+03  0.17729270914E+03  0.00000000000E+00 0. -1.
         11    1    1    2    0    0  0.11977352102E+00  0.37372926944E+01 -0.17728910117E+03  0.17732852871E+03  0.00000000000E+00 0. -1.
        -15    1    1    2    0    0 -0.79188910560E+00 -0.16628516345E+01  0.35522552106E+01  0.43781742765E+01  0.17770000000E+01 0. -1.
         15    1    1    2    0    0  0.83744637564E-01 -0.45081683007E+01 -0.35381819110E+01  0.60005878734E+01  0.17770000000E+01 0. -1.
</event>
<event>
 6    1  0.1697564E-002  0.1884623E+03  0.7546771E-02  0.1063805E+00
        -11   -1    0    0    0    0  0.00000000000E+00  0.00000000000E+00  0.18250000000E+03  0.18250000000E+03  0.00000000000E+00 0.  1.
         11   -1    0    0    0    0 -0.00000000000E+00 -0.00000000000E+00 -0.18250000000E+03  0.18250000000E+03  0.00000000000E+00 0. -1.
        -11    1    1    2    0    0 -0.28036163970E+01  0.10532161356E+01  0.14679112168E+03  0.14682167052E+03  0.00000000000E+00 0.  1.
         11    1    1    2    0    0 -0.24146940982E+01  0.19843467632E+02 -0.17540226216E+03  0.17653766602E+03  0.00000000000E+00 0. -1.
        -15    1    1    2    0    0 -0.68579630137E+01 -0.47289948785E+01  0.14951663703E+02  0.17207702512E+02  0.17770000000E+01 0. -1.
         15    1    1    2    0    0  0.12076273509E+02 -0.16167688889E+02  0.13659476773E+02  0.24432960946E+02  0.17770000000E+01 0.  1.
</event>
<event>
 6    1  0.1697564E-002  0.1838373E+03  0.7546771E-02  0.1067395E+00
        -11   -1    0    0    0    0  0.00000000000E+00  0.00000000000E+00  0.18250000000E+03  0.18250000000E+03  0.00000000000E+00 0. -1.
         11   -1    0    0    0    0 -0.00000000000E+00 -0.00000000000E+00 -0.18250000000E+03  0.18250000000E+03  0.00000000000E+00 0. -1.
        -11    1    1    2    0    0  0.24238976165E+01 -0.14228404953E+01  0.18114091329E+03  0.18116271753E+03  0.00000000000E+00 0. -1.
         11    1    1    2    0    0 -0.36610892267E+01  0.51594673343E+01 -0.16648685737E+03  0.16660701472E+03  0.00000000000E+00 0. -1.
        -15    1    1    2    0    0  0.40912975628E+01 -0.16562397895E+01 -0.55859754251E+01  0.73377582705E+01  0.17770000000E+01 0. -1.
         15    1    1    2    0    0 -0.28541059526E+01 -0.20803870495E+01 -0.90680804954E+01  0.98925094862E+01  0.17770000000E+01 0.  1.
</event>
<event>
 6    1  0.1697564E-002  0.1826345E+03  0.7546771E-02  0.1068348E+00
        -11   -1    0    0    0    0  0.00000000000E+00  0.00000000000E+00  0.18250000000E+03  0.18250000000E+03  0.00000000000E+00 0. -1.
         11   -1    0    0    0    0 -0.00000000000E+00 -0.00000000000E+00 -0.18250000000E+03  0.18250000000E+03  0.00000000000E+00 0.  1.
        -11    1    1    2    0    0  0.58401290549E+01  0.19770646505E+01  0.18226121562E+03  0.18236547538E+03  0.00000000000E+00 0. -1.
         11    1    1    2    0    0  0.70748514525E+00 -0.16678905244E+01 -0.90395116753E+02  0.90413270745E+02  0.00000000000E+00 0.  1.
        -15    1    1    2    0    0 -0.99791929700E+00 -0.37985167713E+00 -0.16407591743E+02  0.16538044806E+02  0.17770000000E+01 0.  1.
         15    1    1    2    0    0 -0.55496949031E+01  0.70677551002E-01 -0.75458507122E+02  0.75683209069E+02  0.17770000000E+01 0. -1.
</event>
<event>
 6    1  0.1697564E-002  0.1828642E+03  0.7546771E-02  0.1068165E+00
        -11   -1    0    0    0    0  0.00000000000E+00  0.00000000000E+00  0.18250000000E+03  0.18250000000E+03  0.00000000000E+00 0. -1.
         11   -1    0    0    0    0 -0.00000000000E+00 -0.00000000000E+00 -0.18250000000E+03  0.18250000000E+03  0.00000000000E+00 0.  1.
        -11    1    1    2    0    0  0.26985329984E+01  0.11444539199E+01  0.14742334915E+03  0.14745248634E+03  0.00000000000E+00 0. -1.
         11    1    1    2    0    0  0.47523788040E+00  0.27037257613E+01 -0.18211514632E+03  0.18213583531E+03  0.00000000000E+00 0.  1.
        -15    1    1    2    0    0 -0.34176810903E+01 -0.34065625986E+01  0.28066280674E+02  0.28533472495E+02  0.17770000000E+01 0. -1.
         15    1    1    2    0    0  0.24391021146E+00 -0.44161708271E+00  0.66255165016E+01  0.68782058527E+01  0.17770000000E+01 0.  1.
</event>
<event>
 6    1  0.1697564E-002  0.1786080E+03  0.7546771E-02  0.1071596E+00
        -11   -1    0    0    0    0  0.00000000000E+00  0.00000000000E+00  0.18250000000E+03  0.18250000000E+03  0.00000000000E+00 0. -1.
         11   -1    0    0    0    0 -0.00000000000E+00 -0.00000000000E+00 -0.18250000000E+03  0.18250000000E+03  0.00000000000E+00 0.  1.
        -11    1    1    2    0    0 -0.29894889536E+01 -0.22002132128E+01  0.17759477891E+03  0.17763356518E+03  0.00000000000E+00 0. -1.
         11    1    1    2    0    0  0.59426430440E+00 -0.28610650753E+01 -0.17960825133E+03  0.17963202050E+03  0.00000000000E+00 0.  1.
        -15    1    1    2    0    0 -0.28208428357E+00  0.82826838167E+00  0.13071248005E+01  0.23731633528E+01  0.17770000000E+01 0. -1.
         15    1    1    2    0    0  0.26773089328E+01  0.42330099065E+01  0.70634761621E+00  0.53612509683E+01  0.17770000000E+01 0.  1.
</event>
<event>
 6    1  0.1697564E-002  0.1847284E+03  0.7546771E-02  0.1066695E+00
        -11   -1    0    0    0    0  0.00000000000E+00  0.00000000000E+00  0.18250000000E+03  0.18250000000E+03  0.00000000000E+00 0.  1.
         11   -1    0    0    0    0 -0.00000000000E+00 -0.00000000000E+00 -0.18250000000E+03  0.18250000000E+03  0.00000000000E+00 0. -1.
        -11    1    1    2    0    0 -0.30128382684E+01 -0.13177600958E+01  0.18024165216E+03  0.18027164741E+03  0.00000000000E+00 0.  1.
         11    1    1    2    0    0 -0.30386651895E+01  0.58156377200E+01 -0.16627553029E+03  0.16640494915E+03  0.00000000000E+00 0. -1.
        -15    1    1    2    0    0 -0.62663354234E+00  0.17098306836E+01 -0.25059008962E+01  0.35711985193E+01  0.17770000000E+01 0.  1.
         15    1    1    2    0    0  0.66781370002E+01 -0.62077083077E+01 -0.11460220976E+02  0.14752204921E+02  0.17770000000E+01 0. -1.
</event>
<event>
 6    1  0.1697564E-002  0.1837262E+03  0.7546771E-02  0.1067483E+00
        -11   -1    0    0    0    0  0.00000000000E+00  0.00000000000E+00  0.18250000000E+03  0.18250000000E+03  0.00000000000E+00 0.  1.
         11   -1    0    0    0    0 -0.00000000000E+00 -0.00000000000E+00 -0.18250000000E+03  0.18250000000E+03  0.00000000000E+00 0.  1.
        -11    1    1    2    0    0  0.39544337750E+01 -0.60889626623E+01  0.45616165543E+02  0.46190340675E+02  0.00000000000E+00 0.  1.
         11    1    1    2    0    0  0.21550853205E+01 -0.40418204897E+01 -0.18121587340E+03  0.18127375287E+03  0.00000000000E+00 0.  1.
        -15    1    1    2    0    0 -0.49278940537E+01 -0.23832600396E+01  0.12248722483E+02  0.13533403108E+02  0.17770000000E+01 0. -1.
         15    1    1    2    0    0 -0.11816250418E+01  0.12514043192E+02  0.12335098538E+03  0.12400250335E+03  0.17770000000E+01 0.  1.
</event>
<event>
 6    1  0.1697564E-002  0.2129275E+03  0.7546771E-02  0.1046523E+00
        -11   -1    0    0    0    0  0.00000000000E+00  0.00000000000E+00  0.18250000000E+03  0.18250000000E+03  0.00000000000E+00 0.  1.
         11   -1    0    0    0    0 -0.00000000000E+00 -0.00000000000E+00 -0.18250000000E+03  0.18250000000E+03  0.00000000000E+00 0. -1.
        -11    1    1    2    0    0 -0.37181775324E+01 -0.21200460392E+01  0.10933816959E+03  0.10942191173E+03  0.00000000000E+00 0.  1.
         11    1    1    2    0    0  0.61583219302E+01  0.58875642308E+01 -0.15183368357E+03  0.15207253469E+03  0.00000000000E+00 0. -1.
        -15    1    1    2    0    0  0.38823064743E+01  0.76539947931E+00  0.72412650011E+02  0.72542454815E+02  0.17770000000E+01 0.  1.
         15    1    1    2    0    0 -0.63224508721E+01 -0.45329176710E+01 -0.29917136027E+02  0.30963098758E+02  0.17770000000E+01 0.  1.
</event>
<event>
 6    1  0.1697564E-002  0.1886452E+03  0.7546771E-02  0.1063666E+00
        -11   -1    0    0    0    0  0.00000000000E+00  0.00000000000E+00  0.18250000000E+03  0.18250000000E+03  0.00000000000E+00 0. -1.
         11   -1    0    0    0    0 -0.00000000000E+00 -0.00000000000E+00 -0.18250000000E+03  0.18250000000E+03  0.00000000000E+00 0.  1.
        -11    1    1    2    0    0  0.13944787708E+02  0.12012360191E+02  0.17539170127E+03  0.17635476397E+03  0.00000000000E+00 0. -1.
         11    1    1    2    0    0  0.44831278136E+01  0.53513832843E+01 -0.79940093523E+02  0.80244341174E+02  0.00000000000E+00 0.  1.
        -15    1    1    2    0    0 -0.17564604294E+02 -0.13927573694E+02 -0.99925140258E+02  0.10242404023E+03  0.17770000000E+01 0.  1.
         15    1    1    2    0    0 -0.86331122737E+00 -0.34361697810E+01  0.44735325104E+01  0.59768546210E+01  0.17770000000E+01 0. -1.
</event>
<event>
 6    1  0.1697564E-002  0.1926333E+03  0.7546771E-02  0.1060663E+00
        -11   -1    0    0    0    0  0.00000000000E+00  0.00000000000E+00  0.18250000000E+03  0.18250000000E+03  0.00000000000E+00 0. -1.
         11   -1    0    0    0    0 -0.00000000000E+00 -0.00000000000E+00 -0.18250000000E+03  0.18250000000E+03  0.00000000000E+00 0.  1.
        -11    1    1    2    0    0  0.48756495619E+01  0.38673359704E+01  0.17225436887E+03  0.17236674808E+03  0.00000000000E+00 0. -1.
         11    1    1    2    0    0  0.77015696537E+01  0.82961211543E+01 -0.72900757147E+02  0.73774387113E+02  0.00000000000E+00 0.  1.
        -15    1    1    2    0    0 -0.57529318204E+01 -0.97943659945E+01  0.61871823371E+01  0.13056216299E+02  0.17770000000E+01 0. -1.
         15    1    1    2    0    0 -0.68242873952E+01 -0.23690911303E+01 -0.10554079406E+03  0.10580264851E+03  0.17770000000E+01 0.  1.
</event>
<event>
 6    1  0.1697564E-002  0.1911259E+03  0.7546771E-02  0.1061789E+00
        -11   -1    0    0    0    0  0.00000000000E+00  0.00000000000E+00  0.18250000000E+03  0.18250000000E+03  0.00000000000E+00 0.  1.
         11   -1    0    0    0    0 -0.00000000000E+00 -0.00000000000E+00 -0.18250000000E+03  0.18250000000E+03  0.00000000000E+00 0. -1.
        -11    1    1    2    0    0 -0.21623232059E+01 -0.23314973627E+01  0.17384499228E+03  0.17387407185E+03  0.00000000000E+00 0.  1.
         11    1    1    2    0    0 -0.60297693104E+01 -0.25438208196E+01 -0.15973969056E+03  0.15987369353E+03  0.00000000000E+00 0. -1.
        -15    1    1    2    0    0  0.15124001614E+01 -0.34371050230E+01  0.66553058620E+01  0.78455000034E+01  0.17770000000E+01 0.  1.
         15    1    1    2    0    0  0.66796923548E+01  0.83124232053E+01 -0.20760607573E+02  0.23406734615E+02  0.17770000000E+01 0. -1.
</event>
<event>
 6    1  0.1697564E-002  0.1832232E+03  0.7546771E-02  0.1067881E+00
        -11   -1    0    0    0    0  0.00000000000E+00  0.00000000000E+00  0.18250000000E+03  0.18250000000E+03  0.00000000000E+00 0.  1.
         11   -1    0    0    0    0 -0.00000000000E+00 -0.00000000000E+00 -0.18250000000E+03  0.18250000000E+03  0.00000000000E+00 0. -1.
        -11    1    1    2    0    0 -0.38791612271E+01 -0.36963780942E+01  0.10034979569E+03  0.10049274898E+03  0.00000000000E+00 0.  1.
         11    1    1    2    0    0  0.33712982860E+01 -0.33657566852E+01 -0.18171437775E+03  0.18177681109E+03  0.00000000000E+00 0. -1.
        -15    1    1    2    0    0 -0.28289202090E+01  0.79965349907E+00  0.53059371453E+01  0.63208332724E+01  0.17770000000E+01 0. -1.
         15    1    1    2    0    0  0.33367831502E+01  0.62624812803E+01  0.76058644919E+02  0.76409606657E+02  0.17770000000E+01 0.  1.
</event>
<event>
 6    1  0.1697564E-002  0.1829245E+03  0.7546771E-02  0.1068117E+00
        -11   -1    0    0    0    0  0.00000000000E+00  0.00000000000E+00  0.18250000000E+03  0.18250000000E+03  0.00000000000E+00 0.  1.
         11   -1    0    0    0    0 -0.00000000000E+00 -0.00000000000E+00 -0.18250000000E+03  0.18250000000E+03  0.00000000000E+00 0.  1.
        -11    1    1    2    0    0  0.23126033765E+01 -0.26266157912E+01  0.18204185281E+03  0.18207548824E+03  0.00000000000E+00 0.  1.
         11    1    1    2    0    0  0.93308834721E+00  0.23692842688E+01 -0.16059550176E+03  0.16061568836E+03  0.00000000000E+00 0.  1.
        -15    1    1    2    0    0 -0.37296199727E+01  0.79498840381E+00 -0.13928248837E+02  0.14549773756E+02  0.17770000000E+01 0. -1.
         15    1    1    2    0    0  0.48392824897E+00 -0.53765688146E+00 -0.75181022076E+01  0.77590496374E+01  0.17770000000E+01 0. -1.
</event>
<event>
 6    1  0.1697564E-002  0.1827663E+03  0.7546771E-02  0.1068243E+00
        -11   -1    0    0    0    0  0.00000000000E+00  0.00000000000E+00  0.18250000000E+03  0.18250000000E+03  0.00000000000E+00 0. -1.
         11   -1    0    0    0    0 -0.00000000000E+00 -0.00000000000E+00 -0.18250000000E+03  0.18250000000E+03  0.00000000000E+00 0.  1.
        -11    1    1    2    0    0 -0.15596236350E+01 -0.89771894132E+00  0.69833111030E+02  0.69856293355E+02  0.00000000000E+00 0. -1.
         11    1    1    2    0    0 -0.88229966622E+00  0.52399540858E+01 -0.18215618728E+03  0.18223367454E+03  0.00000000000E+00 0.  1.
        -15    1    1    2    0    0  0.21094221570E+01  0.49180457705E+00  0.83213161658E+01  0.87802941471E+01  0.17770000000E+01 0.  1.
         15    1    1    2    0    0  0.33250114423E+00 -0.48340397215E+01  0.10400176009E+03  0.10412973796E+03  0.17770000000E+01 0. -1.
</event>
<event>
 6    1  0.1697564E-002  0.1880865E+03  0.7546771E-02  0.1064093E+00
        -11   -1    0    0    0    0  0.00000000000E+00  0.00000000000E+00  0.18250000000E+03  0.18250000000E+03  0.00000000000E+00 0. -1.
         11   -1    0    0    0    0 -0.00000000000E+00 -0.00000000000E+00 -0.18250000000E+03  0.18250000000E+03  0.00000000000E+00 0.  1.
        -11    1    1    2    0    0  0.33453214347E+01 -0.11889747939E+01  0.17687790870E+03  0.17691353658E+03  0.00000000000E+00 0. -1.
         11    1    1    2    0    0  0.79025329299E+01 -0.22672176941E+00 -0.14350890942E+03  0.14372650595E+03  0.00000000000E+00 0.  1.
        -15    1    1    2    0    0 -0.18441992245E+02  0.44777819207E+01 -0.14794226275E+02  0.24128499103E+02  0.17770000000E+01 0. -1.
         15    1    1    2    0    0  0.71941378807E+01 -0.30620853574E+01 -0.18574773010E+02  0.20231458374E+02  0.17770000000E+01 0.  1.
</event>
<event>
 6    1  0.1697564E-002  0.1827398E+03  0.7546771E-02  0.1068264E+00
        -11   -1    0    0    0    0  0.00000000000E+00  0.00000000000E+00  0.18250000000E+03  0.18250000000E+03  0.00000000000E+00 0.  1.
         11   -1    0    0    0    0 -0.00000000000E+00 -0.00000000000E+00 -0.18250000000E+03  0.18250000000E+03  0.00000000000E+00 0. -1.
        -11    1    1    2    0    0 -0.23028097521E+01 -0.23733643838E+01  0.18223018668E+03  0.18226018965E+03  0.00000000000E+00 0.  1.
         11    1    1    2    0    0  0.20655128338E+01 -0.27145936124E+01 -0.91072809336E+02  0.91136666398E+02  0.00000000000E+00 0. -1.
        -15    1    1    2    0    0  0.22654450341E+01  0.55855411143E+01 -0.63457288331E+02  0.63767669568E+02  0.17770000000E+01 0. -1.
         15    1    1    2    0    0 -0.20281481158E+01 -0.49758311804E+00 -0.27700089018E+02  0.27835474387E+02  0.17770000000E+01 0. -1.
</event>
<event>
 6    1  0.1697564E-002  0.1831365E+03  0.7546771E-02  0.1067949E+00
        -11   -1    0    0    0    0  0.00000000000E+00  0.00000000000E+00  0.18250000000E+03  0.18250000000E+03  0.00000000000E+00 0. -1.
         11   -1    0    0    0    0 -0.00000000000E+00 -0.00000000000E+00 -0.18250000000E+03  0.18250000000E+03  0.00000000000E+00 0. -1.
        -11    1    1    2    0    0 -0.13399090216E+01 -0.23128507742E+01  0.18184390437E+03  0.18186354828E+03  0.00000000000E+00 0. -1.
         11    1    1    2    0    0  0.30444652521E+01  0.16954423770E+01 -0.14007524731E+03  0.14011858622E+03  0.00000000000E+00 0. -1.
        -15    1    1    2    0    0  0.28535089260E+01 -0.27313595255E+01 -0.15988332342E+02  0.16564641201E+02  0.17770000000E+01 0.  1.
         15    1    1    2    0    0 -0.45580651564E+01  0.33487679228E+01 -0.25780324716E+02  0.26453224303E+02  0.17770000000E+01 0. -1.
</event>
<event>
 6    1  0.1697564E-002  0.1837460E+03  0.7546771E-02  0.1067467E+00
        -11   -1    0    0    0    0  0.00000000000E+00  0.00000000000E+00  0.18250000000E+03  0.18250000000E+03  0.00000000000E+00 0.  1.
         11   -1    0    0    0    0 -0.00000000000E+00 -0.00000000000E+00 -0.18250000000E+03  0.18250000000E+03  0.00000000000E+00 0. -1.
        -11    1    1    2    0    0  0.18581812561E+01 -0.18077959456E+01  0.11067603700E+03  0.11070639607E+03  0.00000000000E+00 0.  1.
         11    1    1    2    0    0 -0.10699856891E+01 -0.46506544298E+01 -0.18119114582E+03  0.18125397866E+03  0.00000000000E+00 0. -1.
        -15    1    1    2    0    0  0.58817087012E+00  0.78877264737E+01  0.12105119045E+02  0.14568933043E+02  0.17770000000E+01 0. -1.
         15    1    1    2    0    0 -0.13763664371E+01 -0.14292760984E+01  0.58409989777E+02  0.58470692227E+02  0.17770000000E+01 0.  1.
</event>
<event>
 6    1  0.1697564E-002  0.1851123E+03  0.7546771E-02  0.1066394E+00
        -11   -1    0    0    0    0  0.00000000000E+00  0.00000000000E+00  0.18250000000E+03  0.18250000000E+03  0.00000000000E+00 0.  1.
         11   -1    0    0    0    0 -0.00000000000E+00 -0.00000000000E+00 -0.18250000000E+03  0.18250000000E+03  0.00000000000E+00 0. -1.
        -11    1    1    2    0    0  0.30682703719E+01 -0.96107500081E+00  0.17985897656E+03  0.17988771330E+03  0.00000000000E+00 0.  1.
         11    1    1    2    0    0 -0.31428879848E+01  0.35014007329E-01 -0.17208252767E+03  0.17211122945E+03  0.00000000000E+00 0. -1.
        -15    1    1    2    0    0 -0.42102109087E+01  0.28581422828E+01 -0.42025219691E+01  0.68347474793E+01  0.17770000000E+01 0.  1.
         15    1    1    2    0    0  0.42848285216E+01 -0.19320812893E+01 -0.35739269174E+01  0.61663097699E+01  0.17770000000E+01 0. -1.
</event>
<event>
 6    1  0.1697564E-002  0.1826637E+03  0.7546771E-02  0.1068325E+00
        -11   -1    0    0    0    0  0.00000000000E+00  0.00000000000E+00  0.18250000000E+03  0.18250000000E+03  0.00000000000E+00 0.  1.
         11   -1    0    0    0    0 -0.00000000000E+00 -0.00000000000E+00 -0.18250000000E+03  0.18250000000E+03  0.00000000000E+00 0. -1.
        -11    1    1    2    0    0 -0.25307418634E+01 -0.23089057947E+01  0.10423296067E+03  0.10428924101E+03  0.00000000000E+00 0.  1.
         11    1    1    2    0    0  0.45908805182E+01 -0.47526155280E+00 -0.18227787623E+03  0.18233629978E+03  0.00000000000E+00 0. -1.
        -15    1    1    2    0    0  0.16712226238E+01  0.13686653734E+01  0.28118300146E+02  0.28257083396E+02  0.17770000000E+01 0.  1.
         15    1    1    2    0    0 -0.37313612786E+01  0.14155019741E+01  0.49926615412E+02  0.50117375813E+02  0.17770000000E+01 0.  1.
</event>
<event>
 6    1  0.1697564E-002  0.1841976E+03  0.7546771E-02  0.1067111E+00
        -11   -1    0    0    0    0  0.00000000000E+00  0.00000000000E+00  0.18250000000E+03  0.18250000000E+03  0.00000000000E+00 0. -1.
         11   -1    0    0    0    0 -0.00000000000E+00 -0.00000000000E+00 -0.18250000000E+03  0.18250000000E+03  0.00000000000E+00 0.  1.
        -11    1    1    2    0    0  0.19747413992E+01 -0.82193396641E+00  0.13109872137E+03  0.13111616957E+03  0.00000000000E+00 0. -1.
         11    1    1    2    0    0  0.27326134709E+01 -0.10415978378E+01 -0.18077870430E+03  0.18080235627E+03  0.00000000000E+00 0.  1.
        -15    1    1    2    0    0  0.44395398562E+01  0.65779736950E+01  0.18799951950E+02  0.20483534226E+02  0.17770000000E+01 0.  1.
         15    1    1    2    0    0 -0.91468947264E+01 -0.47144418908E+01  0.30880030985E+02  0.32597939937E+02  0.17770000000E+01 0. -1.
</event>
<event>
 6    1  0.1697564E-002  0.1829680E+03  0.7546771E-02  0.1068083E+00
        -11   -1    0    0    0    0  0.00000000000E+00  0.00000000000E+00  0.18250000000E+03  0.18250000000E+03  0.00000000000E+00 0.  1.
         11   -1    0    0    0    0 -0.00000000000E+00 -0.00000000000E+00 -0.18250000000E+03  0.18250000000E+03  0.00000000000E+00 0. -1.
        -11    1    1    2    0    0  0.99061716348E+00  0.60864381309E+00  0.66943840813E+02  0.66953936348E+02  0.00000000000E+00 0.  1.
         11    1    1    2    0    0 -0.50347750018E+01 -0.12468080857E+01 -0.18195806058E+03  0.18203197329E+03  0.00000000000E+00 0. -1.
        -15    1    1    2    0    0 -0.46214205605E+00 -0.34466528461E+01  0.93615915878E+02  0.93697334145E+02  0.17770000000E+01 0.  1.
         15    1    1    2    0    0  0.45062998943E+01  0.40848171187E+01  0.21398303890E+02  0.22316756216E+02  0.17770000000E+01 0. -1.
</event>
<event>
 6    1  0.1697564E-002  0.1835567E+03  0.7546771E-02  0.1067617E+00
        -11   -1    0    0    0    0  0.00000000000E+00  0.00000000000E+00  0.18250000000E+03  0.18250000000E+03  0.00000000000E+00 0.  1.
         11   -1    0    0    0    0 -0.00000000000E+00 -0.00000000000E+00 -0.18250000000E+03  0.18250000000E+03  0.00000000000E+00 0. -1.
        -11    1    1    2    0    0 -0.80651964843E+00  0.29851966166E+01  0.16093170221E+03  0.16096140733E+03  0.00000000000E+00 0.  1.
         11    1    1    2    0    0 -0.98407915579E+00 -0.62173595198E+01 -0.18133407475E+03  0.18144329868E+03  0.00000000000E+00 0. -1.
        -15    1    1    2    0    0  0.46087873284E+00 -0.15855262076E+01  0.14323891561E+02  0.14527831945E+02  0.17770000000E+01 0.  1.
         15    1    1    2    0    0  0.13297200714E+01  0.48176891109E+01  0.60784809810E+01  0.80674620466E+01  0.17770000000E+01 0. -1.
</event>
<event>
 6    1  0.1697564E-002  0.1849327E+03  0.7546771E-02  0.1066535E+00
        -11   -1    0    0    0    0  0.00000000000E+00  0.00000000000E+00  0.18250000000E+03  0.18250000000E+03  0.00000000000E+00 0.  1.
         11   -1    0    0    0    0 -0.00000000000E+00 -0.00000000000E+00 -0.18250000000E+03  0.18250000000E+03  0.00000000000E+00 0. -1.
        -11    1    1    2    0    0 -0.14972772934E+01 -0.42781768888E+01  0.18001020261E+03  0.18006725877E+03  0.00000000000E+00 0.  1.
         11    1    1    2    0    0 -0.75660873801E+01 -0.75275159979E+00 -0.16155975575E+03  0.16173857608E+03  0.00000000000E+00 0. -1.
        -15    1    1    2    0    0  0.54932954069E+01  0.57402898437E+01 -0.17074749506E+02  0.18916448440E+02  0.17770000000E+01 0. -1.
         15    1    1    2    0    0  0.35700692666E+01 -0.70936135512E+00 -0.13756973482E+01  0.42777167151E+01  0.17770000000E+01 0.  1.
</event>
<event>
 6    1  0.1697564E-002  0.1744436E+03  0.7546771E-02  0.1075055E+00
        -11   -1    0    0    0    0  0.00000000000E+00  0.00000000000E+00  0.18250000000E+03  0.18250000000E+03  0.00000000000E+00 0.  1.
         11   -1    0    0    0    0 -0.00000000000E+00 -0.00000000000E+00 -0.18250000000E+03  0.18250000000E+03  0.00000000000E+00 0.  1.
        -11    1    1    2    0    0  0.33799764391E+01 -0.59078695109E+00  0.17422686427E+03  0.17426064818E+03  0.00000000000E+00 0.  1.
         11    1    1    2    0    0 -0.39679748891E+01  0.71222430243E+01 -0.17449785442E+03  0.17468821474E+03  0.00000000000E+00 0.  1.
        -15    1    1    2    0    0 -0.28109924591E+01 -0.21218466539E+01  0.64407554194E+01  0.75528121385E+01  0.17770000000E+01 0. -1.
         15    1    1    2    0    0  0.33989909092E+01 -0.44096094193E+01 -0.61697652672E+01  0.84983249457E+01  0.17770000000E+01 0.  1.
</event>
<event>
 6    1  0.1697564E-002  0.1839906E+03  0.7546771E-02  0.1067274E+00
        -11   -1    0    0    0    0  0.00000000000E+00  0.00000000000E+00  0.18250000000E+03  0.18250000000E+03  0.00000000000E+00 0.  1.
         11   -1    0    0    0    0 -0.00000000000E+00 -0.00000000000E+00 -0.18250000000E+03  0.18250000000E+03  0.00000000000E+00 0. -1.
        -11    1    1    2    0    0  0.28093054252E+00  0.28742200480E+01  0.15163898357E+03  0.15166648081E+03  0.00000000000E+00 0.  1.
         11    1    1    2    0    0 -0.40603570013E+01 -0.45914587171E+01 -0.18090560677E+03  0.18100941013E+03  0.00000000000E+00 0. -1.
        -15    1    1    2    0    0 -0.14440324283E+01  0.28119576326E+00 -0.19569011823E+00  0.23152374249E+01  0.17770000000E+01 0. -1.
         15    1    1    2    0    0  0.52234588871E+01  0.14360429058E+01  0.29462313325E+02  0.30008871645E+02  0.17770000000E+01 0. -1.
</event>
<event>
 6    1  0.1697564E-002  0.1840454E+03  0.7546771E-02  0.1067231E+00
        -11   -1    0    0    0    0  0.00000000000E+00  0.00000000000E+00  0.18250000000E+03  0.18250000000E+03  0.00000000000E+00 0. -1.
         11   -1    0    0    0    0 -0.00000000000E+00 -0.00000000000E+00 -0.18250000000E+03  0.18250000000E+03  0.00000000000E+00 0.  1.
        -11    1    1    2    0    0  0.89803353865E+00  0.23783880276E+01  0.18093678728E+03  0.18095464677E+03  0.00000000000E+00 0. -1.
         11    1    1    2    0    0  0.22872714965E+01  0.96261187404E+00 -0.17504934738E+03  0.17506693649E+03  0.00000000000E+00 0.  1.
        -15    1    1    2    0    0  0.27893909918E+00 -0.96374619688E+00 -0.93347455959E+00  0.22440404422E+01  0.17770000000E+01 0.  1.
         15    1    1    2    0    0 -0.34642441343E+01 -0.23772537047E+01 -0.49539653440E+01  0.67343763058E+01  0.17770000000E+01 0. -1.
</event>
<event>
 6    1  0.1796454E-002  0.1845221E+03  0.7546771E-02  0.1066857E+00
        -11   -1    0    0    0    0  0.00000000000E+00  0.00000000000E+00  0.18250000000E+03  0.18250000000E+03  0.00000000000E+00 0. -1.
         11   -1    0    0    0    0 -0.00000000000E+00 -0.00000000000E+00 -0.18250000000E+03  0.18250000000E+03  0.00000000000E+00 0.  1.
        -11    1    1    2    0    0 -0.68837547639E+00  0.34834132672E+01  0.18044300592E+03  0.18047793885E+03  0.00000000000E+00 0. -1.
         11    1    1    2    0    0 -0.30226565470E+00 -0.39230096742E+01 -0.16479832842E+03  0.16484529238E+03  0.00000000000E+00 0.  1.
        -15    1    1    2    0    0  0.69981117320E+00  0.26089769572E+01 -0.16434000089E+02  0.16749047268E+02  0.17770000000E+01 0.  1.
         15    1    1    2    0    0  0.29082995789E+00 -0.21693805502E+01  0.78932259198E+00  0.29277215015E+01  0.17770000000E+01 0.  1.
</event>
<event>
 6    1  0.1697564E-002  0.1830033E+03  0.7546771E-02  0.1068055E+00
        -11   -1    0    0    0    0  0.00000000000E+00  0.00000000000E+00  0.18250000000E+03  0.18250000000E+03  0.00000000000E+00 0.  1.
         11   -1    0    0    0    0 -0.00000000000E+00 -0.00000000000E+00 -0.18250000000E+03  0.18250000000E+03  0.00000000000E+00 0.  1.
        -11    1    1    2    0    0 -0.11365685895E+01 -0.18626800713E+01  0.14538957539E+03  0.14540594897E+03  0.00000000000E+00 0.  1.
         11    1    1    2    0    0  0.23949801507E+01 -0.34444782954E+01 -0.18194833747E+03  0.18199669741E+03  0.00000000000E+00 0.  1.
        -15    1    1    2    0    0  0.36445920377E+00  0.18897433572E+01  0.40651814242E+01  0.48360510211E+01  0.17770000000E+01 0.  1.
         15    1    1    2    0    0 -0.16228707649E+01  0.34174150094E+01  0.32493580656E+02  0.32761302595E+02  0.17770000000E+01 0. -1.
</event>
<event>
 6    1  0.1697564E-002  0.1911602E+03  0.7546771E-02  0.1061763E+00
        -11   -1    0    0    0    0  0.00000000000E+00  0.00000000000E+00  0.18250000000E+03  0.18250000000E+03  0.00000000000E+00 0. -1.
         11   -1    0    0    0    0 -0.00000000000E+00 -0.00000000000E+00 -0.18250000000E+03  0.18250000000E+03  0.00000000000E+00 0. -1.
        -11    1    1    2    0    0  0.65331226288E+01 -0.87122107495E+01  0.14512088658E+03  0.14552888383E+03  0.00000000000E+00 0. -1.
         11    1    1    2    0    0 -0.15930363027E+01  0.35070140636E+01 -0.17379708569E+03  0.17383976504E+03  0.00000000000E+00 0. -1.
        -15    1    1    2    0    0  0.89531627030E+01 -0.26846328942E+01 -0.31111964930E+01  0.10010177260E+02  0.17770000000E+01 0. -1.
         15    1    1    2    0    0 -0.13893249029E+02  0.78898295801E+01  0.31787395607E+02  0.35621173870E+02  0.17770000000E+01 0.  1.
</event>
<event>
 6    1  0.1697564E-002  0.1827908E+03  0.7546771E-02  0.1068224E+00
        -11   -1    0    0    0    0  0.00000000000E+00  0.00000000000E+00  0.18250000000E+03  0.18250000000E+03  0.00000000000E+00 0. -1.
         11   -1    0    0    0    0 -0.00000000000E+00 -0.00000000000E+00 -0.18250000000E+03  0.18250000000E+03  0.00000000000E+00 0.  1.
        -11    1    1    2    0    0 -0.22459364916E+01 -0.14349568615E+01  0.18218971879E+03  0.18220921208E+03  0.00000000000E+00 0. -1.
         11    1    1    2    0    0  0.12406510778E+01  0.16580608061E+01 -0.63900345656E+02  0.63933892074E+02  0.00000000000E+00 0.  1.
        -15    1    1    2    0    0 -0.24649507671E+01  0.67919349333E+00 -0.10316734467E+03  0.10321432081E+03  0.17770000000E+01 0.  1.
         15    1    1    2    0    0  0.34702361809E+01 -0.90229743786E+00 -0.15122028467E+02  0.15642575036E+02  0.17770000000E+01 0. -1.
</event>
<event>
 6    1  0.1697564E-002  0.1885051E+03  0.7546771E-02  0.1063773E+00
        -11   -1    0    0    0    0  0.00000000000E+00  0.00000000000E+00  0.18250000000E+03  0.18250000000E+03  0.00000000000E+00 0.  1.
         11   -1    0    0    0    0 -0.00000000000E+00 -0.00000000000E+00 -0.18250000000E+03  0.18250000000E+03  0.00000000000E+00 0. -1.
        -11    1    1    2    0    0 -0.35460150984E+01 -0.21931390568E+00  0.11711411868E+03  0.11716799528E+03  0.00000000000E+00 0.  1.
         11    1    1    2    0    0 -0.27380199420E+01 -0.11154020736E+02 -0.17612084214E+03  0.17649492902E+03  0.00000000000E+00 0. -1.
        -15    1    1    2    0    0  0.36742123803E+01  0.82940897255E+01 -0.25764142799E+01  0.95962180327E+01  0.17770000000E+01 0. -1.
         15    1    1    2    0    0  0.26098226602E+01  0.30792449160E+01  0.61583137739E+02  0.61740857674E+02  0.17770000000E+01 0. -1.
</event>
<event>
 6    1  0.1697564E-002  0.1864588E+03  0.7546771E-02  0.1065347E+00
        -11   -1    0    0    0    0  0.00000000000E+00  0.00000000000E+00  0.18250000000E+03  0.18250000000E+03  0.00000000000E+00 0.  1.
         11   -1    0    0    0    0 -0.00000000000E+00 -0.00000000000E+00 -0.18250000000E+03  0.18250000000E+03  0.00000000000E+00 0. -1.
        -11    1    1    2    0    0 -0.13050778558E+01 -0.29738931319E+01  0.17851161926E+03  0.17854115906E+03  0.00000000000E+00 0.  1.
         11    1    1    2    0    0  0.48703683037E+01 -0.46716476937E+00 -0.16227431968E+03  0.16234806299E+03  0.00000000000E+00 0. -1.
        -15    1    1    2    0    0  0.23154710785E+01  0.12863069368E+01  0.26412265286E+01  0.41412315108E+01  0.17770000000E+01 0.  1.
         15    1    1    2    0    0 -0.58807615265E+01  0.21547509645E+01 -0.18878526109E+02  0.19969546437E+02  0.17770000000E+01 0. -1.
</event>
<event>
 6    1  0.1697564E-002  0.1960885E+03  0.7546771E-02  0.1058125E+00
        -11   -1    0    0    0    0  0.00000000000E+00  0.00000000000E+00  0.18250000000E+03  0.18250000000E+03  0.00000000000E+00 0.  1.
         11   -1    0    0    0    0 -0.00000000000E+00 -0.00000000000E+00 -0.18250000000E+03  0.18250000000E+03  0.00000000000E+00 0. -1.
        -11    1    1    2    0    0  0.17751599200E+01 -0.29701154233E+00  0.66806647634E+02  0.66830887894E+02  0.00000000000E+00 0.  1.
         11    1    1    2    0    0  0.27321408754E+01 -0.72947802799E+00 -0.16888782640E+03  0.16891149943E+03  0.00000000000E+00 0. -1.
        -15    1    1    2    0    0 -0.32762509864E+01 -0.14756436356E+01 -0.13268364626E+02  0.13860684454E+02  0.17770000000E+01 0.  1.
         15    1    1    2    0    0 -0.12310498090E+01  0.25021332059E+01  0.11534954339E+03  0.11539692823E+03  0.17770000000E+01 0.  1.
</event>
<event>
 6    1  0.1697564E-002  0.1841226E+03  0.7546771E-02  0.1067171E+00
        -11   -1    0    0    0    0  0.00000000000E+00  0.00000000000E+00  0.18250000000E+03  0.18250000000E+03  0.00000000000E+00 0. -1.
         11   -1    0    0    0    0 -0.00000000000E+00 -0.00000000000E+00 -0.18250000000E+03  0.18250000000E+03  0.00000000000E+00 0.  1.
        -11    1    1    2    0    0 -0.33968740176E+01  0.44686458173E+00  0.17396584002E+03  0.17399957453E+03  0.00000000000E+00 0. -1.
         11    1    1    2    0    0 -0.14623600167E+01 -0.22109553333E+01 -0.18085798879E+03  0.18087741410E+03  0.00000000000E+00 0.  1.
        -15    1    1    2    0    0  0.27908039240E+01 -0.16974475332E+00  0.12033430799E+01  0.35246508184E+01  0.17770000000E+01 0.  1.
         15    1    1    2    0    0  0.20684301104E+01  0.19338355049E+01  0.56888056867E+01  0.65983605557E+01  0.17770000000E+01 0. -1.
</event>
<event>
 6    1  0.1697564E-002  0.1841267E+03  0.7546771E-02  0.1067167E+00
        -11   -1    0    0    0    0  0.00000000000E+00  0.00000000000E+00  0.18250000000E+03  0.18250000000E+03  0.00000000000E+00 0.  1.
         11   -1    0    0    0    0 -0.00000000000E+00 -0.00000000000E+00 -0.18250000000E+03  0.18250000000E+03  0.00000000000E+00 0.  1.
        -11    1    1    2    0    0  0.27475362824E+01  0.80677991542E+00  0.18085064516E+03  0.18087331396E+03  0.00000000000E+00 0.  1.
         11    1    1    2    0    0  0.24060583833E+01 -0.15457245682E+01 -0.17379827167E+03  0.17382179845E+03  0.00000000000E+00 0.  1.
        -15    1    1    2    0    0 -0.93389301778E+00  0.13727843104E+01 -0.86413411240E+00  0.25809203195E+01  0.17770000000E+01 0.  1.
         15    1    1    2    0    0 -0.42197016479E+01 -0.63383965764E+00 -0.61882393758E+01  0.77239672631E+01  0.17770000000E+01 0.  1.
</event>
<event>
 6    1  0.1875741E-002  0.1856324E+03  0.7546771E-02  0.1065988E+00
        -11   -1    0    0    0    0  0.00000000000E+00  0.00000000000E+00  0.18250000000E+03  0.18250000000E+03  0.00000000000E+00 0. -1.
         11   -1    0    0    0    0 -0.00000000000E+00 -0.00000000000E+00 -0.18250000000E+03  0.18250000000E+03  0.00000000000E+00 0. -1.
        -11    1    1    2    0    0  0.12902137642E+01  0.31223686564E+01  0.13102175935E+03  0.13106530915E+03  0.00000000000E+00 0. -1.
         11    1    1    2    0    0 -0.10332019291E+02 -0.13716703554E+02 -0.17854365035E+03  0.17936759367E+03  0.00000000000E+00 0. -1.
        -15    1    1    2    0    0 -0.20026757651E+01 -0.13623041741E+01  0.31552760084E+02  0.31695441010E+02  0.17770000000E+01 0. -1.
         15    1    1    2    0    0  0.11044481292E+02  0.11956639071E+02  0.15969130915E+02  0.22871656172E+02  0.17770000000E+01 0.  1.
</event>
<event>
 6    1  0.1697564E-002  0.1672960E+03  0.7546771E-02  0.1081246E+00
        -11   -1    0    0    0    0  0.00000000000E+00  0.00000000000E+00  0.18250000000E+03  0.18250000000E+03  0.00000000000E+00 0.  1.
         11   -1    0    0    0    0 -0.00000000000E+00 -0.00000000000E+00 -0.18250000000E+03  0.18250000000E+03  0.00000000000E+00 0. -1.
        -11    1    1    2    0    0  0.11808847333E+01 -0.86960897321E+01  0.16582143823E+03  0.16605350295E+03  0.00000000000E+00 0.  1.
         11    1    1    2    0    0 -0.23516627452E+01  0.16579445258E+01 -0.16860147583E+03  0.16862602632E+03  0.00000000000E+00 0. -1.
        -15    1    1    2    0    0  0.54740746285E+01 -0.10059572008E+02 -0.24475506282E+01  0.11845197976E+02  0.17770000000E+01 0. -1.
         15    1    1    2    0    0 -0.43032966166E+01  0.17097717214E+02  0.52275882297E+01  0.18475272756E+02  0.17770000000E+01 0.  1.
</event>
<event>
 6    1  0.1840530E-002  0.1865650E+03  0.7546771E-02  0.1065264E+00
        -11   -1    0    0    0    0  0.00000000000E+00  0.00000000000E+00  0.18250000000E+03  0.18250000000E+03  0.00000000000E+00 0.  1.
         11   -1    0    0    0    0 -0.00000000000E+00 -0.00000000000E+00 -0.18250000000E+03  0.18250000000E+03  0.00000000000E+00 0. -1.
        -11    1    1    2    0    0  0.23955571698E+01  0.72591240338E+01  0.17827116757E+03  0.17843498189E+03  0.00000000000E+00 0.  1.
         11    1    1    2    0    0  0.28996191786E+01 -0.87279914143E+00 -0.16464015881E+03  0.16466800376E+03  0.00000000000E+00 0. -1.
        -15    1    1    2    0    0 -0.13888853270E+01  0.14137890394E+01 -0.12665369184E+02  0.12942067357E+02  0.17770000000E+01 0. -1.
         15    1    1    2    0    0 -0.39062910215E+01 -0.78001139319E+01 -0.96563957449E+00  0.89549469949E+01  0.17770000000E+01 0.  1.
</event>
<event>
 6    1  0.1697564E-002  0.1756440E+03  0.7546771E-02  0.1074047E+00
        -11   -1    0    0    0    0  0.00000000000E+00  0.00000000000E+00  0.18250000000E+03  0.18250000000E+03  0.00000000000E+00 0. -1.
         11   -1    0    0    0    0 -0.00000000000E+00 -0.00000000000E+00 -0.18250000000E+03  0.18250000000E+03  0.00000000000E+00 0.  1.
        -11    1    1    2    0    0 -0.35829647415E+01 -0.44970543611E+01  0.17772328425E+03  0.17781627287E+03  0.00000000000E+00 0. -1.
         11    1    1    2    0    0 -0.28802057144E+01  0.10877307369E+01 -0.17354519149E+03  0.17357249849E+03  0.00000000000E+00 0.  1.
        -15    1    1    2    0    0 -0.12042389307E+00 -0.30681115932E+01 -0.12291818788E+01  0.37545209753E+01  0.17770000000E+01 0. -1.
         15    1    1    2    0    0  0.65835943490E+01  0.64774352174E+01 -0.29489108828E+01  0.98567076624E+01  0.17770000000E+01 0.  1.
</event>
<event>
 6    1  0.1697564E-002  0.1881175E+03  0.7546771E-02  0.1064069E+00
        -11   -1    0    0    0    0  0.00000000000E+00  0.00000000000E+00  0.18250000000E+03  0.18250000000E+03  0.00000000000E+00 0.  1.
         11   -1    0    0    0    0 -0.00000000000E+00 -0.00000000000E+00 -0.18250000000E+03  0.18250000000E+03  0.00000000000E+00 0. -1.
        -11    1    1    2    0    0  0.53001267705E+01 -0.19371048799E+01  0.12239000268E+03  0.12252002479E+03  0.00000000000E+00 0.  1.
         11    1    1    2    0    0  0.60543085233E+01 -0.28276493239E+01 -0.17675625775E+03  0.17688251725E+03  0.00000000000E+00 0. -1.
        -15    1    1    2    0    0 -0.31876106610E+01 -0.58705191366E+00 -0.45437110232E+01  0.58573484221E+01  0.17770000000E+01 0. -1.
         15    1    1    2    0    0 -0.81668246328E+01  0.53518061174E+01  0.58909966094E+02  0.59740109537E+02  0.17770000000E+01 0.  1.
</event>
<event>
 6    1  0.1697564E-002  0.1850953E+03  0.7546771E-02  0.1066408E+00
        -11   -1    0    0    0    0  0.00000000000E+00  0.00000000000E+00  0.18250000000E+03  0.18250000000E+03  0.00000000000E+00 0. -1.
         11   -1    0    0    0    0 -0.00000000000E+00 -0.00000000000E+00 -0.18250000000E+03  0.18250000000E+03  0.00000000000E+00 0.  1.
        -11    1    1    2    0    0  0.17720896374E+01  0.36917333357E+01  0.17985808667E+03  0.17990469849E+03  0.00000000000E+00 0. -1.
         11    1    1    2    0    0  0.44919931866E+01 -0.47184527114E+01 -0.16585231159E+03  0.16598021286E+03  0.00000000000E+00 0.  1.
        -15    1    1    2    0    0 -0.19205184332E+01 -0.14616327006E+01  0.10295761619E+01  0.31689931014E+01  0.17770000000E+01 0.  1.
         15    1    1    2    0    0 -0.43435643908E+01  0.24883520763E+01 -0.15035351238E+02  0.15946095557E+02  0.17770000000E+01 0. -1.
</event>
<event>
 6    1  0.1697564E-002  0.1853037E+03  0.7546771E-02  0.1066245E+00
        -11   -1    0    0    0    0  0.00000000000E+00  0.00000000000E+00  0.18250000000E+03  0.18250000000E+03  0.00000000000E+00 0.  1.
         11   -1    0    0    0    0 -0.00000000000E+00 -0.00000000000E+00 -0.18250000000E+03  0.18250000000E+03  0.00000000000E+00 0. -1.
        -11    1    1    2    0    0  0.30001973290E+01 -0.26606758634E+00  0.15408246744E+03  0.15411190333E+03  0.00000000000E+00 0.  1.
         11    1    1    2    0    0 -0.37739914438E+01 -0.16905467436E+01 -0.17964875329E+03  0.17969634253E+03  0.00000000000E+00 0. -1.
        -15    1    1    2    0    0 -0.30902953390E+01  0.81144366590E+01  0.19965266391E+02  0.21844074680E+02  0.17770000000E+01 0.  1.
         15    1    1    2    0    0  0.38640894539E+01 -0.61578223291E+01  0.56010194624E+01  0.93476794533E+01  0.17770000000E+01 0. -1.
</event>
<event>
 6    1  0.1697564E-002  0.1842390E+03  0.7546771E-02  0.1067079E+00
        -11   -1    0    0    0    0  0.00000000000E+00  0.00000000000E+00  0.18250000000E+03  0.18250000000E+03  0.00000000000E+00 0.  1.
         11   -1    0    0    0    0 -0.00000000000E+00 -0.00000000000E+00 -0.18250000000E+03  0.18250000000E+03  0.00000000000E+00 0.  1.
        -11    1    1    2    0    0 -0.36714306577E+01 -0.18039045864E+01  0.15772039845E+03  0.15777343745E+03  0.00000000000E+00 0.  1.
         11    1    1    2    0    0  0.16411706085E+01 -0.25715765262E+01 -0.18073523351E+03  0.18076097776E+03  0.00000000000E+00 0.  1.
        -15    1    1    2    0    0 -0.18263199233E+01  0.86895782848E+00 -0.10957580770E+00  0.26944884538E+01  0.17770000000E+01 0. -1.
         15    1    1    2    0    0  0.38565799725E+01  0.35065232842E+01  0.23124410864E+02  0.23771096345E+02  0.17770000000E+01 0.  1.
</event>
<event>
 6    1  0.1697564E-002  0.1541418E+03  0.7546771E-02  0.1093576E+00
        -11   -1    0    0    0    0  0.00000000000E+00  0.00000000000E+00  0.18250000000E+03  0.18250000000E+03  0.00000000000E+00 0.  1.
         11   -1    0    0    0    0 -0.00000000000E+00 -0.00000000000E+00 -0.18250000000E+03  0.18250000000E+03  0.00000000000E+00 0.  1.
        -11    1    1    2    0    0  0.16689398922E+02 -0.68483567599E+01  0.14861538512E+03  0.14970627482E+03  0.00000000000E+00 0.  1.
         11    1    1    2    0    0  0.17166326231E+01  0.15751996394E+01 -0.15934048976E+03  0.15935752182E+03  0.00000000000E+00 0.  1.
        -15    1    1    2    0    0 -0.71783837034E+00  0.12759760421E+02 -0.17504273738E+02  0.21745898603E+02  0.17770000000E+01 0.  1.
         15    1    1    2    0    0 -0.17688193175E+02 -0.74866033005E+01  0.28229378380E+02  0.34190304758E+02  0.17770000000E+01 0. -1.
</event>
<event>
 6    1  0.1697564E-002  0.1858036E+03  0.7546771E-02  0.1065855E+00
        -11   -1    0    0    0    0  0.00000000000E+00  0.00000000000E+00  0.18250000000E+03  0.18250000000E+03  0.00000000000E+00 0. -1.
         11   -1    0    0    0    0 -0.00000000000E+00 -0.00000000000E+00 -0.18250000000E+03  0.18250000000E+03  0.00000000000E+00 0.  1.
        -11    1    1    2    0    0  0.86054653022E+01 -0.39233140587E+01  0.17894669349E+03  0.17919644398E+03  0.00000000000E+00 0. -1.
         11    1    1    2    0    0 -0.75096409257E+01  0.27032456941E+01 -0.14700687315E+03  0.14722337789E+03  0.00000000000E+00 0.  1.
        -15    1    1    2    0    0 -0.54315332807E+01 -0.27123561274E+00 -0.33047960480E+02  0.33539537019E+02  0.17770000000E+01 0.  1.
         15    1    1    2    0    0  0.43357089042E+01  0.14913039773E+01  0.11081401401E+01  0.50406411125E+01  0.17770000000E+01 0. -1.
</event>
<event>
 6    1  0.1697564E-002  0.1724933E+03  0.7546771E-02  0.1076711E+00
        -11   -1    0    0    0    0  0.00000000000E+00  0.00000000000E+00  0.18250000000E+03  0.18250000000E+03  0.00000000000E+00 0. -1.
         11   -1    0    0    0    0 -0.00000000000E+00 -0.00000000000E+00 -0.18250000000E+03  0.18250000000E+03  0.00000000000E+00 0.  1.
        -11    1    1    2    0    0  0.72052538196E+01  0.14966265845E+02  0.17169941459E+03  0.17250099642E+03  0.00000000000E+00 0. -1.
         11    1    1    2    0    0  0.10141756411E+01 -0.32062450115E+01 -0.17275263256E+03  0.17278535996E+03  0.00000000000E+00 0.  1.
        -15    1    1    2    0    0 -0.93995208126E+01 -0.13322152202E+02  0.26666826740E+01  0.16616246757E+02  0.17770000000E+01 0. -1.
         15    1    1    2    0    0  0.11800913519E+01  0.15621313683E+01 -0.16134646999E+01  0.30973968665E+01  0.17770000000E+01 0.  1.
</event>
<event>
 6    1  0.1697564E-002  0.1844286E+03  0.7546771E-02  0.1066930E+00
        -11   -1    0    0    0    0  0.00000000000E+00  0.00000000000E+00  0.18250000000E+03  0.18250000000E+03  0.00000000000E+00 0. -1.
         11   -1    0    0    0    0 -0.00000000000E+00 -0.00000000000E+00 -0.18250000000E+03  0.18250000000E+03  0.00000000000E+00 0. -1.
        -11    1    1    2    0    0  0.32584438483E+01  0.11462000081E+01  0.18053837139E+03  0.18057141185E+03  0.00000000000E+00 0. -1.
         11    1    1    2    0    0  0.43284796480E+01 -0.82140898959E+00 -0.17194143885E+03  0.17199787453E+03  0.00000000000E+00 0. -1.
        -15    1    1    2    0    0 -0.58594554898E+01  0.91187378773E+00 -0.55651219821E+01  0.83242443571E+01  0.17770000000E+01 0. -1.
         15    1    1    2    0    0 -0.17274680065E+01 -0.12366648062E+01 -0.30318105654E+01  0.41064692695E+01  0.17770000000E+01 0.  1.
</event>
<event>
 6    1  0.1697564E-002  0.1831642E+03  0.7546771E-02  0.1067927E+00
        -11   -1    0    0    0    0  0.00000000000E+00  0.00000000000E+00  0.18250000000E+03  0.18250000000E+03  0.00000000000E+00 0. -1.
         11   -1    0    0    0    0 -0.00000000000E+00 -0.00000000000E+00 -0.18250000000E+03  0.18250000000E+03  0.00000000000E+00 0.  1.
        -11    1    1    2    0    0 -0.19402098732E+01 -0.11099163632E+01  0.15914616298E+03  0.15916185950E+03  0.00000000000E+00 0. -1.
         11    1    1    2    0    0  0.74240424726E+01 -0.64279356913E+00 -0.18168304278E+03  0.18183579852E+03  0.00000000000E+00 0.  1.
        -15    1    1    2    0    0 -0.48830202718E+00 -0.88703350233E+00  0.33789459231E+01  0.39497179463E+01  0.17770000000E+01 0. -1.
         15    1    1    2    0    0 -0.49955305722E+01  0.26397434346E+01  0.19157933881E+02  0.20052624035E+02  0.17770000000E+01 0. -1.
</event>
<event>
 6    1  0.1697564E-002  0.1845580E+03  0.7546771E-02  0.1066828E+00
        -11   -1    0    0    0    0  0.00000000000E+00  0.00000000000E+00  0.18250000000E+03  0.18250000000E+03  0.00000000000E+00 0.  1.
         11   -1    0    0    0    0 -0.00000000000E+00 -0.00000000000E+00 -0.18250000000E+03  0.18250000000E+03  0.00000000000E+00 0.  1.
        -11    1    1    2    0    0  0.53130512184E+00  0.44144790226E+01  0.16950068900E+03  0.16955899705E+03  0.00000000000E+00 0.  1.
         11    1    1    2    0    0 -0.31495210691E+01 -0.27932526427E+01 -0.18039291527E+03  0.18044202843E+03  0.00000000000E+00 0.  1.
        -15    1    1    2    0    0  0.30507440285E+01 -0.11539567162E+01  0.12166921741E+02  0.12721256576E+02  0.17770000000E+01 0. -1.
         15    1    1    2    0    0 -0.43252808130E+00 -0.46726966368E+00 -0.12746954702E+01  0.22777179416E+01  0.17770000000E+01 0.  1.
</event>
<event>
 6    1  0.1697564E-002  0.1827206E+03  0.7546771E-02  0.1068279E+00
        -11   -1    0    0    0    0  0.00000000000E+00  0.00000000000E+00  0.18250000000E+03  0.18250000000E+03  0.00000000000E+00 0. -1.
         11   -1    0    0    0    0 -0.00000000000E+00 -0.00000000000E+00 -0.18250000000E+03  0.18250000000E+03  0.00000000000E+00 0. -1.
        -11    1    1    2    0    0  0.13989606120E+01  0.21033425380E+01  0.18226193610E+03  0.18227944067E+03  0.00000000000E+00 0. -1.
         11    1    1    2    0    0 -0.21711214864E+01 -0.29448795808E+00 -0.15994708509E+03  0.15996209089E+03  0.00000000000E+00 0. -1.
        -15    1    1    2    0    0  0.37306965440E+00 -0.91968943352E+00 -0.15934223123E+02  0.16063692139E+02  0.17770000000E+01 0.  1.
         15    1    1    2    0    0  0.39909122001E+00 -0.88916514639E+00 -0.63806278880E+01  0.66947762998E+01  0.17770000000E+01 0. -1.
</event>
<event>
 6    1  0.1697564E-002  0.1837458E+03  0.7546771E-02  0.1067467E+00
        -11   -1    0    0    0    0  0.00000000000E+00  0.00000000000E+00  0.18250000000E+03  0.18250000000E+03  0.00000000000E+00 0.  1.
         11   -1    0    0    0    0 -0.00000000000E+00 -0.00000000000E+00 -0.18250000000E+03  0.18250000000E+03  0.00000000000E+00 0. -1.
        -11    1    1    2    0    0  0.13988473409E+01 -0.23270427973E+01  0.18123386618E+03  0.18125420313E+03  0.00000000000E+00 0.  1.
         11    1    1    2    0    0  0.20609390488E+01  0.13164603063E+01 -0.17554698013E+03  0.17556401331E+03  0.00000000000E+00 0. -1.
        -15    1    1    2    0    0 -0.76172897588E+00  0.14891207902E+01 -0.14730532768E+01  0.28504958721E+01  0.17770000000E+01 0.  1.
         15    1    1    2    0    0 -0.26980574138E+01 -0.47853829918E+00 -0.42138327724E+01  0.53312876817E+01  0.17770000000E+01 0. -1.
</event>
<event>
 6    1  0.1697564E-002  0.1838507E+03  0.7546771E-02  0.1067385E+00
        -11   -1    0    0    0    0  0.00000000000E+00  0.00000000000E+00  0.18250000000E+03  0.18250000000E+03  0.00000000000E+00 0.  1.
         11   -1    0    0    0    0 -0.00000000000E+00 -0.00000000000E+00 -0.18250000000E+03  0.18250000000E+03  0.00000000000E+00 0. -1.
        -11    1    1    2    0    0 -0.20442646416E+01  0.10410693863E+01  0.14635025895E+03  0.14636823814E+03  0.00000000000E+00 0.  1.
         11    1    1    2    0    0 -0.22415572099E+01 -0.24875495753E+01 -0.18111834557E+03  0.18114929639E+03  0.00000000000E+00 0. -1.
        -15    1    1    2    0    0  0.16252119827E+01 -0.45030494668E+01  0.57576518249E+01  0.76959113837E+01  0.17770000000E+01 0.  1.
         15    1    1    2    0    0  0.26606098688E+01  0.59495296557E+01  0.29010434796E+02  0.29786554081E+02  0.17770000000E+01 0.  1.
</event>
<event>
 6    1  0.1697564E-002  0.1832172E+03  0.7546771E-02  0.1067885E+00
        -11   -1    0    0    0    0  0.00000000000E+00  0.00000000000E+00  0.18250000000E+03  0.18250000000E+03  0.00000000000E+00 0.  1.
         11   -1    0    0    0    0 -0.00000000000E+00 -0.00000000000E+00 -0.18250000000E+03  0.18250000000E+03  0.00000000000E+00 0.  1.
        -11    1    1    2    0    0 -0.20283680045E+01 -0.22751238424E+01  0.16827817151E+03  0.16830577374E+03  0.00000000000E+00 0.  1.
         11    1    1    2    0    0 -0.13152357631E+01  0.21533545319E+01 -0.18176530183E+03  0.18178281472E+03  0.00000000000E+00 0.  1.
        -15    1    1    2    0    0  0.83510155757E+00 -0.44896723913E+00  0.10111809796E+02  0.10310450647E+02  0.17770000000E+01 0.  1.
         15    1    1    2    0    0  0.25085022100E+01  0.57073654968E+00  0.33753205155E+01  0.46009608920E+01  0.17770000000E+01 0. -1.
</event>
<event>
 6    1  0.1697564E-002  0.1857109E+03  0.7546771E-02  0.1065927E+00
        -11   -1    0    0    0    0  0.00000000000E+00  0.00000000000E+00  0.18250000000E+03  0.18250000000E+03  0.00000000000E+00 0.  1.
         11   -1    0    0    0    0 -0.00000000000E+00 -0.00000000000E+00 -0.18250000000E+03  0.18250000000E+03  0.00000000000E+00 0.  1.
        -11    1    1    2    0    0 -0.49601240538E-01  0.62227356114E+01  0.17222863642E+03  0.17234102269E+03  0.00000000000E+00 0.  1.
         11    1    1    2    0    0 -0.59966171046E+01 -0.17688855377E+01 -0.17918001522E+03  0.17928905774E+03  0.00000000000E+00 0.  1.
        -15    1    1    2    0    0  0.59526873456E+01 -0.24368813640E+01  0.88189282512E+00  0.67311471066E+01  0.17770000000E+01 0. -1.
         15    1    1    2    0    0  0.93530999545E-01 -0.20169687097E+01  0.60694859740E+01  0.66387724627E+01  0.17770000000E+01 0.  1.
</event>
<event>
 6    1  0.1697564E-002  0.1830551E+03  0.7546771E-02  0.1068014E+00
        -11   -1    0    0    0    0  0.00000000000E+00  0.00000000000E+00  0.18250000000E+03  0.18250000000E+03  0.00000000000E+00 0.  1.
         11   -1    0    0    0    0 -0.00000000000E+00 -0.00000000000E+00 -0.18250000000E+03  0.18250000000E+03  0.00000000000E+00 0. -1.
        -11    1    1    2    0    0  0.25408963906E+01 -0.23772118611E+01  0.18191161403E+03  0.18194488894E+03  0.00000000000E+00 0.  1.
         11    1    1    2    0    0  0.17243992970E+01 -0.40648026358E+00 -0.89635664066E+02  0.89653170896E+02  0.00000000000E+00 0. -1.
        -15    1    1    2    0    0 -0.78129889507E+00 -0.11634873963E+01 -0.78704083299E+02  0.78736615293E+02  0.17770000000E+01 0. -1.
         15    1    1    2    0    0 -0.34839967926E+01  0.39471795210E+01 -0.13571866667E+02  0.14665324874E+02  0.17770000000E+01 0. -1.
</event>
<event>
 6    1  0.1697564E-002  0.2078974E+03  0.7546771E-02  0.1049863E+00
        -11   -1    0    0    0    0  0.00000000000E+00  0.00000000000E+00  0.18250000000E+03  0.18250000000E+03  0.00000000000E+00 0.  1.
         11   -1    0    0    0    0 -0.00000000000E+00 -0.00000000000E+00 -0.18250000000E+03  0.18250000000E+03  0.00000000000E+00 0. -1.
        -11    1    1    2    0    0  0.75605869615E+01 -0.36010170214E+01  0.13750604239E+03  0.13776081262E+03  0.00000000000E+00 0.  1.
         11    1    1    2    0    0  0.13206373258E+01  0.25323383631E+01 -0.15707658834E+03  0.15710255066E+03  0.00000000000E+00 0. -1.
        -15    1    1    2    0    0 -0.25976011971E+02 -0.90625159825E+01  0.35258165718E+02  0.44756880730E+02  0.17770000000E+01 0.  1.
         15    1    1    2    0    0  0.17094787684E+02  0.10131194641E+02 -0.15687619774E+02  0.25379755988E+02  0.17770000000E+01 0. -1.
</event>
<event>
 6    1  0.1697564E-002  0.1833343E+03  0.7546771E-02  0.1067793E+00
        -11   -1    0    0    0    0  0.00000000000E+00  0.00000000000E+00  0.18250000000E+03  0.18250000000E+03  0.00000000000E+00 0.  1.
         11   -1    0    0    0    0 -0.00000000000E+00 -0.00000000000E+00 -0.18250000000E+03  0.18250000000E+03  0.00000000000E+00 0.  1.
        -11    1    1    2    0    0 -0.25948655522E+01  0.13699355379E+01  0.15780116779E+03  0.15782844675E+03  0.00000000000E+00 0.  1.
         11    1    1    2    0    0 -0.12010132742E+00  0.33110310379E+01 -0.18163543588E+03  0.18166565146E+03  0.00000000000E+00 0.  1.
        -15    1    1    2    0    0 -0.49321522127E+00 -0.43774785769E+01  0.17931389904E+02  0.18549880130E+02  0.17770000000E+01 0.  1.
         15    1    1    2    0    0  0.32081821009E+01 -0.30348799893E+00  0.59028781928E+01  0.69560216588E+01  0.17770000000E+01 0. -1.
</event>
<event>
 6    1  0.1697564E-002  0.1838078E+03  0.7546771E-02  0.1067419E+00
        -11   -1    0    0    0    0  0.00000000000E+00  0.00000000000E+00  0.18250000000E+03  0.18250000000E+03  0.00000000000E+00 0.  1.
         11   -1    0    0    0    0 -0.00000000000E+00 -0.00000000000E+00 -0.18250000000E+03  0.18250000000E+03  0.00000000000E+00 0. -1.
        -11    1    1    2    0    0  0.19830804208E+01 -0.35747100552E+01  0.18114611950E+03  0.18119223981E+03  0.00000000000E+00 0.  1.
         11    1    1    2    0    0 -0.33345446717E+01 -0.29017622922E+01 -0.11437525031E+03  0.11446063645E+03  0.00000000000E+00 0. -1.
        -15    1    1    2    0    0 -0.21613362530E+01  0.18071638894E+01 -0.12741699959E+01  0.35662941410E+01  0.17770000000E+01 0.  1.
         15    1    1    2    0    0  0.35128005040E+01  0.46693084580E+01 -0.65496699192E+02  0.65780829601E+02  0.17770000000E+01 0. -1.
</event>
<event>
 6    1  0.1697564E-002  0.1840467E+03  0.7546771E-02  0.1067230E+00
        -11   -1    0    0    0    0  0.00000000000E+00  0.00000000000E+00  0.18250000000E+03  0.18250000000E+03  0.00000000000E+00 0.  1.
         11   -1    0    0    0    0 -0.00000000000E+00 -0.00000000000E+00 -0.18250000000E+03  0.18250000000E+03  0.00000000000E+00 0.  1.
        -11    1    1    2    0    0 -0.86032836281E+00 -0.14433502516E+01  0.86185491799E+02  0.86201870174E+02  0.00000000000E+00 0.  1.
         11    1    1    2    0    0  0.53253070681E+01  0.39982519307E+01 -0.18083075890E+03  0.18095333177E+03  0.00000000000E+00 0.  1.
        -15    1    1    2    0    0 -0.92038127544E+01 -0.11300731445E+02  0.58396758010E+02  0.60214248941E+02  0.17770000000E+01 0. -1.
         15    1    1    2    0    0  0.47388340491E+01  0.87458297658E+01  0.36248509091E+02  0.37630549116E+02  0.17770000000E+01 0.  1.
</event>
<event>
 6    1  0.1697564E-002  0.1835208E+03  0.7546771E-02  0.1067645E+00
        -11   -1    0    0    0    0  0.00000000000E+00  0.00000000000E+00  0.18250000000E+03  0.18250000000E+03  0.00000000000E+00 0. -1.
         11   -1    0    0    0    0 -0.00000000000E+00 -0.00000000000E+00 -0.18250000000E+03  0.18250000000E+03  0.00000000000E+00 0.  1.
        -11    1    1    2    0    0 -0.18083887534E+01 -0.71010405965E+00  0.10722522056E+03  0.10724282000E+03  0.00000000000E+00 0. -1.
         11    1    1    2    0    0 -0.36362915133E+01 -0.75531850409E+00 -0.18144115534E+03  0.18147916126E+03  0.00000000000E+00 0.  1.
        -15    1    1    2    0    0 -0.46187495302E+01  0.26881799367E+00  0.91723407948E+01  0.10425673839E+02  0.17770000000E+01 0. -1.
         15    1    1    2    0    0  0.10063429797E+02  0.11966045701E+01  0.65043593982E+02  0.65852344900E+02  0.17770000000E+01 0.  1.
</event>
<event>
 6    1  0.1697564E-002  0.1840306E+03  0.7546771E-02  0.1067243E+00
        -11   -1    0    0    0    0  0.00000000000E+00  0.00000000000E+00  0.18250000000E+03  0.18250000000E+03  0.00000000000E+00 0.  1.
         11   -1    0    0    0    0 -0.00000000000E+00 -0.00000000000E+00 -0.18250000000E+03  0.18250000000E+03  0.00000000000E+00 0. -1.
        -11    1    1    2    0    0 -0.95393261512E+01 -0.15408088773E+01  0.18071124871E+03  0.18096941245E+03  0.00000000000E+00 0.  1.
         11    1    1    2    0    0 -0.40079037681E+01  0.42440418433E+01 -0.11625074069E+03  0.11639720742E+03  0.00000000000E+00 0. -1.
        -15    1    1    2    0    0  0.12770843957E+02 -0.70180508882E+01 -0.56475755034E+02  0.58352516050E+02  0.17770000000E+01 0.  1.
         15    1    1    2    0    0  0.77638596180E+00  0.43148179222E+01 -0.79847529813E+01  0.92808640781E+01  0.17770000000E+01 0. -1.
</event>
<event>
 6    1  0.1697564E-002  0.1856371E+03  0.7546771E-02  0.1065985E+00
        -11   -1    0    0    0    0  0.00000000000E+00  0.00000000000E+00  0.18250000000E+03  0.18250000000E+03  0.00000000000E+00 0.  1.
         11   -1    0    0    0    0 -0.00000000000E+00 -0.00000000000E+00 -0.18250000000E+03  0.18250000000E+03  0.00000000000E+00 0.  1.
        -11    1    1    2    0    0 -0.24756733851E+01  0.21788716964E+00  0.17934564579E+03  0.17936286432E+03  0.00000000000E+00 0.  1.
         11    1    1    2    0    0  0.10023068876E+01 -0.50371934924E+01 -0.15931455909E+03  0.15939732330E+03  0.00000000000E+00 0.  1.
        -15    1    1    2    0    0 -0.23178827718E+01  0.98822857579E+01 -0.11013614998E+02  0.15082758258E+02  0.17770000000E+01 0. -1.
         15    1    1    2    0    0  0.37912492693E+01 -0.50629794352E+01 -0.90174717041E+01  0.11157054124E+02  0.17770000000E+01 0.  1.
</event>
<event>
 6    1  0.1697564E-002  0.1843608E+03  0.7546771E-02  0.1066983E+00
        -11   -1    0    0    0    0  0.00000000000E+00  0.00000000000E+00  0.18250000000E+03  0.18250000000E+03  0.00000000000E+00 0. -1.
         11   -1    0    0    0    0 -0.00000000000E+00 -0.00000000000E+00 -0.18250000000E+03  0.18250000000E+03  0.00000000000E+00 0.  1.
        -11    1    1    2    0    0 -0.32453499954E+01  0.64603192125E+00  0.13301751552E+03  0.13305866784E+03  0.00000000000E+00 0. -1.
         11    1    1    2    0    0 -0.51698340760E+01  0.12626922127E+01 -0.18056083565E+03  0.18063924531E+03  0.00000000000E+00 0.  1.
        -15    1    1    2    0    0 -0.70472766830E+00 -0.53439385638E+00 -0.73647247650E+00  0.21171534165E+01  0.17770000000E+01 0.  1.
         15    1    1    2    0    0  0.91199117396E+01 -0.13743302776E+01  0.48279792604E+02  0.49184933432E+02  0.17770000000E+01 0. -1.
</event>
<event>
 6    1  0.1697564E-002  0.1839314E+03  0.7546771E-02  0.1067321E+00
        -11   -1    0    0    0    0  0.00000000000E+00  0.00000000000E+00  0.18250000000E+03  0.18250000000E+03  0.00000000000E+00 0. -1.
         11   -1    0    0    0    0 -0.00000000000E+00 -0.00000000000E+00 -0.18250000000E+03  0.18250000000E+03  0.00000000000E+00 0.  1.
        -11    1    1    2    0    0  0.35783208847E+01  0.32900041832E+01  0.18100337451E+03  0.18106863365E+03  0.00000000000E+00 0. -1.
         11    1    1    2    0    0 -0.38697297913E+01 -0.34985522759E+01 -0.16560868483E+03  0.16569083007E+03  0.00000000000E+00 0.  1.
        -15    1    1    2    0    0 -0.84626573533E+00 -0.43339536178E+01 -0.80087661554E+01  0.93165113635E+01  0.17770000000E+01 0.  1.
         15    1    1    2    0    0  0.11376746420E+01  0.45425017105E+01 -0.73859235240E+01  0.89240249150E+01  0.17770000000E+01 0. -1.
</event>
<event>
 6    1  0.1697564E-002  0.1833362E+03  0.7546771E-02  0.1067791E+00
        -11   -1    0    0    0    0  0.00000000000E+00  0.00000000000E+00  0.18250000000E+03  0.18250000000E+03  0.00000000000E+00 0. -1.
         11   -1    0    0    0    0 -0.00000000000E+00 -0.00000000000E+00 -0.18250000000E+03  0.18250000000E+03  0.00000000000E+00 0. -1.
        -11    1    1    2    0    0 -0.60276573354E+00  0.38698953814E-02  0.35530804962E+02  0.35535917643E+02  0.00000000000E+00 0. -1.
         11    1    1    2    0    0  0.71980196089E+01 -0.34242148298E+00 -0.18152086035E+03  0.18166384198E+03  0.00000000000E+00 0. -1.
        -15    1    1    2    0    0  0.35709435195E+01 -0.85146766977E-01  0.11623379220E+03  0.11630224016E+03  0.17770000000E+01 0. -1.
         15    1    1    2    0    0 -0.10166197395E+02  0.42369835458E+00  0.29756263188E+02  0.31498000217E+02  0.17770000000E+01 0. -1.
</event>
<event>
 6    1  0.1697564E-002  0.1731886E+03  0.7546771E-02  0.1076118E+00
        -11   -1    0    0    0    0  0.00000000000E+00  0.00000000000E+00  0.18250000000E+03  0.18250000000E+03  0.00000000000E+00 0. -1.
         11   -1    0    0    0    0 -0.00000000000E+00 -0.00000000000E+00 -0.18250000000E+03  0.18250000000E+03  0.00000000000E+00 0.  1.
        -11    1    1    2    0    0  0.12821427198E+01  0.20653924274E+01  0.17261304507E+03  0.17263016267E+03  0.00000000000E+00 0. -1.
         11    1    1    2    0    0 -0.66052701863E+01 -0.28582213302E+00 -0.17366836508E+03  0.17379416653E+03  0.00000000000E+00 0.  1.
        -15    1    1    2    0    0  0.71518139473E+00 -0.12531084209E+01  0.89558053216E+01  0.92436974799E+01  0.17770000000E+01 0. -1.
         15    1    1    2    0    0  0.46079460718E+01 -0.52646187347E+00 -0.79004853042E+01  0.93319733254E+01  0.17770000000E+01 0. -1.
</event>
<event>
 6    1  0.1697564E-002  0.1827224E+03  0.7546771E-02  0.1068278E+00
        -11   -1    0    0    0    0  0.00000000000E+00  0.00000000000E+00  0.18250000000E+03  0.18250000000E+03  0.00000000000E+00 0.  1.
         11   -1    0    0    0    0 -0.00000000000E+00 -0.00000000000E+00 -0.18250000000E+03  0.18250000000E+03  0.00000000000E+00 0. -1.
        -11    1    1    2    0    0  0.13828745747E+01 -0.26909850978E+01  0.18225244456E+03  0.18227755564E+03  0.00000000000E+00 0.  1.
         11    1    1    2    0    0 -0.39001911819E+01  0.45030905567E+00 -0.10955031409E+03  0.10962064398E+03  0.00000000000E+00 0. -1.
        -15    1    1    2    0    0  0.15580202818E+01  0.73598477878E+00 -0.85714331165E+01  0.89216755974E+01  0.17770000000E+01 0.  1.
         15    1    1    2    0    0  0.95929632537E+00  0.15046912634E+01 -0.64130697348E+02  0.64180124778E+02  0.17770000000E+01 0. -1.
</event>
<event>
 6    1  0.1697564E-002  0.1877564E+03  0.7546771E-02  0.1064346E+00
        -11   -1    0    0    0    0  0.00000000000E+00  0.00000000000E+00  0.18250000000E+03  0.18250000000E+03  0.00000000000E+00 0.  1.
         11   -1    0    0    0    0 -0.00000000000E+00 -0.00000000000E+00 -0.18250000000E+03  0.18250000000E+03  0.00000000000E+00 0.  1.
        -11    1    1    2    0    0 -0.54967723301E+01 -0.29764192548E+01  0.17713336977E+03  0.17724362969E+03  0.00000000000E+00 0.  1.
         11    1    1    2    0    0  0.89343855297E-01 -0.40463645925E+01 -0.10716980693E+03  0.10724620537E+03  0.00000000000E+00 0.  1.
        -15    1    1    2    0    0  0.37205542215E+01  0.13319564382E+00  0.42583774611E+01  0.59288930161E+01  0.17770000000E+01 0.  1.
         15    1    1    2    0    0  0.16868742532E+01  0.68895882035E+01 -0.74221940305E+02  0.74581271925E+02  0.17770000000E+01 0. -1.
</event>
<event>
 6    1  0.1697564E-002  0.1831271E+03  0.7546771E-02  0.1067957E+00
        -11   -1    0    0    0    0  0.00000000000E+00  0.00000000000E+00  0.18250000000E+03  0.18250000000E+03  0.00000000000E+00 0.  1.
         11   -1    0    0    0    0 -0.00000000000E+00 -0.00000000000E+00 -0.18250000000E+03  0.18250000000E+03  0.00000000000E+00 0. -1.
        -11    1    1    2    0    0 -0.17189819046E+00 -0.23760829529E+01  0.16995252980E+03  0.16996922576E+03  0.00000000000E+00 0.  1.
         11    1    1    2    0    0 -0.24860037305E+01 -0.14933940041E+00 -0.18185580389E+03  0.18187285648E+03  0.00000000000E+00 0. -1.
        -15    1    1    2    0    0  0.46558966527E+00  0.93760442606E+00  0.68710392482E+01  0.71738960926E+01  0.17770000000E+01 0.  1.
         15    1    1    2    0    0  0.21923122557E+01  0.15878179272E+01  0.50322348376E+01  0.59840216625E+01  0.17770000000E+01 0.  1.
</event>
<event>
 6    1  0.1697564E-002  0.1782057E+03  0.7546771E-02  0.1071925E+00
        -11   -1    0    0    0    0  0.00000000000E+00  0.00000000000E+00  0.18250000000E+03  0.18250000000E+03  0.00000000000E+00 0.  1.
         11   -1    0    0    0    0 -0.00000000000E+00 -0.00000000000E+00 -0.18250000000E+03  0.18250000000E+03  0.00000000000E+00 0.  1.
        -11    1    1    2    0    0 -0.23715475522E+01  0.10179736054E+01  0.17769743804E+03  0.17771617820E+03  0.00000000000E+00 0.  1.
         11    1    1    2    0    0  0.32684264260E+01  0.34295580944E+01 -0.17866253901E+03  0.17872534047E+03  0.00000000000E+00 0.  1.
        -15    1    1    2    0    0 -0.33383159049E+01 -0.33937519407E+01 -0.36561145627E+00  0.50944387378E+01  0.17770000000E+01 0. -1.
         15    1    1    2    0    0  0.24414370311E+01 -0.10537797592E+01  0.13307124265E+01  0.34640425979E+01  0.17770000000E+01 0.  1.
</event>
<event>
 6    1  0.1697564E-002  0.1840910E+03  0.7546771E-02  0.1067195E+00
        -11   -1    0    0    0    0  0.00000000000E+00  0.00000000000E+00  0.18250000000E+03  0.18250000000E+03  0.00000000000E+00 0. -1.
         11   -1    0    0    0    0 -0.00000000000E+00 -0.00000000000E+00 -0.18250000000E+03  0.18250000000E+03  0.00000000000E+00 0.  1.
        -11    1    1    2    0    0  0.44663729941E+01  0.10701066256E+01  0.18085067770E+03  0.18090898607E+03  0.00000000000E+00 0. -1.
         11    1    1    2    0    0  0.47676899474E+00  0.31883725953E+01 -0.15779937238E+03  0.15783230009E+03  0.00000000000E+00 0.  1.
        -15    1    1    2    0    0 -0.99262668383E-01 -0.24111171729E+01 -0.19498714330E+02  0.19727669113E+02  0.17770000000E+01 0.  1.
         15    1    1    2    0    0 -0.48438793205E+01 -0.18473620480E+01 -0.35525909899E+01  0.65310447211E+01  0.17770000000E+01 0. -1.
</event>
<event>
 6    1  0.1697564E-002  0.1827228E+03  0.7546771E-02  0.1068278E+00
        -11   -1    0    0    0    0  0.00000000000E+00  0.00000000000E+00  0.18250000000E+03  0.18250000000E+03  0.00000000000E+00 0.  1.
         11   -1    0    0    0    0 -0.00000000000E+00 -0.00000000000E+00 -0.18250000000E+03  0.18250000000E+03  0.00000000000E+00 0.  1.
        -11    1    1    2    0    0 -0.32101036057E+01 -0.21696576433E+01  0.18223605903E+03  0.18227724320E+03  0.00000000000E+00 0.  1.
         11    1    1    2    0    0 -0.39242673834E+00  0.42663589231E+00 -0.37540914256E+02  0.37545389333E+02  0.00000000000E+00 0.  1.
        -15    1    1    2    0    0  0.46772142817E+01  0.67177159595E+00 -0.13788686367E+03  0.13797924667E+03  0.17770000000E+01 0.  1.
         15    1    1    2    0    0 -0.10746839377E+01  0.10712501550E+01 -0.68082811029E+01  0.71981207990E+01  0.17770000000E+01 0.  1.
</event>
<event>
 6    1  0.1697564E-002  0.1860455E+03  0.7546771E-02  0.1065667E+00
        -11   -1    0    0    0    0  0.00000000000E+00  0.00000000000E+00  0.18250000000E+03  0.18250000000E+03  0.00000000000E+00 0. -1.
         11   -1    0    0    0    0 -0.00000000000E+00 -0.00000000000E+00 -0.18250000000E+03  0.18250000000E+03  0.00000000000E+00 0. -1.
        -11    1    1    2    0    0  0.29266411179E+01  0.12556259011E+01  0.16258661786E+03  0.16261780386E+03  0.00000000000E+00 0. -1.
         11    1    1    2    0    0 -0.13148432713E+01 -0.21595047438E+01 -0.17893662681E+03  0.17895448776E+03  0.00000000000E+00 0. -1.
        -15    1    1    2    0    0 -0.71806389158E+01  0.41768445579E+01  0.13907879803E+02  0.16297068918E+02  0.17770000000E+01 0.  1.
         15    1    1    2    0    0  0.55688410692E+01 -0.32729657152E+01  0.24421291517E+01  0.71306394678E+01  0.17770000000E+01 0. -1.
</event>
<event>
 6    1  0.1697564E-002  0.1836042E+03  0.7546771E-02  0.1067579E+00
        -11   -1    0    0    0    0  0.00000000000E+00  0.00000000000E+00  0.18250000000E+03  0.18250000000E+03  0.00000000000E+00 0.  1.
         11   -1    0    0    0    0 -0.00000000000E+00 -0.00000000000E+00 -0.18250000000E+03  0.18250000000E+03  0.00000000000E+00 0.  1.
        -11    1    1    2    0    0  0.21023302295E+01 -0.23635938473E+01  0.18136819384E+03  0.18139577752E+03  0.00000000000E+00 0.  1.
         11    1    1    2    0    0 -0.10783195300E+01 -0.87358068416E-01 -0.41912149504E+02  0.41926109770E+02  0.00000000000E+00 0.  1.
        -15    1    1    2    0    0 -0.52293210721E+01 -0.76420040087E+01 -0.25542911187E+02  0.27227634217E+02  0.17770000000E+01 0. -1.
         15    1    1    2    0    0  0.42053103726E+01  0.10092955924E+02 -0.11391313314E+03  0.11445047849E+03  0.17770000000E+01 0.  1.
</event>
<event>
 6    1  0.1697564E-002  0.1835341E+03  0.7546771E-02  0.1067635E+00
        -11   -1    0    0    0    0  0.00000000000E+00  0.00000000000E+00  0.18250000000E+03  0.18250000000E+03  0.00000000000E+00 0. -1.
         11   -1    0    0    0    0 -0.00000000000E+00 -0.00000000000E+00 -0.18250000000E+03  0.18250000000E+03  0.00000000000E+00 0.  1.
        -11    1    1    2    0    0  0.28980382069E+01 -0.14092423758E+01  0.17128447233E+03  0.17131478351E+03  0.00000000000E+00 0. -1.
         11    1    1    2    0    0  0.12376147216E-02  0.44992492662E+01 -0.18141006886E+03  0.18146585444E+03  0.00000000000E+00 0.  1.
        -15    1    1    2    0    0 -0.17997518554E+01 -0.36126782092E+01  0.50436280596E+01  0.66997360834E+01  0.17770000000E+01 0.  1.
         15    1    1    2    0    0 -0.10995239662E+01  0.52267131877E+00  0.50819684665E+01  0.55196259614E+01  0.17770000000E+01 0. -1.
</event>
<event>
 6    1  0.1804769E-002  0.1848970E+03  0.7546771E-02  0.1066563E+00
        -11   -1    0    0    0    0  0.00000000000E+00  0.00000000000E+00  0.18250000000E+03  0.18250000000E+03  0.00000000000E+00 0. -1.
         11   -1    0    0    0    0 -0.00000000000E+00 -0.00000000000E+00 -0.18250000000E+03  0.18250000000E+03  0.00000000000E+00 0.  1.
        -11    1    1    2    0    0 -0.33509792181E+01  0.21989492460E+01  0.15685581943E+03  0.15690701874E+03  0.00000000000E+00 0. -1.
         11    1    1    2    0    0  0.57931050782E+01  0.46515363442E+01 -0.17994970335E+03  0.18010300551E+03  0.00000000000E+00 0.  1.
        -15    1    1    2    0    0 -0.22559392902E+01 -0.58315259893E+01  0.20070771834E+01  0.68030908612E+01  0.17770000000E+01 0. -1.
         15    1    1    2    0    0 -0.18618656985E+00 -0.10189596009E+01  0.21086806735E+02  0.21186884891E+02  0.17770000000E+01 0.  1.
</event>
<event>
 6    1  0.1697564E-002  0.1862532E+03  0.7546771E-02  0.1065506E+00
        -11   -1    0    0    0    0  0.00000000000E+00  0.00000000000E+00  0.18250000000E+03  0.18250000000E+03  0.00000000000E+00 0.  1.
         11   -1    0    0    0    0 -0.00000000000E+00 -0.00000000000E+00 -0.18250000000E+03  0.18250000000E+03  0.00000000000E+00 0. -1.
        -11    1    1    2    0    0  0.14190239475E+01 -0.33641133962E+01  0.17870947152E+03  0.17874676528E+03  0.00000000000E+00 0.  1.
         11    1    1    2    0    0 -0.16383115135E+01  0.20056258923E+01 -0.17584116723E+03  0.17586023624E+03  0.00000000000E+00 0. -1.
        -15    1    1    2    0    0  0.29863653271E+01 -0.15910152811E+01  0.15692070607E+01  0.41315671713E+01  0.17770000000E+01 0.  1.
         15    1    1    2    0    0 -0.27670777611E+01  0.29495027849E+01 -0.44375113522E+01  0.62614313073E+01  0.17770000000E+01 0. -1.
</event>
<event>
 6    1  0.1697564E-002  0.1838300E+03  0.7546771E-02  0.1067401E+00
        -11   -1    0    0    0    0  0.00000000000E+00  0.00000000000E+00  0.18250000000E+03  0.18250000000E+03  0.00000000000E+00 0.  1.
         11   -1    0    0    0    0 -0.00000000000E+00 -0.00000000000E+00 -0.18250000000E+03  0.18250000000E+03  0.00000000000E+00 0.  1.
        -11    1    1    2    0    0 -0.13677177795E+01  0.42359633459E+01  0.18111531942E+03  0.18117001122E+03  0.00000000000E+00 0.  1.
         11    1    1    2    0    0  0.27251872418E+01  0.20605691624E+01 -0.16464291434E+03  0.16467835873E+03  0.00000000000E+00 0.  1.
        -15    1    1    2    0    0  0.22614845515E+01 -0.90295971340E+00 -0.45247422566E+01  0.54369725132E+01  0.17770000000E+01 0.  1.
         15    1    1    2    0    0 -0.36189540137E+01 -0.53935727949E+01 -0.11947662815E+02  0.13714657538E+02  0.17770000000E+01 0. -1.
</event>
<event>
 6    1  0.1697564E-002  0.1866992E+03  0.7546771E-02  0.1065161E+00
        -11   -1    0    0    0    0  0.00000000000E+00  0.00000000000E+00  0.18250000000E+03  0.18250000000E+03  0.00000000000E+00 0. -1.
         11   -1    0    0    0    0 -0.00000000000E+00 -0.00000000000E+00 -0.18250000000E+03  0.18250000000E+03  0.00000000000E+00 0.  1.
        -11    1    1    2    0    0  0.45796174646E+01  0.51496672772E+01  0.17816757170E+03  0.17830080082E+03  0.00000000000E+00 0. -1.
         11    1    1    2    0    0 -0.21935367030E+01 -0.14284639248E+01 -0.16510415725E+03  0.16512490682E+03  0.00000000000E+00 0.  1.
        -15    1    1    2    0    0  0.29366567587E+01  0.32934936438E+01  0.10245283286E+01  0.48660497939E+01  0.17770000000E+01 0.  1.
         15    1    1    2    0    0 -0.53227375203E+01 -0.70146969962E+01 -0.14087942782E+02  0.16708242562E+02  0.17770000000E+01 0. -1.
</event>
<event>
 6    1  0.1697564E-002  0.1101246E+03  0.7546771E-02  0.1147373E+00
        -11   -1    0    0    0    0  0.00000000000E+00  0.00000000000E+00  0.18250000000E+03  0.18250000000E+03  0.00000000000E+00 0.  1.
         11   -1    0    0    0    0 -0.00000000000E+00 -0.00000000000E+00 -0.18250000000E+03  0.18250000000E+03  0.00000000000E+00 0. -1.
        -11    1    1    2    0    0  0.83722905487E+00 -0.26095938766E+01  0.77985797371E+02  0.78033938285E+02  0.00000000000E+00 0.  1.
         11    1    1    2    0    0  0.89507387328E+00  0.45690528975E+00 -0.66386635020E+02  0.66394240932E+02  0.00000000000E+00 0. -1.
        -15    1    1    2    0    0  0.28933989630E+02  0.16969401492E+02  0.99152697192E+02  0.10468787624E+03  0.17770000000E+01 0.  1.
         15    1    1    2    0    0 -0.30666292558E+02 -0.14816712905E+02 -0.11075185954E+03  0.11588394454E+03  0.17770000000E+01 0. -1.
</event>
<event>
 6    1  0.1697564E-002  0.1838400E+03  0.7546771E-02  0.1067393E+00
        -11   -1    0    0    0    0  0.00000000000E+00  0.00000000000E+00  0.18250000000E+03  0.18250000000E+03  0.00000000000E+00 0.  1.
         11   -1    0    0    0    0 -0.00000000000E+00 -0.00000000000E+00 -0.18250000000E+03  0.18250000000E+03  0.00000000000E+00 0. -1.
        -11    1    1    2    0    0  0.33424861367E+01 -0.32553978054E+01  0.15190151268E+03  0.15197315350E+03  0.00000000000E+00 0.  1.
         11    1    1    2    0    0 -0.44526363655E+01  0.56023812919E+00 -0.18110444630E+03  0.18116004060E+03  0.00000000000E+00 0. -1.
        -15    1    1    2    0    0  0.34396760375E+01 -0.11206304392E+01  0.25195816259E+01  0.47532309426E+01  0.17770000000E+01 0.  1.
         15    1    1    2    0    0 -0.23295258087E+01  0.38157901154E+01  0.26683351995E+02  0.27113574965E+02  0.17770000000E+01 0. -1.
</event>
<event>
 6    1  0.1697564E-002  0.1828527E+03  0.7546771E-02  0.1068174E+00
        -11   -1    0    0    0    0  0.00000000000E+00  0.00000000000E+00  0.18250000000E+03  0.18250000000E+03  0.00000000000E+00 0. -1.
         11   -1    0    0    0    0 -0.00000000000E+00 -0.00000000000E+00 -0.18250000000E+03  0.18250000000E+03  0.00000000000E+00 0. -1.
        -11    1    1    2    0    0 -0.18466879152E+01 -0.26510971171E+01  0.18211868166E+03  0.18214733812E+03  0.00000000000E+00 0. -1.
         11    1    1    2    0    0  0.21867669562E+00  0.30127136098E+01 -0.13775118797E+03  0.13778430262E+03  0.00000000000E+00 0. -1.
        -15    1    1    2    0    0  0.52330493666E+00 -0.35905487646E+01 -0.20782960601E+02  0.21172035065E+02  0.17770000000E+01 0.  1.
         15    1    1    2    0    0  0.11047062829E+01  0.32289322719E+01 -0.23584533099E+02  0.23896324196E+02  0.17770000000E+01 0.  1.
</event>
<event>
 6    1  0.1697564E-002  0.1826359E+03  0.7546771E-02  0.1068347E+00
        -11   -1    0    0    0    0  0.00000000000E+00  0.00000000000E+00  0.18250000000E+03  0.18250000000E+03  0.00000000000E+00 0. -1.
         11   -1    0    0    0    0 -0.00000000000E+00 -0.00000000000E+00 -0.18250000000E+03  0.18250000000E+03  0.00000000000E+00 0.  1.
        -11    1    1    2    0    0  0.43341394337E+01 -0.15314709494E+01  0.18230619928E+03  0.18236414249E+03  0.00000000000E+00 0. -1.
         11    1    1    2    0    0 -0.19881949068E+01 -0.30082313453E+01 -0.47602635981E+02  0.47739012633E+02  0.00000000000E+00 0.  1.
        -15    1    1    2    0    0 -0.22740252641E+01  0.31449895588E+01 -0.56656988139E+02  0.56817551726E+02  0.17770000000E+01 0.  1.
         15    1    1    2    0    0 -0.71919262785E-01  0.13947127358E+01 -0.78046575162E+02  0.78079293155E+02  0.17770000000E+01 0. -1.
</event>
<event>
 6    1  0.1697564E-002  0.1905344E+03  0.7546771E-02  0.1062233E+00
        -11   -1    0    0    0    0  0.00000000000E+00  0.00000000000E+00  0.18250000000E+03  0.18250000000E+03  0.00000000000E+00 0.  1.
         11   -1    0    0    0    0 -0.00000000000E+00 -0.00000000000E+00 -0.18250000000E+03  0.18250000000E+03  0.00000000000E+00 0. -1.
        -11    1    1    2    0    0  0.47156207392E+01 -0.20964596736E+01  0.16216965261E+03  0.16225174405E+03  0.00000000000E+00 0.  1.
         11    1    1    2    0    0  0.57261300117E+01  0.72311779824E+01 -0.17422158627E+03  0.17446558291E+03  0.00000000000E+00 0. -1.
        -15    1    1    2    0    0 -0.18572201763E+01 -0.64290181005E+01 -0.53529396575E+01  0.87517559665E+01  0.17770000000E+01 0. -1.
         15    1    1    2    0    0 -0.85845305746E+01  0.12942997916E+01  0.17404873320E+02  0.19530917065E+02  0.17770000000E+01 0.  1.
</event>
<event>
 6    1  0.1697564E-002  0.1844068E+03  0.7546771E-02  0.1066947E+00
        -11   -1    0    0    0    0  0.00000000000E+00  0.00000000000E+00  0.18250000000E+03  0.18250000000E+03  0.00000000000E+00 0. -1.
         11   -1    0    0    0    0 -0.00000000000E+00 -0.00000000000E+00 -0.18250000000E+03  0.18250000000E+03  0.00000000000E+00 0. -1.
        -11    1    1    2    0    0  0.27901390684E+01 -0.72514196690E+00  0.16733118360E+03  0.16735601487E+03  0.00000000000E+00 0. -1.
         11    1    1    2    0    0  0.40056844523E+01 -0.32761978844E+01 -0.18051907096E+03  0.18059322790E+03  0.00000000000E+00 0. -1.
        -15    1    1    2    0    0 -0.55687509255E+01  0.39521382616E+01  0.51710674686E+01  0.87480312913E+01  0.17770000000E+01 0. -1.
         15    1    1    2    0    0 -0.12270725953E+01  0.49201589709E-01  0.80168198935E+01  0.83027259473E+01  0.17770000000E+01 0.  1.
</event>
<event>
 6    1  0.1697564E-002  0.1827390E+03  0.7546771E-02  0.1068265E+00
        -11   -1    0    0    0    0  0.00000000000E+00  0.00000000000E+00  0.18250000000E+03  0.18250000000E+03  0.00000000000E+00 0. -1.
         11   -1    0    0    0    0 -0.00000000000E+00 -0.00000000000E+00 -0.18250000000E+03  0.18250000000E+03  0.00000000000E+00 0.  1.
        -11    1    1    2    0    0  0.89412531438E+00  0.29485425805E+01  0.18223498907E+03  0.18226103425E+03  0.00000000000E+00 0. -1.
         11    1    1    2    0    0 -0.20634677507E+00 -0.18221532544E+01 -0.10299420410E+03  0.10301052811E+03  0.00000000000E+00 0.  1.
        -15    1    1    2    0    0 -0.14750759959E+01  0.10003110766E+01 -0.70082512467E+02  0.70127688927E+02  0.17770000000E+01 0.  1.
         15    1    1    2    0    0  0.78729745661E+00 -0.21267004027E+01 -0.91582724967E+01  0.96007487214E+01  0.17770000000E+01 0. -1.
</event>
<event>
 6    1  0.1697564E-002  0.1827841E+03  0.7546771E-02  0.1068229E+00
        -11   -1    0    0    0    0  0.00000000000E+00  0.00000000000E+00  0.18250000000E+03  0.18250000000E+03  0.00000000000E+00 0. -1.
         11   -1    0    0    0    0 -0.00000000000E+00 -0.00000000000E+00 -0.18250000000E+03  0.18250000000E+03  0.00000000000E+00 0. -1.
        -11    1    1    2    0    0  0.26167893402E+01 -0.29349712798E+01  0.18217351112E+03  0.18221594277E+03  0.00000000000E+00 0. -1.
         11    1    1    2    0    0  0.28647019413E+01 -0.14803541603E+01 -0.81591626597E+02  0.81655321298E+02  0.00000000000E+00 0. -1.
        -15    1    1    2    0    0 -0.10426477393E+01  0.52100134540E+01 -0.58958155364E+02  0.59223755094E+02  0.17770000000E+01 0. -1.
         15    1    1    2    0    0 -0.44388435422E+01 -0.79468801388E+00 -0.41623729162E+02  0.41904980843E+02  0.17770000000E+01 0.  1.
</event>
<event>
 6    1  0.1697564E-002  0.1874987E+03  0.7546771E-02  0.1064544E+00
        -11   -1    0    0    0    0  0.00000000000E+00  0.00000000000E+00  0.18250000000E+03  0.18250000000E+03  0.00000000000E+00 0.  1.
         11   -1    0    0    0    0 -0.00000000000E+00 -0.00000000000E+00 -0.18250000000E+03  0.18250000000E+03  0.00000000000E+00 0.  1.
        -11    1    1    2    0    0 -0.23032934165E+01 -0.39561354533E+00  0.17296722441E+03  0.17298301186E+03  0.00000000000E+00 0.  1.
         11    1    1    2    0    0  0.34689380946E+01  0.29866353870E+00 -0.17746711647E+03  0.17750126806E+03  0.00000000000E+00 0.  1.
        -15    1    1    2    0    0  0.24616368547E+01  0.17241350199E+01  0.81290297163E+01  0.88470984339E+01  0.17770000000E+01 0. -1.
         15    1    1    2    0    0 -0.36272815329E+01 -0.16271850133E+01 -0.36291376511E+01  0.56686216559E+01  0.17770000000E+01 0. -1.
</event>
<event>
 6    1  0.1697564E-002  0.1904864E+03  0.7546771E-02  0.1062270E+00
        -11   -1    0    0    0    0  0.00000000000E+00  0.00000000000E+00  0.18250000000E+03  0.18250000000E+03  0.00000000000E+00 0.  1.
         11   -1    0    0    0    0 -0.00000000000E+00 -0.00000000000E+00 -0.18250000000E+03  0.18250000000E+03  0.00000000000E+00 0.  1.
        -11    1    1    2    0    0  0.48741358403E+01  0.19868364684E+01  0.16348658867E+03  0.16357129759E+03  0.00000000000E+00 0.  1.
         11    1    1    2    0    0 -0.10597311069E+02  0.34263108718E+01 -0.17415788302E+03  0.17451364080E+03  0.00000000000E+00 0.  1.
        -15    1    1    2    0    0  0.21684330042E+01  0.48363857400E+01  0.14287754390E+02  0.15342437330E+02  0.17770000000E+01 0.  1.
         15    1    1    2    0    0  0.35547422247E+01 -0.10249533080E+02 -0.36164600423E+01  0.11572624287E+02  0.17770000000E+01 0. -1.
</event>
<event>
 6    1  0.1697564E-002  0.1829032E+03  0.7546771E-02  0.1068134E+00
        -11   -1    0    0    0    0  0.00000000000E+00  0.00000000000E+00  0.18250000000E+03  0.18250000000E+03  0.00000000000E+00 0. -1.
         11   -1    0    0    0    0 -0.00000000000E+00 -0.00000000000E+00 -0.18250000000E+03  0.18250000000E+03  0.00000000000E+00 0.  1.
        -11    1    1    2    0    0  0.34687976420E+01 -0.64264463296E+00  0.18206263575E+03  0.18209681185E+03  0.00000000000E+00 0. -1.
         11    1    1    2    0    0 -0.31252196390E+00  0.68934011663E+00 -0.14913706495E+02  0.14932899960E+02  0.00000000000E+00 0.  1.
        -15    1    1    2    0    0  0.38039663970E+01  0.62640436303E+00 -0.13298883389E+03  0.13305656772E+03  0.17770000000E+01 0.  1.
         15    1    1    2    0    0 -0.69602420751E+01 -0.67309984670E+00 -0.34160095362E+02  0.34913720474E+02  0.17770000000E+01 0.  1.
</event>
<event>
 6    1  0.1697564E-002  0.1827469E+03  0.7546771E-02  0.1068258E+00
        -11   -1    0    0    0    0  0.00000000000E+00  0.00000000000E+00  0.18250000000E+03  0.18250000000E+03  0.00000000000E+00 0.  1.
         11   -1    0    0    0    0 -0.00000000000E+00 -0.00000000000E+00 -0.18250000000E+03  0.18250000000E+03  0.00000000000E+00 0.  1.
        -11    1    1    2    0    0  0.43554381627E+01  0.13309492377E+01  0.18219617918E+03  0.18225309044E+03  0.00000000000E+00 0.  1.
         11    1    1    2    0    0  0.10129591934E+01 -0.16890251243E+00 -0.28196552662E+02  0.28215247587E+02  0.00000000000E+00 0.  1.
        -15    1    1    2    0    0 -0.15160919645E+01  0.39651737105E+00 -0.13427304072E+03  0.13429394236E+03  0.17770000000E+01 0.  1.
         15    1    1    2    0    0 -0.38523053915E+01 -0.15585640963E+01 -0.19726585795E+02  0.20237719610E+02  0.17770000000E+01 0.  1.
</event>
<event>
 6    1  0.1697564E-002  0.1835599E+03  0.7546771E-02  0.1067614E+00
        -11   -1    0    0    0    0  0.00000000000E+00  0.00000000000E+00  0.18250000000E+03  0.18250000000E+03  0.00000000000E+00 0. -1.
         11   -1    0    0    0    0 -0.00000000000E+00 -0.00000000000E+00 -0.18250000000E+03  0.18250000000E+03  0.00000000000E+00 0.  1.
        -11    1    1    2    0    0  0.55837332651E+00  0.32207599510E+01  0.18141067798E+03  0.18144012556E+03  0.00000000000E+00 0. -1.
         11    1    1    2    0    0 -0.37511812618E+01  0.34321544462E+01 -0.12174528667E+03  0.12185140898E+03  0.00000000000E+00 0.  1.
        -15    1    1    2    0    0  0.73637097289E+01 -0.69706719510E+01 -0.49710480393E+02  0.50765185692E+02  0.17770000000E+01 0. -1.
         15    1    1    2    0    0 -0.41709017936E+01  0.31775755372E+00 -0.99549109244E+01  0.10943279771E+02  0.17770000000E+01 0.  1.
</event>
<event>
 6    1  0.1697564E-002  0.1838988E+03  0.7546771E-02  0.1067347E+00
        -11   -1    0    0    0    0  0.00000000000E+00  0.00000000000E+00  0.18250000000E+03  0.18250000000E+03  0.00000000000E+00 0. -1.
         11   -1    0    0    0    0 -0.00000000000E+00 -0.00000000000E+00 -0.18250000000E+03  0.18250000000E+03  0.00000000000E+00 0. -1.
        -11    1    1    2    0    0  0.22303699805E+01 -0.17594485151E+01  0.18107892526E+03  0.18110120757E+03  0.00000000000E+00 0. -1.
         11    1    1    2    0    0  0.17506666523E+01 -0.28068810032E+01 -0.16864220413E+03  0.16867464667E+03  0.00000000000E+00 0. -1.
        -15    1    1    2    0    0 -0.48842958719E+01  0.34747254174E+01 -0.73274629502E+01  0.96322118528E+01  0.17770000000E+01 0.  1.
         15    1    1    2    0    0  0.90325923907E+00  0.10916041010E+01 -0.51092581787E+01  0.55919339144E+01  0.17770000000E+01 0.  1.
</event>
<event>
 6    1  0.1876063E-002  0.1862519E+03  0.7546771E-02  0.1065507E+00
        -11   -1    0    0    0    0  0.00000000000E+00  0.00000000000E+00  0.18250000000E+03  0.18250000000E+03  0.00000000000E+00 0.  1.
         11   -1    0    0    0    0 -0.00000000000E+00 -0.00000000000E+00 -0.18250000000E+03  0.18250000000E+03  0.00000000000E+00 0. -1.
        -11    1    1    2    0    0 -0.29417972044E+01  0.31081396582E+01  0.17869689234E+03  0.17874813016E+03  0.00000000000E+00 0.  1.
         11    1    1    2    0    0  0.19628149662E+01 -0.31153631918E+01 -0.16728480957E+03  0.16732532876E+03  0.00000000000E+00 0. -1.
        -15    1    1    2    0    0 -0.26956189789E+01  0.10731979886E+01 -0.13707799578E+02  0.14123725213E+02  0.17770000000E+01 0.  1.
         15    1    1    2    0    0  0.36746012171E+01 -0.10659744550E+01  0.22957168031E+01  0.48028158702E+01  0.17770000000E+01 0.  1.
</event>
<event>
 6    1  0.1697564E-002  0.1923113E+03  0.7546771E-02  0.1060903E+00
        -11   -1    0    0    0    0  0.00000000000E+00  0.00000000000E+00  0.18250000000E+03  0.18250000000E+03  0.00000000000E+00 0. -1.
         11   -1    0    0    0    0 -0.00000000000E+00 -0.00000000000E+00 -0.18250000000E+03  0.18250000000E+03  0.00000000000E+00 0.  1.
        -11    1    1    2    0    0  0.26961817724E+01  0.13585054526E+01  0.17266232569E+03  0.17268871893E+03  0.00000000000E+00 0. -1.
         11    1    1    2    0    0 -0.10880339458E+01  0.34503328359E+01 -0.16217148717E+03  0.16221183639E+03  0.00000000000E+00 0.  1.
        -15    1    1    2    0    0  0.49517452701E+01 -0.12152053391E+02 -0.14211300349E+02  0.19424494059E+02  0.17770000000E+01 0.  1.
         15    1    1    2    0    0 -0.65598930968E+01  0.73432151020E+01  0.37204618372E+01  0.10674950621E+02  0.17770000000E+01 0. -1.
</event>
<event>
 6    1  0.1697564E-002  0.1758336E+03  0.7546771E-02  0.1073889E+00
        -11   -1    0    0    0    0  0.00000000000E+00  0.00000000000E+00  0.18250000000E+03  0.18250000000E+03  0.00000000000E+00 0. -1.
         11   -1    0    0    0    0 -0.00000000000E+00 -0.00000000000E+00 -0.18250000000E+03  0.18250000000E+03  0.00000000000E+00 0. -1.
        -11    1    1    2    0    0 -0.45074333481E+01  0.40811228141E+01  0.17296875260E+03  0.17307559590E+03  0.00000000000E+00 0. -1.
         11    1    1    2    0    0 -0.39836911687E+01  0.11596375572E+01 -0.17873218521E+03  0.17878033612E+03  0.00000000000E+00 0. -1.
        -15    1    1    2    0    0  0.20242781219E+01 -0.13407287295E+01  0.43015927927E+01  0.52494461607E+01  0.17770000000E+01 0.  1.
         15    1    1    2    0    0  0.64668463949E+01 -0.39000316419E+01  0.14618398129E+01  0.78946218239E+01  0.17770000000E+01 0. -1.
</event>
<event>
 6    1  0.1697564E-002  0.1935415E+03  0.7546771E-02  0.1059990E+00
        -11   -1    0    0    0    0  0.00000000000E+00  0.00000000000E+00  0.18250000000E+03  0.18250000000E+03  0.00000000000E+00 0.  1.
         11   -1    0    0    0    0 -0.00000000000E+00 -0.00000000000E+00 -0.18250000000E+03  0.18250000000E+03  0.00000000000E+00 0. -1.
        -11    1    1    2    0    0  0.36829171664E+01 -0.30460985677E+01  0.16234663494E+03  0.16241697101E+03  0.00000000000E+00 0.  1.
         11    1    1    2    0    0 -0.46464072590E+01  0.63788488596E+01 -0.17127679866E+03  0.17145850977E+03  0.00000000000E+00 0. -1.
        -15    1    1    2    0    0 -0.17872968245E+01  0.56398403662E+01  0.17334252609E+02  0.18402072486E+02  0.17770000000E+01 0.  1.
         15    1    1    2    0    0  0.27507869170E+01 -0.89725906580E+01 -0.84040888857E+01  0.12722446729E+02  0.17770000000E+01 0. -1.
</event>
<event>
 6    1  0.1697564E-002  0.1830341E+03  0.7546771E-02  0.1068030E+00
        -11   -1    0    0    0    0  0.00000000000E+00  0.00000000000E+00  0.18250000000E+03  0.18250000000E+03  0.00000000000E+00 0.  1.
         11   -1    0    0    0    0 -0.00000000000E+00 -0.00000000000E+00 -0.18250000000E+03  0.18250000000E+03  0.00000000000E+00 0. -1.
        -11    1    1    2    0    0  0.10388454525E+00 -0.26588117947E+01  0.18194648246E+03  0.18196593789E+03  0.00000000000E+00 0.  1.
         11    1    1    2    0    0  0.88740731925E+00  0.41497525632E+00 -0.29937813431E+02  0.29953837304E+02  0.00000000000E+00 0. -1.
        -15    1    1    2    0    0 -0.11412607146E+01 -0.76079498370E+01 -0.77695893339E+02  0.78096049500E+02  0.17770000000E+01 0.  1.
         15    1    1    2    0    0  0.14996885008E+00  0.98517863754E+01 -0.74312775694E+02  0.74984175302E+02  0.17770000000E+01 0. -1.
</event>
<event>
 6    1  0.1697564E-002  0.1835602E+03  0.7546771E-02  0.1067614E+00
        -11   -1    0    0    0    0  0.00000000000E+00  0.00000000000E+00  0.18250000000E+03  0.18250000000E+03  0.00000000000E+00 0.  1.
         11   -1    0    0    0    0 -0.00000000000E+00 -0.00000000000E+00 -0.18250000000E+03  0.18250000000E+03  0.00000000000E+00 0.  1.
        -11    1    1    2    0    0  0.13127999288E+01  0.17115104546E+01  0.15886503180E+03  0.15887967473E+03  0.00000000000E+00 0.  1.
         11    1    1    2    0    0 -0.22254647415E+01  0.35435653768E+01 -0.18139151047E+03  0.18143976857E+03  0.00000000000E+00 0.  1.
        -15    1    1    2    0    0 -0.44339217329E+00 -0.51359979218E+01  0.21566087843E+02  0.22244750957E+02  0.17770000000E+01 0. -1.
         15    1    1    2    0    0  0.13560569861E+01 -0.11907790961E+00  0.96039081985E+00  0.24358057445E+01  0.17770000000E+01 0.  1.
</event>
<event>
 6    1  0.1697564E-002  0.1855743E+03  0.7546771E-02  0.1066034E+00
        -11   -1    0    0    0    0  0.00000000000E+00  0.00000000000E+00  0.18250000000E+03  0.18250000000E+03  0.00000000000E+00 0.  1.
         11   -1    0    0    0    0 -0.00000000000E+00 -0.00000000000E+00 -0.18250000000E+03  0.18250000000E+03  0.00000000000E+00 0.  1.
        -11    1    1    2    0    0  0.27258766767E+01 -0.18528604284E+01  0.17939538123E+03  0.17942565676E+03  0.00000000000E+00 0.  1.
         11    1    1    2    0    0  0.85755318741E-01 -0.30223811679E+01 -0.17303472731E+03  0.17306114236E+03  0.00000000000E+00 0.  1.
        -15    1    1    2    0    0 -0.22962025933E+01  0.27218063158E+01  0.14240971456E+01  0.42268851002E+01  0.17770000000E+01 0.  1.
         15    1    1    2    0    0 -0.51542940210E+00  0.21534352804E+01 -0.77847510689E+01  0.82863157785E+01  0.17770000000E+01 0.  1.
</event>
<event>
 6    1  0.1697564E-002  0.1693307E+03  0.7546771E-02  0.1079449E+00
        -11   -1    0    0    0    0  0.00000000000E+00  0.00000000000E+00  0.18250000000E+03  0.18250000000E+03  0.00000000000E+00 0.  1.
         11   -1    0    0    0    0 -0.00000000000E+00 -0.00000000000E+00 -0.18250000000E+03  0.18250000000E+03  0.00000000000E+00 0.  1.
        -11    1    1    2    0    0  0.73684793232E+01  0.40714959492E+01  0.16940161612E+03  0.16961066921E+03  0.00000000000E+00 0.  1.
         11    1    1    2    0    0 -0.47385767353E+01  0.10618830490E+01 -0.16903033770E+03  0.16910007915E+03  0.00000000000E+00 0.  1.
        -15    1    1    2    0    0 -0.44519767518E+01 -0.12732827667E+02 -0.75240976635E+01  0.15547178910E+02  0.17770000000E+01 0. -1.
         15    1    1    2    0    0  0.18220741639E+01  0.75994486688E+01  0.71528192453E+01  0.10742072728E+02  0.17770000000E+01 0.  1.
</event>
<event>
 6    1  0.1697564E-002  0.1881674E+03  0.7546771E-02  0.1064031E+00
        -11   -1    0    0    0    0  0.00000000000E+00  0.00000000000E+00  0.18250000000E+03  0.18250000000E+03  0.00000000000E+00 0.  1.
         11   -1    0    0    0    0 -0.00000000000E+00 -0.00000000000E+00 -0.18250000000E+03  0.18250000000E+03  0.00000000000E+00 0. -1.
        -11    1    1    2    0    0 -0.50828322259E+01 -0.36515870292E+00  0.17675912834E+03  0.17683257046E+03  0.00000000000E+00 0.  1.
         11    1    1    2    0    0  0.11082441447E+02 -0.17819989128E+01 -0.15511610349E+03  0.15552170778E+03  0.00000000000E+00 0. -1.
        -15    1    1    2    0    0  0.19320075580E+01 -0.84086453133E+01 -0.15817806999E+02  0.18105212412E+02  0.17770000000E+01 0. -1.
         15    1    1    2    0    0 -0.79316167795E+01  0.10555802929E+02 -0.58252178513E+01  0.14540509352E+02  0.17770000000E+01 0.  1.
</event>
<event>
 6    1  0.1697564E-002  0.1820097E+03  0.7546771E-02  0.1068846E+00
        -11   -1    0    0    0    0  0.00000000000E+00  0.00000000000E+00  0.18250000000E+03  0.18250000000E+03  0.00000000000E+00 0. -1.
         11   -1    0    0    0    0 -0.00000000000E+00 -0.00000000000E+00 -0.18250000000E+03  0.18250000000E+03  0.00000000000E+00 0. -1.
        -11    1    1    2    0    0 -0.85394899854E+00  0.51951015286E-01  0.16251161476E+01  0.18365539178E+01  0.00000000000E+00 0. -1.
         11    1    1    2    0    0 -0.37507973979E+00  0.31817712507E+01 -0.18193140459E+03  0.18195961181E+03  0.00000000000E+00 0. -1.
        -15    1    1    2    0    0 -0.76836159352E+01 -0.33944448334E+01  0.10513464130E+03  0.10548464693E+03  0.17770000000E+01 0.  1.
         15    1    1    2    0    0  0.89126446735E+01  0.16072256747E+00  0.75171647150E+02  0.75719187337E+02  0.17770000000E+01 0. -1.
</event>
<event>
 6    1  0.1697564E-002  0.1880719E+03  0.7546771E-02  0.1064104E+00
        -11   -1    0    0    0    0  0.00000000000E+00  0.00000000000E+00  0.18250000000E+03  0.18250000000E+03  0.00000000000E+00 0. -1.
         11   -1    0    0    0    0 -0.00000000000E+00 -0.00000000000E+00 -0.18250000000E+03  0.18250000000E+03  0.00000000000E+00 0.  1.
        -11    1    1    2    0    0  0.13772745112E+02  0.10395904034E+02  0.13942589320E+03  0.14048965451E+03  0.00000000000E+00 0. -1.
         11    1    1    2    0    0  0.76585187908E+00  0.27407365359E+01 -0.17690520826E+03  0.17692809521E+03  0.00000000000E+00 0.  1.
        -15    1    1    2    0    0 -0.94377248705E+01 -0.50486383051E+01  0.36177785712E+02  0.37769687681E+02  0.17770000000E+01 0.  1.
         15    1    1    2    0    0 -0.51008721208E+01 -0.80880022649E+01  0.13015293463E+01  0.98125625944E+01  0.17770000000E+01 0. -1.
</event>
<event>
 6    1  0.1697564E-002  0.2048201E+03  0.7546771E-02  0.1051957E+00
        -11   -1    0    0    0    0  0.00000000000E+00  0.00000000000E+00  0.18250000000E+03  0.18250000000E+03  0.00000000000E+00 0.  1.
         11   -1    0    0    0    0 -0.00000000000E+00 -0.00000000000E+00 -0.18250000000E+03  0.18250000000E+03  0.00000000000E+00 0.  1.
        -11    1    1    2    0    0  0.36734348361E+01 -0.11669863470E+01  0.16013352680E+03  0.16017990631E+03  0.00000000000E+00 0.  1.
         11    1    1    2    0    0  0.10984888525E+02  0.15987644839E+02 -0.11393165351E+03  0.11557116524E+03  0.00000000000E+00 0.  1.
        -15    1    1    2    0    0 -0.15196755835E+02 -0.28752105655E+02 -0.60806646138E+02  0.68979931220E+02  0.17770000000E+01 0.  1.
         15    1    1    2    0    0  0.53843247354E+00  0.13931447163E+02  0.14604772848E+02  0.20268997226E+02  0.17770000000E+01 0. -1.
</event>
<event>
 6    1  0.1697564E-002  0.1848298E+03  0.7546771E-02  0.1066615E+00
        -11   -1    0    0    0    0  0.00000000000E+00  0.00000000000E+00  0.18250000000E+03  0.18250000000E+03  0.00000000000E+00 0.  1.
         11   -1    0    0    0    0 -0.00000000000E+00 -0.00000000000E+00 -0.18250000000E+03  0.18250000000E+03  0.00000000000E+00 0. -1.
        -11    1    1    2    0    0  0.14713574654E+01  0.41030227246E+01  0.18011750233E+03  0.18017023710E+03  0.00000000000E+00 0.  1.
         11    1    1    2    0    0 -0.12740035615E+01  0.25133362303E+01 -0.17111457973E+03  0.17113777882E+03  0.00000000000E+00 0. -1.
        -15    1    1    2    0    0 -0.23607298344E+01 -0.68929128572E+01 -0.66955184790E+01  0.10053506339E+02  0.17770000000E+01 0. -1.
         15    1    1    2    0    0  0.21633759305E+01  0.27655390232E+00 -0.23074041261E+01  0.36384777419E+01  0.17770000000E+01 0. -1.
</event>
<event>
 6    1  0.1697564E-002  0.1861650E+03  0.7546771E-02  0.1065574E+00
        -11   -1    0    0    0    0  0.00000000000E+00  0.00000000000E+00  0.18250000000E+03  0.18250000000E+03  0.00000000000E+00 0. -1.
         11   -1    0    0    0    0 -0.00000000000E+00 -0.00000000000E+00 -0.18250000000E+03  0.18250000000E+03  0.00000000000E+00 0.  1.
        -11    1    1    2    0    0 -0.21833360169E+01 -0.12462744661E+01  0.17881733773E+03  0.17883500896E+03  0.00000000000E+00 0. -1.
         11    1    1    2    0    0  0.16421596779E+01 -0.15242314415E+01 -0.13846998823E+03  0.13848811361E+03  0.00000000000E+00 0.  1.
        -15    1    1    2    0    0  0.25582129210E+01 -0.10935077847E+02 -0.16440151545E+02  0.19988914245E+02  0.17770000000E+01 0.  1.
         15    1    1    2    0    0 -0.20170365820E+01  0.13705583755E+02 -0.23907197953E+02  0.27687963190E+02  0.17770000000E+01 0. -1.
</event>
<event>
 6    1  0.1697564E-002  0.1884315E+03  0.7546771E-02  0.1063829E+00
        -11   -1    0    0    0    0  0.00000000000E+00  0.00000000000E+00  0.18250000000E+03  0.18250000000E+03  0.00000000000E+00 0.  1.
         11   -1    0    0    0    0 -0.00000000000E+00 -0.00000000000E+00 -0.18250000000E+03  0.18250000000E+03  0.00000000000E+00 0.  1.
        -11    1    1    2    0    0 -0.12890213170E+02 -0.20613731649E+01  0.15283165488E+03  0.15338814031E+03  0.00000000000E+00 0.  1.
         11    1    1    2    0    0 -0.76422336535E+01  0.16368963341E+01 -0.17639541909E+03  0.17656847691E+03  0.00000000000E+00 0.  1.
        -15    1    1    2    0    0  0.14234760793E+02  0.75841502727E+01  0.14229557976E+02  0.21582071249E+02  0.17770000000E+01 0.  1.
         15    1    1    2    0    0  0.62976860310E+01 -0.71596734420E+01  0.93342062341E+01  0.13461311532E+02  0.17770000000E+01 0. -1.
</event>
<event>
 6    1  0.1697564E-002  0.1900253E+03  0.7546771E-02  0.1062618E+00
        -11   -1    0    0    0    0  0.00000000000E+00  0.00000000000E+00  0.18250000000E+03  0.18250000000E+03  0.00000000000E+00 0. -1.
         11   -1    0    0    0    0 -0.00000000000E+00 -0.00000000000E+00 -0.18250000000E+03  0.18250000000E+03  0.00000000000E+00 0. -1.
        -11    1    1    2    0    0  0.10874389530E+02 -0.77656160720E+01  0.17446372686E+03  0.17497470998E+03  0.00000000000E+00 0. -1.
         11    1    1    2    0    0  0.47220708876E+01 -0.25936084315E+01 -0.14678556576E+03  0.14688440038E+03  0.00000000000E+00 0. -1.
        -15    1    1    2    0    0 -0.74162260384E+01  0.10815266391E+02 -0.31319667359E+02  0.34000730702E+02  0.17770000000E+01 0.  1.
         15    1    1    2    0    0 -0.81802343787E+01 -0.45604188789E+00  0.36415062599E+01  0.91401589448E+01  0.17770000000E+01 0. -1.
</event>
<event>
 6    1  0.1697564E-002  0.1829579E+03  0.7546771E-02  0.1068091E+00
        -11   -1    0    0    0    0  0.00000000000E+00  0.00000000000E+00  0.18250000000E+03  0.18250000000E+03  0.00000000000E+00 0.  1.
         11   -1    0    0    0    0 -0.00000000000E+00 -0.00000000000E+00 -0.18250000000E+03  0.18250000000E+03  0.00000000000E+00 0. -1.
        -11    1    1    2    0    0  0.24612937732E+01 -0.33021132157E+01  0.44756921604E+02  0.44946011505E+02  0.00000000000E+00 0.  1.
         11    1    1    2    0    0  0.48791949708E+00 -0.87148943683E+01 -0.18183274260E+03  0.18204212076E+03  0.00000000000E+00 0. -1.
        -15    1    1    2    0    0 -0.62123190907E+01  0.78193334161E+01  0.10023921992E+03  0.10075114800E+03  0.17770000000E+01 0.  1.
         15    1    1    2    0    0  0.32631058204E+01  0.41976741679E+01  0.36836601069E+02  0.37260719737E+02  0.17770000000E+01 0. -1.
</event>
<event>
 6    1  0.1697564E-002  0.1828459E+03  0.7546771E-02  0.1068180E+00
        -11   -1    0    0    0    0  0.00000000000E+00  0.00000000000E+00  0.18250000000E+03  0.18250000000E+03  0.00000000000E+00 0.  1.
         11   -1    0    0    0    0 -0.00000000000E+00 -0.00000000000E+00 -0.18250000000E+03  0.18250000000E+03  0.00000000000E+00 0. -1.
        -11    1    1    2    0    0  0.20900734652E+01 -0.43037206596E+01  0.15103847701E+03  0.15111423479E+03  0.00000000000E+00 0.  1.
         11    1    1    2    0    0 -0.11682913923E+01  0.23729924610E+01 -0.18213486976E+03  0.18215407429E+03  0.00000000000E+00 0. -1.
        -15    1    1    2    0    0 -0.13202917244E+00 -0.10688807015E+01  0.19136390199E+02  0.19248872604E+02  0.17770000000E+01 0. -1.
         15    1    1    2    0    0 -0.78975290043E+00  0.29996089001E+01  0.11960002553E+02  0.12482818322E+02  0.17770000000E+01 0.  1.
</event>
<event>
 6    1  0.1697564E-002  0.1886523E+03  0.7546771E-02  0.1063660E+00
        -11   -1    0    0    0    0  0.00000000000E+00  0.00000000000E+00  0.18250000000E+03  0.18250000000E+03  0.00000000000E+00 0. -1.
         11   -1    0    0    0    0 -0.00000000000E+00 -0.00000000000E+00 -0.18250000000E+03  0.18250000000E+03  0.00000000000E+00 0. -1.
        -11    1    1    2    0    0  0.36398007115E+01 -0.59304416334E+01  0.16172238374E+03  0.16187201021E+03  0.00000000000E+00 0. -1.
         11    1    1    2    0    0  0.22286475260E+01 -0.38978066689E+01 -0.17629055869E+03  0.17634772709E+03  0.00000000000E+00 0. -1.
        -15    1    1    2    0    0 -0.33016938285E+01  0.57656507841E+01 -0.36982539577E+01  0.78088874007E+01  0.17770000000E+01 0. -1.
         15    1    1    2    0    0 -0.25667544090E+01  0.40625975182E+01  0.18266428910E+02  0.18971375304E+02  0.17770000000E+01 0.  1.
</event>
<event>
 6    1  0.1697564E-002  0.1828433E+03  0.7546771E-02  0.1068182E+00
        -11   -1    0    0    0    0  0.00000000000E+00  0.00000000000E+00  0.18250000000E+03  0.18250000000E+03  0.00000000000E+00 0. -1.
         11   -1    0    0    0    0 -0.00000000000E+00 -0.00000000000E+00 -0.18250000000E+03  0.18250000000E+03  0.00000000000E+00 0. -1.
        -11    1    1    2    0    0 -0.30875749860E+01  0.30776355622E+00  0.21899665425E+02  0.22118390164E+02  0.00000000000E+00 0. -1.
         11    1    1    2    0    0  0.10010735581E+02  0.21543666325E+02 -0.18060099148E+03  0.18215669768E+03  0.00000000000E+00 0. -1.
        -15    1    1    2    0    0  0.10591757143E+01 -0.12720934109E+01  0.32892026713E+02  0.32981558864E+02  0.17770000000E+01 0. -1.
         15    1    1    2    0    0 -0.79823363095E+01 -0.20579336470E+02  0.12580929934E+03  0.12774335330E+03  0.17770000000E+01 0.  1.
</event>
<event>
 6    1  0.1697564E-002  0.1973635E+03  0.7546771E-02  0.1057203E+00
        -11   -1    0    0    0    0  0.00000000000E+00  0.00000000000E+00  0.18250000000E+03  0.18250000000E+03  0.00000000000E+00 0.  1.
         11   -1    0    0    0    0 -0.00000000000E+00 -0.00000000000E+00 -0.18250000000E+03  0.18250000000E+03  0.00000000000E+00 0. -1.
        -11    1    1    2    0    0  0.26621975615E+01 -0.87211392313E+00  0.77359525060E+02  0.77410231857E+02  0.00000000000E+00 0.  1.
         11    1    1    2    0    0  0.43490269332E+01 -0.51121014980E+00 -0.16757927076E+03  0.16763647383E+03  0.00000000000E+00 0. -1.
        -15    1    1    2    0    0 -0.38327311767E+01  0.25342807509E+01 -0.14422854855E+02  0.15241026159E+02  0.17770000000E+01 0.  1.
         15    1    1    2    0    0 -0.31784933179E+01 -0.11509566780E+01  0.10464260056E+03  0.10471226815E+03  0.17770000000E+01 0.  1.
</event>
<event>
 6    1  0.1697564E-002  0.1826741E+03  0.7546771E-02  0.1068316E+00
        -11   -1    0    0    0    0  0.00000000000E+00  0.00000000000E+00  0.18250000000E+03  0.18250000000E+03  0.00000000000E+00 0.  1.
         11   -1    0    0    0    0 -0.00000000000E+00 -0.00000000000E+00 -0.18250000000E+03  0.18250000000E+03  0.00000000000E+00 0.  1.
        -11    1    1    2    0    0  0.31156453656E+01 -0.16613047493E+01  0.18229167225E+03  0.18232586473E+03  0.00000000000E+00 0.  1.
         11    1    1    2    0    0 -0.24265811932E+00  0.20711783631E+01 -0.12874181628E+03  0.12875870426E+03  0.00000000000E+00 0.  1.
        -15    1    1    2    0    0 -0.24606730668E+01 -0.90550945987E+00 -0.15588601228E+02  0.15907139170E+02  0.17770000000E+01 0. -1.
         15    1    1    2    0    0 -0.41231417949E+00  0.49563584607E+00 -0.37961254743E+02  0.38008291839E+02  0.17770000000E+01 0.  1.
</event>
<event>
 6    1  0.1697564E-002  0.1849700E+03  0.7546771E-02  0.1066506E+00
        -11   -1    0    0    0    0  0.00000000000E+00  0.00000000000E+00  0.18250000000E+03  0.18250000000E+03  0.00000000000E+00 0.  1.
         11   -1    0    0    0    0 -0.00000000000E+00 -0.00000000000E+00 -0.18250000000E+03  0.18250000000E+03  0.00000000000E+00 0. -1.
        -11    1    1    2    0    0 -0.10060713921E+02 -0.10376519006E+02  0.17944893237E+03  0.18003002372E+03  0.00000000000E+00 0.  1.
         11    1    1    2    0    0 -0.16979896290E+01 -0.15860318520E+01 -0.13723023503E+03  0.13724990372E+03  0.00000000000E+00 0. -1.
        -15    1    1    2    0    0  0.17757072385E+01 -0.21383497830E+01 -0.15537969481E+02  0.15884328773E+02  0.17770000000E+01 0.  1.
         15    1    1    2    0    0  0.99829963118E+01  0.14100900641E+02 -0.26680727863E+02  0.31835743788E+02  0.17770000000E+01 0. -1.
</event>
<event>
 6    1  0.1697564E-002  0.1845273E+03  0.7546771E-02  0.1066852E+00
        -11   -1    0    0    0    0  0.00000000000E+00  0.00000000000E+00  0.18250000000E+03  0.18250000000E+03  0.00000000000E+00 0.  1.
         11   -1    0    0    0    0 -0.00000000000E+00 -0.00000000000E+00 -0.18250000000E+03  0.18250000000E+03  0.00000000000E+00 0. -1.
        -11    1    1    2    0    0  0.15016831005E+01 -0.11063030815E+01  0.12094293041E+03  0.12095731220E+03  0.00000000000E+00 0.  1.
         11    1    1    2    0    0  0.17683563708E+01  0.38857250153E+01 -0.18042218799E+03  0.18047269008E+03  0.00000000000E+00 0. -1.
        -15    1    1    2    0    0 -0.15757948360E+01 -0.46581314798E+01  0.14058733757E+01  0.54143815157E+01  0.17770000000E+01 0. -1.
         15    1    1    2    0    0 -0.16942446353E+01  0.18787095461E+01  0.58073384208E+02  0.58155616211E+02  0.17770000000E+01 0. -1.
</event>
<event>
 6    1  0.1697564E-002  0.1879997E+03  0.7546771E-02  0.1064159E+00
        -11   -1    0    0    0    0  0.00000000000E+00  0.00000000000E+00  0.18250000000E+03  0.18250000000E+03  0.00000000000E+00 0. -1.
         11   -1    0    0    0    0 -0.00000000000E+00 -0.00000000000E+00 -0.18250000000E+03  0.18250000000E+03  0.00000000000E+00 0. -1.
        -11    1    1    2    0    0 -0.17926260473E+01  0.35139166749E+01  0.17695629640E+03  0.17700025976E+03  0.00000000000E+00 0. -1.
         11    1    1    2    0    0 -0.15774704519E+01  0.32880451180E+01 -0.15260984680E+03  0.15265341462E+03  0.00000000000E+00 0. -1.
        -15    1    1    2    0    0  0.91178214681E+00 -0.69106541849E+00  0.48885524854E+01  0.53258419521E+01  0.17770000000E+01 0. -1.
         15    1    1    2    0    0  0.24583143524E+01 -0.61108963744E+01 -0.29235002084E+02  0.30020483670E+02  0.17770000000E+01 0.  1.
</event>
<event>
 6    1  0.1697564E-002  0.1851667E+03  0.7546771E-02  0.1066352E+00
        -11   -1    0    0    0    0  0.00000000000E+00  0.00000000000E+00  0.18250000000E+03  0.18250000000E+03  0.00000000000E+00 0.  1.
         11   -1    0    0    0    0 -0.00000000000E+00 -0.00000000000E+00 -0.18250000000E+03  0.18250000000E+03  0.00000000000E+00 0.  1.
        -11    1    1    2    0    0  0.96030342066E+00 -0.39231265447E+01  0.96554235922E+02  0.96638675380E+02  0.00000000000E+00 0.  1.
         11    1    1    2    0    0  0.24948432626E+01  0.13836855168E+01 -0.17981062689E+03  0.17983325714E+03  0.00000000000E+00 0.  1.
        -15    1    1    2    0    0 -0.11254672802E+01  0.24649847357E+01 -0.16049447028E+01  0.36161309220E+01  0.17770000000E+01 0. -1.
         15    1    1    2    0    0 -0.23296794030E+01  0.74456292220E-01  0.84861335672E+02  0.84911936563E+02  0.17770000000E+01 0.  1.
</event>
<event>
 6    1  0.1697564E-002  0.1836189E+03  0.7546771E-02  0.1067568E+00
        -11   -1    0    0    0    0  0.00000000000E+00  0.00000000000E+00  0.18250000000E+03  0.18250000000E+03  0.00000000000E+00 0.  1.
         11   -1    0    0    0    0 -0.00000000000E+00 -0.00000000000E+00 -0.18250000000E+03  0.18250000000E+03  0.00000000000E+00 0.  1.
        -11    1    1    2    0    0 -0.79168834171E+01 -0.26142500472E+01  0.18118942938E+03  0.18138114749E+03  0.00000000000E+00 0.  1.
         11    1    1    2    0    0 -0.97367420604E+00  0.21653688084E+01 -0.96369307460E+02  0.96398549179E+02  0.00000000000E+00 0.  1.
        -15    1    1    2    0    0  0.20130858833E+01  0.66396114925E+01 -0.63603786051E+02  0.64005751964E+02  0.17770000000E+01 0.  1.
         15    1    1    2    0    0  0.68774717399E+01 -0.61907302537E+01 -0.21216335867E+02  0.23214551368E+02  0.17770000000E+01 0. -1.
</event>
<event>
 6    1  0.1697564E-002  0.1850410E+03  0.7546771E-02  0.1066450E+00
        -11   -1    0    0    0    0  0.00000000000E+00  0.00000000000E+00  0.18250000000E+03  0.18250000000E+03  0.00000000000E+00 0. -1.
         11   -1    0    0    0    0 -0.00000000000E+00 -0.00000000000E+00 -0.18250000000E+03  0.18250000000E+03  0.00000000000E+00 0. -1.
        -11    1    1    2    0    0 -0.20836208198E+01 -0.31124761510E+01  0.14673678535E+03  0.14678458080E+03  0.00000000000E+00 0. -1.
         11    1    1    2    0    0 -0.94251127372E-01 -0.45221366027E+01 -0.17990213973E+03  0.17995899111E+03  0.00000000000E+00 0. -1.
        -15    1    1    2    0    0  0.54071815200E+01  0.27935395389E+01  0.22186911015E+01  0.67172758131E+01  0.17770000000E+01 0.  1.
         15    1    1    2    0    0 -0.32293095728E+01  0.48410732149E+01  0.30946663270E+02  0.31539152283E+02  0.17770000000E+01 0. -1.
</event>
<event>
 6    1  0.1697564E-002  0.1830525E+03  0.7546771E-02  0.1068016E+00
        -11   -1    0    0    0    0  0.00000000000E+00  0.00000000000E+00  0.18250000000E+03  0.18250000000E+03  0.00000000000E+00 0.  1.
         11   -1    0    0    0    0 -0.00000000000E+00 -0.00000000000E+00 -0.18250000000E+03  0.18250000000E+03  0.00000000000E+00 0. -1.
        -11    1    1    2    0    0 -0.27499195418E+01 -0.28455235046E+00  0.10675387058E+03  0.10678966201E+03  0.00000000000E+00 0.  1.
         11    1    1    2    0    0 -0.21523267030E+01 -0.15098687368E+01 -0.18192847937E+03  0.18194747545E+03  0.00000000000E+00 0. -1.
        -15    1    1    2    0    0  0.17341268687E+01 -0.13200087629E+01  0.64542156206E+02  0.64603384399E+02  0.17770000000E+01 0.  1.
         15    1    1    2    0    0  0.31681193761E+01  0.31144298502E+01  0.10632452585E+02  0.11659478147E+02  0.17770000000E+01 0.  1.
</event>
<event>
 6    1  0.1697564E-002  0.2012425E+03  0.7546771E-02  0.1054443E+00
        -11   -1    0    0    0    0  0.00000000000E+00  0.00000000000E+00  0.18250000000E+03  0.18250000000E+03  0.00000000000E+00 0.  1.
         11   -1    0    0    0    0 -0.00000000000E+00 -0.00000000000E+00 -0.18250000000E+03  0.18250000000E+03  0.00000000000E+00 0. -1.
        -11    1    1    2    0    0  0.15565610144E+02 -0.22865855362E+02  0.16140442576E+03  0.16375751651E+03  0.00000000000E+00 0.  1.
         11    1    1    2    0    0 -0.10554632701E+00  0.18923367839E+01 -0.13955340222E+03  0.13956627153E+03  0.00000000000E+00 0. -1.
        -15    1    1    2    0    0 -0.16124752877E+02  0.23551725591E+02  0.95209933699E+01  0.30141308488E+02  0.17770000000E+01 0. -1.
         15    1    1    2    0    0  0.66468905992E+00 -0.25782070130E+01 -0.31372016909E+02  0.31534903470E+02  0.17770000000E+01 0. -1.
</event>
<event>
 6    1  0.1697564E-002  0.1738669E+03  0.7546771E-02  0.1075542E+00
        -11   -1    0    0    0    0  0.00000000000E+00  0.00000000000E+00  0.18250000000E+03  0.18250000000E+03  0.00000000000E+00 0. -1.
         11   -1    0    0    0    0 -0.00000000000E+00 -0.00000000000E+00 -0.18250000000E+03  0.18250000000E+03  0.00000000000E+00 0.  1.
        -11    1    1    2    0    0  0.50882092803E+00  0.38681142416E+01  0.17208045945E+03  0.17212468077E+03  0.00000000000E+00 0. -1.
         11    1    1    2    0    0 -0.60957859311E+01  0.79824151922E+00 -0.17559543566E+03  0.17570302450E+03  0.00000000000E+00 0.  1.
        -15    1    1    2    0    0  0.52441449343E+01  0.26486872018E+01  0.66149708575E+01  0.90239774174E+01  0.17770000000E+01 0.  1.
         15    1    1    2    0    0  0.34282006881E+00 -0.73150429627E+01 -0.30999946475E+01  0.81483173085E+01  0.17770000000E+01 0. -1.
</event>
<event>
 6    1  0.1697564E-002  0.1827806E+03  0.7546771E-02  0.1068232E+00
        -11   -1    0    0    0    0  0.00000000000E+00  0.00000000000E+00  0.18250000000E+03  0.18250000000E+03  0.00000000000E+00 0. -1.
         11   -1    0    0    0    0 -0.00000000000E+00 -0.00000000000E+00 -0.18250000000E+03  0.18250000000E+03  0.00000000000E+00 0.  1.
        -11    1    1    2    0    0  0.66716645643E+01  0.89059548831E+00  0.18209501084E+03  0.18221936571E+03  0.00000000000E+00 0. -1.
         11    1    1    2    0    0  0.14020746226E+01 -0.29994892622E+00 -0.18176093191E+02  0.18232557316E+02  0.00000000000E+00 0.  1.
        -15    1    1    2    0    0  0.10484306049E+01 -0.33772339730E+01 -0.27338465403E+02  0.27623438158E+02  0.17770000000E+01 0. -1.
         15    1    1    2    0    0 -0.91221697918E+01  0.27865874109E+01 -0.13658045224E+03  0.13692463882E+03  0.17770000000E+01 0.  1.
</event>
<event>
 6    1  0.1697564E-002  0.1841930E+03  0.7546771E-02  0.1067115E+00
        -11   -1    0    0    0    0  0.00000000000E+00  0.00000000000E+00  0.18250000000E+03  0.18250000000E+03  0.00000000000E+00 0.  1.
         11   -1    0    0    0    0 -0.00000000000E+00 -0.00000000000E+00 -0.18250000000E+03  0.18250000000E+03  0.00000000000E+00 0. -1.
        -11    1    1    2    0    0 -0.21936321735E+01 -0.38397821755E+01  0.18075290526E+03  0.18080699298E+03  0.00000000000E+00 0.  1.
         11    1    1    2    0    0 -0.88894447861E+00  0.61119701162E+01 -0.14502528399E+03  0.14515674079E+03  0.00000000000E+00 0. -1.
        -15    1    1    2    0    0  0.12314963750E+01  0.32512308497E+01 -0.13620810947E+01  0.41352242101E+01  0.17770000000E+01 0. -1.
         15    1    1    2    0    0  0.18510802771E+01 -0.55234187904E+01 -0.34365540180E+02  0.34901042021E+02  0.17770000000E+01 0.  1.
</event>
<event>
 6    1  0.1697564E-002  0.1827192E+03  0.7546771E-02  0.1068280E+00
        -11   -1    0    0    0    0  0.00000000000E+00  0.00000000000E+00  0.18250000000E+03  0.18250000000E+03  0.00000000000E+00 0.  1.
         11   -1    0    0    0    0 -0.00000000000E+00 -0.00000000000E+00 -0.18250000000E+03  0.18250000000E+03  0.00000000000E+00 0. -1.
        -11    1    1    2    0    0 -0.11792598760E+01  0.13196911047E+01  0.97566120959E+02  0.97582171515E+02  0.00000000000E+00 0.  1.
         11    1    1    2    0    0 -0.47008382061E+00  0.26513447314E+01 -0.18226094919E+03  0.18228083884E+03  0.00000000000E+00 0. -1.
        -15    1    1    2    0    0  0.31810646988E-02 -0.40929782554E+01  0.75367917417E+02  0.75499888648E+02  0.17770000000E+01 0. -1.
         15    1    1    2    0    0  0.16461626319E+01  0.12194241937E+00  0.93269108129E+01  0.96371009996E+01  0.17770000000E+01 0.  1.
</event>
<event>
 6    1  0.1697564E-002  0.1843814E+03  0.7546771E-02  0.1066967E+00
        -11   -1    0    0    0    0  0.00000000000E+00  0.00000000000E+00  0.18250000000E+03  0.18250000000E+03  0.00000000000E+00 0. -1.
         11   -1    0    0    0    0 -0.00000000000E+00 -0.00000000000E+00 -0.18250000000E+03  0.18250000000E+03  0.00000000000E+00 0.  1.
        -11    1    1    2    0    0 -0.27713214889E+00  0.25825974921E+01  0.18059987861E+03  0.18061855598E+03  0.00000000000E+00 0. -1.
         11    1    1    2    0    0  0.20256311318E+01 -0.23958762779E+01 -0.17585164315E+03  0.17587962874E+03  0.00000000000E+00 0.  1.
        -15    1    1    2    0    0 -0.16581733210E+01  0.64232724778E+00  0.78263277629E+00  0.26329386849E+01  0.17770000000E+01 0.  1.
         15    1    1    2    0    0 -0.90325661928E-01 -0.82904846197E+00 -0.55308682309E+01  0.58688765931E+01  0.17770000000E+01 0. -1.
</event>
<event>
 6    1  0.1697564E-002  0.1741299E+03  0.7546771E-02  0.1075320E+00
        -11   -1    0    0    0    0  0.00000000000E+00  0.00000000000E+00  0.18250000000E+03  0.18250000000E+03  0.00000000000E+00 0.  1.
         11   -1    0    0    0    0 -0.00000000000E+00 -0.00000000000E+00 -0.18250000000E+03  0.18250000000E+03  0.00000000000E+00 0. -1.
        -11    1    1    2    0    0 -0.16202045673E+01 -0.25244506601E+01  0.17361287978E+03  0.17363879158E+03  0.00000000000E+00 0.  1.
         11    1    1    2    0    0 -0.87385034300E+01 -0.34598750122E+01 -0.17457502427E+03  0.17482783324E+03  0.00000000000E+00 0. -1.
        -15    1    1    2    0    0  0.59599084783E+01  0.43294847578E+01 -0.47362755512E+01  0.89361615045E+01  0.17770000000E+01 0.  1.
         15    1    1    2    0    0  0.43987995191E+01  0.16548409145E+01  0.56984200426E+01  0.75972136763E+01  0.17770000000E+01 0. -1.
</event>
<event>
 6    1  0.1697564E-002  0.1896326E+03  0.7546771E-02  0.1062915E+00
        -11   -1    0    0    0    0  0.00000000000E+00  0.00000000000E+00  0.18250000000E+03  0.18250000000E+03  0.00000000000E+00 0.  1.
         11   -1    0    0    0    0 -0.00000000000E+00 -0.00000000000E+00 -0.18250000000E+03  0.18250000000E+03  0.00000000000E+00 0.  1.
        -11    1    1    2    0    0 -0.57276719925E+01 -0.78485709246E+01  0.17509801395E+03  0.17536738802E+03  0.00000000000E+00 0.  1.
         11    1    1    2    0    0  0.24148298505E+01  0.13136299712E+01 -0.14666834570E+03  0.14669410573E+03  0.00000000000E+00 0.  1.
        -15    1    1    2    0    0 -0.47024391884E+01 -0.95614453827E+00 -0.31091916296E+02  0.31510190965E+02  0.17770000000E+01 0.  1.
         15    1    1    2    0    0  0.80152813303E+01  0.74910854917E+01  0.26622480452E+01  0.11428315287E+02  0.17770000000E+01 0.  1.
</event>
<event>
 6    1  0.1697564E-002  0.1826901E+03  0.7546771E-02  0.1068304E+00
        -11   -1    0    0    0    0  0.00000000000E+00  0.00000000000E+00  0.18250000000E+03  0.18250000000E+03  0.00000000000E+00 0.  1.
         11   -1    0    0    0    0 -0.00000000000E+00 -0.00000000000E+00 -0.18250000000E+03  0.18250000000E+03  0.00000000000E+00 0.  1.
        -11    1    1    2    0    0 -0.10364877610E+01 -0.37720544190E+01  0.18226789001E+03  0.18230986377E+03  0.00000000000E+00 0.  1.
         11    1    1    2    0    0 -0.30364993201E+01  0.32232882185E+01 -0.81680730604E+02  0.81800682558E+02  0.00000000000E+00 0.  1.
        -15    1    1    2    0    0  0.38370417330E+01 -0.13279050464E+01 -0.82276534548E+02  0.82395825667E+02  0.17770000000E+01 0.  1.
         15    1    1    2    0    0  0.23594534812E+00  0.18766712469E+01 -0.18310624853E+02  0.18493628003E+02  0.17770000000E+01 0. -1.
</event>
<event>
 6    1  0.1697564E-002  0.1711038E+03  0.7546771E-02  0.1077906E+00
        -11   -1    0    0    0    0  0.00000000000E+00  0.00000000000E+00  0.18250000000E+03  0.18250000000E+03  0.00000000000E+00 0.  1.
         11   -1    0    0    0    0 -0.00000000000E+00 -0.00000000000E+00 -0.18250000000E+03  0.18250000000E+03  0.00000000000E+00 0. -1.
        -11    1    1    2    0    0  0.77593591692E+01 -0.24594672313E+01  0.17141565222E+03  0.17160880647E+03  0.00000000000E+00 0.  1.
         11    1    1    2    0    0 -0.53602647599E+00 -0.44526674229E+01 -0.17068669310E+03  0.17074560250E+03  0.00000000000E+00 0. -1.
        -15    1    1    2    0    0  0.16886528104E+00 -0.13704222870E+01 -0.86205847446E+01  0.89094771489E+01  0.17770000000E+01 0. -1.
         15    1    1    2    0    0 -0.73921979742E+01  0.82825569413E+01  0.78916256292E+01  0.13736113877E+02  0.17770000000E+01 0.  1.
</event>
<event>
 6    1  0.1697564E-002  0.1828984E+03  0.7546771E-02  0.1068138E+00
        -11   -1    0    0    0    0  0.00000000000E+00  0.00000000000E+00  0.18250000000E+03  0.18250000000E+03  0.00000000000E+00 0.  1.
         11   -1    0    0    0    0 -0.00000000000E+00 -0.00000000000E+00 -0.18250000000E+03  0.18250000000E+03  0.00000000000E+00 0. -1.
        -11    1    1    2    0    0  0.17877322358E+01 -0.18038016346E+01  0.18208393985E+03  0.18210164974E+03  0.00000000000E+00 0.  1.
         11    1    1    2    0    0 -0.97156387595E+00  0.67576803122E+00 -0.35676021790E+02  0.35695645807E+02  0.00000000000E+00 0. -1.
        -15    1    1    2    0    0  0.68369361079E+01 -0.71448701597E+00 -0.77229626294E+02  0.77555316347E+02  0.17770000000E+01 0.  1.
         15    1    1    2    0    0 -0.76531044678E+01  0.18425206193E+01 -0.69178291762E+02  0.69647388109E+02  0.17770000000E+01 0. -1.
</event>
<event>
 6    1  0.1697564E-002  0.1835867E+03  0.7546771E-02  0.1067593E+00
        -11   -1    0    0    0    0  0.00000000000E+00  0.00000000000E+00  0.18250000000E+03  0.18250000000E+03  0.00000000000E+00 0. -1.
         11   -1    0    0    0    0 -0.00000000000E+00 -0.00000000000E+00 -0.18250000000E+03  0.18250000000E+03  0.00000000000E+00 0. -1.
        -11    1    1    2    0    0  0.28226710432E+01 -0.12193972471E+01  0.18138723093E+03  0.18141329044E+03  0.00000000000E+00 0. -1.
         11    1    1    2    0    0  0.38520598436E+01 -0.16431778403E+01 -0.14558619885E+03  0.14564642012E+03  0.00000000000E+00 0. -1.
        -15    1    1    2    0    0  0.51012297346E+00  0.29364915537E+01 -0.40281853421E+01  0.53166920395E+01  0.17770000000E+01 0. -1.
         15    1    1    2    0    0 -0.71848538602E+01 -0.73916466260E-01 -0.31772846741E+02  0.32623597405E+02  0.17770000000E+01 0.  1.
</event>
<event>
 6    1  0.1697564E-002  0.1837442E+03  0.7546771E-02  0.1067469E+00
        -11   -1    0    0    0    0  0.00000000000E+00  0.00000000000E+00  0.18250000000E+03  0.18250000000E+03  0.00000000000E+00 0. -1.
         11   -1    0    0    0    0 -0.00000000000E+00 -0.00000000000E+00 -0.18250000000E+03  0.18250000000E+03  0.00000000000E+00 0.  1.
        -11    1    1    2    0    0 -0.61570676314E+01  0.61969293715E+01  0.18104513186E+03  0.18125576180E+03  0.00000000000E+00 0. -1.
         11    1    1    2    0    0  0.73066294155E+00  0.50349505332E+01 -0.12573323144E+03  0.12583612392E+03  0.00000000000E+00 0.  1.
        -15    1    1    2    0    0 -0.12031074143E+01 -0.53089265547E+01 -0.37366544115E+02  0.37802758057E+02  0.17770000000E+01 0. -1.
         15    1    1    2    0    0  0.66295121041E+01 -0.59229533500E+01 -0.17945356300E+02  0.20105356223E+02  0.17770000000E+01 0. -1.
</event>
<event>
 6    1  0.1697564E-002  0.1835193E+03  0.7546771E-02  0.1067646E+00
        -11   -1    0    0    0    0  0.00000000000E+00  0.00000000000E+00  0.18250000000E+03  0.18250000000E+03  0.00000000000E+00 0.  1.
         11   -1    0    0    0    0 -0.00000000000E+00 -0.00000000000E+00 -0.18250000000E+03  0.18250000000E+03  0.00000000000E+00 0. -1.
        -11    1    1    2    0    0  0.53944098330E+01  0.21478140289E+00  0.18140034373E+03  0.18148066149E+03  0.00000000000E+00 0.  1.
         11    1    1    2    0    0  0.33310084322E+01  0.98231959733E+00 -0.14837877502E+03  0.14841941061E+03  0.00000000000E+00 0. -1.
        -15    1    1    2    0    0 -0.92370799480E+01  0.34322231930E+00 -0.27803342783E+02  0.29353450333E+02  0.17770000000E+01 0. -1.
         15    1    1    2    0    0  0.51166168288E+00 -0.15403233195E+01 -0.52182259313E+01  0.57464775712E+01  0.17770000000E+01 0.  1.
</event>
<event>
 6    1  0.1697564E-002  0.1835058E+03  0.7546771E-02  0.1067657E+00
        -11   -1    0    0    0    0  0.00000000000E+00  0.00000000000E+00  0.18250000000E+03  0.18250000000E+03  0.00000000000E+00 0.  1.
         11   -1    0    0    0    0 -0.00000000000E+00 -0.00000000000E+00 -0.18250000000E+03  0.18250000000E+03  0.00000000000E+00 0.  1.
        -11    1    1    2    0    0  0.17592375464E+01  0.35000152424E+00  0.13043070401E+03  0.13044303725E+03  0.00000000000E+00 0.  1.
         11    1    1    2    0    0 -0.25546200315E+01  0.23909313772E+01 -0.18146047947E+03  0.18149420995E+03  0.00000000000E+00 0.  1.
        -15    1    1    2    0    0  0.49645457399E+01 -0.66383096578E+01  0.26938019101E+02  0.28240546589E+02  0.17770000000E+01 0. -1.
         15    1    1    2    0    0 -0.41691632547E+01  0.38973767563E+01  0.24091756359E+02  0.24822206213E+02  0.17770000000E+01 0.  1.
</event>
<event>
 6    1  0.1697564E-002  0.2243646E+03  0.7546771E-02  0.1039289E+00
        -11   -1    0    0    0    0  0.00000000000E+00  0.00000000000E+00  0.18250000000E+03  0.18250000000E+03  0.00000000000E+00 0. -1.
         11   -1    0    0    0    0 -0.00000000000E+00 -0.00000000000E+00 -0.18250000000E+03  0.18250000000E+03  0.00000000000E+00 0.  1.
        -11    1    1    2    0    0  0.31225351794E+01 -0.25196503554E+00  0.11983258912E+03  0.11987352972E+03  0.00000000000E+00 0. -1.
         11    1    1    2    0    0 -0.35152680988E+00  0.21556849553E+01 -0.14061843228E+03  0.14063539400E+03  0.00000000000E+00 0.  1.
        -15    1    1    2    0    0  0.23079661655E+02  0.50681082975E+01  0.55656655055E+02  0.60491135588E+02  0.17770000000E+01 0. -1.
         15    1    1    2    0    0 -0.25850670025E+02 -0.69718282173E+01 -0.34870811896E+02  0.43999940690E+02  0.17770000000E+01 0.  1.
</event>
<event>
 6    1  0.1697564E-002  0.1857746E+03  0.7546771E-02  0.1065878E+00
        -11   -1    0    0    0    0  0.00000000000E+00  0.00000000000E+00  0.18250000000E+03  0.18250000000E+03  0.00000000000E+00 0. -1.
         11   -1    0    0    0    0 -0.00000000000E+00 -0.00000000000E+00 -0.18250000000E+03  0.18250000000E+03  0.00000000000E+00 0.  1.
        -11    1    1    2    0    0 -0.19085826890E+01 -0.33358342860E+01  0.16381768364E+03  0.16386275951E+03  0.00000000000E+00 0. -1.
         11    1    1    2    0    0 -0.42636991847E+01  0.25592966565E+01 -0.17915638781E+03  0.17922539001E+03  0.00000000000E+00 0.  1.
        -15    1    1    2    0    0  0.34400991199E+01  0.17454672190E+01 -0.16721432157E+01  0.45645076077E+01  0.17770000000E+01 0. -1.
         15    1    1    2    0    0  0.27321827539E+01 -0.96892958943E+00  0.17010847385E+02  0.17347342877E+02  0.17770000000E+01 0.  1.
</event>
<event>
 6    1  0.1697564E-002  0.1857350E+03  0.7546771E-02  0.1065909E+00
        -11   -1    0    0    0    0  0.00000000000E+00  0.00000000000E+00  0.18250000000E+03  0.18250000000E+03  0.00000000000E+00 0. -1.
         11   -1    0    0    0    0 -0.00000000000E+00 -0.00000000000E+00 -0.18250000000E+03  0.18250000000E+03  0.00000000000E+00 0.  1.
        -11    1    1    2    0    0  0.11726775741E+00  0.33370149015E+01  0.10917648459E+03  0.10922753411E+03  0.00000000000E+00 0. -1.
         11    1    1    2    0    0 -0.21760081444E+01 -0.45096496899E+01 -0.17919505518E+03  0.17926499868E+03  0.00000000000E+00 0.  1.
        -15    1    1    2    0    0  0.46627698592E+01 -0.60006320842E+01  0.67959268650E+02  0.68405912995E+02  0.17770000000E+01 0. -1.
         15    1    1    2    0    0 -0.26040294722E+01  0.71732668726E+01  0.20593019362E+01  0.81015542078E+01  0.17770000000E+01 0.  1.
</event>
<event>
 6    1  0.1697564E-002  0.1917855E+03  0.7546771E-02  0.1061295E+00
        -11   -1    0    0    0    0  0.00000000000E+00  0.00000000000E+00  0.18250000000E+03  0.18250000000E+03  0.00000000000E+00 0.  1.
         11   -1    0    0    0    0 -0.00000000000E+00 -0.00000000000E+00 -0.18250000000E+03  0.18250000000E+03  0.00000000000E+00 0.  1.
        -11    1    1    2    0    0  0.23617202508E+02  0.19340552217E+00  0.17159677416E+03  0.17321449871E+03  0.00000000000E+00 0.  1.
         11    1    1    2    0    0  0.24490920345E+01  0.84475916851E+01 -0.12890648698E+03  0.12920620048E+03  0.00000000000E+00 0.  1.
        -15    1    1    2    0    0 -0.95574229453E+01 -0.60623521692E+01 -0.44245050375E+02  0.45704252088E+02  0.17770000000E+01 0.  1.
         15    1    1    2    0    0 -0.16508871597E+02 -0.25786450380E+01  0.15547631945E+01  0.16875048718E+02  0.17770000000E+01 0. -1.
</event>
<event>
 6    1  0.1697564E-002  0.1721245E+03  0.7546771E-02  0.1077027E+00
        -11   -1    0    0    0    0  0.00000000000E+00  0.00000000000E+00  0.18250000000E+03  0.18250000000E+03  0.00000000000E+00 0. -1.
         11   -1    0    0    0    0 -0.00000000000E+00 -0.00000000000E+00 -0.18250000000E+03  0.18250000000E+03  0.00000000000E+00 0. -1.
        -11    1    1    2    0    0 -0.29637997023E+01  0.10972509669E+01  0.17243576966E+03  0.17246472894E+03  0.00000000000E+00 0. -1.
         11    1    1    2    0    0  0.43645439275E+01  0.28712156669E+01 -0.17173119529E+03  0.17181064158E+03  0.00000000000E+00 0. -1.
        -15    1    1    2    0    0  0.26972612784E+01  0.60613344065E-01  0.88572527650E+01  0.94280193002E+01  0.17770000000E+01 0.  1.
         15    1    1    2    0    0 -0.40980055036E+01 -0.40290799778E+01 -0.95618271344E+01  0.11296610187E+02  0.17770000000E+01 0.  1.
</event>
<event>
 6    1  0.2768549E-002  0.1984257E+03  0.7546771E-02  0.1056440E+00
        -11   -1    0    0    0    0  0.00000000000E+00  0.00000000000E+00  0.18250000000E+03  0.18250000000E+03  0.00000000000E+00 0.  1.
         11   -1    0    0    0    0 -0.00000000000E+00 -0.00000000000E+00 -0.18250000000E+03  0.18250000000E+03  0.00000000000E+00 0.  1.
        -11    1    1    2    0    0 -0.35956855632E+01  0.76819282550E+01  0.15523154066E+03  0.15546308948E+03  0.00000000000E+00 0.  1.
         11    1    1    2    0    0  0.21402941639E+01  0.22448979501E+01 -0.16654537971E+03  0.16657425950E+03  0.00000000000E+00 0.  1.
        -15    1    1    2    0    0  0.23777730467E+01 -0.21277890526E+01 -0.15003222909E+02  0.15441363851E+02  0.17770000000E+01 0.  1.
         15    1    1    2    0    0 -0.92238164742E+00 -0.77990371525E+01  0.26317061958E+02  0.27521287170E+02  0.17770000000E+01 0. -1.
</event>
<event>
 6    1  0.1697564E-002  0.2040360E+03  0.7546771E-02  0.1052498E+00
        -11   -1    0    0    0    0  0.00000000000E+00  0.00000000000E+00  0.18250000000E+03  0.18250000000E+03  0.00000000000E+00 0. -1.
         11   -1    0    0    0    0 -0.00000000000E+00 -0.00000000000E+00 -0.18250000000E+03  0.18250000000E+03  0.00000000000E+00 0.  1.
        -11    1    1    2    0    0  0.14952546038E+02 -0.81717508492E+01  0.16005957860E+03  0.16096404831E+03  0.00000000000E+00 0. -1.
         11    1    1    2    0    0 -0.13548553941E+02  0.75462514901E+01 -0.12278086029E+03  0.12375640945E+03  0.00000000000E+00 0.  1.
        -15    1    1    2    0    0 -0.65835379895E+01  0.14392402658E+02  0.17424016388E+02  0.23605895509E+02  0.17770000000E+01 0.  1.
         15    1    1    2    0    0  0.51795458918E+01 -0.13766903299E+02 -0.54702734698E+02  0.56673646737E+02  0.17770000000E+01 0. -1.
</event>
<event>
 6    1  0.1697564E-002  0.1904519E+03  0.7546771E-02  0.1062296E+00
        -11   -1    0    0    0    0  0.00000000000E+00  0.00000000000E+00  0.18250000000E+03  0.18250000000E+03  0.00000000000E+00 0.  1.
         11   -1    0    0    0    0 -0.00000000000E+00 -0.00000000000E+00 -0.18250000000E+03  0.18250000000E+03  0.00000000000E+00 0.  1.
        -11    1    1    2    0    0  0.23617627027E+01  0.75438205241E+01  0.17436899868E+03  0.17454808750E+03  0.00000000000E+00 0.  1.
         11    1    1    2    0    0 -0.48177107500E+01 -0.10733590845E+01 -0.12262004498E+03  0.12271934594E+03  0.00000000000E+00 0.  1.
        -15    1    1    2    0    0  0.12857580117E+02  0.75082556099E+01 -0.21703021010E+01  0.15151211469E+02  0.17770000000E+01 0.  1.
         15    1    1    2    0    0 -0.10401632069E+02 -0.13978717050E+02 -0.49578651593E+02  0.52581355088E+02  0.17770000000E+01 0. -1.
</event>
<event>
 6    1  0.1697564E-002  0.1890794E+03  0.7546771E-02  0.1063335E+00
        -11   -1    0    0    0    0  0.00000000000E+00  0.00000000000E+00  0.18250000000E+03  0.18250000000E+03  0.00000000000E+00 0. -1.
         11   -1    0    0    0    0 -0.00000000000E+00 -0.00000000000E+00 -0.18250000000E+03  0.18250000000E+03  0.00000000000E+00 0. -1.
        -11    1    1    2    0    0  0.17845698995E+01 -0.70300943126E+01  0.17577103434E+03  0.17592061684E+03  0.00000000000E+00 0. -1.
         11    1    1    2    0    0  0.85844470709E+01  0.32602697144E+01 -0.16231346909E+03  0.16257301233E+03  0.00000000000E+00 0. -1.
        -15    1    1    2    0    0 -0.12578262370E+02 -0.21677041077E+00 -0.16439822590E+02  0.20777034664E+02  0.17770000000E+01 0. -1.
         15    1    1    2    0    0  0.22092453997E+01  0.39865950089E+01  0.29822573417E+01  0.57293361617E+01  0.17770000000E+01 0.  1.
</event>
<event>
 6    1  0.1697564E-002  0.1847059E+03  0.7546771E-02  0.1066712E+00
        -11   -1    0    0    0    0  0.00000000000E+00  0.00000000000E+00  0.18250000000E+03  0.18250000000E+03  0.00000000000E+00 0.  1.
         11   -1    0    0    0    0 -0.00000000000E+00 -0.00000000000E+00 -0.18250000000E+03  0.18250000000E+03  0.00000000000E+00 0. -1.
        -11    1    1    2    0    0  0.95054260272E+01  0.11788405513E+01  0.18003946818E+03  0.18029407337E+03  0.00000000000E+00 0.  1.
         11    1    1    2    0    0 -0.42637066077E+01  0.36548687245E+01 -0.15709445027E+03  0.15719479497E+03  0.00000000000E+00 0. -1.
        -15    1    1    2    0    0 -0.56457231353E+01  0.44573780868E+00 -0.27199450375E+01  0.65290659302E+01  0.17770000000E+01 0. -1.
         15    1    1    2    0    0  0.40400371582E+00 -0.52794470845E+01 -0.20225072874E+02  0.20982065730E+02  0.17770000000E+01 0.  1.
</event>
<event>
 6    1  0.1697564E-002  0.1840734E+03  0.7546771E-02  0.1067209E+00
        -11   -1    0    0    0    0  0.00000000000E+00  0.00000000000E+00  0.18250000000E+03  0.18250000000E+03  0.00000000000E+00 0. -1.
         11   -1    0    0    0    0 -0.00000000000E+00 -0.00000000000E+00 -0.18250000000E+03  0.18250000000E+03  0.00000000000E+00 0.  1.
        -11    1    1    2    0    0 -0.39953221065E+01  0.41525577389E+01  0.18083482469E+03  0.18092661538E+03  0.00000000000E+00 0. -1.
         11    1    1    2    0    0  0.48298366057E+00  0.24704859161E+01 -0.16625442197E+03  0.16627347774E+03  0.00000000000E+00 0.  1.
        -15    1    1    2    0    0 -0.71511960496E+00 -0.24199133383E+01 -0.87336809730E+01  0.92629524965E+01  0.17770000000E+01 0.  1.
         15    1    1    2    0    0  0.42274580509E+01 -0.42031303167E+01 -0.58467217411E+01  0.85369543837E+01  0.17770000000E+01 0.  1.
</event>
<event>
 6    1  0.1697564E-002  0.1836388E+03  0.7546771E-02  0.1067552E+00
        -11   -1    0    0    0    0  0.00000000000E+00  0.00000000000E+00  0.18250000000E+03  0.18250000000E+03  0.00000000000E+00 0.  1.
         11   -1    0    0    0    0 -0.00000000000E+00 -0.00000000000E+00 -0.18250000000E+03  0.18250000000E+03  0.00000000000E+00 0.  1.
        -11    1    1    2    0    0  0.42573856452E+01 -0.51009442125E+01  0.18123943834E+03  0.18136118376E+03  0.00000000000E+00 0.  1.
         11    1    1    2    0    0 -0.44084023108E+01 -0.27280148211E-01 -0.16267457708E+03  0.16273430119E+03  0.00000000000E+00 0.  1.
        -15    1    1    2    0    0  0.62878691301E+00  0.34560235187E+01 -0.17904136098E+02  0.18331810875E+02  0.17770000000E+01 0. -1.
         15    1    1    2    0    0 -0.47777024743E+00  0.16722008420E+01 -0.66072516257E+00  0.25727041815E+01  0.17770000000E+01 0.  1.
</event>
<event>
 6    1  0.2392621E-002  0.1830045E+03  0.7546771E-02  0.1068054E+00
        -11   -1    0    0    0    0  0.00000000000E+00  0.00000000000E+00  0.18250000000E+03  0.18250000000E+03  0.00000000000E+00 0. -1.
         11   -1    0    0    0    0 -0.00000000000E+00 -0.00000000000E+00 -0.18250000000E+03  0.18250000000E+03  0.00000000000E+00 0.  1.
        -11    1    1    2    0    0  0.23892562112E+01  0.81241049347E+00  0.18197801969E+03  0.18199551700E+03  0.00000000000E+00 0. -1.
         11    1    1    2    0    0  0.16674741623E+01 -0.14737213605E+01 -0.12858584745E+03  0.12860510288E+03  0.00000000000E+00 0.  1.
        -15    1    1    2    0    0 -0.15073986604E+01  0.17937684721E+01 -0.47885955565E+02  0.47976164138E+02  0.17770000000E+01 0.  1.
         15    1    1    2    0    0 -0.25493317132E+01 -0.11324576052E+01 -0.55062166803E+01  0.64232159812E+01  0.17770000000E+01 0. -1.
</event>
<event>
 6    1  0.1697564E-002  0.1703996E+03  0.7546771E-02  0.1078517E+00
        -11   -1    0    0    0    0  0.00000000000E+00  0.00000000000E+00  0.18250000000E+03  0.18250000000E+03  0.00000000000E+00 0. -1.
         11   -1    0    0    0    0 -0.00000000000E+00 -0.00000000000E+00 -0.18250000000E+03  0.18250000000E+03  0.00000000000E+00 0. -1.
        -11    1    1    2    0    0 -0.10808857858E+01  0.42965669333E+01  0.17526378615E+03  0.17531977509E+03  0.00000000000E+00 0. -1.
         11    1    1    2    0    0  0.14070912917E+02  0.45914502798E+01 -0.16532612285E+03  0.16598734561E+03  0.00000000000E+00 0. -1.
        -15    1    1    2    0    0 -0.28135286492E+01  0.32177366810E+01  0.50772874276E+00  0.46567467490E+01  0.17770000000E+01 0.  1.
         15    1    1    2    0    0 -0.10176498482E+02 -0.12105753894E+02 -0.10445392047E+02  0.19036132557E+02  0.17770000000E+01 0. -1.
</event>
<event>
 6    1  0.1697564E-002  0.1872100E+03  0.7546771E-02  0.1064766E+00
        -11   -1    0    0    0    0  0.00000000000E+00  0.00000000000E+00  0.18250000000E+03  0.18250000000E+03  0.00000000000E+00 0.  1.
         11   -1    0    0    0    0 -0.00000000000E+00 -0.00000000000E+00 -0.18250000000E+03  0.18250000000E+03  0.00000000000E+00 0.  1.
        -11    1    1    2    0    0  0.16537217997E-01  0.36470039587E+01  0.17775263132E+03  0.17779004149E+03  0.00000000000E+00 0.  1.
         11    1    1    2    0    0 -0.10348262731E+00  0.24799994624E+01 -0.16188054077E+03  0.16189956945E+03  0.00000000000E+00 0.  1.
        -15    1    1    2    0    0  0.62553301791E+01  0.38703461784E+01 -0.82487517218E+01  0.11194122081E+02  0.17770000000E+01 0.  1.
         15    1    1    2    0    0 -0.61683847698E+01 -0.99973495995E+01 -0.76233388256E+01  0.14116266983E+02  0.17770000000E+01 0. -1.
</event>
<event>
 6    1  0.1697564E-002  0.1850856E+03  0.7546771E-02  0.1066415E+00
        -11   -1    0    0    0    0  0.00000000000E+00  0.00000000000E+00  0.18250000000E+03  0.18250000000E+03  0.00000000000E+00 0. -1.
         11   -1    0    0    0    0 -0.00000000000E+00 -0.00000000000E+00 -0.18250000000E+03  0.18250000000E+03  0.00000000000E+00 0.  1.
        -11    1    1    2    0    0  0.21215676486E+01 -0.47912195317E+01  0.17983811176E+03  0.17991443321E+03  0.00000000000E+00 0. -1.
         11    1    1    2    0    0 -0.27631547431E+01 -0.50076711778E+01 -0.14881689298E+03  0.14892675861E+03  0.00000000000E+00 0.  1.
        -15    1    1    2    0    0  0.23255289689E+01  0.56586637960E+01 -0.30682622953E+02  0.31337033064E+02  0.17770000000E+01 0.  1.
         15    1    1    2    0    0 -0.16839418743E+01  0.41402269136E+01 -0.33859583051E+00  0.48217751159E+01  0.17770000000E+01 0.  1.
</event>
<event>
 6    1  0.1697564E-002  0.1828053E+03  0.7546771E-02  0.1068212E+00
        -11   -1    0    0    0    0  0.00000000000E+00  0.00000000000E+00  0.18250000000E+03  0.18250000000E+03  0.00000000000E+00 0. -1.
         11   -1    0    0    0    0 -0.00000000000E+00 -0.00000000000E+00 -0.18250000000E+03  0.18250000000E+03  0.00000000000E+00 0.  1.
        -11    1    1    2    0    0 -0.96859962129E+00  0.15366424615E+01  0.12305229322E+03  0.12306569921E+03  0.00000000000E+00 0. -1.
         11    1    1    2    0    0  0.33866004174E+01  0.28260487510E+01 -0.18214129114E+03  0.18219469133E+03  0.00000000000E+00 0.  1.
        -15    1    1    2    0    0 -0.81162463439E+00 -0.13051902219E+01  0.51461620310E+01  0.56571166430E+01  0.17770000000E+01 0. -1.
         15    1    1    2    0    0 -0.16063761617E+01 -0.30575009907E+01  0.53942835884E+02  0.54082492813E+02  0.17770000000E+01 0.  1.
</event>
<event>
 6    1  0.1697564E-002  0.1857621E+03  0.7546771E-02  0.1065887E+00
        -11   -1    0    0    0    0  0.00000000000E+00  0.00000000000E+00  0.18250000000E+03  0.18250000000E+03  0.00000000000E+00 0. -1.
         11   -1    0    0    0    0 -0.00000000000E+00 -0.00000000000E+00 -0.18250000000E+03  0.18250000000E+03  0.00000000000E+00 0.  1.
        -11    1    1    2    0    0  0.32655813890E+01  0.18215623109E+01  0.14592842184E+03  0.14597632141E+03  0.00000000000E+00 0. -1.
         11    1    1    2    0    0 -0.35413744728E+01 -0.47464053606E+00 -0.17920232463E+03  0.17923794177E+03  0.00000000000E+00 0.  1.
        -15    1    1    2    0    0  0.25076278829E+01 -0.63487803028E+00 -0.24249293180E+01  0.39660154954E+01  0.17770000000E+01 0.  1.
         15    1    1    2    0    0 -0.22318347991E+01 -0.71204374458E+00  0.35698832109E+02  0.35819721325E+02  0.17770000000E+01 0.  1.
</event>
<event>
 6    1  0.1697564E-002  0.1974325E+03  0.7546771E-02  0.1057153E+00
        -11   -1    0    0    0    0  0.00000000000E+00  0.00000000000E+00  0.18250000000E+03  0.18250000000E+03  0.00000000000E+00 0. -1.
         11   -1    0    0    0    0 -0.00000000000E+00 -0.00000000000E+00 -0.18250000000E+03  0.18250000000E+03  0.00000000000E+00 0. -1.
        -11    1    1    2    0    0  0.10630227234E+02 -0.74528878428E+01  0.12360539240E+03  0.12428531812E+03  0.00000000000E+00 0. -1.
         11    1    1    2    0    0 -0.27006230719E+02  0.20579457241E+02 -0.16409147954E+03  0.16756749153E+03  0.00000000000E+00 0. -1.
        -15    1    1    2    0    0 -0.16351616640E+02  0.11375778231E+02  0.13430896696E+02  0.24090047990E+02  0.17770000000E+01 0.  1.
         15    1    1    2    0    0  0.32727620125E+02 -0.24502347629E+02  0.27055190444E+02  0.49057142368E+02  0.17770000000E+01 0. -1.
</event>
<event>
 6    1  0.1697564E-002  0.1940820E+03  0.7546771E-02  0.1059592E+00
        -11   -1    0    0    0    0  0.00000000000E+00  0.00000000000E+00  0.18250000000E+03  0.18250000000E+03  0.00000000000E+00 0. -1.
         11   -1    0    0    0    0 -0.00000000000E+00 -0.00000000000E+00 -0.18250000000E+03  0.18250000000E+03  0.00000000000E+00 0.  1.
        -11    1    1    2    0    0  0.30022022585E+01  0.19851557243E+01  0.17088008208E+03  0.17091798183E+03  0.00000000000E+00 0. -1.
         11    1    1    2    0    0 -0.18919396326E+01 -0.23156193513E+00 -0.14095418494E+03  0.14096707172E+03  0.00000000000E+00 0.  1.
        -15    1    1    2    0    0 -0.84070933275E+01 -0.72933040266E+01  0.81521828811E+01  0.13909971839E+02  0.17770000000E+01 0.  1.
         15    1    1    2    0    0  0.72968307016E+01  0.55397102374E+01 -0.38078080013E+02  0.39204974611E+02  0.17770000000E+01 0. -1.
</event>
<event>
 6    1  0.1697564E-002  0.1841341E+03  0.7546771E-02  0.1067161E+00
        -11   -1    0    0    0    0  0.00000000000E+00  0.00000000000E+00  0.18250000000E+03  0.18250000000E+03  0.00000000000E+00 0.  1.
         11   -1    0    0    0    0 -0.00000000000E+00 -0.00000000000E+00 -0.18250000000E+03  0.18250000000E+03  0.00000000000E+00 0.  1.
        -11    1    1    2    0    0  0.15418098295E+01  0.40036106498E+00  0.10286136144E+03  0.10287369510E+03  0.00000000000E+00 0.  1.
         11    1    1    2    0    0  0.26301038812E+01 -0.30775301391E+01 -0.18082056083E+03  0.18086587256E+03  0.00000000000E+00 0.  1.
        -15    1    1    2    0    0 -0.98208751959E+01 -0.64717069320E+01  0.36294050629E+02  0.38193565168E+02  0.17770000000E+01 0.  1.
         15    1    1    2    0    0  0.56489614852E+01  0.91488760062E+01  0.41665148755E+02  0.43066867170E+02  0.17770000000E+01 0. -1.
</event>
<event>
 6    1  0.1697564E-002  0.2228539E+03  0.7546771E-02  0.1040217E+00
        -11   -1    0    0    0    0  0.00000000000E+00  0.00000000000E+00  0.18250000000E+03  0.18250000000E+03  0.00000000000E+00 0.  1.
         11   -1    0    0    0    0 -0.00000000000E+00 -0.00000000000E+00 -0.18250000000E+03  0.18250000000E+03  0.00000000000E+00 0.  1.
        -11    1    1    2    0    0 -0.98692846938E+01 -0.13520750302E+02  0.10594293460E+03  0.10725725552E+03  0.00000000000E+00 0.  1.
         11    1    1    2    0    0 -0.50959246872E+01 -0.96677613692E+01 -0.14172539861E+03  0.14214613139E+03  0.00000000000E+00 0.  1.
        -15    1    1    2    0    0 -0.10494345290E+01  0.24846769614E+02 -0.35006746218E+02  0.42977823152E+02  0.17770000000E+01 0.  1.
         15    1    1    2    0    0  0.16014643910E+02 -0.16582579434E+01  0.70789210223E+02  0.72618789938E+02  0.17770000000E+01 0. -1.
</event>
<event>
 6    1  0.1697564E-002  0.1861456E+03  0.7546771E-02  0.1065589E+00
        -11   -1    0    0    0    0  0.00000000000E+00  0.00000000000E+00  0.18250000000E+03  0.18250000000E+03  0.00000000000E+00 0. -1.
         11   -1    0    0    0    0 -0.00000000000E+00 -0.00000000000E+00 -0.18250000000E+03  0.18250000000E+03  0.00000000000E+00 0. -1.
        -11    1    1    2    0    0 -0.16096788887E+01  0.57452881080E+01  0.17875487610E+03  0.17885442441E+03  0.00000000000E+00 0. -1.
         11    1    1    2    0    0  0.35320849962E+01 -0.76912404462E+01 -0.17342640692E+03  0.17363280053E+03  0.00000000000E+00 0. -1.
        -15    1    1    2    0    0  0.69845499272E+00 -0.13478041316E+01  0.25164438576E+01  0.34343316733E+01  0.17770000000E+01 0. -1.
         15    1    1    2    0    0 -0.26208611002E+01  0.32937564698E+01 -0.78449130446E+01  0.90784433834E+01  0.17770000000E+01 0.  1.
</event>
<event>
 6    1  0.1697564E-002  0.1904079E+03  0.7546771E-02  0.1062329E+00
        -11   -1    0    0    0    0  0.00000000000E+00  0.00000000000E+00  0.18250000000E+03  0.18250000000E+03  0.00000000000E+00 0. -1.
         11   -1    0    0    0    0 -0.00000000000E+00 -0.00000000000E+00 -0.18250000000E+03  0.18250000000E+03  0.00000000000E+00 0. -1.
        -11    1    1    2    0    0  0.42539053472E+01 -0.98171658947E+01  0.12938849746E+03  0.12983010333E+03  0.00000000000E+00 0. -1.
         11    1    1    2    0    0  0.75787401703E+01 -0.17961279866E+02 -0.17350030045E+03  0.17459209356E+03  0.00000000000E+00 0. -1.
        -15    1    1    2    0    0  0.44052610299E+01 -0.35292302100E+01  0.40324236034E+01  0.71610027045E+01  0.17770000000E+01 0.  1.
         15    1    1    2    0    0 -0.16237906547E+02  0.31307675970E+02  0.40079379391E+02  0.53416800401E+02  0.17770000000E+01 0. -1.
</event>
<event>
 6    1  0.1697564E-002  0.1835218E+03  0.7546771E-02  0.1067644E+00
        -11   -1    0    0    0    0  0.00000000000E+00  0.00000000000E+00  0.18250000000E+03  0.18250000000E+03  0.00000000000E+00 0. -1.
         11   -1    0    0    0    0 -0.00000000000E+00 -0.00000000000E+00 -0.18250000000E+03  0.18250000000E+03  0.00000000000E+00 0. -1.
        -11    1    1    2    0    0  0.23002663973E+01 -0.15015490022E+01  0.18145736778E+03  0.18147815900E+03  0.00000000000E+00 0. -1.
         11    1    1    2    0    0  0.27774622709E+01 -0.30464250903E+00 -0.17044511940E+03  0.17046801997E+03  0.00000000000E+00 0. -1.
        -15    1    1    2    0    0 -0.37184826874E+01  0.18788718545E+01 -0.56378116749E+01  0.72318685292E+01  0.17770000000E+01 0.  1.
         15    1    1    2    0    0 -0.13592459809E+01 -0.72680343317E-01 -0.53744366991E+01  0.58219524991E+01  0.17770000000E+01 0. -1.
</event>
<event>
 6    1  0.1697564E-002  0.1833957E+03  0.7546771E-02  0.1067744E+00
        -11   -1    0    0    0    0  0.00000000000E+00  0.00000000000E+00  0.18250000000E+03  0.18250000000E+03  0.00000000000E+00 0. -1.
         11   -1    0    0    0    0 -0.00000000000E+00 -0.00000000000E+00 -0.18250000000E+03  0.18250000000E+03  0.00000000000E+00 0.  1.
        -11    1    1    2    0    0 -0.21871222566E+01 -0.69516566779E+00  0.14567520659E+03  0.14569328253E+03  0.00000000000E+00 0. -1.
         11    1    1    2    0    0  0.24394880306E+01 -0.61413149737E+01 -0.18148398776E+03  0.18160425288E+03  0.00000000000E+00 0.  1.
        -15    1    1    2    0    0 -0.34348325484E+01  0.64221054250E+01  0.17637212733E+02  0.19164303137E+02  0.17770000000E+01 0. -1.
         15    1    1    2    0    0  0.31824667743E+01  0.41437521645E+00  0.18171568432E+02  0.18538161448E+02  0.17770000000E+01 0. -1.
</event>
<event>
 6    1  0.1697564E-002  0.1842126E+03  0.7546771E-02  0.1067100E+00
        -11   -1    0    0    0    0  0.00000000000E+00  0.00000000000E+00  0.18250000000E+03  0.18250000000E+03  0.00000000000E+00 0.  1.
         11   -1    0    0    0    0 -0.00000000000E+00 -0.00000000000E+00 -0.18250000000E+03  0.18250000000E+03  0.00000000000E+00 0. -1.
        -11    1    1    2    0    0  0.46188631231E+01 -0.38085897932E+00  0.13207839467E+03  0.13215968102E+03  0.00000000000E+00 0.  1.
         11    1    1    2    0    0  0.53744562929E+01 -0.82407341554E+01 -0.18051945511E+03  0.18078735618E+03  0.00000000000E+00 0. -1.
        -15    1    1    2    0    0 -0.81636170243E+01  0.36609426674E+01  0.43964539522E+02  0.44900841958E+02  0.17770000000E+01 0.  1.
         15    1    1    2    0    0 -0.18297023917E+01  0.49606504673E+01  0.44765209242E+01  0.71521208383E+01  0.17770000000E+01 0. -1.
</event>
<event>
 6    1  0.1697564E-002  0.1833406E+03  0.7546771E-02  0.1067788E+00
        -11   -1    0    0    0    0  0.00000000000E+00  0.00000000000E+00  0.18250000000E+03  0.18250000000E+03  0.00000000000E+00 0. -1.
         11   -1    0    0    0    0 -0.00000000000E+00 -0.00000000000E+00 -0.18250000000E+03  0.18250000000E+03  0.00000000000E+00 0. -1.
        -11    1    1    2    0    0  0.27422367867E+01  0.92731875220E+00  0.18163638257E+03  0.18165944857E+03  0.00000000000E+00 0. -1.
         11    1    1    2    0    0  0.38687439486E+01  0.16391904266E+01 -0.12059468277E+03  0.12066785668E+03  0.00000000000E+00 0. -1.
        -15    1    1    2    0    0 -0.45476225992E+01 -0.72293619697E+01 -0.34364334766E+02  0.35454333708E+02  0.17770000000E+01 0. -1.
         15    1    1    2    0    0 -0.20633581362E+01  0.46628527908E+01 -0.26677365040E+02  0.27218361035E+02  0.17770000000E+01 0.  1.
</event>
<event>
 6    1  0.1697564E-002  0.1877345E+03  0.7546771E-02  0.1064363E+00
        -11   -1    0    0    0    0  0.00000000000E+00  0.00000000000E+00  0.18250000000E+03  0.18250000000E+03  0.00000000000E+00 0. -1.
         11   -1    0    0    0    0 -0.00000000000E+00 -0.00000000000E+00 -0.18250000000E+03  0.18250000000E+03  0.00000000000E+00 0.  1.
        -11    1    1    2    0    0 -0.26177123409E+01 -0.44910151634E+01  0.17718924420E+03  0.17726547858E+03  0.00000000000E+00 0. -1.
         11    1    1    2    0    0 -0.43770239191E+01 -0.23494002686E+00 -0.16372567890E+03  0.16378434439E+03  0.00000000000E+00 0.  1.
        -15    1    1    2    0    0  0.11310709578E+02  0.35340304152E+00 -0.32633064425E+01  0.11910665087E+02  0.17770000000E+01 0.  1.
         15    1    1    2    0    0 -0.43159733180E+01  0.43725521487E+01 -0.10200258861E+02  0.12039511942E+02  0.17770000000E+01 0. -1.
</event>
<event>
 6    1  0.1697564E-002  0.1853322E+03  0.7546771E-02  0.1066222E+00
        -11   -1    0    0    0    0  0.00000000000E+00  0.00000000000E+00  0.18250000000E+03  0.18250000000E+03  0.00000000000E+00 0. -1.
         11   -1    0    0    0    0 -0.00000000000E+00 -0.00000000000E+00 -0.18250000000E+03  0.18250000000E+03  0.00000000000E+00 0.  1.
        -11    1    1    2    0    0  0.24075621770E+01 -0.31270311088E+01  0.17962444454E+03  0.17966779276E+03  0.00000000000E+00 0. -1.
         11    1    1    2    0    0 -0.28240685036E+00  0.28457781747E+01 -0.17657460645E+03  0.17659776287E+03  0.00000000000E+00 0.  1.
        -15    1    1    2    0    0 -0.23289243537E+00 -0.14008766455E+01  0.18553356740E+01  0.29354205364E+01  0.17770000000E+01 0. -1.
         15    1    1    2    0    0 -0.18922628913E+01  0.16821295796E+01 -0.49051737600E+01  0.57990238306E+01  0.17770000000E+01 0. -1.
</event>
<event>
 6    1  0.1697564E-002  0.1993251E+03  0.7546771E-02  0.1055799E+00
        -11   -1    0    0    0    0  0.00000000000E+00  0.00000000000E+00  0.18250000000E+03  0.18250000000E+03  0.00000000000E+00 0.  1.
         11   -1    0    0    0    0 -0.00000000000E+00 -0.00000000000E+00 -0.18250000000E+03  0.18250000000E+03  0.00000000000E+00 0. -1.
        -11    1    1    2    0    0 -0.48632927042E+01  0.10500342738E+02  0.11132076630E+03  0.11192060499E+03  0.00000000000E+00 0.  1.
         11    1    1    2    0    0 -0.43340033742E+01 -0.51314781294E+01 -0.16553868367E+03  0.16567489685E+03  0.00000000000E+00 0. -1.
        -15    1    1    2    0    0 -0.23536050127E+02 -0.11477359630E+02  0.46158744307E+02  0.53098614338E+02  0.17770000000E+01 0. -1.
         15    1    1    2    0    0  0.32733346206E+02  0.61084950207E+01  0.80591730690E+01  0.34305883822E+02  0.17770000000E+01 0.  1.
</event>
<event>
 6    1  0.1697564E-002  0.1826933E+03  0.7546771E-02  0.1068301E+00
        -11   -1    0    0    0    0  0.00000000000E+00  0.00000000000E+00  0.18250000000E+03  0.18250000000E+03  0.00000000000E+00 0.  1.
         11   -1    0    0    0    0 -0.00000000000E+00 -0.00000000000E+00 -0.18250000000E+03  0.18250000000E+03  0.00000000000E+00 0. -1.
        -11    1    1    2    0    0 -0.18934994402E+01 -0.28975042048E+01  0.18227379554E+03  0.18230665762E+03  0.00000000000E+00 0.  1.
         11    1    1    2    0    0 -0.10441106420E+01  0.13767588365E+01 -0.75424623876E+02  0.75444413437E+02  0.00000000000E+00 0. -1.
        -15    1    1    2    0    0  0.35797470509E+01  0.16970016659E+01 -0.10112963011E+03  0.10122279496E+03  0.17770000000E+01 0. -1.
         15    1    1    2    0    0 -0.64213696873E+00 -0.17625629755E+00 -0.57195415551E+01  0.60261339821E+01  0.17770000000E+01 0. -1.
</event>
<event>
 6    1  0.1697564E-002  0.1837992E+03  0.7546771E-02  0.1067425E+00
        -11   -1    0    0    0    0  0.00000000000E+00  0.00000000000E+00  0.18250000000E+03  0.18250000000E+03  0.00000000000E+00 0. -1.
         11   -1    0    0    0    0 -0.00000000000E+00 -0.00000000000E+00 -0.18250000000E+03  0.18250000000E+03  0.00000000000E+00 0.  1.
        -11    1    1    2    0    0  0.14449566524E+01 -0.67334102671E+01  0.18106985633E+03  0.18120077148E+03  0.00000000000E+00 0. -1.
         11    1    1    2    0    0  0.59951398690E+00  0.36312306709E+01 -0.15590873953E+03  0.15595217316E+03  0.00000000000E+00 0.  1.
        -15    1    1    2    0    0  0.76849805867E+00  0.53046113991E+01 -0.58606785558E+01  0.81384748876E+01  0.17770000000E+01 0.  1.
         15    1    1    2    0    0 -0.28129686980E+01 -0.22024318029E+01 -0.19300438247E+02  0.19708580473E+02  0.17770000000E+01 0. -1.
</event>
<event>
 6    1  0.1697564E-002  0.1876829E+03  0.7546771E-02  0.1064402E+00
        -11   -1    0    0    0    0  0.00000000000E+00  0.00000000000E+00  0.18250000000E+03  0.18250000000E+03  0.00000000000E+00 0. -1.
         11   -1    0    0    0    0 -0.00000000000E+00 -0.00000000000E+00 -0.18250000000E+03  0.18250000000E+03  0.00000000000E+00 0. -1.
        -11    1    1    2    0    0 -0.21187124457E+01  0.72019851791E+01  0.15677089611E+03  0.15695053807E+03  0.00000000000E+00 0. -1.
         11    1    1    2    0    0  0.29108871502E+01  0.37402345532E+01 -0.17725371575E+03  0.17731706733E+03  0.00000000000E+00 0. -1.
        -15    1    1    2    0    0  0.46970128628E+01 -0.16934587394E+01 -0.20649421662E+01  0.56878332856E+01  0.17770000000E+01 0. -1.
         15    1    1    2    0    0 -0.54891875674E+01 -0.92487609929E+01  0.22547761810E+02  0.25044561320E+02  0.17770000000E+01 0.  1.
</event>
<event>
 6    1  0.1697564E-002  0.1869097E+03  0.7546771E-02  0.1064998E+00
        -11   -1    0    0    0    0  0.00000000000E+00  0.00000000000E+00  0.18250000000E+03  0.18250000000E+03  0.00000000000E+00 0.  1.
         11   -1    0    0    0    0 -0.00000000000E+00 -0.00000000000E+00 -0.18250000000E+03  0.18250000000E+03  0.00000000000E+00 0. -1.
        -11    1    1    2    0    0 -0.15696430314E+02 -0.50229956287E+01  0.17732606667E+03  0.17809026456E+03  0.00000000000E+00 0.  1.
         11    1    1    2    0    0  0.40582113038E+00  0.33133322506E+01 -0.12350232658E+03  0.12354743030E+03  0.00000000000E+00 0. -1.
        -15    1    1    2    0    0  0.18667724278E+01  0.88297492536E+00 -0.48830448827E+02  0.48906389620E+02  0.17770000000E+01 0.  1.
         15    1    1    2    0    0  0.13423836756E+02  0.82668845275E+00 -0.49932912615E+01  0.14455915525E+02  0.17770000000E+01 0. -1.
</event>
<event>
 6    1  0.1697564E-002  0.1858489E+03  0.7546771E-02  0.1065820E+00
        -11   -1    0    0    0    0  0.00000000000E+00  0.00000000000E+00  0.18250000000E+03  0.18250000000E+03  0.00000000000E+00 0. -1.
         11   -1    0    0    0    0 -0.00000000000E+00 -0.00000000000E+00 -0.18250000000E+03  0.18250000000E+03  0.00000000000E+00 0.  1.
        -11    1    1    2    0    0  0.32370249272E+01 -0.15147102728E+01  0.17911545781E+03  0.17915110914E+03  0.00000000000E+00 0. -1.
         11    1    1    2    0    0 -0.20444137160E+01 -0.33477028843E+01 -0.17466446352E+03  0.17470850454E+03  0.00000000000E+00 0.  1.
        -15    1    1    2    0    0  0.12860746202E+01  0.53334549755E+01 -0.54115126093E+01  0.79083454416E+01  0.17770000000E+01 0.  1.
         15    1    1    2    0    0 -0.24786858315E+01 -0.47104181833E+00  0.96051831395E+00  0.32320408842E+01  0.17770000000E+01 0. -1.
</event>
<event>
 6    1  0.1697564E-002  0.1834068E+03  0.7546771E-02  0.1067735E+00
        -11   -1    0    0    0    0  0.00000000000E+00  0.00000000000E+00  0.18250000000E+03  0.18250000000E+03  0.00000000000E+00 0.  1.
         11   -1    0    0    0    0 -0.00000000000E+00 -0.00000000000E+00 -0.18250000000E+03  0.18250000000E+03  0.00000000000E+00 0.  1.
        -11    1    1    2    0    0  0.53220443751E+00  0.36534815121E+01  0.18155571044E+03  0.18159324647E+03  0.00000000000E+00 0.  1.
         11    1    1    2    0    0 -0.14169399010E+01  0.31358876187E+01 -0.14465790317E+03  0.14469882674E+03  0.00000000000E+00 0.  1.
        -15    1    1    2    0    0  0.14190509570E+01 -0.59369422233E+01 -0.10814474520E+02  0.12544782849E+02  0.17770000000E+01 0.  1.
         15    1    1    2    0    0 -0.53431549342E+00 -0.85242690748E+00 -0.26083332752E+02  0.26163143946E+02  0.17770000000E+01 0. -1.
</event>
<event>
 6    1  0.1697564E-002  0.1847051E+03  0.7546771E-02  0.1066713E+00
        -11   -1    0    0    0    0  0.00000000000E+00  0.00000000000E+00  0.18250000000E+03  0.18250000000E+03  0.00000000000E+00 0.  1.
         11   -1    0    0    0    0 -0.00000000000E+00 -0.00000000000E+00 -0.18250000000E+03  0.18250000000E+03  0.00000000000E+00 0.  1.
        -11    1    1    2    0    0 -0.33479178839E+01  0.48235668779E+01  0.14993879756E+03  0.15005371826E+03  0.00000000000E+00 0.  1.
         11    1    1    2    0    0 -0.16395035284E+01  0.53639937003E+01 -0.18020766035E+03  0.18029492851E+03  0.00000000000E+00 0.  1.
        -15    1    1    2    0    0  0.75512544040E+01 -0.94472271902E+01  0.16622284259E+02  0.20633216125E+02  0.17770000000E+01 0. -1.
         15    1    1    2    0    0 -0.25638329918E+01 -0.74033338803E+00  0.13646578529E+02  0.14018137097E+02  0.17770000000E+01 0.  1.
</event>
<event>
 6    1  0.1697564E-002  0.1855130E+03  0.7546771E-02  0.1066081E+00
        -11   -1    0    0    0    0  0.00000000000E+00  0.00000000000E+00  0.18250000000E+03  0.18250000000E+03  0.00000000000E+00 0.  1.
         11   -1    0    0    0    0 -0.00000000000E+00 -0.00000000000E+00 -0.18250000000E+03  0.18250000000E+03  0.00000000000E+00 0.  1.
        -11    1    1    2    0    0  0.24177591867E+01  0.70438608665E-01  0.17947071956E+03  0.17948701820E+03  0.00000000000E+00 0.  1.
         11    1    1    2    0    0 -0.15903169884E+01 -0.45969157439E+01 -0.17512497781E+03  0.17519251866E+03  0.00000000000E+00 0.  1.
        -15    1    1    2    0    0  0.49972276409E+00  0.22480370588E+01 -0.60499304127E+01  0.67128816805E+01  0.17770000000E+01 0.  1.
         15    1    1    2    0    0 -0.13271649624E+01  0.22784400765E+01  0.17041886553E+01  0.36075814603E+01  0.17770000000E+01 0. -1.
</event>
<event>
 6    1  0.1697564E-002  0.1838694E+03  0.7546771E-02  0.1067370E+00
        -11   -1    0    0    0    0  0.00000000000E+00  0.00000000000E+00  0.18250000000E+03  0.18250000000E+03  0.00000000000E+00 0.  1.
         11   -1    0    0    0    0 -0.00000000000E+00 -0.00000000000E+00 -0.18250000000E+03  0.18250000000E+03  0.00000000000E+00 0.  1.
        -11    1    1    2    0    0 -0.11812349040E+01  0.26729561930E+01  0.18110702316E+03  0.18113059887E+03  0.00000000000E+00 0.  1.
         11    1    1    2    0    0  0.78527627320E+00 -0.27948933825E+01 -0.13341110024E+03  0.13344268341E+03  0.00000000000E+00 0.  1.
        -15    1    1    2    0    0  0.14431472147E+00 -0.12875194833E+01  0.43497219425E+00  0.22417544398E+01  0.17770000000E+01 0. -1.
         15    1    1    2    0    0  0.25164390928E+00  0.14094566728E+01 -0.48130895111E+02  0.48184963276E+02  0.17770000000E+01 0. -1.
</event>
<event>
 6    1  0.1697564E-002  0.1768334E+03  0.7546771E-02  0.1073057E+00
        -11   -1    0    0    0    0  0.00000000000E+00  0.00000000000E+00  0.18250000000E+03  0.18250000000E+03  0.00000000000E+00 0.  1.
         11   -1    0    0    0    0 -0.00000000000E+00 -0.00000000000E+00 -0.18250000000E+03  0.18250000000E+03  0.00000000000E+00 0.  1.
        -11    1    1    2    0    0  0.91153870912E+00 -0.45593549530E+01  0.17775215995E+03  0.17781296069E+03  0.00000000000E+00 0.  1.
         11    1    1    2    0    0 -0.32889190938E+01  0.44273701254E+00 -0.17585963841E+03  0.17589094754E+03  0.00000000000E+00 0.  1.
        -15    1    1    2    0    0  0.54349495411E+00 -0.18528282455E+00 -0.50473115697E+01  0.53817097257E+01  0.17770000000E+01 0.  1.
         15    1    1    2    0    0  0.18338854306E+01  0.43019007650E+01  0.31547900204E+01  0.59143820504E+01  0.17770000000E+01 0. -1.
</event>
<event>
 6    1  0.1697564E-002  0.1842630E+03  0.7546771E-02  0.1067060E+00
        -11   -1    0    0    0    0  0.00000000000E+00  0.00000000000E+00  0.18250000000E+03  0.18250000000E+03  0.00000000000E+00 0. -1.
         11   -1    0    0    0    0 -0.00000000000E+00 -0.00000000000E+00 -0.18250000000E+03  0.18250000000E+03  0.00000000000E+00 0.  1.
        -11    1    1    2    0    0 -0.24024007611E+01  0.81934486942E+00  0.17104868343E+03  0.17106751579E+03  0.00000000000E+00 0. -1.
         11    1    1    2    0    0  0.16865988158E+01 -0.31431195553E+01 -0.18070176603E+03  0.18073696927E+03  0.00000000000E+00 0.  1.
        -15    1    1    2    0    0  0.17014596620E+01  0.13522365416E+01  0.10439056865E+02  0.10809955868E+02  0.17770000000E+01 0. -1.
         15    1    1    2    0    0 -0.98565771672E+00  0.97153814425E+00 -0.78597426757E+00  0.23855590644E+01  0.17770000000E+01 0.  1.
</event>
<event>
 6    1  0.1697564E-002  0.1634338E+03  0.7546771E-02  0.1084733E+00
        -11   -1    0    0    0    0  0.00000000000E+00  0.00000000000E+00  0.18250000000E+03  0.18250000000E+03  0.00000000000E+00 0.  1.
         11   -1    0    0    0    0 -0.00000000000E+00 -0.00000000000E+00 -0.18250000000E+03  0.18250000000E+03  0.00000000000E+00 0.  1.
        -11    1    1    2    0    0  0.10748956241E+02 -0.17304085315E+02  0.15718195420E+03  0.15849649256E+03  0.00000000000E+00 0.  1.
         11    1    1    2    0    0 -0.16142390169E+01 -0.20448780932E+01 -0.16927374174E+03  0.16929378883E+03  0.00000000000E+00 0.  1.
        -15    1    1    2    0    0 -0.14954113203E+02  0.22994099672E+02  0.66764176293E+01  0.28285798606E+02  0.17770000000E+01 0.  1.
         15    1    1    2    0    0  0.58193959790E+01 -0.36451362631E+01  0.54153699116E+01  0.89239200028E+01  0.17770000000E+01 0. -1.
</event>
<event>
 6    1  0.1697564E-002  0.1830555E+03  0.7546771E-02  0.1068013E+00
        -11   -1    0    0    0    0  0.00000000000E+00  0.00000000000E+00  0.18250000000E+03  0.18250000000E+03  0.00000000000E+00 0.  1.
         11   -1    0    0    0    0 -0.00000000000E+00 -0.00000000000E+00 -0.18250000000E+03  0.18250000000E+03  0.00000000000E+00 0. -1.
        -11    1    1    2    0    0  0.16294294087E+01 -0.27865044286E+01  0.96212365922E+02  0.96266499902E+02  0.00000000000E+00 0.  1.
         11    1    1    2    0    0  0.24704225522E+01 -0.26245121674E+00 -0.18192752128E+03  0.18194448293E+03  0.00000000000E+00 0. -1.
        -15    1    1    2    0    0 -0.17164290685E+01  0.14376800565E+01  0.35657733666E+01  0.45700679857E+01  0.17770000000E+01 0.  1.
         15    1    1    2    0    0 -0.23834228923E+01  0.16112755889E+01  0.82149381995E+02  0.82218949183E+02  0.17770000000E+01 0. -1.
</event>
<event>
 6    1  0.1697564E-002  0.1844760E+03  0.7546771E-02  0.1066893E+00
        -11   -1    0    0    0    0  0.00000000000E+00  0.00000000000E+00  0.18250000000E+03  0.18250000000E+03  0.00000000000E+00 0. -1.
         11   -1    0    0    0    0 -0.00000000000E+00 -0.00000000000E+00 -0.18250000000E+03  0.18250000000E+03  0.00000000000E+00 0.  1.
        -11    1    1    2    0    0  0.14098617743E+01 -0.20564840644E+01  0.18050673730E+03  0.18052395699E+03  0.00000000000E+00 0. -1.
         11    1    1    2    0    0 -0.29629863294E+00  0.26537067339E+01 -0.17185287037E+03  0.17187361347E+03  0.00000000000E+00 0.  1.
        -15    1    1    2    0    0  0.36391432733E+01 -0.47182481106E+00 -0.35842437018E+01  0.54286751910E+01  0.17770000000E+01 0.  1.
         15    1    1    2    0    0 -0.47527064147E+01 -0.12539785845E+00 -0.50696232207E+01  0.71737543509E+01  0.17770000000E+01 0. -1.
</event>
<event>
 6    1  0.1697564E-002  0.1835083E+03  0.7546771E-02  0.1067655E+00
        -11   -1    0    0    0    0  0.00000000000E+00  0.00000000000E+00  0.18250000000E+03  0.18250000000E+03  0.00000000000E+00 0. -1.
         11   -1    0    0    0    0 -0.00000000000E+00 -0.00000000000E+00 -0.18250000000E+03  0.18250000000E+03  0.00000000000E+00 0. -1.
        -11    1    1    2    0    0  0.12807246335E+01 -0.37481748210E+01  0.18144846672E+03  0.18149169443E+03  0.00000000000E+00 0. -1.
         11    1    1    2    0    0 -0.16450964742E+01 -0.95350021577E+00 -0.87491562453E+02  0.87512222035E+02  0.00000000000E+00 0. -1.
        -15    1    1    2    0    0  0.35533004185E+01  0.22783234221E+01 -0.44622427380E+01  0.63942193216E+01  0.17770000000E+01 0.  1.
         15    1    1    2    0    0 -0.31889285777E+01  0.24233516147E+01 -0.89494661534E+02  0.89601864214E+02  0.17770000000E+01 0. -1.
</event>
<event>
 6    1  0.1697564E-002  0.1841036E+03  0.7546771E-02  0.1067185E+00
        -11   -1    0    0    0    0  0.00000000000E+00  0.00000000000E+00  0.18250000000E+03  0.18250000000E+03  0.00000000000E+00 0.  1.
         11   -1    0    0    0    0 -0.00000000000E+00 -0.00000000000E+00 -0.18250000000E+03  0.18250000000E+03  0.00000000000E+00 0. -1.
        -11    1    1    2    0    0 -0.10516318578E+01 -0.42245629394E+01  0.18084399985E+03  0.18089639339E+03  0.00000000000E+00 0.  1.
         11    1    1    2    0    0 -0.19098664224E+01 -0.31660802997E+01 -0.14859811157E+03  0.14864410656E+03  0.00000000000E+00 0. -1.
        -15    1    1    2    0    0 -0.27786872476E+01  0.15071854018E+01 -0.21552332649E+02  0.21855284997E+02  0.17770000000E+01 0. -1.
         15    1    1    2    0    0  0.57401855279E+01  0.58834578373E+01 -0.10693555630E+02  0.13604215046E+02  0.17770000000E+01 0.  1.
</event>
<event>
 6    1  0.1697564E-002  0.1843863E+03  0.7546771E-02  0.1066963E+00
        -11   -1    0    0    0    0  0.00000000000E+00  0.00000000000E+00  0.18250000000E+03  0.18250000000E+03  0.00000000000E+00 0. -1.
         11   -1    0    0    0    0 -0.00000000000E+00 -0.00000000000E+00 -0.18250000000E+03  0.18250000000E+03  0.00000000000E+00 0.  1.
        -11    1    1    2    0    0 -0.27760360701E+01  0.17070252271E+00  0.11895226552E+03  0.11898477629E+03  0.00000000000E+00 0. -1.
         11    1    1    2    0    0 -0.92099413028E+01 -0.16127132438E+01 -0.18037155300E+03  0.18061373423E+03  0.00000000000E+00 0.  1.
        -15    1    1    2    0    0  0.17794518018E+01  0.12987075524E+01  0.49612460645E+02  0.49693129005E+02  0.17770000000E+01 0. -1.
         15    1    1    2    0    0  0.10206525571E+02  0.14330316871E+00  0.11806826827E+02  0.15708360473E+02  0.17770000000E+01 0. -1.
</event>
<event>
 6    1  0.1697564E-002  0.1795554E+03  0.7546771E-02  0.1070823E+00
        -11   -1    0    0    0    0  0.00000000000E+00  0.00000000000E+00  0.18250000000E+03  0.18250000000E+03  0.00000000000E+00 0. -1.
         11   -1    0    0    0    0 -0.00000000000E+00 -0.00000000000E+00 -0.18250000000E+03  0.18250000000E+03  0.00000000000E+00 0.  1.
        -11    1    1    2    0    0 -0.21568486683E+01 -0.23070468946E+01  0.17958142114E+03  0.17960919041E+03  0.00000000000E+00 0. -1.
         11    1    1    2    0    0 -0.18390872759E-01  0.32818785927E+01 -0.17947961668E+03  0.17950962055E+03  0.00000000000E+00 0.  1.
        -15    1    1    2    0    0  0.23634220011E+01 -0.22058786777E+01 -0.30547326037E+00  0.37017167921E+01  0.17770000000E+01 0. -1.
         15    1    1    2    0    0 -0.18818246011E+00  0.12310469796E+01  0.20366880174E+00  0.21794722492E+01  0.17770000000E+01 0.  1.
</event>
<event>
 6    1  0.1697564E-002  0.1840171E+03  0.7546771E-02  0.1067254E+00
        -11   -1    0    0    0    0  0.00000000000E+00  0.00000000000E+00  0.18250000000E+03  0.18250000000E+03  0.00000000000E+00 0. -1.
         11   -1    0    0    0    0 -0.00000000000E+00 -0.00000000000E+00 -0.18250000000E+03  0.18250000000E+03  0.00000000000E+00 0. -1.
        -11    1    1    2    0    0  0.28525292013E+01 -0.55640624183E+00  0.18095957028E+03  0.18098290689E+03  0.00000000000E+00 0. -1.
         11    1    1    2    0    0 -0.78254731593E+01  0.18898339891E+01 -0.16089971981E+03  0.16110099111E+03  0.00000000000E+00 0. -1.
        -15    1    1    2    0    0 -0.17379062403E+01  0.12166492227E+01 -0.10331762285E+02  0.10695961590E+02  0.17770000000E+01 0. -1.
         15    1    1    2    0    0  0.67108501983E+01 -0.25500769699E+01 -0.97280881827E+01  0.12220140409E+02  0.17770000000E+01 0.  1.
</event>
<event>
 6    1  0.1697564E-002  0.1894523E+03  0.7546771E-02  0.1063052E+00
        -11   -1    0    0    0    0  0.00000000000E+00  0.00000000000E+00  0.18250000000E+03  0.18250000000E+03  0.00000000000E+00 0. -1.
         11   -1    0    0    0    0 -0.00000000000E+00 -0.00000000000E+00 -0.18250000000E+03  0.18250000000E+03  0.00000000000E+00 0.  1.
        -11    1    1    2    0    0 -0.19468864691E+01 -0.26060069120E+01  0.98206319385E+02  0.98260179148E+02  0.00000000000E+00 0. -1.
         11    1    1    2    0    0  0.84641434090E+00 -0.19663126437E+02 -0.17444094614E+03  0.17554771046E+03  0.00000000000E+00 0.  1.
        -15    1    1    2    0    0 -0.15336370682E+01  0.15140486820E+02  0.80739648444E+02  0.82180502211E+02  0.17770000000E+01 0. -1.
         15    1    1    2    0    0  0.26341091964E+01  0.71286465288E+01 -0.45050216929E+01  0.90116081831E+01  0.17770000000E+01 0.  1.
</event>
<event>
 6    1  0.1697564E-002  0.2373152E+03  0.7546771E-02  0.1031642E+00
        -11   -1    0    0    0    0  0.00000000000E+00  0.00000000000E+00  0.18250000000E+03  0.18250000000E+03  0.00000000000E+00 0. -1.
         11   -1    0    0    0    0 -0.00000000000E+00 -0.00000000000E+00 -0.18250000000E+03  0.18250000000E+03  0.00000000000E+00 0.  1.
        -11    1    1    2    0    0  0.11940933391E+02 -0.54103553532E+01  0.10804976419E+03  0.10884213052E+03  0.00000000000E+00 0. -1.
         11    1    1    2    0    0  0.65061267675E+01  0.27622303285E+01 -0.12748904939E+03  0.12768483589E+03  0.00000000000E+00 0.  1.
        -15    1    1    2    0    0 -0.24788635853E+02  0.27749914330E+01  0.71629333601E+02  0.75868940984E+02  0.17770000000E+01 0. -1.
         15    1    1    2    0    0  0.63415756941E+01 -0.12686640832E+00 -0.52190048406E+02  0.52604092607E+02  0.17770000000E+01 0.  1.
</event>
<event>
 6    1  0.1697564E-002  0.1852115E+03  0.7546771E-02  0.1066317E+00
        -11   -1    0    0    0    0  0.00000000000E+00  0.00000000000E+00  0.18250000000E+03  0.18250000000E+03  0.00000000000E+00 0. -1.
         11   -1    0    0    0    0 -0.00000000000E+00 -0.00000000000E+00 -0.18250000000E+03  0.18250000000E+03  0.00000000000E+00 0. -1.
        -11    1    1    2    0    0 -0.44528389508E+01  0.15942954060E+01  0.17972626317E+03  0.17978848469E+03  0.00000000000E+00 0. -1.
         11    1    1    2    0    0  0.35117013318E+01 -0.33289624528E+01 -0.15361861028E+03  0.15369479973E+03  0.00000000000E+00 0. -1.
        -15    1    1    2    0    0 -0.36417856172E+01  0.72333780519E+01 -0.20910158874E+02  0.22493928818E+02  0.17770000000E+01 0. -1.
         15    1    1    2    0    0  0.45829232362E+01 -0.54987110051E+01 -0.51974940121E+01  0.90227867708E+01  0.17770000000E+01 0.  1.
</event>
<event>
 6    1  0.1697564E-002  0.1650272E+03  0.7546771E-02  0.1083282E+00
        -11   -1    0    0    0    0  0.00000000000E+00  0.00000000000E+00  0.18250000000E+03  0.18250000000E+03  0.00000000000E+00 0.  1.
         11   -1    0    0    0    0 -0.00000000000E+00 -0.00000000000E+00 -0.18250000000E+03  0.18250000000E+03  0.00000000000E+00 0. -1.
        -11    1    1    2    0    0 -0.22577881403E+01  0.40010808137E+00  0.16813291228E+03  0.16814854708E+03  0.00000000000E+00 0.  1.
         11    1    1    2    0    0 -0.52992675800E+01  0.43770163799E+01 -0.18920515578E+02  0.20130236437E+02  0.00000000000E+00 0. -1.
        -15    1    1    2    0    0  0.49939349859E+01  0.53235674235E+01  0.12543039405E+02  0.14620715553E+02  0.17770000000E+01 0.  1.
         15    1    1    2    0    0  0.25631207344E+01 -0.10100691885E+02 -0.16175543610E+03  0.16210050093E+03  0.17770000000E+01 0. -1.
</event>
<event>
 6    1  0.1697564E-002  0.1853847E+03  0.7546771E-02  0.1066182E+00
        -11   -1    0    0    0    0  0.00000000000E+00  0.00000000000E+00  0.18250000000E+03  0.18250000000E+03  0.00000000000E+00 0.  1.
         11   -1    0    0    0    0 -0.00000000000E+00 -0.00000000000E+00 -0.18250000000E+03  0.18250000000E+03  0.00000000000E+00 0.  1.
        -11    1    1    2    0    0 -0.78820890322E+00 -0.27415302281E+01  0.15154939554E+03  0.15157624006E+03  0.00000000000E+00 0.  1.
         11    1    1    2    0    0  0.52022164954E+01 -0.11790904601E+02 -0.17915239964E+03  0.17961534118E+03  0.00000000000E+00 0.  1.
        -15    1    1    2    0    0  0.40177381663E+00  0.35643014603E+01  0.38915657748E+00  0.40217954873E+01  0.17770000000E+01 0.  1.
         15    1    1    2    0    0 -0.48157814088E+01  0.10968133369E+02  0.27213847524E+02  0.29786623277E+02  0.17770000000E+01 0. -1.
</event>
<event>
 6    1  0.1697564E-002  0.1905716E+03  0.7546771E-02  0.1062205E+00
        -11   -1    0    0    0    0  0.00000000000E+00  0.00000000000E+00  0.18250000000E+03  0.18250000000E+03  0.00000000000E+00 0.  1.
         11   -1    0    0    0    0 -0.00000000000E+00 -0.00000000000E+00 -0.18250000000E+03  0.18250000000E+03  0.00000000000E+00 0. -1.
        -11    1    1    2    0    0 -0.13858675463E+02  0.13300473281E+02  0.13849563271E+03  0.13982133512E+03  0.00000000000E+00 0.  1.
         11    1    1    2    0    0 -0.40081633061E+01  0.40097460910E+01 -0.17433628579E+03  0.17442844945E+03  0.00000000000E+00 0. -1.
        -15    1    1    2    0    0  0.10473338340E+02 -0.17011956556E+02  0.37888584954E+02  0.42869570568E+02  0.17770000000E+01 0. -1.
         15    1    1    2    0    0  0.73935004290E+01 -0.29826281553E+00 -0.20479318812E+01  0.78806448525E+01  0.17770000000E+01 0.  1.
</event>
<event>
 6    1  0.1697564E-002  0.1826344E+03  0.7546771E-02  0.1068348E+00
        -11   -1    0    0    0    0  0.00000000000E+00  0.00000000000E+00  0.18250000000E+03  0.18250000000E+03  0.00000000000E+00 0.  1.
         11   -1    0    0    0    0 -0.00000000000E+00 -0.00000000000E+00 -0.18250000000E+03  0.18250000000E+03  0.00000000000E+00 0.  1.
        -11    1    1    2    0    0 -0.13009441467E+01  0.11919126126E+01  0.69710946826E+02  0.69733271963E+02  0.00000000000E+00 0.  1.
         11    1    1    2    0    0 -0.31229982999E+01  0.11768232008E+01 -0.18233506224E+03  0.18236560244E+03  0.00000000000E+00 0.  1.
        -15    1    1    2    0    0  0.16344456135E+01 -0.39094889546E+00  0.14768187280E+02  0.14969346614E+02  0.17770000000E+01 0. -1.
         15    1    1    2    0    0  0.27894968331E+01 -0.19777869180E+01  0.97855928137E+02  0.97931778980E+02  0.17770000000E+01 0.  1.
</event>
<event>
 6    1  0.1873458E-002  0.1837906E+03  0.7546771E-02  0.1067432E+00
        -11   -1    0    0    0    0  0.00000000000E+00  0.00000000000E+00  0.18250000000E+03  0.18250000000E+03  0.00000000000E+00 0. -1.
         11   -1    0    0    0    0 -0.00000000000E+00 -0.00000000000E+00 -0.18250000000E+03  0.18250000000E+03  0.00000000000E+00 0. -1.
        -11    1    1    2    0    0 -0.46158264267E+00 -0.24741167385E+01  0.16645314354E+03  0.16647216976E+03  0.00000000000E+00 0. -1.
         11    1    1    2    0    0  0.28114377960E+01  0.28452084359E+00 -0.18118740794E+03  0.18120944217E+03  0.00000000000E+00 0. -1.
        -15    1    1    2    0    0 -0.20828549073E+01 -0.89448630175E+00  0.88003960999E+00  0.30117418588E+01  0.17770000000E+01 0. -1.
         15    1    1    2    0    0 -0.26700024604E+00  0.30840821967E+01  0.13854224792E+02  0.14306646208E+02  0.17770000000E+01 0. -1.
</event>
<event>
 6    1  0.1697564E-002  0.1870502E+03  0.7546771E-02  0.1064889E+00
        -11   -1    0    0    0    0  0.00000000000E+00  0.00000000000E+00  0.18250000000E+03  0.18250000000E+03  0.00000000000E+00 0. -1.
         11   -1    0    0    0    0 -0.00000000000E+00 -0.00000000000E+00 -0.18250000000E+03  0.18250000000E+03  0.00000000000E+00 0. -1.
        -11    1    1    2    0    0  0.12408335706E+02  0.47656946049E+01  0.17745264350E+03  0.17794976630E+03  0.00000000000E+00 0. -1.
         11    1    1    2    0    0 -0.28192299847E+01 -0.17257246159E+01 -0.16384493424E+03  0.16387827391E+03  0.00000000000E+00 0. -1.
        -15    1    1    2    0    0 -0.10243836617E+02 -0.61021730027E+01 -0.36691412450E+01  0.12601310665E+02  0.17770000000E+01 0.  1.
         15    1    1    2    0    0  0.65473089620E+00  0.30622030137E+01 -0.99385680128E+01  0.10570649128E+02  0.17770000000E+01 0. -1.
</event>
<event>
 6    1  0.1697564E-002  0.2130826E+03  0.7546771E-02  0.1046422E+00
        -11   -1    0    0    0    0  0.00000000000E+00  0.00000000000E+00  0.18250000000E+03  0.18250000000E+03  0.00000000000E+00 0.  1.
         11   -1    0    0    0    0 -0.00000000000E+00 -0.00000000000E+00 -0.18250000000E+03  0.18250000000E+03  0.00000000000E+00 0. -1.
        -11    1    1    2    0    0 -0.25011260048E+01 -0.73249265814E+00  0.15189507564E+03  0.15191743212E+03  0.00000000000E+00 0.  1.
         11    1    1    2    0    0 -0.13555933812E+01 -0.26009858587E+01 -0.91215739350E+02  0.91262883288E+02  0.00000000000E+00 0. -1.
        -15    1    1    2    0    0 -0.10866736711E+01  0.13569471693E+02  0.28641092349E+02  0.31761318008E+02  0.17770000000E+01 0.  1.
         15    1    1    2    0    0  0.49433930572E+01 -0.10235993176E+02 -0.89320428639E+02  0.90058366588E+02  0.17770000000E+01 0. -1.
</event>
<event>
 6    1  0.1697564E-002  0.1827753E+03  0.7546771E-02  0.1068236E+00
        -11   -1    0    0    0    0  0.00000000000E+00  0.00000000000E+00  0.18250000000E+03  0.18250000000E+03  0.00000000000E+00 0.  1.
         11   -1    0    0    0    0 -0.00000000000E+00 -0.00000000000E+00 -0.18250000000E+03  0.18250000000E+03  0.00000000000E+00 0.  1.
        -11    1    1    2    0    0  0.17288726252E+01  0.14945119856E+01  0.11158357089E+03  0.11160697048E+03  0.00000000000E+00 0.  1.
         11    1    1    2    0    0  0.22274654134E+01 -0.10445990029E+01 -0.18220811206E+03  0.18222472085E+03  0.00000000000E+00 0.  1.
        -15    1    1    2    0    0 -0.12842161599E+01 -0.22069583786E+01  0.10994513654E+02  0.11426151405E+02  0.17770000000E+01 0.  1.
         15    1    1    2    0    0 -0.26721218786E+01  0.17570453960E+01  0.59630027512E+02  0.59742157259E+02  0.17770000000E+01 0. -1.
</event>
<event>
 6    1  0.1697564E-002  0.1804852E+03  0.7546771E-02  0.1070070E+00
        -11   -1    0    0    0    0  0.00000000000E+00  0.00000000000E+00  0.18250000000E+03  0.18250000000E+03  0.00000000000E+00 0.  1.
         11   -1    0    0    0    0 -0.00000000000E+00 -0.00000000000E+00 -0.18250000000E+03  0.18250000000E+03  0.00000000000E+00 0. -1.
        -11    1    1    2    0    0  0.42453171676E+01  0.14841478016E+02  0.17708281989E+03  0.17775437347E+03  0.00000000000E+00 0.  1.
         11    1    1    2    0    0  0.15773188006E+01 -0.21474152424E+01 -0.12481765535E+02  0.12762985454E+02  0.00000000000E+00 0. -1.
        -15    1    1    2    0    0  0.10160979447E+02  0.31278317670E+01 -0.14247830151E+03  0.14288545400E+03  0.17770000000E+01 0. -1.
         15    1    1    2    0    0 -0.15983615415E+02 -0.15821894541E+02 -0.22122752850E+02  0.31597187079E+02  0.17770000000E+01 0.  1.
</event>
<event>
 6    1  0.1697564E-002  0.1871706E+03  0.7546771E-02  0.1064797E+00
        -11   -1    0    0    0    0  0.00000000000E+00  0.00000000000E+00  0.18250000000E+03  0.18250000000E+03  0.00000000000E+00 0.  1.
         11   -1    0    0    0    0 -0.00000000000E+00 -0.00000000000E+00 -0.18250000000E+03  0.18250000000E+03  0.00000000000E+00 0. -1.
        -11    1    1    2    0    0  0.30749244160E+01 -0.28672385254E+00  0.17476480976E+03  0.17479209393E+03  0.00000000000E+00 0.  1.
         11    1    1    2    0    0 -0.20303842503E+01 -0.15084038120E+01 -0.17781140516E+03  0.17782939450E+03  0.00000000000E+00 0. -1.
        -15    1    1    2    0    0  0.45484825839E+01  0.28450292331E+01  0.30388696798E+01  0.64168016241E+01  0.17770000000E+01 0. -1.
         15    1    1    2    0    0 -0.55930227495E+01 -0.10499015685E+01  0.77257185201E-02  0.59617099449E+01  0.17770000000E+01 0.  1.
</event>
<event>
 6    1  0.1697564E-002  0.1839771E+03  0.7546771E-02  0.1067285E+00
        -11   -1    0    0    0    0  0.00000000000E+00  0.00000000000E+00  0.18250000000E+03  0.18250000000E+03  0.00000000000E+00 0. -1.
         11   -1    0    0    0    0 -0.00000000000E+00 -0.00000000000E+00 -0.18250000000E+03  0.18250000000E+03  0.00000000000E+00 0.  1.
        -11    1    1    2    0    0  0.45598126358E+01  0.83674574853E-02  0.18096549012E+03  0.18102292831E+03  0.00000000000E+00 0. -1.
         11    1    1    2    0    0 -0.17871091733E+01  0.29220795863E+01 -0.13324710308E+03  0.13329112044E+03  0.00000000000E+00 0.  1.
        -15    1    1    2    0    0  0.37587285699E+01  0.83767511582E+00 -0.38101584149E+02  0.38336903680E+02  0.17770000000E+01 0. -1.
         15    1    1    2    0    0 -0.65314320323E+01 -0.37681221596E+01 -0.96168028853E+01  0.12349047564E+02  0.17770000000E+01 0.  1.
</event>
<event>
 6    1  0.1697564E-002  0.1910948E+03  0.7546771E-02  0.1061812E+00
        -11   -1    0    0    0    0  0.00000000000E+00  0.00000000000E+00  0.18250000000E+03  0.18250000000E+03  0.00000000000E+00 0. -1.
         11   -1    0    0    0    0 -0.00000000000E+00 -0.00000000000E+00 -0.18250000000E+03  0.18250000000E+03  0.00000000000E+00 0.  1.
        -11    1    1    2    0    0 -0.69898957401E+00 -0.32989241313E+01  0.17387255051E+03  0.17390524807E+03  0.00000000000E+00 0. -1.
         11    1    1    2    0    0 -0.14681821942E+01 -0.78887937998E+01 -0.16522804933E+03  0.16542278232E+03  0.00000000000E+00 0.  1.
        -15    1    1    2    0    0  0.10539254587E+02  0.10418102894E+02 -0.25615384349E+01  0.15143710355E+02  0.17770000000E+01 0.  1.
         15    1    1    2    0    0 -0.83720828193E+01  0.76961503684E+00 -0.60829627484E+01  0.10528259250E+02  0.17770000000E+01 0. -1.
</event>
<event>
 6    1  0.1697564E-002  0.1839979E+03  0.7546771E-02  0.1067269E+00
        -11   -1    0    0    0    0  0.00000000000E+00  0.00000000000E+00  0.18250000000E+03  0.18250000000E+03  0.00000000000E+00 0.  1.
         11   -1    0    0    0    0 -0.00000000000E+00 -0.00000000000E+00 -0.18250000000E+03  0.18250000000E+03  0.00000000000E+00 0. -1.
        -11    1    1    2    0    0 -0.14503946813E+01  0.20236978626E+01  0.18098497396E+03  0.18100209887E+03  0.00000000000E+00 0.  1.
         11    1    1    2    0    0 -0.32042689374E+01 -0.55267961758E+00 -0.16450849309E+03  0.16454062444E+03  0.00000000000E+00 0. -1.
        -15    1    1    2    0    0 -0.12513971379E+01 -0.62488076802E+00 -0.50744517761E+00  0.23176929001E+01  0.17770000000E+01 0. -1.
         15    1    1    2    0    0  0.59060607566E+01 -0.84613747701E+00 -0.15969035693E+02  0.17139583783E+02  0.17770000000E+01 0.  1.
</event>
<event>
 6    1  0.1697564E-002  0.1844222E+03  0.7546771E-02  0.1066935E+00
        -11   -1    0    0    0    0  0.00000000000E+00  0.00000000000E+00  0.18250000000E+03  0.18250000000E+03  0.00000000000E+00 0. -1.
         11   -1    0    0    0    0 -0.00000000000E+00 -0.00000000000E+00 -0.18250000000E+03  0.18250000000E+03  0.00000000000E+00 0. -1.
        -11    1    1    2    0    0  0.98758324048E+00 -0.11736896203E+01  0.11339193086E+03  0.11340230532E+03  0.00000000000E+00 0. -1.
         11    1    1    2    0    0  0.28572598120E+01 -0.22454725125E+01 -0.18054119664E+03  0.18057776653E+03  0.00000000000E+00 0. -1.
        -15    1    1    2    0    0 -0.76769773426E+00  0.50349550209E+01  0.19988452572E+01  0.57526727038E+01  0.17770000000E+01 0. -1.
         15    1    1    2    0    0 -0.30771453182E+01 -0.16157928882E+01  0.65150420522E+02  0.65267255444E+02  0.17770000000E+01 0.  1.
</event>
<event>
 6    1  0.1697564E-002  0.1535859E+03  0.7546771E-02  0.1094127E+00
        -11   -1    0    0    0    0  0.00000000000E+00  0.00000000000E+00  0.18250000000E+03  0.18250000000E+03  0.00000000000E+00 0. -1.
         11   -1    0    0    0    0 -0.00000000000E+00 -0.00000000000E+00 -0.18250000000E+03  0.18250000000E+03  0.00000000000E+00 0.  1.
        -11    1    1    2    0    0  0.11996072618E+02  0.18505290965E+02  0.16073949437E+03  0.16224529763E+03  0.00000000000E+00 0. -1.
         11    1    1    2    0    0 -0.11289363395E+01  0.17211281532E+01 -0.29375357112E+02  0.29447383327E+02  0.00000000000E+00 0.  1.
        -15    1    1    2    0    0 -0.11643133482E+02 -0.19706088712E+02  0.14679716856E+02  0.27249666155E+02  0.17770000000E+01 0. -1.
         15    1    1    2    0    0  0.77599720291E+00 -0.52033040648E+00 -0.14604385411E+03  0.14605765289E+03  0.17770000000E+01 0. -1.
</event>
<event>
 6    1  0.1697564E-002  0.1828505E+03  0.7546771E-02  0.1068176E+00
        -11   -1    0    0    0    0  0.00000000000E+00  0.00000000000E+00  0.18250000000E+03  0.18250000000E+03  0.00000000000E+00 0. -1.
         11   -1    0    0    0    0 -0.00000000000E+00 -0.00000000000E+00 -0.18250000000E+03  0.18250000000E+03  0.00000000000E+00 0. -1.
        -11    1    1    2    0    0  0.16258235849E+01  0.98083767182E+00  0.43877079365E+02  0.43918144752E+02  0.00000000000E+00 0. -1.
         11    1    1    2    0    0 -0.43485331694E+00 -0.32540403198E+01 -0.18211989660E+03  0.18214948425E+03  0.00000000000E+00 0. -1.
        -15    1    1    2    0    0  0.21406923528E+00  0.39247767744E+01  0.13810910470E+02  0.14468886459E+02  0.17770000000E+01 0. -1.
         15    1    1    2    0    0 -0.14050395032E+01 -0.16515741264E+01  0.12443190676E+03  0.12446348454E+03  0.17770000000E+01 0. -1.
</event>
<event>
 6    1  0.1697564E-002  0.2062063E+03  0.7546771E-02  0.1051009E+00
        -11   -1    0    0    0    0  0.00000000000E+00  0.00000000000E+00  0.18250000000E+03  0.18250000000E+03  0.00000000000E+00 0. -1.
         11   -1    0    0    0    0 -0.00000000000E+00 -0.00000000000E+00 -0.18250000000E+03  0.18250000000E+03  0.00000000000E+00 0.  1.
        -11    1    1    2    0    0  0.52725132272E+01  0.38680634347E+01  0.15865898933E+03  0.15879369070E+03  0.00000000000E+00 0. -1.
         11    1    1    2    0    0  0.12081595524E+01  0.74911949923E+01 -0.14009313304E+03  0.14029848031E+03  0.00000000000E+00 0.  1.
        -15    1    1    2    0    0 -0.13358032701E+02  0.20577505455E+02 -0.22013608386E+02  0.33009505473E+02  0.17770000000E+01 0. -1.
         15    1    1    2    0    0  0.68773599218E+01 -0.31936763882E+02  0.34477520900E+01  0.32898323517E+02  0.17770000000E+01 0.  1.
</event>
<event>
 6    1  0.1697564E-002  0.2094757E+03  0.7546771E-02  0.1048804E+00
        -11   -1    0    0    0    0  0.00000000000E+00  0.00000000000E+00  0.18250000000E+03  0.18250000000E+03  0.00000000000E+00 0.  1.
         11   -1    0    0    0    0 -0.00000000000E+00 -0.00000000000E+00 -0.18250000000E+03  0.18250000000E+03  0.00000000000E+00 0.  1.
        -11    1    1    2    0    0  0.96335159675E+01  0.60956003989E+01  0.15510591598E+03  0.15552429439E+03  0.00000000000E+00 0.  1.
         11    1    1    2    0    0  0.16598500341E+01  0.17375579384E+01 -0.14546643574E+03  0.14548628161E+03  0.00000000000E+00 0.  1.
        -15    1    1    2    0    0 -0.52892116657E+01 -0.51964664999E+01  0.26315660309E+02  0.27398005961E+02  0.17770000000E+01 0.  1.
         15    1    1    2    0    0 -0.60041543358E+01 -0.26366918375E+01 -0.35955140548E+02  0.36591418037E+02  0.17770000000E+01 0. -1.
</event>
<event>
 6    1  0.1697564E-002  0.1879777E+03  0.7546771E-02  0.1064176E+00
        -11   -1    0    0    0    0  0.00000000000E+00  0.00000000000E+00  0.18250000000E+03  0.18250000000E+03  0.00000000000E+00 0.  1.
         11   -1    0    0    0    0 -0.00000000000E+00 -0.00000000000E+00 -0.18250000000E+03  0.18250000000E+03  0.00000000000E+00 0. -1.
        -11    1    1    2    0    0 -0.12437635500E+01 -0.41178849042E+01  0.16860460548E+03  0.16865947028E+03  0.00000000000E+00 0.  1.
         11    1    1    2    0    0 -0.49029843805E+01 -0.73456588886E+01 -0.17680190694E+03  0.17702234960E+03  0.00000000000E+00 0. -1.
        -15    1    1    2    0    0  0.57859635009E+01  0.61164007074E+00  0.98534636187E+00  0.61628007970E+01  0.17770000000E+01 0.  1.
         15    1    1    2    0    0  0.36078442950E+00  0.10851903722E+02  0.72119550961E+01  0.13155379322E+02  0.17770000000E+01 0. -1.
</event>
<event>
 6    1  0.1697564E-002  0.1853270E+03  0.7546771E-02  0.1066227E+00
        -11   -1    0    0    0    0  0.00000000000E+00  0.00000000000E+00  0.18250000000E+03  0.18250000000E+03  0.00000000000E+00 0. -1.
         11   -1    0    0    0    0 -0.00000000000E+00 -0.00000000000E+00 -0.18250000000E+03  0.18250000000E+03  0.00000000000E+00 0.  1.
        -11    1    1    2    0    0  0.47349360325E+01  0.13580776307E+01  0.15953709293E+03  0.15961311980E+03  0.00000000000E+00 0. -1.
         11    1    1    2    0    0 -0.45043804834E+01  0.29291370163E+01 -0.17959266478E+03  0.17967302115E+03  0.00000000000E+00 0.  1.
        -15    1    1    2    0    0  0.55726598352E+01 -0.63275810605E+01  0.15887331436E+02  0.18073678344E+02  0.17770000000E+01 0.  1.
         15    1    1    2    0    0 -0.58032153844E+01  0.20403664135E+01  0.41682404207E+01  0.76401806983E+01  0.17770000000E+01 0. -1.
</event>
<event>
 6    1  0.1697564E-002  0.1829251E+03  0.7546771E-02  0.1068117E+00
        -11   -1    0    0    0    0  0.00000000000E+00  0.00000000000E+00  0.18250000000E+03  0.18250000000E+03  0.00000000000E+00 0. -1.
         11   -1    0    0    0    0 -0.00000000000E+00 -0.00000000000E+00 -0.18250000000E+03  0.18250000000E+03  0.00000000000E+00 0.  1.
        -11    1    1    2    0    0  0.13531861936E+01 -0.21430852112E+01  0.18205725547E+03  0.18207489722E+03  0.00000000000E+00 0. -1.
         11    1    1    2    0    0  0.28087066847E+01  0.40238296436E-01 -0.81631983862E+02  0.81680298981E+02  0.00000000000E+00 0.  1.
        -15    1    1    2    0    0 -0.73099547811E+01  0.58468066138E+00 -0.84803002352E+02  0.85138030440E+02  0.17770000000E+01 0.  1.
         15    1    1    2    0    0  0.31480619028E+01  0.15181662534E+01 -0.15622269255E+02  0.16106773364E+02  0.17770000000E+01 0. -1.
</event>
<event>
 6    1  0.1697564E-002  0.1865441E+03  0.7546771E-02  0.1065280E+00
        -11   -1    0    0    0    0  0.00000000000E+00  0.00000000000E+00  0.18250000000E+03  0.18250000000E+03  0.00000000000E+00 0.  1.
         11   -1    0    0    0    0 -0.00000000000E+00 -0.00000000000E+00 -0.18250000000E+03  0.18250000000E+03  0.00000000000E+00 0. -1.
        -11    1    1    2    0    0  0.18179089382E+01  0.86443593151E+01  0.17823709183E+03  0.17845585069E+03  0.00000000000E+00 0.  1.
         11    1    1    2    0    0 -0.27308611664E+01 -0.10009091111E+01 -0.17193850549E+03  0.17196310387E+03  0.00000000000E+00 0. -1.
        -15    1    1    2    0    0 -0.85371373888E+00 -0.59722011528E+01  0.12868712696E+01  0.64194844358E+01  0.17770000000E+01 0. -1.
         15    1    1    2    0    0  0.17666659671E+01 -0.16712490511E+01 -0.75854576094E+01  0.81615610133E+01  0.17770000000E+01 0.  1.
</event>
<event>
 6    1  0.1697564E-002  0.1859214E+03  0.7546771E-02  0.1065764E+00
        -11   -1    0    0    0    0  0.00000000000E+00  0.00000000000E+00  0.18250000000E+03  0.18250000000E+03  0.00000000000E+00 0.  1.
         11   -1    0    0    0    0 -0.00000000000E+00 -0.00000000000E+00 -0.18250000000E+03  0.18250000000E+03  0.00000000000E+00 0.  1.
        -11    1    1    2    0    0 -0.45836850760E+00 -0.52336625611E+01  0.16676499094E+03  0.16684772558E+03  0.00000000000E+00 0.  1.
         11    1    1    2    0    0  0.51446481219E+01 -0.24254215531E+00 -0.17900456505E+03  0.17907864345E+03  0.00000000000E+00 0.  1.
        -15    1    1    2    0    0 -0.65416219049E+01  0.80881333698E+01  0.10903049761E+02  0.15173824226E+02  0.17770000000E+01 0. -1.
         15    1    1    2    0    0  0.18553422906E+01 -0.26119286534E+01  0.13365243492E+01  0.38998067441E+01  0.17770000000E+01 0. -1.
</event>
<event>
 6    1  0.1697564E-002  0.1829051E+03  0.7546771E-02  0.1068133E+00
        -11   -1    0    0    0    0  0.00000000000E+00  0.00000000000E+00  0.18250000000E+03  0.18250000000E+03  0.00000000000E+00 0.  1.
         11   -1    0    0    0    0 -0.00000000000E+00 -0.00000000000E+00 -0.18250000000E+03  0.18250000000E+03  0.00000000000E+00 0. -1.
        -11    1    1    2    0    0 -0.15389878378E+00 -0.38851374075E+01  0.12334204861E+03  0.12340331816E+03  0.00000000000E+00 0.  1.
         11    1    1    2    0    0  0.69966079795E+00  0.23725522931E+01 -0.18207807058E+03  0.18209487175E+03  0.00000000000E+00 0. -1.
        -15    1    1    2    0    0  0.94051726147E+00  0.34077042065E+01  0.51757655772E+02  0.51908666720E+02  0.17770000000E+01 0.  1.
         15    1    1    2    0    0 -0.14862792756E+01 -0.18951190920E+01  0.69783662032E+01  0.75931433757E+01  0.17770000000E+01 0. -1.
</event>
<event>
 6    1  0.1697564E-002  0.2051237E+03  0.7546771E-02  0.1051749E+00
        -11   -1    0    0    0    0  0.00000000000E+00  0.00000000000E+00  0.18250000000E+03  0.18250000000E+03  0.00000000000E+00 0.  1.
         11   -1    0    0    0    0 -0.00000000000E+00 -0.00000000000E+00 -0.18250000000E+03  0.18250000000E+03  0.00000000000E+00 0.  1.
        -11    1    1    2    0    0  0.33884118022E+01 -0.10185887389E+01  0.94595876701E+02  0.94662023781E+02  0.00000000000E+00 0.  1.
         11    1    1    2    0    0 -0.42601879301E+01 -0.20341592101E+02 -0.15851969874E+03  0.15987627860E+03  0.00000000000E+00 0.  1.
        -15    1    1    2    0    0  0.12074296204E+02  0.17855726829E+02 -0.17719444240E+02  0.27959829088E+02  0.17770000000E+01 0. -1.
         15    1    1    2    0    0 -0.11202520076E+02  0.35044540107E+01  0.81643266278E+02  0.82501868533E+02  0.17770000000E+01 0.  1.
</event>
<event>
 6    1  0.1697564E-002  0.1850712E+03  0.7546771E-02  0.1066426E+00
        -11   -1    0    0    0    0  0.00000000000E+00  0.00000000000E+00  0.18250000000E+03  0.18250000000E+03  0.00000000000E+00 0. -1.
         11   -1    0    0    0    0 -0.00000000000E+00 -0.00000000000E+00 -0.18250000000E+03  0.18250000000E+03  0.00000000000E+00 0. -1.
        -11    1    1    2    0    0 -0.61019368656E+01  0.30723744435E+01  0.71859858131E+02  0.72183878593E+02  0.00000000000E+00 0. -1.
         11    1    1    2    0    0  0.52829166392E+01  0.28532549886E+01 -0.17982860544E+03  0.17992881261E+03  0.00000000000E+00 0. -1.
        -15    1    1    2    0    0  0.27667225886E+01 -0.13996943228E+02  0.20683066550E+02  0.25189603898E+02  0.17770000000E+01 0.  1.
         15    1    1    2    0    0 -0.19477023621E+01  0.80713137963E+01  0.87285680757E+02  0.87697704902E+02  0.17770000000E+01 0. -1.
</event>
<event>
 6    1  0.1697564E-002  0.2202344E+03  0.7546771E-02  0.1041846E+00
        -11   -1    0    0    0    0  0.00000000000E+00  0.00000000000E+00  0.18250000000E+03  0.18250000000E+03  0.00000000000E+00 0. -1.
         11   -1    0    0    0    0 -0.00000000000E+00 -0.00000000000E+00 -0.18250000000E+03  0.18250000000E+03  0.00000000000E+00 0. -1.
        -11    1    1    2    0    0  0.56026942763E+01 -0.82766399250E+01  0.12789221883E+03  0.12828216006E+03  0.00000000000E+00 0. -1.
         11    1    1    2    0    0 -0.10123675434E+02  0.98401365505E+01 -0.14407553254E+03  0.14476559042E+03  0.00000000000E+00 0. -1.
        -15    1    1    2    0    0  0.69660110795E+01 -0.11073708290E+02 -0.36249148322E+02  0.38578631504E+02  0.17770000000E+01 0.  1.
         15    1    1    2    0    0 -0.24450299216E+01  0.95102116640E+01  0.52432462031E+02  0.53373618023E+02  0.17770000000E+01 0. -1.
</event>
<event>
 6    1  0.1697564E-002  0.1846538E+03  0.7546771E-02  0.1066753E+00
        -11   -1    0    0    0    0  0.00000000000E+00  0.00000000000E+00  0.18250000000E+03  0.18250000000E+03  0.00000000000E+00 0. -1.
         11   -1    0    0    0    0 -0.00000000000E+00 -0.00000000000E+00 -0.18250000000E+03  0.18250000000E+03  0.00000000000E+00 0.  1.
        -11    1    1    2    0    0  0.49289018438E+01 -0.39387500037E+01  0.18023583303E+03  0.18034623182E+03  0.00000000000E+00 0. -1.
         11    1    1    2    0    0  0.17764606808E+01 -0.15020903193E+01 -0.16249017682E+03  0.16250682955E+03  0.00000000000E+00 0.  1.
        -15    1    1    2    0    0 -0.59709674743E-01 -0.22215568255E+01 -0.50893226072E+01  0.58307644074E+01  0.17770000000E+01 0.  1.
         15    1    1    2    0    0 -0.66456528498E+01  0.76623971485E+01 -0.12656333605E+02  0.16316174220E+02  0.17770000000E+01 0. -1.
</event>
<event>
 6    1  0.1697564E-002  0.1742235E+03  0.7546771E-02  0.1075241E+00
        -11   -1    0    0    0    0  0.00000000000E+00  0.00000000000E+00  0.18250000000E+03  0.18250000000E+03  0.00000000000E+00 0. -1.
         11   -1    0    0    0    0 -0.00000000000E+00 -0.00000000000E+00 -0.18250000000E+03  0.18250000000E+03  0.00000000000E+00 0.  1.
        -11    1    1    2    0    0 -0.27251876117E+01  0.61852963945E+00  0.17288137786E+03  0.17290396189E+03  0.00000000000E+00 0. -1.
         11    1    1    2    0    0  0.77816873758E+00  0.37492240385E+01 -0.17554423752E+03  0.17558599475E+03  0.00000000000E+00 0.  1.
        -15    1    1    2    0    0 -0.81076866439E-01 -0.90365977846E+01  0.51723884919E+01  0.10563049024E+02  0.17770000000E+01 0. -1.
         15    1    1    2    0    0  0.20280957406E+01  0.46688441066E+01 -0.25095288347E+01  0.59469943330E+01  0.17770000000E+01 0.  1.
</event>
<event>
 6    1  0.1697564E-002  0.1702548E+03  0.7546771E-02  0.1078643E+00
        -11   -1    0    0    0    0  0.00000000000E+00  0.00000000000E+00  0.18250000000E+03  0.18250000000E+03  0.00000000000E+00 0. -1.
         11   -1    0    0    0    0 -0.00000000000E+00 -0.00000000000E+00 -0.18250000000E+03  0.18250000000E+03  0.00000000000E+00 0. -1.
        -11    1    1    2    0    0 -0.92296418356E+01 -0.38546026927E+01  0.16704185018E+03  0.16734104087E+03  0.00000000000E+00 0. -1.
         11    1    1    2    0    0 -0.84751932045E+01  0.27602503891E+01 -0.17346186355E+03  0.17369071935E+03  0.00000000000E+00 0. -1.
        -15    1    1    2    0    0  0.29562976662E+01 -0.26075072707E+01 -0.36376349385E+01  0.56505669630E+01  0.17770000000E+01 0.  1.
         15    1    1    2    0    0  0.14748537374E+02  0.37018595743E+01  0.10057648308E+02  0.18317672818E+02  0.17770000000E+01 0. -1.
</event>
<event>
 6    1  0.1697564E-002  0.1829749E+03  0.7546771E-02  0.1068077E+00
        -11   -1    0    0    0    0  0.00000000000E+00  0.00000000000E+00  0.18250000000E+03  0.18250000000E+03  0.00000000000E+00 0. -1.
         11   -1    0    0    0    0 -0.00000000000E+00 -0.00000000000E+00 -0.18250000000E+03  0.18250000000E+03  0.00000000000E+00 0.  1.
        -11    1    1    2    0    0 -0.36508274457E+01  0.14373864222E+01  0.18198284990E+03  0.18202514188E+03  0.00000000000E+00 0. -1.
         11    1    1    2    0    0  0.79386980464E+00  0.15554053212E+01 -0.80619200112E+02  0.80638110976E+02  0.00000000000E+00 0.  1.
        -15    1    1    2    0    0 -0.33707345885E-01 -0.38602591197E+01 -0.94816564235E+02  0.94911755431E+02  0.17770000000E+01 0.  1.
         15    1    1    2    0    0  0.28906649870E+01  0.86746737633E+00 -0.65470855489E+01  0.74249917105E+01  0.17770000000E+01 0. -1.
</event>
<event>
 6    1  0.1697564E-002  0.1835511E+03  0.7546771E-02  0.1067621E+00
        -11   -1    0    0    0    0  0.00000000000E+00  0.00000000000E+00  0.18250000000E+03  0.18250000000E+03  0.00000000000E+00 0. -1.
         11   -1    0    0    0    0 -0.00000000000E+00 -0.00000000000E+00 -0.18250000000E+03  0.18250000000E+03  0.00000000000E+00 0. -1.
        -11    1    1    2    0    0  0.29652945854E+01 -0.28622196749E+01  0.18140213129E+03  0.18144894188E+03  0.00000000000E+00 0. -1.
         11    1    1    2    0    0  0.22022255953E+01  0.13640716818E+01 -0.16094318111E+03  0.16096402715E+03  0.00000000000E+00 0. -1.
        -15    1    1    2    0    0 -0.22162121221E+01 -0.22833182905E+01 -0.13286466681E+02  0.13777266219E+02  0.17770000000E+01 0. -1.
         15    1    1    2    0    0 -0.29513080587E+01  0.37814662836E+01 -0.71724834970E+01  0.88097647543E+01  0.17770000000E+01 0. -1.
</event>
<event>
 6    1  0.1697564E-002  0.1874430E+03  0.7546771E-02  0.1064587E+00
        -11   -1    0    0    0    0  0.00000000000E+00  0.00000000000E+00  0.18250000000E+03  0.18250000000E+03  0.00000000000E+00 0.  1.
         11   -1    0    0    0    0 -0.00000000000E+00 -0.00000000000E+00 -0.18250000000E+03  0.18250000000E+03  0.00000000000E+00 0.  1.
        -11    1    1    2    0    0 -0.35134037133E+01 -0.36831632570E+01  0.86246077740E+02  0.86396155139E+02  0.00000000000E+00 0.  1.
         11    1    1    2    0    0 -0.43823221200E+01 -0.92744512029E+01 -0.17726046653E+03  0.17755701391E+03  0.00000000000E+00 0.  1.
        -15    1    1    2    0    0 -0.33950768263E+01 -0.95160260974E-01  0.80846074348E+02  0.80936895595E+02  0.17770000000E+01 0.  1.
         15    1    1    2    0    0  0.11290802660E+02  0.13052774721E+02  0.10168314443E+02  0.20109935361E+02  0.17770000000E+01 0. -1.
</event>
<event>
 6    1  0.1697564E-002  0.9075828E+02  0.7546771E-02  0.1180841E+00
        -11   -1    0    0    0    0  0.00000000000E+00  0.00000000000E+00  0.18250000000E+03  0.18250000000E+03  0.00000000000E+00 0. -1.
         11   -1    0    0    0    0 -0.00000000000E+00 -0.00000000000E+00 -0.18250000000E+03  0.18250000000E+03  0.00000000000E+00 0. -1.
        -11    1    1    2    0    0  0.12575036021E+02 -0.78366530097E+01  0.71452086772E+02  0.72972223246E+02  0.00000000000E+00 0. -1.
         11    1    1    2    0    0 -0.53772842635E+01  0.26291593229E+01 -0.11445044491E+03  0.11460685846E+03  0.00000000000E+00 0. -1.
        -15    1    1    2    0    0 -0.68031105597E+01 -0.78822300079E+02  0.49133638189E+02  0.93147782763E+02  0.17770000000E+01 0.  1.
         15    1    1    2    0    0 -0.39464119791E+00  0.84029793766E+02 -0.61352800471E+01  0.84273135531E+02  0.17770000000E+01 0. -1.
</event>
<event>
 6    1  0.1697564E-002  0.1845850E+03  0.7546771E-02  0.1066807E+00
        -11   -1    0    0    0    0  0.00000000000E+00  0.00000000000E+00  0.18250000000E+03  0.18250000000E+03  0.00000000000E+00 0.  1.
         11   -1    0    0    0    0 -0.00000000000E+00 -0.00000000000E+00 -0.18250000000E+03  0.18250000000E+03  0.00000000000E+00 0.  1.
        -11    1    1    2    0    0  0.40794748577E+01 -0.27357030042E+01  0.18034814601E+03  0.18041502143E+03  0.00000000000E+00 0.  1.
         11    1    1    2    0    0 -0.13927409320E+00  0.14614903138E+01 -0.76708586952E+02  0.76722634623E+02  0.00000000000E+00 0.  1.
        -15    1    1    2    0    0  0.52743015056E+01  0.11674359990E+01 -0.94798505716E+02  0.94968919011E+02  0.17770000000E+01 0.  1.
         15    1    1    2    0    0 -0.92145022701E+01  0.10677669144E+00 -0.88410533470E+01  0.12893424938E+02  0.17770000000E+01 0. -1.
</event>
<event>
 6    1  0.1697564E-002  0.1627473E+03  0.7546771E-02  0.1085364E+00
        -11   -1    0    0    0    0  0.00000000000E+00  0.00000000000E+00  0.18250000000E+03  0.18250000000E+03  0.00000000000E+00 0. -1.
         11   -1    0    0    0    0 -0.00000000000E+00 -0.00000000000E+00 -0.18250000000E+03  0.18250000000E+03  0.00000000000E+00 0.  1.
        -11    1    1    2    0    0  0.16860048952E+01 -0.15612511108E+01  0.47895876009E+01  0.53122751175E+01  0.00000000000E+00 0. -1.
         11    1    1    2    0    0 -0.22321227491E+01 -0.11283448450E+01 -0.15832671265E+03  0.15834646656E+03  0.00000000000E+00 0.  1.
        -15    1    1    2    0    0 -0.21497669243E+02 -0.17723451682E+02  0.16631713043E+03  0.16864405156E+03  0.17770000000E+01 0. -1.
         15    1    1    2    0    0  0.22043787097E+02  0.20413047638E+02 -0.12780005385E+02  0.32697206763E+02  0.17770000000E+01 0.  1.
</event>
<event>
 6    1  0.1697564E-002  0.1841093E+03  0.7546771E-02  0.1067181E+00
        -11   -1    0    0    0    0  0.00000000000E+00  0.00000000000E+00  0.18250000000E+03  0.18250000000E+03  0.00000000000E+00 0.  1.
         11   -1    0    0    0    0 -0.00000000000E+00 -0.00000000000E+00 -0.18250000000E+03  0.18250000000E+03  0.00000000000E+00 0. -1.
        -11    1    1    2    0    0  0.62468538641E+01 -0.48405081480E+01  0.18071799061E+03  0.18089070134E+03  0.00000000000E+00 0.  1.
         11    1    1    2    0    0 -0.47112928100E+01  0.28688954523E+01 -0.13955829165E+03  0.13966726034E+03  0.00000000000E+00 0. -1.
        -15    1    1    2    0    0  0.53904872240E+01 -0.30323636378E+01 -0.27418883005E+02  0.28163903422E+02  0.17770000000E+01 0. -1.
         15    1    1    2    0    0 -0.69260482782E+01  0.50039763335E+01 -0.13740815949E+02  0.16278134901E+02  0.17770000000E+01 0. -1.
</event>
<event>
 6    1  0.1697564E-002  0.1830793E+03  0.7546771E-02  0.1067995E+00
        -11   -1    0    0    0    0  0.00000000000E+00  0.00000000000E+00  0.18250000000E+03  0.18250000000E+03  0.00000000000E+00 0.  1.
         11   -1    0    0    0    0 -0.00000000000E+00 -0.00000000000E+00 -0.18250000000E+03  0.18250000000E+03  0.00000000000E+00 0. -1.
        -11    1    1    2    0    0 -0.38115929516E+00  0.32043025256E+01  0.18189205743E+03  0.18192067885E+03  0.00000000000E+00 0.  1.
         11    1    1    2    0    0 -0.26753963463E+01  0.16909468393E+01 -0.13895999450E+03  0.13899603274E+03  0.00000000000E+00 0. -1.
        -15    1    1    2    0    0  0.22641231543E+01 -0.89306769788E+00 -0.33702099497E+02  0.33836563996E+02  0.17770000000E+01 0. -1.
         15    1    1    2    0    0  0.79243248721E+00 -0.40021816670E+01 -0.92299634280E+01  0.10246724414E+02  0.17770000000E+01 0. -1.
</event>
<event>
 6    1  0.1697564E-002  0.1838318E+03  0.7546771E-02  0.1067400E+00
        -11   -1    0    0    0    0  0.00000000000E+00  0.00000000000E+00  0.18250000000E+03  0.18250000000E+03  0.00000000000E+00 0. -1.
         11   -1    0    0    0    0 -0.00000000000E+00 -0.00000000000E+00 -0.18250000000E+03  0.18250000000E+03  0.00000000000E+00 0. -1.
        -11    1    1    2    0    0 -0.22500364803E+01 -0.27578021749E+01  0.18113326246E+03  0.18116822820E+03  0.00000000000E+00 0. -1.
         11    1    1    2    0    0  0.22181065231E+01 -0.43442105792E+01 -0.10770634586E+03  0.10781673850E+03  0.00000000000E+00 0. -1.
        -15    1    1    2    0    0 -0.43803697478E+01  0.64608513722E+01 -0.69071145838E+02  0.69533525410E+02  0.17770000000E+01 0. -1.
         15    1    1    2    0    0  0.44122997050E+01  0.64116138193E+00 -0.43557707684E+01  0.64815078949E+01  0.17770000000E+01 0. -1.
</event>
<event>
 6    1  0.1697564E-002  0.1836298E+03  0.7546771E-02  0.1067559E+00
        -11   -1    0    0    0    0  0.00000000000E+00  0.00000000000E+00  0.18250000000E+03  0.18250000000E+03  0.00000000000E+00 0.  1.
         11   -1    0    0    0    0 -0.00000000000E+00 -0.00000000000E+00 -0.18250000000E+03  0.18250000000E+03  0.00000000000E+00 0.  1.
        -11    1    1    2    0    0  0.86546856533E+00  0.57868859039E+01  0.15383249898E+03  0.15394373916E+03  0.00000000000E+00 0.  1.
         11    1    1    2    0    0  0.25745359610E+00 -0.29137853348E+01 -0.18134661484E+03  0.18137020466E+03  0.00000000000E+00 0.  1.
        -15    1    1    2    0    0 -0.13525643284E+01 -0.50846821747E+01  0.25739600329E+02  0.26331885181E+02  0.17770000000E+01 0.  1.
         15    1    1    2    0    0  0.22964216696E+00  0.22115816057E+01  0.17745155307E+01  0.33541709992E+01  0.17770000000E+01 0.  1.
</event>
<event>
 6    1  0.1697564E-002  0.1829139E+03  0.7546771E-02  0.1068126E+00
        -11   -1    0    0    0    0  0.00000000000E+00  0.00000000000E+00  0.18250000000E+03  0.18250000000E+03  0.00000000000E+00 0.  1.
         11   -1    0    0    0    0 -0.00000000000E+00 -0.00000000000E+00 -0.18250000000E+03  0.18250000000E+03  0.00000000000E+00 0.  1.
        -11    1    1    2    0    0 -0.73800855647E+00  0.27322596141E+01  0.10620713725E+03  0.10624483942E+03  0.00000000000E+00 0.  1.
         11    1    1    2    0    0  0.18807658768E+01 -0.20756309642E+01 -0.18206458541E+03  0.18208613013E+03  0.00000000000E+00 0.  1.
        -15    1    1    2    0    0  0.10754786892E+01  0.45896224506E+01  0.29165501153E+02  0.29597389668E+02  0.17770000000E+01 0.  1.
         15    1    1    2    0    0 -0.22182360095E+01 -0.52462511004E+01  0.46691947008E+02  0.47071640783E+02  0.17770000000E+01 0. -1.
</event>
<event>
 6    1  0.1697564E-002  0.1852380E+03  0.7546771E-02  0.1066296E+00
        -11   -1    0    0    0    0  0.00000000000E+00  0.00000000000E+00  0.18250000000E+03  0.18250000000E+03  0.00000000000E+00 0. -1.
         11   -1    0    0    0    0 -0.00000000000E+00 -0.00000000000E+00 -0.18250000000E+03  0.18250000000E+03  0.00000000000E+00 0.  1.
        -11    1    1    2    0    0 -0.25484199419E+01 -0.12593071292E+01  0.17973954669E+03  0.17976202309E+03  0.00000000000E+00 0. -1.
         11    1    1    2    0    0  0.14128653780E+01  0.31929670726E+01 -0.16223826537E+03  0.16227583300E+03  0.00000000000E+00 0.  1.
        -15    1    1    2    0    0 -0.29705308488E+01 -0.94949410643E+00 -0.17999651718E+02  0.18354039979E+02  0.17770000000E+01 0.  1.
         15    1    1    2    0    0  0.41060854126E+01 -0.98416583702E+00  0.49837039338E+00  0.46081039332E+01  0.17770000000E+01 0. -1.
</event>
<event>
 6    1  0.1697564E-002  0.1731572E+03  0.7546771E-02  0.1076145E+00
        -11   -1    0    0    0    0  0.00000000000E+00  0.00000000000E+00  0.18250000000E+03  0.18250000000E+03  0.00000000000E+00 0. -1.
         11   -1    0    0    0    0 -0.00000000000E+00 -0.00000000000E+00 -0.18250000000E+03  0.18250000000E+03  0.00000000000E+00 0. -1.
        -11    1    1    2    0    0 -0.48674046511E+01 -0.50121859962E+01  0.17281626385E+03  0.17295743606E+03  0.00000000000E+00 0. -1.
         11    1    1    2    0    0  0.18330737925E+01  0.24319963437E+01 -0.17335355996E+03  0.17338030890E+03  0.00000000000E+00 0. -1.
        -15    1    1    2    0    0  0.25561594965E+01  0.10775875153E+01  0.91515244881E+01  0.97264215250E+01  0.17770000000E+01 0.  1.
         15    1    1    2    0    0  0.47817136213E+00  0.15026021371E+01 -0.86142283795E+01  0.89358335150E+01  0.17770000000E+01 0. -1.
</event>
<event>
 6    1  0.1697564E-002  0.1876961E+03  0.7546771E-02  0.1064392E+00
        -11   -1    0    0    0    0  0.00000000000E+00  0.00000000000E+00  0.18250000000E+03  0.18250000000E+03  0.00000000000E+00 0.  1.
         11   -1    0    0    0    0 -0.00000000000E+00 -0.00000000000E+00 -0.18250000000E+03  0.18250000000E+03  0.00000000000E+00 0.  1.
        -11    1    1    2    0    0 -0.31265974916E+01  0.28501197047E+00  0.17727614831E+03  0.17730394695E+03  0.00000000000E+00 0.  1.
         11    1    1    2    0    0  0.82169208534E-01 -0.31395157499E+01 -0.16714918704E+03  0.16717868895E+03  0.00000000000E+00 0.  1.
        -15    1    1    2    0    0  0.43423725056E+01 -0.19806930107E+01  0.33061987979E+01  0.60719044188E+01  0.17770000000E+01 0.  1.
         15    1    1    2    0    0 -0.12979442226E+01  0.48351967902E+01 -0.13433160067E+02  0.14445459688E+02  0.17770000000E+01 0. -1.
</event>
<event>
 6    1  0.1697564E-002  0.1829343E+03  0.7546771E-02  0.1068110E+00
        -11   -1    0    0    0    0  0.00000000000E+00  0.00000000000E+00  0.18250000000E+03  0.18250000000E+03  0.00000000000E+00 0.  1.
         11   -1    0    0    0    0 -0.00000000000E+00 -0.00000000000E+00 -0.18250000000E+03  0.18250000000E+03  0.00000000000E+00 0. -1.
        -11    1    1    2    0    0  0.13260902636E+01  0.37921982669E+01  0.18202137143E+03  0.18206569952E+03  0.00000000000E+00 0.  1.
         11    1    1    2    0    0 -0.10803883321E+01 -0.24660409206E+01 -0.73075494610E+02  0.73125074422E+02  0.00000000000E+00 0. -1.
        -15    1    1    2    0    0 -0.17796926114E+01  0.53272860481E+01 -0.68475534103E+02  0.68728478684E+02  0.17770000000E+01 0. -1.
         15    1    1    2    0    0  0.15339906799E+01 -0.66534433944E+01 -0.40470342717E+02  0.41080747377E+02  0.17770000000E+01 0.  1.
</event>
<event>
 6    1  0.1697564E-002  0.1829130E+03  0.7546771E-02  0.1068127E+00
        -11   -1    0    0    0    0  0.00000000000E+00  0.00000000000E+00  0.18250000000E+03  0.18250000000E+03  0.00000000000E+00 0. -1.
         11   -1    0    0    0    0 -0.00000000000E+00 -0.00000000000E+00 -0.18250000000E+03  0.18250000000E+03  0.00000000000E+00 0. -1.
        -11    1    1    2    0    0 -0.76234992473E+01 -0.10543794130E+02  0.18162157649E+03  0.18208702969E+03  0.00000000000E+00 0. -1.
         11    1    1    2    0    0  0.60659910985E+00 -0.20750971064E+00 -0.41440137474E+02  0.41445096412E+02  0.00000000000E+00 0. -1.
        -15    1    1    2    0    0 -0.23892658274E+01 -0.14368903794E+01 -0.17310829686E+02  0.17623728282E+02  0.17770000000E+01 0. -1.
         15    1    1    2    0    0  0.94061659648E+01  0.12188194220E+02 -0.12287060933E+03  0.12384414561E+03  0.17770000000E+01 0. -1.
</event>
<event>
 6    1  0.1697564E-002  0.1844783E+03  0.7546771E-02  0.1066891E+00
        -11   -1    0    0    0    0  0.00000000000E+00  0.00000000000E+00  0.18250000000E+03  0.18250000000E+03  0.00000000000E+00 0. -1.
         11   -1    0    0    0    0 -0.00000000000E+00 -0.00000000000E+00 -0.18250000000E+03  0.18250000000E+03  0.00000000000E+00 0.  1.
        -11    1    1    2    0    0  0.24634554467E+01  0.63012459413E+00  0.18050379564E+03  0.18052170482E+03  0.00000000000E+00 0. -1.
         11    1    1    2    0    0 -0.30966012265E+00  0.34693784402E+01 -0.17107181910E+03  0.17110727561E+03  0.00000000000E+00 0.  1.
        -15    1    1    2    0    0 -0.45149860180E+01 -0.78380602105E+00 -0.60120087133E+01  0.77653994353E+01  0.17770000000E+01 0. -1.
         15    1    1    2    0    0  0.23611906939E+01 -0.33156970133E+01 -0.34199678284E+01  0.56056201373E+01  0.17770000000E+01 0. -1.
</event>
<event>
 6    1  0.1697564E-002  0.1829206E+03  0.7546771E-02  0.1068120E+00
        -11   -1    0    0    0    0  0.00000000000E+00  0.00000000000E+00  0.18250000000E+03  0.18250000000E+03  0.00000000000E+00 0. -1.
         11   -1    0    0    0    0 -0.00000000000E+00 -0.00000000000E+00 -0.18250000000E+03  0.18250000000E+03  0.00000000000E+00 0. -1.
        -11    1    1    2    0    0  0.20539141493E+01 -0.62267092123E+01  0.18196126565E+03  0.18207935816E+03  0.00000000000E+00 0. -1.
         11    1    1    2    0    0  0.14181574669E+01  0.24103885508E+01 -0.10553205091E+03  0.10556910018E+03  0.00000000000E+00 0. -1.
        -15    1    1    2    0    0 -0.22975687554E+01  0.60143923592E+01 -0.26504734011E+02  0.27333320172E+02  0.17770000000E+01 0.  1.
         15    1    1    2    0    0 -0.11745028608E+01 -0.21980716977E+01 -0.49924480731E+02  0.50018221494E+02  0.17770000000E+01 0. -1.
</event>
<event>
 6    1  0.1697564E-002  0.1849718E+03  0.7546771E-02  0.1066504E+00
        -11   -1    0    0    0    0  0.00000000000E+00  0.00000000000E+00  0.18250000000E+03  0.18250000000E+03  0.00000000000E+00 0.  1.
         11   -1    0    0    0    0 -0.00000000000E+00 -0.00000000000E+00 -0.18250000000E+03  0.18250000000E+03  0.00000000000E+00 0. -1.
        -11    1    1    2    0    0  0.19081537018E+01  0.48561927008E+01  0.17995260787E+03  0.18002823316E+03  0.00000000000E+00 0.  1.
         11    1    1    2    0    0 -0.20173978315E+01  0.10208607772E+01 -0.16164509145E+03  0.16166090326E+03  0.00000000000E+00 0. -1.
        -15    1    1    2    0    0  0.53691019249E+01 -0.61638563163E+01 -0.78714702727E+01  0.11486433451E+02  0.17770000000E+01 0.  1.
         15    1    1    2    0    0 -0.52598577952E+01  0.28680283826E+00 -0.10436046140E+02  0.11824430132E+02  0.17770000000E+01 0. -1.
</event>
<event>
 6    1  0.1697564E-002  0.1853464E+03  0.7546771E-02  0.1066211E+00
        -11   -1    0    0    0    0  0.00000000000E+00  0.00000000000E+00  0.18250000000E+03  0.18250000000E+03  0.00000000000E+00 0. -1.
         11   -1    0    0    0    0 -0.00000000000E+00 -0.00000000000E+00 -0.18250000000E+03  0.18250000000E+03  0.00000000000E+00 0.  1.
        -11    1    1    2    0    0  0.90528825040E+01 -0.35098655683E+00  0.17942500374E+03  0.17965358288E+03  0.00000000000E+00 0. -1.
         11    1    1    2    0    0 -0.38310691157E+01 -0.30272118800E+01 -0.13613106911E+03  0.13621860769E+03  0.00000000000E+00 0.  1.
        -15    1    1    2    0    0  0.44493832176E+00 -0.58339107711E+00  0.22889970219E+01  0.29892393054E+01  0.17770000000E+01 0.  1.
         15    1    1    2    0    0 -0.56667517101E+01  0.39615895140E+01 -0.45582931653E+02  0.46138570129E+02  0.17770000000E+01 0.  1.
</event>
<event>
 6    1  0.1697564E-002  0.1860195E+03  0.7546771E-02  0.1065687E+00
        -11   -1    0    0    0    0  0.00000000000E+00  0.00000000000E+00  0.18250000000E+03  0.18250000000E+03  0.00000000000E+00 0.  1.
         11   -1    0    0    0    0 -0.00000000000E+00 -0.00000000000E+00 -0.18250000000E+03  0.18250000000E+03  0.00000000000E+00 0.  1.
        -11    1    1    2    0    0 -0.16007918446E+01 -0.18570791484E+01  0.15002664774E+03  0.15004668044E+03  0.00000000000E+00 0.  1.
         11    1    1    2    0    0 -0.24911271684E+01  0.10660581429E+01 -0.17896000606E+03  0.17898051839E+03  0.00000000000E+00 0.  1.
        -15    1    1    2    0    0  0.59014901712E+01  0.32599311173E+01  0.31067139929E+02  0.31839906556E+02  0.17770000000E+01 0. -1.
         15    1    1    2    0    0 -0.18095711582E+01 -0.24689101118E+01 -0.21337816092E+01  0.41328946118E+01  0.17770000000E+01 0. -1.
</event>
<event>
 6    1  0.1697564E-002  0.1829690E+03  0.7546771E-02  0.1068082E+00
        -11   -1    0    0    0    0  0.00000000000E+00  0.00000000000E+00  0.18250000000E+03  0.18250000000E+03  0.00000000000E+00 0.  1.
         11   -1    0    0    0    0 -0.00000000000E+00 -0.00000000000E+00 -0.18250000000E+03  0.18250000000E+03  0.00000000000E+00 0.  1.
        -11    1    1    2    0    0  0.23387958265E+01 -0.32473675519E+01  0.18198695762E+03  0.18203095370E+03  0.00000000000E+00 0.  1.
         11    1    1    2    0    0 -0.76758968258E+00 -0.15528741495E+00 -0.41270242741E+02  0.41277672463E+02  0.00000000000E+00 0.  1.
        -15    1    1    2    0    0  0.54264691498E+00  0.10294693828E+01 -0.13427493965E+03  0.13429173995E+03  0.17770000000E+01 0.  1.
         15    1    1    2    0    0 -0.21138530589E+01  0.23731855840E+01 -0.64417752281E+01  0.73996338869E+01  0.17770000000E+01 0. -1.
</event>
<event>
 6    1  0.1697564E-002  0.1856195E+03  0.7546771E-02  0.1065998E+00
        -11   -1    0    0    0    0  0.00000000000E+00  0.00000000000E+00  0.18250000000E+03  0.18250000000E+03  0.00000000000E+00 0.  1.
         11   -1    0    0    0    0 -0.00000000000E+00 -0.00000000000E+00 -0.18250000000E+03  0.18250000000E+03  0.00000000000E+00 0. -1.
        -11    1    1    2    0    0  0.46690515374E+01 -0.13343708163E+01  0.17931479990E+03  0.17938053978E+03  0.00000000000E+00 0.  1.
         11    1    1    2    0    0  0.14771031761E+01  0.35035958296E+01 -0.15044923781E+03  0.15049727630E+03  0.00000000000E+00 0. -1.
        -15    1    1    2    0    0 -0.45464076642E+01 -0.34028248638E+00 -0.31030689435E+02  0.31414121516E+02  0.17770000000E+01 0. -1.
         15    1    1    2    0    0 -0.15997470493E+01 -0.18289425269E+01  0.21651273396E+01  0.37080624031E+01  0.17770000000E+01 0.  1.
</event>
<event>
 6    1  0.1697564E-002  0.1850404E+03  0.7546771E-02  0.1066450E+00
        -11   -1    0    0    0    0  0.00000000000E+00  0.00000000000E+00  0.18250000000E+03  0.18250000000E+03  0.00000000000E+00 0. -1.
         11   -1    0    0    0    0 -0.00000000000E+00 -0.00000000000E+00 -0.18250000000E+03  0.18250000000E+03  0.00000000000E+00 0.  1.
        -11    1    1    2    0    0  0.25922239993E+01 -0.21916161522E+01  0.16782538182E+03  0.16785970806E+03  0.00000000000E+00 0. -1.
         11    1    1    2    0    0  0.59084925393E+00 -0.26535211038E+01 -0.17993910393E+03  0.17995963826E+03  0.00000000000E+00 0.  1.
        -15    1    1    2    0    0 -0.50854724833E+01  0.25394015626E+01  0.12333566228E+02  0.13696173757E+02  0.17770000000E+01 0. -1.
         15    1    1    2    0    0  0.19023992301E+01  0.23057356934E+01 -0.21984411851E+00  0.34844799260E+01  0.17770000000E+01 0.  1.
</event>
<event>
 6    1  0.1697564E-002  0.1862900E+03  0.7546771E-02  0.1065477E+00
        -11   -1    0    0    0    0  0.00000000000E+00  0.00000000000E+00  0.18250000000E+03  0.18250000000E+03  0.00000000000E+00 0.  1.
         11   -1    0    0    0    0 -0.00000000000E+00 -0.00000000000E+00 -0.18250000000E+03  0.18250000000E+03  0.00000000000E+00 0. -1.
        -11    1    1    2    0    0 -0.21739723764E+01 -0.20339757703E+01  0.17868523039E+03  0.17871002986E+03  0.00000000000E+00 0.  1.
         11    1    1    2    0    0  0.33140720288E+01  0.71522494758E-01 -0.17390549728E+03  0.17393708682E+03  0.00000000000E+00 0. -1.
        -15    1    1    2    0    0  0.90205146024E+00  0.22562919151E+01  0.29150995947E+01  0.41904754730E+01  0.17770000000E+01 0. -1.
         15    1    1    2    0    0 -0.20421511125E+01 -0.29383863954E+00 -0.76948327118E+01  0.81624078418E+01  0.17770000000E+01 0.  1.
</event>
<event>
 6    1  0.1794830E-002  0.1828629E+03  0.7546771E-02  0.1068166E+00
        -11   -1    0    0    0    0  0.00000000000E+00  0.00000000000E+00  0.18250000000E+03  0.18250000000E+03  0.00000000000E+00 0.  1.
         11   -1    0    0    0    0 -0.00000000000E+00 -0.00000000000E+00 -0.18250000000E+03  0.18250000000E+03  0.00000000000E+00 0. -1.
        -11    1    1    2    0    0 -0.33536508635E+01 -0.16960652235E+01  0.18209832022E+03  0.18213709627E+03  0.00000000000E+00 0.  1.
         11    1    1    2    0    0 -0.69926830020E+00 -0.24652066760E+00 -0.24706174263E+02  0.24717297492E+02  0.00000000000E+00 0. -1.
        -15    1    1    2    0    0  0.27986886841E+01  0.24367427198E+01 -0.11124741944E+02  0.11861196641E+02  0.17770000000E+01 0. -1.
         15    1    1    2    0    0  0.12542304797E+01 -0.49415682872E+00 -0.14626740401E+03  0.14628440960E+03  0.17770000000E+01 0. -1.
</event>
<event>
 6    1  0.1697564E-002  0.1874262E+03  0.7546771E-02  0.1064600E+00
        -11   -1    0    0    0    0  0.00000000000E+00  0.00000000000E+00  0.18250000000E+03  0.18250000000E+03  0.00000000000E+00 0. -1.
         11   -1    0    0    0    0 -0.00000000000E+00 -0.00000000000E+00 -0.18250000000E+03  0.18250000000E+03  0.00000000000E+00 0.  1.
        -11    1    1    2    0    0  0.21164184597E+01  0.12945715066E+01  0.17755646610E+03  0.17757379817E+03  0.00000000000E+00 0. -1.
         11    1    1    2    0    0 -0.19491392281E+01 -0.22470811498E+01 -0.17435813610E+03  0.17438350880E+03  0.00000000000E+00 0.  1.
        -15    1    1    2    0    0 -0.69155372195E+00  0.63639357385E+01 -0.34937215831E+00  0.66526471828E+01  0.17770000000E+01 0. -1.
         15    1    1    2    0    0  0.52427449030E+00 -0.54114260953E+01 -0.28489578402E+01  0.63900458450E+01  0.17770000000E+01 0.  1.
</event>
<event>
 6    1  0.1697564E-002  0.1861036E+03  0.7546771E-02  0.1065622E+00
        -11   -1    0    0    0    0  0.00000000000E+00  0.00000000000E+00  0.18250000000E+03  0.18250000000E+03  0.00000000000E+00 0.  1.
         11   -1    0    0    0    0 -0.00000000000E+00 -0.00000000000E+00 -0.18250000000E+03  0.18250000000E+03  0.00000000000E+00 0.  1.
        -11    1    1    2    0    0 -0.32185239490E+01  0.17260585725E+01  0.17789034619E+03  0.17792783212E+03  0.00000000000E+00 0.  1.
         11    1    1    2    0    0  0.17822823821E+01 -0.20098488493E+01 -0.17887622754E+03  0.17889639684E+03  0.00000000000E+00 0.  1.
        -15    1    1    2    0    0 -0.38015300005E+00  0.11654009095E+01  0.37449538917E+01  0.43226246927E+01  0.17770000000E+01 0. -1.
         15    1    1    2    0    0  0.18163945669E+01 -0.88161063266E+00 -0.27590725408E+01  0.38531463527E+01  0.17770000000E+01 0.  1.
</event>
<event>
 6    1  0.1697564E-002  0.1960257E+03  0.7546771E-02  0.1058171E+00
        -11   -1    0    0    0    0  0.00000000000E+00  0.00000000000E+00  0.18250000000E+03  0.18250000000E+03  0.00000000000E+00 0. -1.
         11   -1    0    0    0    0 -0.00000000000E+00 -0.00000000000E+00 -0.18250000000E+03  0.18250000000E+03  0.00000000000E+00 0. -1.
        -11    1    1    2    0    0 -0.27530706380E+01 -0.62740559724E+01  0.10447177916E+03  0.10469620727E+03  0.00000000000E+00 0. -1.
         11    1    1    2    0    0 -0.12867651508E+02 -0.12196051159E+02 -0.16804167768E+03  0.16897433402E+03  0.00000000000E+00 0. -1.
        -15    1    1    2    0    0  0.42260672619E+01  0.14500570388E+02 -0.90469409275E+01  0.17695509465E+02  0.17770000000E+01 0. -1.
         15    1    1    2    0    0  0.11394654884E+02  0.39695367435E+01  0.72616839448E+02  0.73633949251E+02  0.17770000000E+01 0.  1.
</event>
<event>
 6    1  0.1697564E-002  0.1939231E+03  0.7546771E-02  0.1059709E+00
        -11   -1    0    0    0    0  0.00000000000E+00  0.00000000000E+00  0.18250000000E+03  0.18250000000E+03  0.00000000000E+00 0. -1.
         11   -1    0    0    0    0 -0.00000000000E+00 -0.00000000000E+00 -0.18250000000E+03  0.18250000000E+03  0.00000000000E+00 0. -1.
        -11    1    1    2    0    0 -0.16009620704E+01 -0.11575033934E+02  0.17067731387E+03  0.17107685396E+03  0.00000000000E+00 0. -1.
         11    1    1    2    0    0 -0.93649674972E+01  0.11222909283E+02 -0.70616763224E+02  0.72113684952E+02  0.00000000000E+00 0. -1.
        -15    1    1    2    0    0  0.16028672151E+02 -0.10384062218E+02 -0.10648309022E+03  0.10819682672E+03  0.17770000000E+01 0. -1.
         15    1    1    2    0    0 -0.50627425838E+01  0.10736186869E+02  0.64225395813E+01  0.13612634375E+02  0.17770000000E+01 0.  1.
</event>
<event>
 6    1  0.1697564E-002  0.1359788E+03  0.7546771E-02  0.1113021E+00
        -11   -1    0    0    0    0  0.00000000000E+00  0.00000000000E+00  0.18250000000E+03  0.18250000000E+03  0.00000000000E+00 0.  1.
         11   -1    0    0    0    0 -0.00000000000E+00 -0.00000000000E+00 -0.18250000000E+03  0.18250000000E+03  0.00000000000E+00 0.  1.
        -11    1    1    2    0    0 -0.36115039217E+02 -0.18813961033E+02  0.12352615141E+03  0.13006525773E+03  0.00000000000E+00 0.  1.
         11    1    1    2    0    0  0.11306811726E+01  0.10889756317E+02 -0.26221139683E+02  0.28415020656E+02  0.00000000000E+00 0.  1.
        -15    1    1    2    0    0  0.30911233037E+02  0.18194241218E+02  0.48465243787E+02  0.60320579620E+02  0.17770000000E+01 0. -1.
         15    1    1    2    0    0  0.40731250075E+01 -0.10270036503E+02 -0.14577025551E+03  0.14619914199E+03  0.17770000000E+01 0.  1.
</event>
<event>
 6    1  0.1697564E-002  0.1828179E+03  0.7546771E-02  0.1068202E+00
        -11   -1    0    0    0    0  0.00000000000E+00  0.00000000000E+00  0.18250000000E+03  0.18250000000E+03  0.00000000000E+00 0.  1.
         11   -1    0    0    0    0 -0.00000000000E+00 -0.00000000000E+00 -0.18250000000E+03  0.18250000000E+03  0.00000000000E+00 0.  1.
        -11    1    1    2    0    0 -0.25550733505E+01  0.38839420053E+00  0.18216378912E+03  0.18218212129E+03  0.00000000000E+00 0.  1.
         11    1    1    2    0    0 -0.19683490086E+01  0.96388010401E+00 -0.69784842534E+02  0.69819250284E+02  0.00000000000E+00 0.  1.
        -15    1    1    2    0    0 -0.17182861576E+01 -0.35825379143E+01 -0.62277058955E+02  0.62428974734E+02  0.17770000000E+01 0. -1.
         15    1    1    2    0    0  0.62417085167E+01  0.22302636098E+01 -0.50101887635E+02  0.50569653692E+02  0.17770000000E+01 0.  1.
</event>
<event>
 6    1  0.1697564E-002  0.1870056E+03  0.7546771E-02  0.1064924E+00
        -11   -1    0    0    0    0  0.00000000000E+00  0.00000000000E+00  0.18250000000E+03  0.18250000000E+03  0.00000000000E+00 0.  1.
         11   -1    0    0    0    0 -0.00000000000E+00 -0.00000000000E+00 -0.18250000000E+03  0.18250000000E+03  0.00000000000E+00 0. -1.
        -11    1    1    2    0    0 -0.30022305699E+01  0.14582138447E+01  0.17357968215E+03  0.17361176755E+03  0.00000000000E+00 0.  1.
         11    1    1    2    0    0 -0.30596768770E+00 -0.29980954373E+01 -0.17796891095E+03  0.17799442536E+03  0.00000000000E+00 0. -1.
        -15    1    1    2    0    0  0.17539326443E+01  0.19611516832E+01  0.82550668626E+01  0.88445606760E+01  0.17770000000E+01 0. -1.
         15    1    1    2    0    0  0.15542656134E+01 -0.42127009064E+00 -0.38658380606E+01  0.45492464207E+01  0.17770000000E+01 0. -1.
</event>
<event>
 6    1  0.1697564E-002  0.1868542E+03  0.7546771E-02  0.1065041E+00
        -11   -1    0    0    0    0  0.00000000000E+00  0.00000000000E+00  0.18250000000E+03  0.18250000000E+03  0.00000000000E+00 0.  1.
         11   -1    0    0    0    0 -0.00000000000E+00 -0.00000000000E+00 -0.18250000000E+03  0.18250000000E+03  0.00000000000E+00 0. -1.
        -11    1    1    2    0    0 -0.44333195179E+01 -0.17981476048E+02  0.14316130595E+03  0.14435424249E+03  0.00000000000E+00 0.  1.
         11    1    1    2    0    0  0.43450911464E+01 -0.18876295974E+01 -0.17808275578E+03  0.17814575737E+03  0.00000000000E+00 0. -1.
        -15    1    1    2    0    0  0.31784990711E+01  0.18026245423E+02  0.20543213991E+02  0.27572264152E+02  0.17770000000E+01 0.  1.
         15    1    1    2    0    0 -0.30902706997E+01  0.18428602234E+01  0.14378235837E+02  0.14927735983E+02  0.17770000000E+01 0. -1.
</event>
<event>
 6    1  0.1697564E-002  0.1830917E+03  0.7546771E-02  0.1067985E+00
        -11   -1    0    0    0    0  0.00000000000E+00  0.00000000000E+00  0.18250000000E+03  0.18250000000E+03  0.00000000000E+00 0.  1.
         11   -1    0    0    0    0 -0.00000000000E+00 -0.00000000000E+00 -0.18250000000E+03  0.18250000000E+03  0.00000000000E+00 0.  1.
        -11    1    1    2    0    0  0.19980836131E+01  0.51572624740E+01  0.18182420836E+03  0.18190830778E+03  0.00000000000E+00 0.  1.
         11    1    1    2    0    0  0.24972357518E+01  0.60958279090E+00 -0.12666939132E+03  0.12669547141E+03  0.00000000000E+00 0.  1.
        -15    1    1    2    0    0 -0.12740864588E+01 -0.11139902388E+01 -0.28703119120E+01  0.37763328811E+01  0.17770000000E+01 0.  1.
         15    1    1    2    0    0 -0.32212329061E+01 -0.46528550261E+01 -0.52284505123E+02  0.52619887935E+02  0.17770000000E+01 0. -1.
</event>
<event>
 6    1  0.1697564E-002  0.1832054E+03  0.7546771E-02  0.1067895E+00
        -11   -1    0    0    0    0  0.00000000000E+00  0.00000000000E+00  0.18250000000E+03  0.18250000000E+03  0.00000000000E+00 0.  1.
         11   -1    0    0    0    0 -0.00000000000E+00 -0.00000000000E+00 -0.18250000000E+03  0.18250000000E+03  0.00000000000E+00 0.  1.
        -11    1    1    2    0    0  0.53484654383E+00  0.41463917338E+01  0.14916061241E+03  0.14921919085E+03  0.00000000000E+00 0.  1.
         11    1    1    2    0    0 -0.24483323316E+01  0.69102700377E+00 -0.18177678128E+03  0.18179458205E+03  0.00000000000E+00 0.  1.
        -15    1    1    2    0    0 -0.16029691405E+01 -0.19966825197E+01  0.23027673745E+02  0.23237636245E+02  0.17770000000E+01 0. -1.
         15    1    1    2    0    0  0.35164549283E+01 -0.28407362179E+01  0.95884951290E+01  0.10748590855E+02  0.17770000000E+01 0.  1.
</event>
<event>
 6    1  0.1697564E-002  0.1829847E+03  0.7546771E-02  0.1068070E+00
        -11   -1    0    0    0    0  0.00000000000E+00  0.00000000000E+00  0.18250000000E+03  0.18250000000E+03  0.00000000000E+00 0. -1.
         11   -1    0    0    0    0 -0.00000000000E+00 -0.00000000000E+00 -0.18250000000E+03  0.18250000000E+03  0.00000000000E+00 0. -1.
        -11    1    1    2    0    0  0.22861604129E+01 -0.17038211593E+01  0.18199292602E+03  0.18201525940E+03  0.00000000000E+00 0. -1.
         11    1    1    2    0    0 -0.33160867078E+00 -0.19462558769E+01 -0.13505791543E+03  0.13507234505E+03  0.00000000000E+00 0. -1.
        -15    1    1    2    0    0  0.60273252930E+00  0.10746096447E+01 -0.38486016297E+02  0.38546715188E+02  0.17770000000E+01 0. -1.
         15    1    1    2    0    0 -0.25572842714E+01  0.25754673915E+01 -0.84489942839E+01  0.93656803565E+01  0.17770000000E+01 0. -1.
</event>
<event>
 6    1  0.1697564E-002  0.1587770E+03  0.7546771E-02  0.1089082E+00
        -11   -1    0    0    0    0  0.00000000000E+00  0.00000000000E+00  0.18250000000E+03  0.18250000000E+03  0.00000000000E+00 0. -1.
         11   -1    0    0    0    0 -0.00000000000E+00 -0.00000000000E+00 -0.18250000000E+03  0.18250000000E+03  0.00000000000E+00 0.  1.
        -11    1    1    2    0    0  0.57926989978E+01 -0.17595499288E+01  0.15729882484E+03  0.15741528412E+03  0.00000000000E+00 0. -1.
         11    1    1    2    0    0 -0.42096573223E+01 -0.48822606898E+01 -0.16009467109E+03  0.16022440949E+03  0.00000000000E+00 0.  1.
        -15    1    1    2    0    0 -0.36612705344E+01  0.15274424275E+01 -0.21728767305E+02  0.22159310456E+02  0.17770000000E+01 0.  1.
         15    1    1    2    0    0  0.20782288589E+01  0.51143681911E+01  0.24524613553E+02  0.25200995934E+02  0.17770000000E+01 0. -1.
</event>
<event>
 6    1  0.1697564E-002  0.1862832E+03  0.7546771E-02  0.1065483E+00
        -11   -1    0    0    0    0  0.00000000000E+00  0.00000000000E+00  0.18250000000E+03  0.18250000000E+03  0.00000000000E+00 0.  1.
         11   -1    0    0    0    0 -0.00000000000E+00 -0.00000000000E+00 -0.18250000000E+03  0.18250000000E+03  0.00000000000E+00 0. -1.
        -11    1    1    2    0    0 -0.40442075248E+01 -0.24117082272E+01  0.17325621068E+03  0.17332018489E+03  0.00000000000E+00 0.  1.
         11    1    1    2    0    0  0.12503755943E+01 -0.24385211182E+01 -0.17869580173E+03  0.17871681336E+03  0.00000000000E+00 0. -1.
        -15    1    1    2    0    0 -0.75302173528E+00 -0.23392387067E+01 -0.13917810960E+00  0.30358160364E+01  0.17770000000E+01 0.  1.
         15    1    1    2    0    0  0.35468536658E+01  0.71894680521E+01  0.55787691581E+01  0.99271857099E+01  0.17770000000E+01 0.  1.
</event>
<event>
 6    1  0.1697564E-002  0.1899461E+03  0.7546771E-02  0.1062678E+00
        -11   -1    0    0    0    0  0.00000000000E+00  0.00000000000E+00  0.18250000000E+03  0.18250000000E+03  0.00000000000E+00 0. -1.
         11   -1    0    0    0    0 -0.00000000000E+00 -0.00000000000E+00 -0.18250000000E+03  0.18250000000E+03  0.00000000000E+00 0. -1.
        -11    1    1    2    0    0  0.47639607253E+01  0.14115572844E+01  0.16746287009E+03  0.16753656519E+03  0.00000000000E+00 0. -1.
         11    1    1    2    0    0  0.54757151556E+01 -0.13171032974E+01 -0.17496330369E+03  0.17505392271E+03  0.00000000000E+00 0. -1.
        -15    1    1    2    0    0 -0.56972968534E+01  0.78798039765E+00 -0.57116332948E+01  0.82982280299E+01  0.17770000000E+01 0.  1.
         15    1    1    2    0    0 -0.45423790275E+01 -0.88243438467E+00  0.13212066895E+02  0.14111284077E+02  0.17770000000E+01 0. -1.
</event>
<event>
 6    1  0.1697564E-002  0.1834441E+03  0.7546771E-02  0.1067706E+00
        -11   -1    0    0    0    0  0.00000000000E+00  0.00000000000E+00  0.18250000000E+03  0.18250000000E+03  0.00000000000E+00 0. -1.
         11   -1    0    0    0    0 -0.00000000000E+00 -0.00000000000E+00 -0.18250000000E+03  0.18250000000E+03  0.00000000000E+00 0.  1.
        -11    1    1    2    0    0 -0.17390419978E+01 -0.59026579334E+01  0.18145157600E+03  0.18155588690E+03  0.00000000000E+00 0. -1.
         11    1    1    2    0    0 -0.56207992539E+01  0.95442899164E+00 -0.15250813213E+03  0.15261466078E+03  0.00000000000E+00 0.  1.
        -15    1    1    2    0    0  0.54545453521E+01  0.53466400944E+01 -0.19300459534E+02  0.20832764879E+02  0.17770000000E+01 0. -1.
         15    1    1    2    0    0  0.19052958997E+01 -0.39841115262E+00 -0.96429843292E+01  0.99966874356E+01  0.17770000000E+01 0.  1.
</event>
<event>
 6    1  0.1697564E-002  0.1832154E+03  0.7546771E-02  0.1067887E+00
        -11   -1    0    0    0    0  0.00000000000E+00  0.00000000000E+00  0.18250000000E+03  0.18250000000E+03  0.00000000000E+00 0. -1.
         11   -1    0    0    0    0 -0.00000000000E+00 -0.00000000000E+00 -0.18250000000E+03  0.18250000000E+03  0.00000000000E+00 0.  1.
        -11    1    1    2    0    0 -0.19604857718E+01  0.44490434119E+01  0.10330050064E+03  0.10341484867E+03  0.00000000000E+00 0. -1.
         11    1    1    2    0    0  0.34675282285E+01  0.14146706486E+01 -0.18174599369E+03  0.18178457379E+03  0.00000000000E+00 0.  1.
        -15    1    1    2    0    0 -0.33056884622E+01  0.23812156347E+01  0.11980040151E+02  0.12777983218E+02  0.17770000000E+01 0.  1.
         15    1    1    2    0    0  0.17986460055E+01 -0.82449296953E+01  0.66465452893E+02  0.67022594328E+02  0.17770000000E+01 0. -1.
</event>
<event>
 6    1  0.1697564E-002  0.1844969E+03  0.7546771E-02  0.1066876E+00
        -11   -1    0    0    0    0  0.00000000000E+00  0.00000000000E+00  0.18250000000E+03  0.18250000000E+03  0.00000000000E+00 0.  1.
         11   -1    0    0    0    0 -0.00000000000E+00 -0.00000000000E+00 -0.18250000000E+03  0.18250000000E+03  0.00000000000E+00 0. -1.
        -11    1    1    2    0    0  0.27535379083E+01  0.24874346405E+01  0.16652716999E+03  0.16656850737E+03  0.00000000000E+00 0.  1.
         11    1    1    2    0    0 -0.43942073158E+01  0.49834955174E+01 -0.18038077169E+03  0.18050309438E+03  0.00000000000E+00 0. -1.
        -15    1    1    2    0    0  0.88707347789E+00 -0.16364611602E+00 -0.16765648598E+00  0.19998792723E+01  0.17770000000E+01 0. -1.
         15    1    1    2    0    0  0.75359592962E+00 -0.73072840419E+01  0.14021258186E+02  0.15928518984E+02  0.17770000000E+01 0.  1.
</event>
<event>
 6    1  0.1697564E-002  0.1767570E+03  0.7546771E-02  0.1073120E+00
        -11   -1    0    0    0    0  0.00000000000E+00  0.00000000000E+00  0.18250000000E+03  0.18250000000E+03  0.00000000000E+00 0.  1.
         11   -1    0    0    0    0 -0.00000000000E+00 -0.00000000000E+00 -0.18250000000E+03  0.18250000000E+03  0.00000000000E+00 0. -1.
        -11    1    1    2    0    0  0.34718917320E+01  0.96880128719E+00  0.17549720172E+03  0.17553421438E+03  0.00000000000E+00 0.  1.
         11    1    1    2    0    0  0.58066992046E+00 -0.40065807348E+01 -0.17797883173E+03  0.17802487021E+03  0.00000000000E+00 0. -1.
        -15    1    1    2    0    0  0.24690530756E+01  0.20835499110E+01 -0.93985785596E+00  0.38050578328E+01  0.17770000000E+01 0.  1.
         15    1    1    2    0    0 -0.65216147280E+01  0.95422953659E+00  0.34214878703E+01  0.76358575756E+01  0.17770000000E+01 0. -1.
</event>
<event>
 6    1  0.1697564E-002  0.1836711E+03  0.7546771E-02  0.1067526E+00
        -11   -1    0    0    0    0  0.00000000000E+00  0.00000000000E+00  0.18250000000E+03  0.18250000000E+03  0.00000000000E+00 0. -1.
         11   -1    0    0    0    0 -0.00000000000E+00 -0.00000000000E+00 -0.18250000000E+03  0.18250000000E+03  0.00000000000E+00 0. -1.
        -11    1    1    2    0    0 -0.28369068509E+01 -0.13846795864E+01  0.14371192912E+03  0.14374659631E+03  0.00000000000E+00 0. -1.
         11    1    1    2    0    0 -0.46663305715E+00 -0.56575795759E+01 -0.18123999519E+03  0.18132887748E+03  0.00000000000E+00 0. -1.
        -15    1    1    2    0    0  0.54020545077E+00  0.88757719170E+01  0.19462330673E+02  0.21471171213E+02  0.17770000000E+01 0. -1.
         15    1    1    2    0    0  0.27633344573E+01 -0.18335127547E+01  0.18065735394E+02  0.18453354997E+02  0.17770000000E+01 0.  1.
</event>
<event>
 6    1  0.1697564E-002  0.1838581E+03  0.7546771E-02  0.1067379E+00
        -11   -1    0    0    0    0  0.00000000000E+00  0.00000000000E+00  0.18250000000E+03  0.18250000000E+03  0.00000000000E+00 0. -1.
         11   -1    0    0    0    0 -0.00000000000E+00 -0.00000000000E+00 -0.18250000000E+03  0.18250000000E+03  0.00000000000E+00 0.  1.
        -11    1    1    2    0    0  0.73991652997E+00  0.32910769376E+00  0.36958071481E+02  0.36966942475E+02  0.00000000000E+00 0. -1.
         11    1    1    2    0    0  0.12530668077E+00  0.12237815685E+02 -0.18072796019E+03  0.18114186548E+03  0.00000000000E+00 0.  1.
        -15    1    1    2    0    0  0.17230783573E+01 -0.16048345741E+02  0.42248085316E+02  0.45261206810E+02  0.17770000000E+01 0. -1.
         15    1    1    2    0    0 -0.25883015681E+01  0.34814223625E+01  0.10152180339E+03  0.10162998524E+03  0.17770000000E+01 0. -1.
</event>
<event>
 6    1  0.1697564E-002  0.1830581E+03  0.7546771E-02  0.1068011E+00
        -11   -1    0    0    0    0  0.00000000000E+00  0.00000000000E+00  0.18250000000E+03  0.18250000000E+03  0.00000000000E+00 0.  1.
         11   -1    0    0    0    0 -0.00000000000E+00 -0.00000000000E+00 -0.18250000000E+03  0.18250000000E+03  0.00000000000E+00 0. -1.
        -11    1    1    2    0    0  0.14220942505E+02 -0.10295927814E+01  0.18138235845E+03  0.18194190069E+03  0.00000000000E+00 0.  1.
         11    1    1    2    0    0 -0.32974890140E-01 -0.15830807527E+01 -0.85051246507E+02  0.85065984768E+02  0.00000000000E+00 0. -1.
        -15    1    1    2    0    0 -0.50162486731E+01 -0.33027892591E+00 -0.12485856820E+02  0.13576677961E+02  0.17770000000E+01 0.  1.
         15    1    1    2    0    0 -0.91717189421E+01  0.29429524600E+01 -0.83845255127E+02  0.84415436585E+02  0.17770000000E+01 0. -1.
</event>
<event>
 6    1  0.1697564E-002  0.1839433E+03  0.7546771E-02  0.1067312E+00
        -11   -1    0    0    0    0  0.00000000000E+00  0.00000000000E+00  0.18250000000E+03  0.18250000000E+03  0.00000000000E+00 0. -1.
         11   -1    0    0    0    0 -0.00000000000E+00 -0.00000000000E+00 -0.18250000000E+03  0.18250000000E+03  0.00000000000E+00 0.  1.
        -11    1    1    2    0    0  0.33785348634E+01  0.25169155511E+01  0.18100770765E+03  0.18105673031E+03  0.00000000000E+00 0. -1.
         11    1    1    2    0    0  0.58119147773E+01  0.19426648757E+01 -0.12096776772E+03  0.12112288441E+03  0.00000000000E+00 0.  1.
        -15    1    1    2    0    0 -0.11469298231E+02 -0.55870086439E+01 -0.30369468225E+02  0.32988206934E+02  0.17770000000E+01 0.  1.
         15    1    1    2    0    0  0.22788485904E+01  0.11274282171E+01 -0.29670471699E+02  0.29832178350E+02  0.17770000000E+01 0.  1.
</event>
<event>
 6    1  0.2390747E-002  0.1942439E+03  0.7546771E-02  0.1059473E+00
        -11   -1    0    0    0    0  0.00000000000E+00  0.00000000000E+00  0.18250000000E+03  0.18250000000E+03  0.00000000000E+00 0. -1.
         11   -1    0    0    0    0 -0.00000000000E+00 -0.00000000000E+00 -0.18250000000E+03  0.18250000000E+03  0.00000000000E+00 0. -1.
        -11    1    1    2    0    0  0.17309207146E+01  0.17756556278E+01  0.48095236196E+02  0.48159119429E+02  0.00000000000E+00 0. -1.
         11    1    1    2    0    0 -0.23142479526E+02  0.26568556784E+01 -0.16915969681E+03  0.17075607241E+03  0.00000000000E+00 0. -1.
        -15    1    1    2    0    0  0.22110825945E+02 -0.65738809140E+01 -0.17825424165E+01  0.23204303927E+02  0.17770000000E+01 0.  1.
         15    1    1    2    0    0 -0.69926713398E+00  0.21413696078E+01  0.12284700303E+03  0.12288050423E+03  0.17770000000E+01 0. -1.
</event>
<event>
 6    1  0.1697564E-002  0.1829593E+03  0.7546771E-02  0.1068090E+00
        -11   -1    0    0    0    0  0.00000000000E+00  0.00000000000E+00  0.18250000000E+03  0.18250000000E+03  0.00000000000E+00 0.  1.
         11   -1    0    0    0    0 -0.00000000000E+00 -0.00000000000E+00 -0.18250000000E+03  0.18250000000E+03  0.00000000000E+00 0.  1.
        -11    1    1    2    0    0  0.12348863498E+01  0.61939181582E+00  0.31515201646E+02  0.31545467588E+02  0.00000000000E+00 0.  1.
         11    1    1    2    0    0 -0.72249250906E+00 -0.54868661618E+01 -0.18195652464E+03  0.18204066731E+03  0.00000000000E+00 0.  1.
        -15    1    1    2    0    0  0.53358197597E+01  0.52852028510E+01  0.12527723385E+03  0.12551472978E+03  0.17770000000E+01 0.  1.
         15    1    1    2    0    0 -0.58482136004E+01 -0.41772850503E+00  0.25164089141E+02  0.25899135327E+02  0.17770000000E+01 0. -1.
</event>
<event>
 6    1  0.1697564E-002  0.1829231E+03  0.7546771E-02  0.1068118E+00
        -11   -1    0    0    0    0  0.00000000000E+00  0.00000000000E+00  0.18250000000E+03  0.18250000000E+03  0.00000000000E+00 0.  1.
         11   -1    0    0    0    0 -0.00000000000E+00 -0.00000000000E+00 -0.18250000000E+03  0.18250000000E+03  0.00000000000E+00 0. -1.
        -11    1    1    2    0    0  0.11942278797E+01 -0.23888139612E+01  0.18205728469E+03  0.18207687256E+03  0.00000000000E+00 0.  1.
         11    1    1    2    0    0 -0.14593441737E+00 -0.28861349997E+01 -0.77634337932E+02  0.77688103969E+02  0.00000000000E+00 0. -1.
        -15    1    1    2    0    0 -0.78136946222E+00 -0.12038084425E+00 -0.84341372646E+02  0.84363794951E+02  0.17770000000E+01 0. -1.
         15    1    1    2    0    0 -0.26692400007E+00  0.53953298052E+01 -0.20081574112E+02  0.20871228520E+02  0.17770000000E+01 0. -1.
</event>
<event>
 6    1  0.1697564E-002  0.1827388E+03  0.7546771E-02  0.1068265E+00
        -11   -1    0    0    0    0  0.00000000000E+00  0.00000000000E+00  0.18250000000E+03  0.18250000000E+03  0.00000000000E+00 0.  1.
         11   -1    0    0    0    0 -0.00000000000E+00 -0.00000000000E+00 -0.18250000000E+03  0.18250000000E+03  0.00000000000E+00 0.  1.
        -11    1    1    2    0    0 -0.16912453875E+01  0.25674953442E+00  0.10449609518E+03  0.10451009587E+03  0.00000000000E+00 0.  1.
         11    1    1    2    0    0 -0.23766003037E+01  0.27249596114E+01 -0.18222535029E+03  0.18226121892E+03  0.00000000000E+00 0.  1.
        -15    1    1    2    0    0  0.48285390159E+01 -0.93121356068E+00  0.63998864116E+02  0.64212103882E+02  0.17770000000E+01 0.  1.
         15    1    1    2    0    0 -0.76069332461E+00 -0.20504955851E+01  0.13730390991E+02  0.14016581332E+02  0.17770000000E+01 0. -1.
</event>
<event>
 6    1  0.1697564E-002  0.1953369E+03  0.7546771E-02  0.1058672E+00
        -11   -1    0    0    0    0  0.00000000000E+00  0.00000000000E+00  0.18250000000E+03  0.18250000000E+03  0.00000000000E+00 0.  1.
         11   -1    0    0    0    0 -0.00000000000E+00 -0.00000000000E+00 -0.18250000000E+03  0.18250000000E+03  0.00000000000E+00 0. -1.
        -11    1    1    2    0    0 -0.54309391667E+01  0.48191382243E+01  0.16950763344E+03  0.16966306902E+03  0.00000000000E+00 0.  1.
         11    1    1    2    0    0  0.39683940545E+01 -0.10404456577E+01 -0.16169070744E+03  0.16174274497E+03  0.00000000000E+00 0. -1.
        -15    1    1    2    0    0  0.59142193297E+01  0.50556033637E+01 -0.17750911190E+02  0.19462520205E+02  0.17770000000E+01 0. -1.
         15    1    1    2    0    0 -0.44516742175E+01 -0.88342959303E+01  0.99339851816E+01  0.14131665808E+02  0.17770000000E+01 0.  1.
</event>
<event>
 6    1  0.1697564E-002  0.1842030E+03  0.7546771E-02  0.1067107E+00
        -11   -1    0    0    0    0  0.00000000000E+00  0.00000000000E+00  0.18250000000E+03  0.18250000000E+03  0.00000000000E+00 0.  1.
         11   -1    0    0    0    0 -0.00000000000E+00 -0.00000000000E+00 -0.18250000000E+03  0.18250000000E+03  0.00000000000E+00 0. -1.
        -11    1    1    2    0    0  0.31091013044E+01 -0.40573855957E+00  0.18076978827E+03  0.18079697865E+03  0.00000000000E+00 0.  1.
         11    1    1    2    0    0 -0.10683641773E+01  0.24347919972E+01 -0.17644212744E+03  0.17646216011E+03  0.00000000000E+00 0. -1.
        -15    1    1    2    0    0  0.56923122734E+00 -0.20760981952E+01 -0.34991448081E+01  0.44761536272E+01  0.17770000000E+01 0.  1.
         15    1    1    2    0    0 -0.26099683545E+01  0.47044757527E-01 -0.82851602197E+00  0.32647076162E+01  0.17770000000E+01 0.  1.
</event>
<event>
 6    1  0.1697564E-002  0.1832763E+03  0.7546771E-02  0.1067839E+00
        -11   -1    0    0    0    0  0.00000000000E+00  0.00000000000E+00  0.18250000000E+03  0.18250000000E+03  0.00000000000E+00 0. -1.
         11   -1    0    0    0    0 -0.00000000000E+00 -0.00000000000E+00 -0.18250000000E+03  0.18250000000E+03  0.00000000000E+00 0. -1.
        -11    1    1    2    0    0  0.21606574162E+00 -0.55240579323E+01  0.14307708252E+03  0.14318384491E+03  0.00000000000E+00 0. -1.
         11    1    1    2    0    0 -0.39894077834E+01  0.82469301283E+01 -0.18149262466E+03  0.18172369146E+03  0.00000000000E+00 0. -1.
        -15    1    1    2    0    0  0.61704176551E+00 -0.61827206008E+01  0.22044703350E+02  0.22972449790E+02  0.17770000000E+01 0. -1.
         15    1    1    2    0    0  0.31563002762E+01  0.34598484049E+01  0.16370838786E+02  0.17120013843E+02  0.17770000000E+01 0.  1.
</event>
<event>
 6    1  0.1697564E-002  0.1840186E+03  0.7546771E-02  0.1067252E+00
        -11   -1    0    0    0    0  0.00000000000E+00  0.00000000000E+00  0.18250000000E+03  0.18250000000E+03  0.00000000000E+00 0. -1.
         11   -1    0    0    0    0 -0.00000000000E+00 -0.00000000000E+00 -0.18250000000E+03  0.18250000000E+03  0.00000000000E+00 0.  1.
        -11    1    1    2    0    0 -0.43370890670E+01 -0.19097380185E+02  0.17991867681E+03  0.18098135411E+03  0.00000000000E+00 0. -1.
         11    1    1    2    0    0  0.20663815308E+01  0.28439674992E-01 -0.71750504832E+02  0.71780259718E+02  0.00000000000E+00 0.  1.
        -15    1    1    2    0    0  0.14499718591E+01 -0.42166886582E+01 -0.75833101003E+01  0.89748093411E+01  0.17770000000E+01 0. -1.
         15    1    1    2    0    0  0.82073567713E+00  0.23285629168E+02 -0.10058486187E+03  0.10326357683E+03  0.17770000000E+01 0.  1.
</event>
<event>
 6    1  0.1697564E-002  0.1856014E+03  0.7546771E-02  0.1066013E+00
        -11   -1    0    0    0    0  0.00000000000E+00  0.00000000000E+00  0.18250000000E+03  0.18250000000E+03  0.00000000000E+00 0.  1.
         11   -1    0    0    0    0 -0.00000000000E+00 -0.00000000000E+00 -0.18250000000E+03  0.18250000000E+03  0.00000000000E+00 0. -1.
        -11    1    1    2    0    0 -0.47852433012E+01 -0.35111973092E+01  0.17391097499E+03  0.17401222452E+03  0.00000000000E+00 0.  1.
         11    1    1    2    0    0 -0.31795333135E+01  0.31739727624E+01 -0.17934232236E+03  0.17939858451E+03  0.00000000000E+00 0. -1.
        -15    1    1    2    0    0  0.15299062033E+01  0.21496575544E+01  0.26246274620E+01  0.41240803710E+01  0.17770000000E+01 0.  1.
         15    1    1    2    0    0  0.64348704114E+01 -0.18124330077E+01  0.28067199047E+01  0.74651105982E+01  0.17770000000E+01 0. -1.
</event>
<event>
 6    1  0.1697564E-002  0.1831772E+03  0.7546771E-02  0.1067917E+00
        -11   -1    0    0    0    0  0.00000000000E+00  0.00000000000E+00  0.18250000000E+03  0.18250000000E+03  0.00000000000E+00 0. -1.
         11   -1    0    0    0    0 -0.00000000000E+00 -0.00000000000E+00 -0.18250000000E+03  0.18250000000E+03  0.00000000000E+00 0.  1.
        -11    1    1    2    0    0 -0.25912381287E+01 -0.21603893266E+01  0.18179149479E+03  0.18182279663E+03  0.00000000000E+00 0. -1.
         11    1    1    2    0    0  0.71775755390E+00 -0.28299362910E+01 -0.16046392036E+03  0.16049047776E+03  0.00000000000E+00 0.  1.
        -15    1    1    2    0    0 -0.76719296326E+00  0.38714137356E+01 -0.10946086684E+02  0.11770767692E+02  0.17770000000E+01 0. -1.
         15    1    1    2    0    0  0.26406735380E+01  0.11189118820E+01 -0.10381487742E+02  0.10915957918E+02  0.17770000000E+01 0.  1.
</event>
<event>
 6    1  0.1697564E-002  0.1838506E+03  0.7546771E-02  0.1067385E+00
        -11   -1    0    0    0    0  0.00000000000E+00  0.00000000000E+00  0.18250000000E+03  0.18250000000E+03  0.00000000000E+00 0. -1.
         11   -1    0    0    0    0 -0.00000000000E+00 -0.00000000000E+00 -0.18250000000E+03  0.18250000000E+03  0.00000000000E+00 0. -1.
        -11    1    1    2    0    0  0.62813327120E+01  0.52956084552E+01  0.18096302175E+03  0.18114942410E+03  0.00000000000E+00 0. -1.
         11    1    1    2    0    0 -0.23032701966E+01 -0.70035753350E+00 -0.16857431816E+03  0.16859150719E+03  0.00000000000E+00 0. -1.
        -15    1    1    2    0    0  0.56461078145E+00  0.27625606719E+00 -0.38345184811E+01  0.42727466261E+01  0.17770000000E+01 0. -1.
         15    1    1    2    0    0 -0.45426732968E+01 -0.48715069889E+01 -0.85541851148E+01  0.10986322087E+02  0.17770000000E+01 0.  1.
</event>
<event>
 6    1  0.1697564E-002  0.1833903E+03  0.7546771E-02  0.1067748E+00
        -11   -1    0    0    0    0  0.00000000000E+00  0.00000000000E+00  0.18250000000E+03  0.18250000000E+03  0.00000000000E+00 0.  1.
         11   -1    0    0    0    0 -0.00000000000E+00 -0.00000000000E+00 -0.18250000000E+03  0.18250000000E+03  0.00000000000E+00 0. -1.
        -11    1    1    2    0    0 -0.48848744023E+00 -0.27861224986E+01  0.18158768935E+03  0.18160971896E+03  0.00000000000E+00 0.  1.
         11    1    1    2    0    0  0.19001016108E+01  0.18026242604E+01 -0.16868057450E+03  0.16870090709E+03  0.00000000000E+00 0. -1.
        -15    1    1    2    0    0  0.12618868814E+01  0.63432725688E+00 -0.12459489627E+01  0.25893720065E+01  0.17770000000E+01 0.  1.
         15    1    1    2    0    0 -0.26735010520E+01  0.34917098129E+00 -0.11661165882E+02  0.12100001941E+02  0.17770000000E+01 0. -1.
</event>
<event>
 6    1  0.1697564E-002  0.1838100E+03  0.7546771E-02  0.1067417E+00
        -11   -1    0    0    0    0  0.00000000000E+00  0.00000000000E+00  0.18250000000E+03  0.18250000000E+03  0.00000000000E+00 0. -1.
         11   -1    0    0    0    0 -0.00000000000E+00 -0.00000000000E+00 -0.18250000000E+03  0.18250000000E+03  0.00000000000E+00 0.  1.
        -11    1    1    2    0    0 -0.73005798224E+00 -0.23760623388E+01  0.17497116489E+03  0.17498882022E+03  0.00000000000E+00 0. -1.
         11    1    1    2    0    0 -0.27606775050E+01  0.21568117463E+01 -0.18115616769E+03  0.18119003910E+03  0.00000000000E+00 0.  1.
        -15    1    1    2    0    0  0.30526200576E+01  0.10709414619E+01  0.20556882716E+01  0.42248062797E+01  0.17770000000E+01 0. -1.
         15    1    1    2    0    0  0.43811542967E+00 -0.85169086947E+00  0.41293145270E+01  0.45963344014E+01  0.17770000000E+01 0. -1.
</event>
<event>
 6    1  0.1697564E-002  0.1828866E+03  0.7546771E-02  0.1068147E+00
        -11   -1    0    0    0    0  0.00000000000E+00  0.00000000000E+00  0.18250000000E+03  0.18250000000E+03  0.00000000000E+00 0.  1.
         11   -1    0    0    0    0 -0.00000000000E+00 -0.00000000000E+00 -0.18250000000E+03  0.18250000000E+03  0.00000000000E+00 0.  1.
        -11    1    1    2    0    0  0.49579654540E+01  0.33828550345E+01  0.18201444492E+03  0.18211338032E+03  0.00000000000E+00 0.  1.
         11    1    1    2    0    0  0.19505641902E+01  0.14158243372E+01 -0.10981959536E+03  0.10984604127E+03  0.00000000000E+00 0.  1.
        -15    1    1    2    0    0 -0.73850007363E+00  0.67236016323E-01 -0.48927153159E+01  0.52579744392E+01  0.17770000000E+01 0. -1.
         15    1    1    2    0    0 -0.61700295706E+01 -0.48659153881E+01 -0.67302134250E+02  0.67782603971E+02  0.17770000000E+01 0. -1.
</event>
<event>
 6    1  0.1697564E-002  0.1848515E+03  0.7546771E-02  0.1066598E+00
        -11   -1    0    0    0    0  0.00000000000E+00  0.00000000000E+00  0.18250000000E+03  0.18250000000E+03  0.00000000000E+00 0. -1.
         11   -1    0    0    0    0 -0.00000000000E+00 -0.00000000000E+00 -0.18250000000E+03  0.18250000000E+03  0.00000000000E+00 0.  1.
        -11    1    1    2    0    0  0.10856430051E+01 -0.14034737864E+01  0.11389509822E+03  0.11390891870E+03  0.00000000000E+00 0. -1.
         11    1    1    2    0    0  0.23829485603E+01  0.38692460532E+01 -0.18009119031E+03  0.18014851189E+03  0.00000000000E+00 0.  1.
        -15    1    1    2    0    0 -0.21834099226E+01  0.10363329603E+01  0.66711096484E+02  0.66778509926E+02  0.17770000000E+01 0. -1.
         15    1    1    2    0    0 -0.12851816428E+01 -0.35021052272E+01 -0.51500439612E+00  0.41640594863E+01  0.17770000000E+01 0. -1.
</event>
<event>
 6    1  0.1697564E-002  0.1833291E+03  0.7546771E-02  0.1067797E+00
        -11   -1    0    0    0    0  0.00000000000E+00  0.00000000000E+00  0.18250000000E+03  0.18250000000E+03  0.00000000000E+00 0. -1.
         11   -1    0    0    0    0 -0.00000000000E+00 -0.00000000000E+00 -0.18250000000E+03  0.18250000000E+03  0.00000000000E+00 0. -1.
        -11    1    1    2    0    0 -0.27227532320E+01  0.16315815980E+01  0.18164312701E+03  0.18167085906E+03  0.00000000000E+00 0. -1.
         11    1    1    2    0    0  0.82764696384E+00 -0.41836614931E+01 -0.16985117307E+03  0.16990470569E+03  0.00000000000E+00 0. -1.
        -15    1    1    2    0    0  0.26147474427E+01  0.24217779557E+01 -0.10126869845E+02  0.10881779933E+02  0.17770000000E+01 0. -1.
         15    1    1    2    0    0 -0.71964117455E+00  0.13030193933E+00 -0.16650840955E+01  0.25426553169E+01  0.17770000000E+01 0. -1.
</event>
<event>
 6    1  0.1697564E-002  0.2127075E+03  0.7546771E-02  0.1046667E+00
        -11   -1    0    0    0    0  0.00000000000E+00  0.00000000000E+00  0.18250000000E+03  0.18250000000E+03  0.00000000000E+00 0.  1.
         11   -1    0    0    0    0 -0.00000000000E+00 -0.00000000000E+00 -0.18250000000E+03  0.18250000000E+03  0.00000000000E+00 0.  1.
        -11    1    1    2    0    0 -0.12065574493E+01  0.35143694363E+01  0.14031341627E+03  0.14036260669E+03  0.00000000000E+00 0.  1.
         11    1    1    2    0    0  0.56840105608E+01 -0.63085562310E+01 -0.15205562825E+03  0.15229254722E+03  0.00000000000E+00 0.  1.
        -15    1    1    2    0    0 -0.14897445501E+02 -0.66149155450E+01  0.38626992895E+02  0.41962999168E+02  0.17770000000E+01 0.  1.
         15    1    1    2    0    0  0.10419992390E+02  0.94091023397E+01 -0.26884780912E+02  0.30381846914E+02  0.17770000000E+01 0. -1.
</event>
<event>
 6    1  0.1697564E-002  0.1830049E+03  0.7546771E-02  0.1068054E+00
        -11   -1    0    0    0    0  0.00000000000E+00  0.00000000000E+00  0.18250000000E+03  0.18250000000E+03  0.00000000000E+00 0.  1.
         11   -1    0    0    0    0 -0.00000000000E+00 -0.00000000000E+00 -0.18250000000E+03  0.18250000000E+03  0.00000000000E+00 0. -1.
        -11    1    1    2    0    0 -0.91067410939E+00  0.33473638086E+01  0.18196199161E+03  0.18199505642E+03  0.00000000000E+00 0.  1.
         11    1    1    2    0    0 -0.10708125675E+01 -0.39527787925E-01 -0.77987836476E+02  0.77995197546E+02  0.00000000000E+00 0. -1.
        -15    1    1    2    0    0  0.23899537889E+01 -0.71913527959E+01 -0.91258261309E+02  0.91589603232E+02  0.17770000000E+01 0. -1.
         15    1    1    2    0    0 -0.40846711204E+00  0.38835167752E+01 -0.12715893826E+02  0.13420142798E+02  0.17770000000E+01 0.  1.
</event>
<event>
 6    1  0.1697564E-002  0.1828207E+03  0.7546771E-02  0.1068200E+00
        -11   -1    0    0    0    0  0.00000000000E+00  0.00000000000E+00  0.18250000000E+03  0.18250000000E+03  0.00000000000E+00 0.  1.
         11   -1    0    0    0    0 -0.00000000000E+00 -0.00000000000E+00 -0.18250000000E+03  0.18250000000E+03  0.00000000000E+00 0.  1.
        -11    1    1    2    0    0 -0.33836207189E+01 -0.10916618428E+00  0.18214782071E+03  0.18217927817E+03  0.00000000000E+00 0.  1.
         11    1    1    2    0    0 -0.21659111871E+01  0.17918587935E+01 -0.68421405956E+02  0.68479126179E+02  0.00000000000E+00 0.  1.
        -15    1    1    2    0    0  0.33238958233E+01  0.33520933791E+01 -0.30488516496E+02  0.30902947766E+02  0.17770000000E+01 0. -1.
         15    1    1    2    0    0  0.22256360828E+01 -0.50347859884E+01 -0.83237898255E+02  0.83438647885E+02  0.17770000000E+01 0.  1.
</event>
<event>
 6    1  0.1697564E-002  0.1854122E+03  0.7546771E-02  0.1066160E+00
        -11   -1    0    0    0    0  0.00000000000E+00  0.00000000000E+00  0.18250000000E+03  0.18250000000E+03  0.00000000000E+00 0.  1.
         11   -1    0    0    0    0 -0.00000000000E+00 -0.00000000000E+00 -0.18250000000E+03  0.18250000000E+03  0.00000000000E+00 0. -1.
        -11    1    1    2    0    0 -0.12216489374E+01 -0.10317739122E+01  0.78749625996E+02  0.78765859216E+02  0.00000000000E+00 0.  1.
         11    1    1    2    0    0 -0.41744800938E+01 -0.23970469328E+01 -0.17952323885E+03  0.17958776519E+03  0.00000000000E+00 0. -1.
        -15    1    1    2    0    0  0.51003339727E+01  0.48129440504E+00 -0.37818823319E+00  0.54356054196E+01  0.17770000000E+01 0. -1.
         15    1    1    2    0    0  0.29579505842E+00  0.29475264400E+01  0.10115180109E+03  0.10121077017E+03  0.17770000000E+01 0.  1.
</event>
<event>
 6    1  0.1697564E-002  0.1827322E+03  0.7546771E-02  0.1068270E+00
        -11   -1    0    0    0    0  0.00000000000E+00  0.00000000000E+00  0.18250000000E+03  0.18250000000E+03  0.00000000000E+00 0. -1.
         11   -1    0    0    0    0 -0.00000000000E+00 -0.00000000000E+00 -0.18250000000E+03  0.18250000000E+03  0.00000000000E+00 0. -1.
        -11    1    1    2    0    0  0.40971537301E+00  0.29735323385E+01  0.18224307490E+03  0.18226779230E+03  0.00000000000E+00 0. -1.
         11    1    1    2    0    0  0.16459326174E+01  0.15722801290E+01 -0.89367059841E+02  0.89396043221E+02  0.00000000000E+00 0. -1.
        -15    1    1    2    0    0  0.32996447336E+00 -0.30956567108E+01 -0.16337367156E+02  0.16726005548E+02  0.17770000000E+01 0. -1.
         15    1    1    2    0    0 -0.23856124638E+01 -0.14501557567E+01 -0.76538647906E+02  0.76610158927E+02  0.17770000000E+01 0. -1.
</event>
<event>
 6    1  0.1697564E-002  0.1828097E+03  0.7546771E-02  0.1068209E+00
        -11   -1    0    0    0    0  0.00000000000E+00  0.00000000000E+00  0.18250000000E+03  0.18250000000E+03  0.00000000000E+00 0. -1.
         11   -1    0    0    0    0 -0.00000000000E+00 -0.00000000000E+00 -0.18250000000E+03  0.18250000000E+03  0.00000000000E+00 0.  1.
        -11    1    1    2    0    0  0.84680232290E+00  0.27142450754E+01  0.10330879073E+03  0.10334790972E+03  0.00000000000E+00 0. -1.
         11    1    1    2    0    0  0.16981962555E+01 -0.31132684283E+01 -0.18215574227E+03  0.18219025977E+03  0.00000000000E+00 0.  1.
        -15    1    1    2    0    0 -0.19725896719E+01  0.21499521437E+01  0.10002612214E+02  0.10569928304E+02  0.17770000000E+01 0. -1.
         15    1    1    2    0    0 -0.57240890648E+00 -0.17509287908E+01  0.68844339330E+02  0.68891902212E+02  0.17770000000E+01 0. -1.
</event>
<event>
 6    1  0.1697564E-002  0.1899940E+03  0.7546771E-02  0.1062641E+00
        -11   -1    0    0    0    0  0.00000000000E+00  0.00000000000E+00  0.18250000000E+03  0.18250000000E+03  0.00000000000E+00 0.  1.
         11   -1    0    0    0    0 -0.00000000000E+00 -0.00000000000E+00 -0.18250000000E+03  0.18250000000E+03  0.00000000000E+00 0. -1.
        -11    1    1    2    0    0  0.72789342508E+01  0.28200146109E+01  0.17483177708E+03  0.17500595888E+03  0.00000000000E+00 0.  1.
         11    1    1    2    0    0  0.31822685956E+01 -0.55372936290E+00 -0.15796419398E+03  0.15799721526E+03  0.00000000000E+00 0. -1.
        -15    1    1    2    0    0 -0.60190717910E+01 -0.59214834072E+00 -0.23110751955E+02  0.23955050611E+02  0.17770000000E+01 0.  1.
         15    1    1    2    0    0 -0.44421310553E+01 -0.16741369073E+01  0.62431688550E+01  0.80417752424E+01  0.17770000000E+01 0. -1.
</event>
<event>
 6    1  0.1697564E-002  0.1839591E+03  0.7546771E-02  0.1067299E+00
        -11   -1    0    0    0    0  0.00000000000E+00  0.00000000000E+00  0.18250000000E+03  0.18250000000E+03  0.00000000000E+00 0.  1.
         11   -1    0    0    0    0 -0.00000000000E+00 -0.00000000000E+00 -0.18250000000E+03  0.18250000000E+03  0.00000000000E+00 0. -1.
        -11    1    1    2    0    0 -0.27846767677E+01 -0.26826898520E+01  0.14494877272E+03  0.14500033780E+03  0.00000000000E+00 0.  1.
         11    1    1    2    0    0  0.44620191935E+01 -0.10397345861E+01 -0.18098294135E+03  0.18104092279E+03  0.00000000000E+00 0. -1.
        -15    1    1    2    0    0 -0.11982662142E+01  0.62093269555E+01  0.64256933167E+01  0.91890612557E+01  0.17770000000E+01 0.  1.
         15    1    1    2    0    0 -0.47907621151E+00 -0.24869025174E+01  0.29608475314E+02  0.29769678157E+02  0.17770000000E+01 0. -1.
</event>
<event>
 6    1  0.1697564E-002  0.1826947E+03  0.7546771E-02  0.1068300E+00
        -11   -1    0    0    0    0  0.00000000000E+00  0.00000000000E+00  0.18250000000E+03  0.18250000000E+03  0.00000000000E+00 0.  1.
         11   -1    0    0    0    0 -0.00000000000E+00 -0.00000000000E+00 -0.18250000000E+03  0.18250000000E+03  0.00000000000E+00 0. -1.
        -11    1    1    2    0    0 -0.92864513679E+00  0.48392346122E+01  0.18223865149E+03  0.18230525684E+03  0.00000000000E+00 0.  1.
         11    1    1    2    0    0  0.12756897298E+01  0.14458012584E+01 -0.11174738857E+03  0.11176402184E+03  0.00000000000E+00 0. -1.
        -15    1    1    2    0    0 -0.32560841974E+00 -0.54436037596E+01 -0.58357337241E+02  0.58638514490E+02  0.17770000000E+01 0. -1.
         15    1    1    2    0    0 -0.21436173296E-01 -0.84143211096E+00 -0.12133925674E+02  0.12292206830E+02  0.17770000000E+01 0.  1.
</event>
<event>
 6    1  0.1697564E-002  0.1829462E+03  0.7546771E-02  0.1068100E+00
        -11   -1    0    0    0    0  0.00000000000E+00  0.00000000000E+00  0.18250000000E+03  0.18250000000E+03  0.00000000000E+00 0.  1.
         11   -1    0    0    0    0 -0.00000000000E+00 -0.00000000000E+00 -0.18250000000E+03  0.18250000000E+03  0.00000000000E+00 0. -1.
        -11    1    1    2    0    0 -0.32003553765E+01 -0.89931015107E+00  0.94096910183E+02  0.94155613425E+02  0.00000000000E+00 0.  1.
         11    1    1    2    0    0  0.20183272004E+01  0.38486676585E+01 -0.18200193379E+03  0.18205381015E+03  0.00000000000E+00 0. -1.
        -15    1    1    2    0    0  0.42028439121E+00  0.26592450011E+01  0.66513107123E+02  0.66591286000E+02  0.17770000000E+01 0.  1.
         15    1    1    2    0    0  0.76174378496E+00 -0.56086025085E+01  0.21391916481E+02  0.22199290426E+02  0.17770000000E+01 0. -1.
</event>
<event>
 6    1  0.1697564E-002  0.1837357E+03  0.7546771E-02  0.1067475E+00
        -11   -1    0    0    0    0  0.00000000000E+00  0.00000000000E+00  0.18250000000E+03  0.18250000000E+03  0.00000000000E+00 0. -1.
         11   -1    0    0    0    0 -0.00000000000E+00 -0.00000000000E+00 -0.18250000000E+03  0.18250000000E+03  0.00000000000E+00 0. -1.
        -11    1    1    2    0    0 -0.25054468907E+01 -0.24232443497E+00  0.18124679327E+03  0.18126427132E+03  0.00000000000E+00 0. -1.
         11    1    1    2    0    0 -0.21204892401E+01  0.19002072075E+01 -0.16856555800E+03  0.16858960408E+03  0.00000000000E+00 0. -1.
        -15    1    1    2    0    0  0.78925370494E+00  0.53201113166E+00 -0.87265909261E+01  0.89563985757E+01  0.17770000000E+01 0. -1.
         15    1    1    2    0    0  0.38366824258E+01 -0.21898939042E+01 -0.39546443460E+01  0.61897260240E+01  0.17770000000E+01 0.  1.
</event>
<event>
 6    1  0.1697564E-002  0.1785974E+03  0.7546771E-02  0.1071604E+00
        -11   -1    0    0    0    0  0.00000000000E+00  0.00000000000E+00  0.18250000000E+03  0.18250000000E+03  0.00000000000E+00 0.  1.
         11   -1    0    0    0    0 -0.00000000000E+00 -0.00000000000E+00 -0.18250000000E+03  0.18250000000E+03  0.00000000000E+00 0.  1.
        -11    1    1    2    0    0  0.23157648887E+01 -0.26419855742E+01  0.17907665279E+03  0.17911111197E+03  0.00000000000E+00 0.  1.
         11    1    1    2    0    0  0.87544386618E+00 -0.29514511434E+01 -0.17811634276E+03  0.17814294548E+03  0.00000000000E+00 0.  1.
        -15    1    1    2    0    0 -0.18892681631E+01  0.16753541800E+01  0.22955626706E+00  0.30962188069E+01  0.17770000000E+01 0.  1.
         15    1    1    2    0    0 -0.13019405918E+01  0.39180825376E+01 -0.11898662976E+01  0.46497237426E+01  0.17770000000E+01 0. -1.
</event>
<event>
 6    1  0.1697564E-002  0.1840769E+03  0.7546771E-02  0.1067206E+00
        -11   -1    0    0    0    0  0.00000000000E+00  0.00000000000E+00  0.18250000000E+03  0.18250000000E+03  0.00000000000E+00 0.  1.
         11   -1    0    0    0    0 -0.00000000000E+00 -0.00000000000E+00 -0.18250000000E+03  0.18250000000E+03  0.00000000000E+00 0. -1.
        -11    1    1    2    0    0  0.53364691904E+01 -0.39169735397E+00  0.18084394343E+03  0.18092308644E+03  0.00000000000E+00 0.  1.
         11    1    1    2    0    0 -0.73463734687E+00  0.31635519127E+01 -0.17412251692E+03  0.17415280260E+03  0.00000000000E+00 0. -1.
        -15    1    1    2    0    0 -0.30397723101E+01 -0.91099888242E+00 -0.15779007074E+01  0.39645471751E+01  0.17770000000E+01 0.  1.
         15    1    1    2    0    0 -0.15620595334E+01 -0.18608556763E+01 -0.51435258057E+01  0.59595637884E+01  0.17770000000E+01 0. -1.
</event>
<event>
 6    1  0.1697564E-002  0.1830663E+03  0.7546771E-02  0.1068005E+00
        -11   -1    0    0    0    0  0.00000000000E+00  0.00000000000E+00  0.18250000000E+03  0.18250000000E+03  0.00000000000E+00 0. -1.
         11   -1    0    0    0    0 -0.00000000000E+00 -0.00000000000E+00 -0.18250000000E+03  0.18250000000E+03  0.00000000000E+00 0.  1.
        -11    1    1    2    0    0  0.40138492204E+01  0.19775408724E+01  0.13231069764E+03  0.13238633753E+03  0.00000000000E+00 0. -1.
         11    1    1    2    0    0  0.24617566148E+01 -0.75894492850E+00 -0.18191543487E+03  0.18193367386E+03  0.00000000000E+00 0.  1.
        -15    1    1    2    0    0 -0.61692135012E+01 -0.25281600006E+00  0.20044455621E+02  0.21049015209E+02  0.17770000000E+01 0.  1.
         15    1    1    2    0    0 -0.30639233398E+00 -0.96577994384E+00  0.29560281603E+02  0.29630973400E+02  0.17770000000E+01 0. -1.
</event>
<event>
 6    1  0.1697564E-002  0.1700359E+03  0.7546771E-02  0.1078833E+00
        -11   -1    0    0    0    0  0.00000000000E+00  0.00000000000E+00  0.18250000000E+03  0.18250000000E+03  0.00000000000E+00 0. -1.
         11   -1    0    0    0    0 -0.00000000000E+00 -0.00000000000E+00 -0.18250000000E+03  0.18250000000E+03  0.00000000000E+00 0.  1.
        -11    1    1    2    0    0 -0.30692653236E+01 -0.50234021892E+00  0.16859128270E+03  0.16861996720E+03  0.00000000000E+00 0. -1.
         11    1    1    2    0    0 -0.20711989271E+01 -0.40965648497E+01 -0.17147251719E+03  0.17153394958E+03  0.00000000000E+00 0.  1.
        -15    1    1    2    0    0  0.42235391898E+01  0.71437839186E+01 -0.90952546745E+01  0.12439988688E+02  0.17770000000E+01 0.  1.
         15    1    1    2    0    0  0.91692506092E+00 -0.25448788500E+01  0.11976489157E+02  0.12406094529E+02  0.17770000000E+01 0. -1.
</event>
<event>
 6    1  0.1697564E-002  0.1926621E+03  0.7546771E-02  0.1060642E+00
        -11   -1    0    0    0    0  0.00000000000E+00  0.00000000000E+00  0.18250000000E+03  0.18250000000E+03  0.00000000000E+00 0. -1.
         11   -1    0    0    0    0 -0.00000000000E+00 -0.00000000000E+00 -0.18250000000E+03  0.18250000000E+03  0.00000000000E+00 0. -1.
        -11    1    1    2    0    0  0.44788320949E+01 -0.16032247047E+02  0.17153204644E+03  0.17233785376E+03  0.00000000000E+00 0. -1.
         11    1    1    2    0    0  0.24144438275E+01 -0.62273377444E+01 -0.15508488212E+03  0.15522863762E+03  0.00000000000E+00 0. -1.
        -15    1    1    2    0    0 -0.93783421770E+01 -0.45807630005E-01 -0.10411443294E+02  0.14124846222E+02  0.17770000000E+01 0.  1.
         15    1    1    2    0    0  0.24850662546E+01  0.22305392421E+02 -0.60357210246E+01  0.23308662395E+02  0.17770000000E+01 0. -1.
</event>
<event>
 6    1  0.1697564E-002  0.1825668E+03  0.7546771E-02  0.1068402E+00
        -11   -1    0    0    0    0  0.00000000000E+00  0.00000000000E+00  0.18250000000E+03  0.18250000000E+03  0.00000000000E+00 0. -1.
         11   -1    0    0    0    0 -0.00000000000E+00 -0.00000000000E+00 -0.18250000000E+03  0.18250000000E+03  0.00000000000E+00 0.  1.
        -11    1    1    2    0    0 -0.22202155429E+01 -0.32034641449E+01  0.77246080957E+02  0.77344350556E+02  0.00000000000E+00 0. -1.
         11    1    1    2    0    0  0.87013061820E+00  0.51530047264E+01 -0.18235835733E+03  0.18243322360E+03  0.00000000000E+00 0.  1.
        -15    1    1    2    0    0  0.35024481209E+00 -0.43914445359E+00  0.66921810322E+02  0.66947755340E+02  0.17770000000E+01 0. -1.
         15    1    1    2    0    0  0.99984011262E+00 -0.15103961280E+01  0.38190466046E+02  0.38274670509E+02  0.17770000000E+01 0.  1.
</event>
<event>
 6    1  0.2944197E-002  0.1842822E+03  0.7546771E-02  0.1067045E+00
        -11   -1    0    0    0    0  0.00000000000E+00  0.00000000000E+00  0.18250000000E+03  0.18250000000E+03  0.00000000000E+00 0.  1.
         11   -1    0    0    0    0 -0.00000000000E+00 -0.00000000000E+00 -0.18250000000E+03  0.18250000000E+03  0.00000000000E+00 0.  1.
        -11    1    1    2    0    0  0.94683078817E-01 -0.24416693619E+01  0.18070128146E+03  0.18071780165E+03  0.00000000000E+00 0.  1.
         11    1    1    2    0    0  0.23616970825E+01 -0.10644166557E+00 -0.16093490924E+03  0.16095227229E+03  0.00000000000E+00 0.  1.
        -15    1    1    2    0    0 -0.18852949866E+01 -0.25757923166E+00 -0.19789486917E+02  0.19960015172E+02  0.17770000000E+01 0. -1.
         15    1    1    2    0    0 -0.57108517466E+00  0.28056902591E+01  0.23114699651E-01  0.33699108885E+01  0.17770000000E+01 0. -1.
</event>
<event>
 6    1  0.1697564E-002  0.1839796E+03  0.7546771E-02  0.1067283E+00
        -11   -1    0    0    0    0  0.00000000000E+00  0.00000000000E+00  0.18250000000E+03  0.18250000000E+03  0.00000000000E+00 0. -1.
         11   -1    0    0    0    0 -0.00000000000E+00 -0.00000000000E+00 -0.18250000000E+03  0.18250000000E+03  0.00000000000E+00 0.  1.
        -11    1    1    2    0    0 -0.42135091511E+01  0.40521119413E+00  0.18097091307E+03  0.18102041110E+03  0.00000000000E+00 0. -1.
         11    1    1    2    0    0  0.42697275276E+01 -0.10061871122E+01 -0.16509260732E+03  0.16515087641E+03  0.00000000000E+00 0.  1.
        -15    1    1    2    0    0  0.21227923056E+01 -0.14541014350E+01 -0.63274337848E+00  0.31904155434E+01  0.17770000000E+01 0.  1.
         15    1    1    2    0    0 -0.21790106821E+01  0.20550773531E+01 -0.15245562371E+02  0.15638296950E+02  0.17770000000E+01 0. -1.
</event>
<event>
 6    1  0.1697564E-002  0.1832603E+03  0.7546771E-02  0.1067851E+00
        -11   -1    0    0    0    0  0.00000000000E+00  0.00000000000E+00  0.18250000000E+03  0.18250000000E+03  0.00000000000E+00 0. -1.
         11   -1    0    0    0    0 -0.00000000000E+00 -0.00000000000E+00 -0.18250000000E+03  0.18250000000E+03  0.00000000000E+00 0. -1.
        -11    1    1    2    0    0 -0.35982311794E+01  0.20714544061E+01  0.18169229018E+03  0.18173972186E+03  0.00000000000E+00 0. -1.
         11    1    1    2    0    0  0.10547386048E+01 -0.14244517701E+01 -0.91421195632E+02  0.91438375681E+02  0.00000000000E+00 0. -1.
        -15    1    1    2    0    0  0.30854298807E+01  0.40222932016E+00 -0.34484561878E+01  0.49730518853E+01  0.17770000000E+01 0. -1.
         15    1    1    2    0    0 -0.54193730610E+00 -0.10492319562E+01 -0.86822638364E+02  0.86848850570E+02  0.17770000000E+01 0.  1.
</event>
<event>
 6    1  0.1697564E-002  0.1871250E+03  0.7546771E-02  0.1064832E+00
        -11   -1    0    0    0    0  0.00000000000E+00  0.00000000000E+00  0.18250000000E+03  0.18250000000E+03  0.00000000000E+00 0. -1.
         11   -1    0    0    0    0 -0.00000000000E+00 -0.00000000000E+00 -0.18250000000E+03  0.18250000000E+03  0.00000000000E+00 0.  1.
        -11    1    1    2    0    0 -0.77631785615E+01  0.89483279886E+01  0.17748004491E+03  0.17787497254E+03  0.00000000000E+00 0. -1.
         11    1    1    2    0    0  0.44392782001E+01  0.85814897794E+01 -0.14633353384E+03  0.14665214722E+03  0.00000000000E+00 0.  1.
        -15    1    1    2    0    0  0.83521057424E+01 -0.17144232266E+02 -0.18013298313E+02  0.26292946115E+02  0.17770000000E+01 0.  1.
         15    1    1    2    0    0 -0.50282053810E+01 -0.38558550247E+00 -0.13133212752E+02  0.14179934123E+02  0.17770000000E+01 0. -1.
</event>
<event>
 6    1  0.1697564E-002  0.1834893E+03  0.7546771E-02  0.1067670E+00
        -11   -1    0    0    0    0  0.00000000000E+00  0.00000000000E+00  0.18250000000E+03  0.18250000000E+03  0.00000000000E+00 0. -1.
         11   -1    0    0    0    0 -0.00000000000E+00 -0.00000000000E+00 -0.18250000000E+03  0.18250000000E+03  0.00000000000E+00 0.  1.
        -11    1    1    2    0    0 -0.56066122210E+00  0.20490651362E+01  0.13895014735E+03  0.13896638607E+03  0.00000000000E+00 0. -1.
         11    1    1    2    0    0 -0.16404310879E+01  0.29144555974E+01 -0.18147985006E+03  0.18151066372E+03  0.00000000000E+00 0.  1.
        -15    1    1    2    0    0  0.11046261368E+01 -0.80835854535E+01  0.19851884785E+02  0.21536471652E+02  0.17770000000E+01 0.  1.
         15    1    1    2    0    0  0.10964661732E+01  0.31200647200E+01  0.22677817926E+02  0.22986478564E+02  0.17770000000E+01 0. -1.
</event>
<event>
 6    1  0.1697564E-002  0.1858017E+03  0.7546771E-02  0.1065857E+00
        -11   -1    0    0    0    0  0.00000000000E+00  0.00000000000E+00  0.18250000000E+03  0.18250000000E+03  0.00000000000E+00 0. -1.
         11   -1    0    0    0    0 -0.00000000000E+00 -0.00000000000E+00 -0.18250000000E+03  0.18250000000E+03  0.00000000000E+00 0. -1.
        -11    1    1    2    0    0  0.21141231392E+02 -0.16980453665E+01  0.17793878484E+03  0.17919834311E+03  0.00000000000E+00 0. -1.
         11    1    1    2    0    0  0.78122093650E+00  0.13237057174E+01 -0.60177694131E+02  0.60197320322E+02  0.00000000000E+00 0. -1.
        -15    1    1    2    0    0  0.17536517012E+01  0.46717550234E-01 -0.85553542119E+02  0.85589974734E+02  0.17770000000E+01 0. -1.
         15    1    1    2    0    0 -0.23676104030E+02  0.32762209886E+00 -0.32207548587E+02  0.40014361837E+02  0.17770000000E+01 0. -1.
</event>
<event>
 6    1  0.1697564E-002  0.1839904E+03  0.7546771E-02  0.1067275E+00
        -11   -1    0    0    0    0  0.00000000000E+00  0.00000000000E+00  0.18250000000E+03  0.18250000000E+03  0.00000000000E+00 0.  1.
         11   -1    0    0    0    0 -0.00000000000E+00 -0.00000000000E+00 -0.18250000000E+03  0.18250000000E+03  0.00000000000E+00 0.  1.
        -11    1    1    2    0    0 -0.90387313066E-01  0.24607237512E+01  0.18099282632E+03  0.18100957574E+03  0.00000000000E+00 0.  1.
         11    1    1    2    0    0  0.26082916805E+01  0.10389735447E+01 -0.17268720655E+03  0.17271002854E+03  0.00000000000E+00 0.  1.
        -15    1    1    2    0    0  0.68573116228E+00 -0.50589474314E+00 -0.31727434053E+00  0.19961334437E+01  0.17770000000E+01 0.  1.
         15    1    1    2    0    0 -0.32036355298E+01 -0.29938025528E+01 -0.79883454298E+01  0.92842622776E+01  0.17770000000E+01 0. -1.
</event>
<event>
 6    1  0.1697564E-002  0.1878055E+03  0.7546771E-02  0.1064308E+00
        -11   -1    0    0    0    0  0.00000000000E+00  0.00000000000E+00  0.18250000000E+03  0.18250000000E+03  0.00000000000E+00 0.  1.
         11   -1    0    0    0    0 -0.00000000000E+00 -0.00000000000E+00 -0.18250000000E+03  0.18250000000E+03  0.00000000000E+00 0. -1.
        -11    1    1    2    0    0 -0.39323607186E+01  0.45986103909E+00  0.17715021742E+03  0.17719445382E+03  0.00000000000E+00 0.  1.
         11    1    1    2    0    0  0.24266994669E+01  0.20288612081E+01 -0.15094452220E+03  0.15097766037E+03  0.00000000000E+00 0. -1.
        -15    1    1    2    0    0  0.27408267671E+01 -0.13399081615E+01  0.46704005118E+01  0.58547293011E+01  0.17770000000E+01 0. -1.
         15    1    1    2    0    0 -0.12351655155E+01 -0.11488140857E+01 -0.30876095733E+02  0.30973156512E+02  0.17770000000E+01 0.  1.
</event>
<event>
 6    1  0.1697564E-002  0.1839931E+03  0.7546771E-02  0.1067272E+00
        -11   -1    0    0    0    0  0.00000000000E+00  0.00000000000E+00  0.18250000000E+03  0.18250000000E+03  0.00000000000E+00 0.  1.
         11   -1    0    0    0    0 -0.00000000000E+00 -0.00000000000E+00 -0.18250000000E+03  0.18250000000E+03  0.00000000000E+00 0.  1.
        -11    1    1    2    0    0  0.20779661572E+01  0.67815810446E+01  0.18086786379E+03  0.18100688367E+03  0.00000000000E+00 0.  1.
         11    1    1    2    0    0  0.39216470590E+01 -0.15891518623E+01 -0.15821317975E+03  0.15826975379E+03  0.00000000000E+00 0.  1.
        -15    1    1    2    0    0 -0.57457163102E+01 -0.62419883370E+01 -0.21827342034E+02  0.23485447911E+02  0.17770000000E+01 0. -1.
         15    1    1    2    0    0 -0.25389690597E+00  0.10495591547E+01 -0.82734200690E+00  0.22379146218E+01  0.17770000000E+01 0. -1.
</event>
<event>
 6    1  0.1697564E-002  0.1831230E+03  0.7546771E-02  0.1067960E+00
        -11   -1    0    0    0    0  0.00000000000E+00  0.00000000000E+00  0.18250000000E+03  0.18250000000E+03  0.00000000000E+00 0. -1.
         11   -1    0    0    0    0 -0.00000000000E+00 -0.00000000000E+00 -0.18250000000E+03  0.18250000000E+03  0.00000000000E+00 0.  1.
        -11    1    1    2    0    0  0.20462261782E+01  0.21677984750E+01  0.18185258512E+03  0.18187701643E+03  0.00000000000E+00 0. -1.
         11    1    1    2    0    0 -0.15053553355E+01  0.12728477859E+01 -0.13046446921E+03  0.13047936221E+03  0.00000000000E+00 0.  1.
        -15    1    1    2    0    0  0.43963189025E+01 -0.29872734927E+01 -0.18299564269E+02  0.19138526700E+02  0.17770000000E+01 0. -1.
         15    1    1    2    0    0 -0.49371897452E+01 -0.45337276810E+00 -0.33088551644E+02  0.33505094662E+02  0.17770000000E+01 0.  1.
</event>
<event>
 6    1  0.1697564E-002  0.1881289E+03  0.7546771E-02  0.1064060E+00
        -11   -1    0    0    0    0  0.00000000000E+00  0.00000000000E+00  0.18250000000E+03  0.18250000000E+03  0.00000000000E+00 0. -1.
         11   -1    0    0    0    0 -0.00000000000E+00 -0.00000000000E+00 -0.18250000000E+03  0.18250000000E+03  0.00000000000E+00 0.  1.
        -11    1    1    2    0    0  0.30567899362E+01  0.81928064745E+00  0.13659973434E+03  0.13663638830E+03  0.00000000000E+00 0. -1.
         11    1    1    2    0    0 -0.27187478946E+01  0.16456234269E+01 -0.17684249844E+03  0.17687105168E+03  0.00000000000E+00 0.  1.
        -15    1    1    2    0    0 -0.54707514527E+00  0.36319157044E+00 -0.54023727523E+01  0.57249069588E+01  0.17770000000E+01 0. -1.
         15    1    1    2    0    0  0.20903310368E+00 -0.28280956448E+01  0.45645136848E+02  0.45767653061E+02  0.17770000000E+01 0.  1.
</event>
<event>
 6    1  0.1697564E-002  0.1825368E+03  0.7546771E-02  0.1068425E+00
        -11   -1    0    0    0    0  0.00000000000E+00  0.00000000000E+00  0.18250000000E+03  0.18250000000E+03  0.00000000000E+00 0. -1.
         11   -1    0    0    0    0 -0.00000000000E+00 -0.00000000000E+00 -0.18250000000E+03  0.18250000000E+03  0.00000000000E+00 0. -1.
        -11    1    1    2    0    0  0.55621588642E+00  0.33014964813E+00  0.15285155737E+02  0.15298835276E+02  0.00000000000E+00 0. -1.
         11    1    1    2    0    0 -0.19715364148E+00  0.29495529774E+01 -0.18243921863E+03  0.18246316677E+03  0.00000000000E+00 0. -1.
        -15    1    1    2    0    0  0.30623990629E+00 -0.76396307890E+00  0.86964901881E+02  0.86986949082E+02  0.17770000000E+01 0. -1.
         15    1    1    2    0    0 -0.66530215123E+00 -0.25157395467E+01  0.80189161013E+02  0.80251048874E+02  0.17770000000E+01 0.  1.
</event>
<event>
 6    1  0.1697564E-002  0.1826209E+03  0.7546771E-02  0.1068359E+00
        -11   -1    0    0    0    0  0.00000000000E+00  0.00000000000E+00  0.18250000000E+03  0.18250000000E+03  0.00000000000E+00 0. -1.
         11   -1    0    0    0    0 -0.00000000000E+00 -0.00000000000E+00 -0.18250000000E+03  0.18250000000E+03  0.00000000000E+00 0.  1.
        -11    1    1    2    0    0  0.17193388572E+01 -0.26850786145E+01  0.18235120801E+03  0.18237908004E+03  0.00000000000E+00 0. -1.
         11    1    1    2    0    0  0.57297770035E+00  0.13058063064E+01 -0.63752839035E+02  0.63768784829E+02  0.00000000000E+00 0.  1.
        -15    1    1    2    0    0 -0.33244083065E+01  0.10382100799E+01 -0.33364380014E+02  0.33592694942E+02  0.17770000000E+01 0. -1.
         15    1    1    2    0    0  0.10320917490E+01  0.34106222813E+00 -0.85233988965E+02  0.85259440185E+02  0.17770000000E+01 0.  1.
</event>
<event>
 6    1  0.1697564E-002  0.1998318E+03  0.7546771E-02  0.1055439E+00
        -11   -1    0    0    0    0  0.00000000000E+00  0.00000000000E+00  0.18250000000E+03  0.18250000000E+03  0.00000000000E+00 0. -1.
         11   -1    0    0    0    0 -0.00000000000E+00 -0.00000000000E+00 -0.18250000000E+03  0.18250000000E+03  0.00000000000E+00 0. -1.
        -11    1    1    2    0    0  0.77910572851E+00 -0.10819422436E+02  0.13783820308E+03  0.13826437407E+03  0.00000000000E+00 0. -1.
         11    1    1    2    0    0  0.24226158618E+00  0.40759225629E+01 -0.16511776199E+03  0.16516823895E+03  0.00000000000E+00 0. -1.
        -15    1    1    2    0    0 -0.74480439046E+01  0.10862013529E+02  0.42455689544E+02  0.44487076771E+02  0.17770000000E+01 0.  1.
         15    1    1    2    0    0  0.64266765899E+01 -0.41185136556E+01 -0.15176130640E+02  0.17080310211E+02  0.17770000000E+01 0. -1.
</event>
<event>
 6    1  0.1697564E-002  0.1901598E+03  0.7546771E-02  0.1062516E+00
        -11   -1    0    0    0    0  0.00000000000E+00  0.00000000000E+00  0.18250000000E+03  0.18250000000E+03  0.00000000000E+00 0. -1.
         11   -1    0    0    0    0 -0.00000000000E+00 -0.00000000000E+00 -0.18250000000E+03  0.18250000000E+03  0.00000000000E+00 0. -1.
        -11    1    1    2    0    0  0.28443065945E+01  0.24360474572E+00  0.17262534909E+03  0.17264895185E+03  0.00000000000E+00 0. -1.
         11    1    1    2    0    0 -0.18642145056E+01 -0.26478078663E+01 -0.17481019767E+03  0.17484018814E+03  0.00000000000E+00 0. -1.
        -15    1    1    2    0    0 -0.45650175948E+01  0.72806872846E+01 -0.30742586866E+01  0.92982035065E+01  0.17770000000E+01 0. -1.
         15    1    1    2    0    0  0.35849255059E+01 -0.48764841640E+01  0.52591072589E+01  0.82126565036E+01  0.17770000000E+01 0.  1.
</event>
<event>
 6    1  0.1697564E-002  0.1879420E+03  0.7546771E-02  0.1064204E+00
        -11   -1    0    0    0    0  0.00000000000E+00  0.00000000000E+00  0.18250000000E+03  0.18250000000E+03  0.00000000000E+00 0. -1.
         11   -1    0    0    0    0 -0.00000000000E+00 -0.00000000000E+00 -0.18250000000E+03  0.18250000000E+03  0.00000000000E+00 0. -1.
        -11    1    1    2    0    0  0.10207266066E+01 -0.22699206868E+01  0.17099323858E+03  0.17101135068E+03  0.00000000000E+00 0. -1.
         11    1    1    2    0    0  0.36785367565E+01 -0.29058430844E+00 -0.17701949988E+03  0.17705795495E+03  0.00000000000E+00 0. -1.
        -15    1    1    2    0    0  0.13530935677E+01  0.71259363239E+01  0.70816818493E+00  0.75012706840E+01  0.17770000000E+01 0. -1.
         15    1    1    2    0    0 -0.60523569308E+01 -0.45654313287E+01  0.53180931160E+01  0.94294236847E+01  0.17770000000E+01 0.  1.
</event>
<event>
 6    1  0.1697564E-002  0.1834233E+03  0.7546771E-02  0.1067722E+00
        -11   -1    0    0    0    0  0.00000000000E+00  0.00000000000E+00  0.18250000000E+03  0.18250000000E+03  0.00000000000E+00 0.  1.
         11   -1    0    0    0    0 -0.00000000000E+00 -0.00000000000E+00 -0.18250000000E+03  0.18250000000E+03  0.00000000000E+00 0.  1.
        -11    1    1    2    0    0  0.78499227350E+01 -0.15859050641E+01  0.18140000357E+03  0.18157669915E+03  0.00000000000E+00 0.  1.
         11    1    1    2    0    0  0.46299342914E+00 -0.38542879572E+01 -0.13580620780E+03  0.13586167957E+03  0.00000000000E+00 0.  1.
        -15    1    1    2    0    0 -0.67986210676E+01  0.64781157219E+01 -0.24250058146E+02  0.26065499819E+02  0.17770000000E+01 0. -1.
         15    1    1    2    0    0 -0.15142950965E+01 -0.10379227006E+01 -0.21343737617E+02  0.21496121456E+02  0.17770000000E+01 0. -1.
</event>
<event>
 6    1  0.1697564E-002  0.2027058E+03  0.7546771E-02  0.1053420E+00
        -11   -1    0    0    0    0  0.00000000000E+00  0.00000000000E+00  0.18250000000E+03  0.18250000000E+03  0.00000000000E+00 0.  1.
         11   -1    0    0    0    0 -0.00000000000E+00 -0.00000000000E+00 -0.18250000000E+03  0.18250000000E+03  0.00000000000E+00 0.  1.
        -11    1    1    2    0    0  0.37404261133E+00 -0.20123927273E+01  0.71864048181E+02  0.71893191982E+02  0.00000000000E+00 0.  1.
         11    1    1    2    0    0  0.42668017157E+01  0.17004257563E+01 -0.16222914328E+03  0.16229415262E+03  0.00000000000E+00 0.  1.
        -15    1    1    2    0    0  0.30871876589E+01 -0.41389133784E+02  0.74873373380E+02  0.85625760688E+02  0.17770000000E+01 0.  1.
         15    1    1    2    0    0 -0.77280319859E+01  0.41701100754E+02  0.15491721722E+02  0.45186894709E+02  0.17770000000E+01 0. -1.
</event>
<event>
 6    1  0.1697564E-002  0.1836545E+03  0.7546771E-02  0.1067540E+00
        -11   -1    0    0    0    0  0.00000000000E+00  0.00000000000E+00  0.18250000000E+03  0.18250000000E+03  0.00000000000E+00 0.  1.
         11   -1    0    0    0    0 -0.00000000000E+00 -0.00000000000E+00 -0.18250000000E+03  0.18250000000E+03  0.00000000000E+00 0. -1.
        -11    1    1    2    0    0 -0.52224105489E+00 -0.30457066882E+01  0.18131915337E+03  0.18134548366E+03  0.00000000000E+00 0.  1.
         11    1    1    2    0    0 -0.28627237140E+01  0.24445615788E+01 -0.61839149987E+02  0.61953624103E+02  0.00000000000E+00 0. -1.
        -15    1    1    2    0    0 -0.17425171702E+01 -0.39184758697E+01 -0.43729752299E+01  0.63774180192E+01  0.17770000000E+01 0. -1.
         15    1    1    2    0    0  0.51274819392E+01  0.45196209791E+01 -0.11510702816E+03  0.11532347421E+03  0.17770000000E+01 0.  1.
</event>
<event>
 6    1  0.1697564E-002  0.1869466E+03  0.7546771E-02  0.1064969E+00
        -11   -1    0    0    0    0  0.00000000000E+00  0.00000000000E+00  0.18250000000E+03  0.18250000000E+03  0.00000000000E+00 0.  1.
         11   -1    0    0    0    0 -0.00000000000E+00 -0.00000000000E+00 -0.18250000000E+03  0.18250000000E+03  0.00000000000E+00 0.  1.
        -11    1    1    2    0    0  0.44863419779E+01  0.46475033563E+00  0.17799629772E+03  0.17805343372E+03  0.00000000000E+00 0.  1.
         11    1    1    2    0    0 -0.16807047356E+01 -0.25401501683E+01 -0.17413610997E+03  0.17416274552E+03  0.00000000000E+00 0.  1.
        -15    1    1    2    0    0 -0.54721008563E+01  0.20566900032E+01  0.17213923011E+01  0.63478171056E+01  0.17770000000E+01 0.  1.
         15    1    1    2    0    0  0.26664636140E+01  0.18709829469E-01 -0.55815800469E+01  0.64360036577E+01  0.17770000000E+01 0.  1.
</event>
<event>
 6    1  0.1697564E-002  0.1828127E+03  0.7546771E-02  0.1068206E+00
        -11   -1    0    0    0    0  0.00000000000E+00  0.00000000000E+00  0.18250000000E+03  0.18250000000E+03  0.00000000000E+00 0. -1.
         11   -1    0    0    0    0 -0.00000000000E+00 -0.00000000000E+00 -0.18250000000E+03  0.18250000000E+03  0.00000000000E+00 0. -1.
        -11    1    1    2    0    0 -0.17515080302E+01  0.34969029736E+01  0.18214530807E+03  0.18218729199E+03  0.00000000000E+00 0. -1.
         11    1    1    2    0    0 -0.50470503828E+00 -0.14873740669E+01 -0.75920675088E+02  0.75936920629E+02  0.00000000000E+00 0. -1.
        -15    1    1    2    0    0  0.11414409094E+01 -0.39985615640E+01 -0.16610668527E+02  0.17215208969E+02  0.17770000000E+01 0. -1.
         15    1    1    2    0    0  0.11147721591E+01  0.19890326573E+01 -0.89613964452E+02  0.89660578414E+02  0.17770000000E+01 0.  1.
</event>
<event>
 6    1  0.1697564E-002  0.1972827E+03  0.7546771E-02  0.1057261E+00
        -11   -1    0    0    0    0  0.00000000000E+00  0.00000000000E+00  0.18250000000E+03  0.18250000000E+03  0.00000000000E+00 0.  1.
         11   -1    0    0    0    0 -0.00000000000E+00 -0.00000000000E+00 -0.18250000000E+03  0.18250000000E+03  0.00000000000E+00 0.  1.
        -11    1    1    2    0    0 -0.49179153341E+00  0.53423881989E+01  0.13414887399E+03  0.13425611108E+03  0.00000000000E+00 0.  1.
         11    1    1    2    0    0  0.92072785319E+01  0.15447136134E+02 -0.16675045928E+03  0.16771733262E+03  0.00000000000E+00 0.  1.
        -15    1    1    2    0    0 -0.40817535550E+00 -0.46467726300E+00  0.39805341450E+02  0.39849786311E+02  0.17770000000E+01 0. -1.
         15    1    1    2    0    0 -0.83073116430E+01 -0.20324847070E+02 -0.72037561593E+01  0.23176769985E+02  0.17770000000E+01 0.  1.
</event>
<event>
 6    1  0.1697564E-002  0.1786410E+03  0.7546771E-02  0.1071569E+00
        -11   -1    0    0    0    0  0.00000000000E+00  0.00000000000E+00  0.18250000000E+03  0.18250000000E+03  0.00000000000E+00 0.  1.
         11   -1    0    0    0    0 -0.00000000000E+00 -0.00000000000E+00 -0.18250000000E+03  0.18250000000E+03  0.00000000000E+00 0. -1.
        -11    1    1    2    0    0 -0.20233187057E+01 -0.12237584460E+01  0.86017663451E+01  0.89208624905E+01  0.00000000000E+00 0.  1.
         11    1    1    2    0    0  0.27754935447E+01 -0.25202008877E+01 -0.18162670970E+03  0.18166539697E+03  0.00000000000E+00 0. -1.
        -15    1    1    2    0    0  0.94977883944E+01  0.59159018933E+01  0.91833546827E+02  0.92529800234E+02  0.17770000000E+01 0.  1.
         15    1    1    2    0    0 -0.10249963233E+02 -0.21719425596E+01  0.81191396532E+02  0.81883940310E+02  0.17770000000E+01 0. -1.
</event>
<event>
 6    1  0.1697564E-002  0.1724337E+03  0.7546771E-02  0.1076762E+00
        -11   -1    0    0    0    0  0.00000000000E+00  0.00000000000E+00  0.18250000000E+03  0.18250000000E+03  0.00000000000E+00 0. -1.
         11   -1    0    0    0    0 -0.00000000000E+00 -0.00000000000E+00 -0.18250000000E+03  0.18250000000E+03  0.00000000000E+00 0. -1.
        -11    1    1    2    0    0 -0.27743340623E+01  0.26224314940E+01  0.17303169112E+03  0.17307379989E+03  0.00000000000E+00 0. -1.
         11    1    1    2    0    0 -0.21106186190E+01 -0.17983489396E+01 -0.17180893856E+03  0.17183131304E+03  0.00000000000E+00 0. -1.
        -15    1    1    2    0    0  0.41245802269E+01 -0.32444622864E+01  0.83570398190E+01  0.10026791167E+02  0.17770000000E+01 0. -1.
         15    1    1    2    0    0  0.76037245441E+00  0.24203797320E+01 -0.95797923734E+01  0.10068095909E+02  0.17770000000E+01 0. -1.
</event>
<event>
 6    1  0.1697564E-002  0.1859992E+03  0.7546771E-02  0.1065703E+00
        -11   -1    0    0    0    0  0.00000000000E+00  0.00000000000E+00  0.18250000000E+03  0.18250000000E+03  0.00000000000E+00 0. -1.
         11   -1    0    0    0    0 -0.00000000000E+00 -0.00000000000E+00 -0.18250000000E+03  0.18250000000E+03  0.00000000000E+00 0. -1.
        -11    1    1    2    0    0 -0.14579995059E+01 -0.19382754738E+01  0.17898440700E+03  0.17900083973E+03  0.00000000000E+00 0. -1.
         11    1    1    2    0    0 -0.15383223120E+01 -0.21794505478E+01 -0.17556900439E+03  0.17558927001E+03  0.00000000000E+00 0. -1.
        -15    1    1    2    0    0  0.34783863826E+01  0.60235628465E+01 -0.26342367607E+01  0.76471833706E+01  0.17770000000E+01 0. -1.
         15    1    1    2    0    0 -0.48206456474E+00 -0.19058368250E+01 -0.78116585180E+00  0.27627068856E+01  0.17770000000E+01 0. -1.
</event>
<event>
 6    1  0.1697564E-002  0.1844722E+03  0.7546771E-02  0.1066896E+00
        -11   -1    0    0    0    0  0.00000000000E+00  0.00000000000E+00  0.18250000000E+03  0.18250000000E+03  0.00000000000E+00 0. -1.
         11   -1    0    0    0    0 -0.00000000000E+00 -0.00000000000E+00 -0.18250000000E+03  0.18250000000E+03  0.00000000000E+00 0.  1.
        -11    1    1    2    0    0  0.58432854157E+01  0.52301710782E+01  0.18035742676E+03  0.18052783736E+03  0.00000000000E+00 0. -1.
         11    1    1    2    0    0 -0.14532599635E+01  0.32814282432E+01 -0.16489580289E+03  0.16493485243E+03  0.00000000000E+00 0.  1.
        -15    1    1    2    0    0  0.38556045676E+00 -0.56429552253E+01 -0.94115560795E+01  0.11123251205E+02  0.17770000000E+01 0. -1.
         15    1    1    2    0    0 -0.47755859089E+01 -0.28686440961E+01 -0.60500677861E+01  0.84140590051E+01  0.17770000000E+01 0.  1.
</event>
<event>
 6    1  0.1697564E-002  0.1888284E+03  0.7546771E-02  0.1063526E+00
        -11   -1    0    0    0    0  0.00000000000E+00  0.00000000000E+00  0.18250000000E+03  0.18250000000E+03  0.00000000000E+00 0.  1.
         11   -1    0    0    0    0 -0.00000000000E+00 -0.00000000000E+00 -0.18250000000E+03  0.18250000000E+03  0.00000000000E+00 0.  1.
        -11    1    1    2    0    0  0.54193949866E+01  0.36662165962E+01  0.17605008597E+03  0.17617163153E+03  0.00000000000E+00 0.  1.
         11    1    1    2    0    0  0.29092221114E+01 -0.15630415956E+01 -0.14443098484E+03  0.14446873729E+03  0.00000000000E+00 0.  1.
        -15    1    1    2    0    0 -0.65849517652E+01  0.16485055206E+01 -0.36818756840E+02  0.37481431996E+02  0.17770000000E+01 0.  1.
         15    1    1    2    0    0 -0.17436653328E+01 -0.37516805212E+01  0.51996557127E+01  0.68781991870E+01  0.17770000000E+01 0. -1.
</event>
<event>
 6    1  0.1697564E-002  0.1832325E+03  0.7546771E-02  0.1067873E+00
        -11   -1    0    0    0    0  0.00000000000E+00  0.00000000000E+00  0.18250000000E+03  0.18250000000E+03  0.00000000000E+00 0. -1.
         11   -1    0    0    0    0 -0.00000000000E+00 -0.00000000000E+00 -0.18250000000E+03  0.18250000000E+03  0.00000000000E+00 0.  1.
        -11    1    1    2    0    0 -0.45428375436E+00 -0.22459378900E+01  0.15456553724E+03  0.15458252137E+03  0.00000000000E+00 0. -1.
         11    1    1    2    0    0  0.23459869641E+01 -0.11019782723E+01 -0.18174904449E+03  0.18176752511E+03  0.00000000000E+00 0.  1.
        -15    1    1    2    0    0 -0.75333598952E+00  0.14979376438E+01  0.24933550233E+02  0.25052963667E+02  0.17770000000E+01 0. -1.
         15    1    1    2    0    0 -0.11383672202E+01  0.18499785185E+01  0.22499570131E+01  0.35969898537E+01  0.17770000000E+01 0.  1.
</event>
<event>
 6    1  0.1697564E-002  0.1831806E+03  0.7546771E-02  0.1067914E+00
        -11   -1    0    0    0    0  0.00000000000E+00  0.00000000000E+00  0.18250000000E+03  0.18250000000E+03  0.00000000000E+00 0. -1.
         11   -1    0    0    0    0 -0.00000000000E+00 -0.00000000000E+00 -0.18250000000E+03  0.18250000000E+03  0.00000000000E+00 0. -1.
        -11    1    1    2    0    0 -0.20799399701E+00 -0.24462638328E+01  0.15931374208E+03  0.15933265794E+03  0.00000000000E+00 0. -1.
         11    1    1    2    0    0  0.23324892461E+01 -0.16194456437E+01 -0.18179721339E+03  0.18181938815E+03  0.00000000000E+00 0. -1.
        -15    1    1    2    0    0 -0.20334258387E+01 -0.72269749919E+00  0.92321428174E+01  0.96461029602E+01  0.17770000000E+01 0.  1.
         15    1    1    2    0    0 -0.91069410316E-01  0.47884069757E+01  0.13251328485E+02  0.14201850957E+02  0.17770000000E+01 0. -1.
</event>
<event>
 6    1  0.1838230E-002  0.1832722E+03  0.7546771E-02  0.1067842E+00
        -11   -1    0    0    0    0  0.00000000000E+00  0.00000000000E+00  0.18250000000E+03  0.18250000000E+03  0.00000000000E+00 0.  1.
         11   -1    0    0    0    0 -0.00000000000E+00 -0.00000000000E+00 -0.18250000000E+03  0.18250000000E+03  0.00000000000E+00 0. -1.
        -11    1    1    2    0    0 -0.33114215183E+01 -0.49133355241E+00  0.18169697439E+03  0.18172781136E+03  0.00000000000E+00 0.  1.
         11    1    1    2    0    0 -0.11408708275E+01  0.25458563361E+00 -0.85359900871E+02  0.85367904255E+02  0.00000000000E+00 0. -1.
        -15    1    1    2    0    0  0.60176658053E+00 -0.47116788026E+01 -0.81987040512E+02  0.82143743408E+02  0.17770000000E+01 0. -1.
         15    1    1    2    0    0  0.38505257652E+01  0.49484267214E+01 -0.14350033002E+02  0.15760540976E+02  0.17770000000E+01 0.  1.
</event>
<event>
 6    1  0.1697564E-002  0.1834220E+03  0.7546771E-02  0.1067723E+00
        -11   -1    0    0    0    0  0.00000000000E+00  0.00000000000E+00  0.18250000000E+03  0.18250000000E+03  0.00000000000E+00 0. -1.
         11   -1    0    0    0    0 -0.00000000000E+00 -0.00000000000E+00 -0.18250000000E+03  0.18250000000E+03  0.00000000000E+00 0. -1.
        -11    1    1    2    0    0  0.18597847888E+01  0.21010078148E+01  0.18155628433E+03  0.18157796511E+03  0.00000000000E+00 0. -1.
         11    1    1    2    0    0  0.13800791157E+01 -0.26919616609E+01 -0.10421190592E+03  0.10425580373E+03  0.00000000000E+00 0. -1.
        -15    1    1    2    0    0 -0.97530516348E+01 -0.45986080035E+00 -0.40892997281E+02  0.42080024285E+02  0.17770000000E+01 0.  1.
         15    1    1    2    0    0  0.65131877303E+01  0.10508146465E+01 -0.36451381122E+02  0.37086206877E+02  0.17770000000E+01 0. -1.
</event>
<event>
 6    1  0.1697564E-002  0.1833842E+03  0.7546771E-02  0.1067753E+00
        -11   -1    0    0    0    0  0.00000000000E+00  0.00000000000E+00  0.18250000000E+03  0.18250000000E+03  0.00000000000E+00 0.  1.
         11   -1    0    0    0    0 -0.00000000000E+00 -0.00000000000E+00 -0.18250000000E+03  0.18250000000E+03  0.00000000000E+00 0.  1.
        -11    1    1    2    0    0  0.39057710059E+01 -0.21737089796E+00  0.16579753970E+03  0.16584368082E+03  0.00000000000E+00 0.  1.
         11    1    1    2    0    0  0.40482804637E+00  0.27835287740E+01 -0.18159406131E+03  0.18161584463E+03  0.00000000000E+00 0.  1.
        -15    1    1    2    0    0 -0.55530472465E+00  0.93899984606E+00  0.57721376132E+01  0.61372131847E+01  0.17770000000E+01 0.  1.
         15    1    1    2    0    0 -0.37552943276E+01 -0.35051577221E+01  0.10024384001E+02  0.11403261365E+02  0.17770000000E+01 0.  1.
</event>
<event>
 6    1  0.1697564E-002  0.1855453E+03  0.7546771E-02  0.1066056E+00
        -11   -1    0    0    0    0  0.00000000000E+00  0.00000000000E+00  0.18250000000E+03  0.18250000000E+03  0.00000000000E+00 0. -1.
         11   -1    0    0    0    0 -0.00000000000E+00 -0.00000000000E+00 -0.18250000000E+03  0.18250000000E+03  0.00000000000E+00 0. -1.
        -11    1    1    2    0    0 -0.40514949236E+01 -0.65956813208E+01  0.14614593646E+03  0.14635078534E+03  0.00000000000E+00 0. -1.
         11    1    1    2    0    0 -0.10603623288E+02 -0.26798291084E-01 -0.17914115286E+03  0.17945470235E+03  0.00000000000E+00 0. -1.
        -15    1    1    2    0    0  0.50028328516E+01  0.12597526422E+01  0.13356444329E+01  0.56175607083E+01  0.17770000000E+01 0.  1.
         15    1    1    2    0    0  0.96522853597E+01  0.53627269697E+01  0.31659571967E+02  0.33576951609E+02  0.17770000000E+01 0. -1.
</event>
<event>
 6    1  0.1697564E-002  0.1836594E+03  0.7546771E-02  0.1067536E+00
        -11   -1    0    0    0    0  0.00000000000E+00  0.00000000000E+00  0.18250000000E+03  0.18250000000E+03  0.00000000000E+00 0. -1.
         11   -1    0    0    0    0 -0.00000000000E+00 -0.00000000000E+00 -0.18250000000E+03  0.18250000000E+03  0.00000000000E+00 0. -1.
        -11    1    1    2    0    0  0.25348986965E+01 -0.27886383101E+01  0.18130142450E+03  0.18134058768E+03  0.00000000000E+00 0. -1.
         11    1    1    2    0    0  0.21239314630E+01  0.50680505068E+00 -0.13247061775E+03  0.13248861273E+03  0.00000000000E+00 0. -1.
        -15    1    1    2    0    0  0.16413312642E+01 -0.38203600962E+01 -0.65884284376E+01  0.79908846732E+01  0.17770000000E+01 0.  1.
         15    1    1    2    0    0 -0.63001614237E+01  0.61021933556E+01 -0.42242378314E+02  0.43179914918E+02  0.17770000000E+01 0. -1.
</event>
<event>
 6    1  0.1697564E-002  0.1827304E+03  0.7546771E-02  0.1068272E+00
        -11   -1    0    0    0    0  0.00000000000E+00  0.00000000000E+00  0.18250000000E+03  0.18250000000E+03  0.00000000000E+00 0.  1.
         11   -1    0    0    0    0 -0.00000000000E+00 -0.00000000000E+00 -0.18250000000E+03  0.18250000000E+03  0.00000000000E+00 0. -1.
        -11    1    1    2    0    0 -0.26123837035E+01  0.38175276576E+01  0.94070033822E+02  0.94183699913E+02  0.00000000000E+00 0.  1.
         11    1    1    2    0    0 -0.44695808842E+00 -0.31102533777E+01 -0.18224251026E+03  0.18226959701E+03  0.00000000000E+00 0. -1.
        -15    1    1    2    0    0  0.20165148884E+01  0.14118229407E+01  0.74340539433E+02  0.74402507408E+02  0.17770000000E+01 0.  1.
         15    1    1    2    0    0  0.10428269035E+01 -0.21190972206E+01  0.13831937003E+02  0.14144195673E+02  0.17770000000E+01 0.  1.
</event>
<event>
 6    1  0.1697564E-002  0.1839866E+03  0.7546771E-02  0.1067278E+00
        -11   -1    0    0    0    0  0.00000000000E+00  0.00000000000E+00  0.18250000000E+03  0.18250000000E+03  0.00000000000E+00 0. -1.
         11   -1    0    0    0    0 -0.00000000000E+00 -0.00000000000E+00 -0.18250000000E+03  0.18250000000E+03  0.00000000000E+00 0.  1.
        -11    1    1    2    0    0 -0.40495881122E+01  0.36785908082E+00  0.18096776565E+03  0.18101344339E+03  0.00000000000E+00 0. -1.
         11    1    1    2    0    0  0.10985424674E+01  0.24519597755E+01 -0.16567438951E+03  0.16569617450E+03  0.00000000000E+00 0.  1.
        -15    1    1    2    0    0 -0.28766636058E+00  0.72349001152E+00 -0.12105717419E+02  0.12260192207E+02  0.17770000000E+01 0. -1.
         15    1    1    2    0    0  0.32387120053E+01 -0.35433088678E+01 -0.31876587162E+01  0.60301899039E+01  0.17770000000E+01 0. -1.
</event>
<event>
 6    1  0.1697564E-002  0.1828468E+03  0.7546771E-02  0.1068179E+00
        -11   -1    0    0    0    0  0.00000000000E+00  0.00000000000E+00  0.18250000000E+03  0.18250000000E+03  0.00000000000E+00 0. -1.
         11   -1    0    0    0    0 -0.00000000000E+00 -0.00000000000E+00 -0.18250000000E+03  0.18250000000E+03  0.00000000000E+00 0. -1.
        -11    1    1    2    0    0  0.18219481120E+01  0.56530566101E+01  0.18205638665E+03  0.18215324445E+03  0.00000000000E+00 0. -1.
         11    1    1    2    0    0  0.10143902665E+01 -0.28087347435E+00 -0.71409312041E+02  0.71417068853E+02  0.00000000000E+00 0. -1.
        -15    1    1    2    0    0  0.82764489177E+00 -0.38874078998E+01 -0.97281292055E+02  0.97378665267E+02  0.17770000000E+01 0. -1.
         15    1    1    2    0    0 -0.36639832703E+01 -0.14847752359E+01 -0.13365782554E+02  0.14051021429E+02  0.17770000000E+01 0.  1.
</event>
<event>
 6    1  0.1697564E-002  0.1849447E+03  0.7546771E-02  0.1066525E+00
        -11   -1    0    0    0    0  0.00000000000E+00  0.00000000000E+00  0.18250000000E+03  0.18250000000E+03  0.00000000000E+00 0.  1.
         11   -1    0    0    0    0 -0.00000000000E+00 -0.00000000000E+00 -0.18250000000E+03  0.18250000000E+03  0.00000000000E+00 0. -1.
        -11    1    1    2    0    0  0.46247889863E+01  0.49364238284E+01  0.14876976142E+03  0.14892346647E+03  0.00000000000E+00 0.  1.
         11    1    1    2    0    0 -0.47650426896E+01 -0.92930565796E+01 -0.17975213953E+03  0.18005526429E+03  0.00000000000E+00 0. -1.
        -15    1    1    2    0    0 -0.74291504562E+01  0.25015391314E+01  0.24324937015E+02  0.25618553127E+02  0.17770000000E+01 0. -1.
         15    1    1    2    0    0  0.75694041595E+01  0.18550936198E+01  0.66574410902E+01  0.10402716113E+02  0.17770000000E+01 0.  1.
</event>
<event>
 6    1  0.1697564E-002  0.1826559E+03  0.7546771E-02  0.1068331E+00
        -11   -1    0    0    0    0  0.00000000000E+00  0.00000000000E+00  0.18250000000E+03  0.18250000000E+03  0.00000000000E+00 0. -1.
         11   -1    0    0    0    0 -0.00000000000E+00 -0.00000000000E+00 -0.18250000000E+03  0.18250000000E+03  0.00000000000E+00 0.  1.
        -11    1    1    2    0    0  0.29585061275E+00 -0.89390986330E+00  0.35711871936E+02  0.35724283053E+02  0.00000000000E+00 0. -1.
         11    1    1    2    0    0 -0.31913933318E+01  0.27090802109E+01 -0.18229601346E+03  0.18234407210E+03  0.00000000000E+00 0.  1.
        -15    1    1    2    0    0  0.50402997852E+01 -0.30515882046E+01  0.65022038739E+02  0.65312633260E+02  0.17770000000E+01 0. -1.
         15    1    1    2    0    0 -0.21447570661E+01  0.12364178570E+01  0.81562102786E+02  0.81619011584E+02  0.17770000000E+01 0. -1.
</event>
<event>
 6    1  0.1697564E-002  0.1897532E+03  0.7546771E-02  0.1062823E+00
        -11   -1    0    0    0    0  0.00000000000E+00  0.00000000000E+00  0.18250000000E+03  0.18250000000E+03  0.00000000000E+00 0. -1.
         11   -1    0    0    0    0 -0.00000000000E+00 -0.00000000000E+00 -0.18250000000E+03  0.18250000000E+03  0.00000000000E+00 0. -1.
        -11    1    1    2    0    0  0.43870183031E+01  0.35411237662E+01  0.14788425921E+03  0.14799168764E+03  0.00000000000E+00 0. -1.
         11    1    1    2    0    0  0.33773746788E+01 -0.23975449624E+01 -0.17519783151E+03  0.17524678327E+03  0.00000000000E+00 0. -1.
        -15    1    1    2    0    0 -0.13071368832E+02  0.17146074454E+01  0.31511429786E+02  0.34204217547E+02  0.17770000000E+01 0.  1.
         15    1    1    2    0    0  0.53069758503E+01 -0.28581862492E+01 -0.41978574902E+01  0.75573115470E+01  0.17770000000E+01 0. -1.
</event>
<event>
 6    1  0.1697564E-002  0.1831435E+03  0.7546771E-02  0.1067944E+00
        -11   -1    0    0    0    0  0.00000000000E+00  0.00000000000E+00  0.18250000000E+03  0.18250000000E+03  0.00000000000E+00 0. -1.
         11   -1    0    0    0    0 -0.00000000000E+00 -0.00000000000E+00 -0.18250000000E+03  0.18250000000E+03  0.00000000000E+00 0. -1.
        -11    1    1    2    0    0  0.26246183912E+01 -0.13240422282E+01  0.18183274926E+03  0.18185651050E+03  0.00000000000E+00 0. -1.
         11    1    1    2    0    0  0.23582796663E+01  0.11925766296E+01 -0.14632438943E+03  0.14634825132E+03  0.00000000000E+00 0. -1.
        -15    1    1    2    0    0 -0.40858753466E+01 -0.10869071857E+01 -0.33190878979E+02  0.33506237046E+02  0.17770000000E+01 0. -1.
         15    1    1    2    0    0 -0.89702271092E+00  0.12183727843E+01 -0.23174808455E+01  0.32890011333E+01  0.17770000000E+01 0.  1.
</event>
<event>
 6    1  0.1697564E-002  0.1830257E+03  0.7546771E-02  0.1068037E+00
        -11   -1    0    0    0    0  0.00000000000E+00  0.00000000000E+00  0.18250000000E+03  0.18250000000E+03  0.00000000000E+00 0.  1.
         11   -1    0    0    0    0 -0.00000000000E+00 -0.00000000000E+00 -0.18250000000E+03  0.18250000000E+03  0.00000000000E+00 0.  1.
        -11    1    1    2    0    0  0.28674919881E+01  0.27182156538E+00  0.18195150162E+03  0.18197429857E+03  0.00000000000E+00 0.  1.
         11    1    1    2    0    0  0.27273902553E+01 -0.68914484935E+00 -0.15333023209E+03  0.15335603559E+03  0.00000000000E+00 0.  1.
        -15    1    1    2    0    0 -0.54828074887E+01 -0.30207278655E+00 -0.18942883613E+02  0.19802600700E+02  0.17770000000E+01 0. -1.
         15    1    1    2    0    0 -0.11207475476E+00  0.71939607053E+00 -0.96783859235E+01  0.98670651432E+01  0.17770000000E+01 0.  1.
</event>
<event>
 6    1  0.1697564E-002  0.1782716E+03  0.7546771E-02  0.1071871E+00
        -11   -1    0    0    0    0  0.00000000000E+00  0.00000000000E+00  0.18250000000E+03  0.18250000000E+03  0.00000000000E+00 0.  1.
         11   -1    0    0    0    0 -0.00000000000E+00 -0.00000000000E+00 -0.18250000000E+03  0.18250000000E+03  0.00000000000E+00 0.  1.
        -11    1    1    2    0    0  0.26574910228E+01  0.65055072325E+00  0.17905953239E+03  0.17908043337E+03  0.00000000000E+00 0.  1.
         11    1    1    2    0    0  0.43626631474E+00  0.28728027126E+01 -0.17747328893E+03  0.17749707493E+03  0.00000000000E+00 0.  1.
        -15    1    1    2    0    0 -0.26666588388E+01  0.97226690972E+00 -0.11209272027E+00  0.33506217459E+01  0.17770000000E+01 0. -1.
         15    1    1    2    0    0 -0.42709849877E+00 -0.44956203455E+01 -0.14741507403E+01  0.50718699534E+01  0.17770000000E+01 0.  1.
</event>
<event>
 6    1  0.1697564E-002  0.1849864E+03  0.7546771E-02  0.1066493E+00
        -11   -1    0    0    0    0  0.00000000000E+00  0.00000000000E+00  0.18250000000E+03  0.18250000000E+03  0.00000000000E+00 0.  1.
         11   -1    0    0    0    0 -0.00000000000E+00 -0.00000000000E+00 -0.18250000000E+03  0.18250000000E+03  0.00000000000E+00 0.  1.
        -11    1    1    2    0    0 -0.33417969366E+01  0.54122692614E+01  0.17990120649E+03  0.18001362271E+03  0.00000000000E+00 0.  1.
         11    1    1    2    0    0  0.11320372510E+02  0.63070748708E+01 -0.10750304125E+03  0.10828127218E+03  0.00000000000E+00 0.  1.
        -15    1    1    2    0    0  0.14978104014E+01 -0.55149752746E+01 -0.36552658255E+01  0.70126375589E+01  0.17770000000E+01 0. -1.
         15    1    1    2    0    0 -0.94763859751E+01 -0.62043688576E+01 -0.68742899414E+02  0.69692467548E+02  0.17770000000E+01 0.  1.
</event>
<event>
 6    1  0.1697564E-002  0.1854964E+03  0.7546771E-02  0.1066094E+00
        -11   -1    0    0    0    0  0.00000000000E+00  0.00000000000E+00  0.18250000000E+03  0.18250000000E+03  0.00000000000E+00 0.  1.
         11   -1    0    0    0    0 -0.00000000000E+00 -0.00000000000E+00 -0.18250000000E+03  0.18250000000E+03  0.00000000000E+00 0. -1.
        -11    1    1    2    0    0  0.21113105343E+01  0.26393464161E+01  0.17706641179E+03  0.17709866732E+03  0.00000000000E+00 0.  1.
         11    1    1    2    0    0 -0.19099164039E+01 -0.28145272606E+01 -0.17947136405E+03  0.17950359288E+03  0.00000000000E+00 0. -1.
        -15    1    1    2    0    0 -0.96912566407E+00 -0.35549169988E-01  0.48596910486E+01  0.52644842467E+01  0.17770000000E+01 0.  1.
         15    1    1    2    0    0  0.76773153372E+00  0.21073001457E+00 -0.24547387917E+01  0.31332555565E+01  0.17770000000E+01 0. -1.
</event>
<event>
 6    1  0.1697564E-002  0.1938711E+03  0.7546771E-02  0.1059747E+00
        -11   -1    0    0    0    0  0.00000000000E+00  0.00000000000E+00  0.18250000000E+03  0.18250000000E+03  0.00000000000E+00 0. -1.
         11   -1    0    0    0    0 -0.00000000000E+00 -0.00000000000E+00 -0.18250000000E+03  0.18250000000E+03  0.00000000000E+00 0. -1.
        -11    1    1    2    0    0  0.11003644907E+01  0.13581935657E+02  0.17058547691E+03  0.17112885412E+03  0.00000000000E+00 0. -1.
         11    1    1    2    0    0 -0.39178727228E+01  0.11239134124E+01 -0.10303147762E+03  0.10311206665E+03  0.00000000000E+00 0. -1.
        -15    1    1    2    0    0  0.23619458143E+00 -0.15033061691E+02  0.66160997327E+01  0.16522083293E+02  0.17770000000E+01 0.  1.
         15    1    1    2    0    0  0.25813136506E+01  0.32721262177E+00 -0.74170099019E+02  0.74236995937E+02  0.17770000000E+01 0. -1.
</event>
<event>
 6    1  0.1697564E-002  0.2001594E+03  0.7546771E-02  0.1055207E+00
        -11   -1    0    0    0    0  0.00000000000E+00  0.00000000000E+00  0.18250000000E+03  0.18250000000E+03  0.00000000000E+00 0.  1.
         11   -1    0    0    0    0 -0.00000000000E+00 -0.00000000000E+00 -0.18250000000E+03  0.18250000000E+03  0.00000000000E+00 0. -1.
        -11    1    1    2    0    0  0.85661461166E+01 -0.40273169045E+00  0.15099298636E+03  0.15123631502E+03  0.00000000000E+00 0.  1.
         11    1    1    2    0    0  0.18200334658E+01  0.18542657995E+01 -0.16482012379E+03  0.16484060188E+03  0.00000000000E+00 0. -1.
        -15    1    1    2    0    0 -0.12515162564E+02  0.80596943727E+01  0.27923550922E+02  0.31693380894E+02  0.17770000000E+01 0.  1.
         15    1    1    2    0    0  0.21289829813E+01 -0.95112284817E+01 -0.14096413488E+02  0.17229702203E+02  0.17770000000E+01 0. -1.
</event>
<event>
 6    1  0.1697564E-002  0.1868197E+03  0.7546771E-02  0.1065067E+00
        -11   -1    0    0    0    0  0.00000000000E+00  0.00000000000E+00  0.18250000000E+03  0.18250000000E+03  0.00000000000E+00 0.  1.
         11   -1    0    0    0    0 -0.00000000000E+00 -0.00000000000E+00 -0.18250000000E+03  0.18250000000E+03  0.00000000000E+00 0.  1.
        -11    1    1    2    0    0  0.32010289637E+01 -0.32273392510E+01  0.15470723465E+03  0.15477399898E+03  0.00000000000E+00 0.  1.
         11    1    1    2    0    0 -0.43259806977E+01  0.99858180802E+00 -0.17812501759E+03  0.17818033888E+03  0.00000000000E+00 0.  1.
        -15    1    1    2    0    0  0.17435052486E+01  0.57068146986E+01 -0.18304227684E+01  0.64896626313E+01  0.17770000000E+01 0.  1.
         15    1    1    2    0    0 -0.61855351462E+00 -0.34780572557E+01  0.25248205701E+02  0.25555999508E+02  0.17770000000E+01 0. -1.
</event>
<event>
 6    1  0.1697564E-002  0.1838471E+03  0.7546771E-02  0.1067388E+00
        -11   -1    0    0    0    0  0.00000000000E+00  0.00000000000E+00  0.18250000000E+03  0.18250000000E+03  0.00000000000E+00 0.  1.
         11   -1    0    0    0    0 -0.00000000000E+00 -0.00000000000E+00 -0.18250000000E+03  0.18250000000E+03  0.00000000000E+00 0. -1.
        -11    1    1    2    0    0 -0.11800051524E+01  0.56755925861E+00  0.84786855708E+02  0.84796965963E+02  0.00000000000E+00 0.  1.
         11    1    1    2    0    0  0.66805852005E+01  0.65401002803E+01 -0.18091152607E+03  0.18115292820E+03  0.00000000000E+00 0. -1.
        -15    1    1    2    0    0  0.11250431799E+01  0.10696011509E+01  0.77857325058E+02  0.77893071341E+02  0.17770000000E+01 0.  1.
         15    1    1    2    0    0 -0.66256232280E+01 -0.81772606898E+01  0.18267345300E+02  0.21157034500E+02  0.17770000000E+01 0.  1.
</event>
<event>
 6    1  0.1697564E-002  0.1976855E+03  0.7546771E-02  0.1056971E+00
        -11   -1    0    0    0    0  0.00000000000E+00  0.00000000000E+00  0.18250000000E+03  0.18250000000E+03  0.00000000000E+00 0. -1.
         11   -1    0    0    0    0 -0.00000000000E+00 -0.00000000000E+00 -0.18250000000E+03  0.18250000000E+03  0.00000000000E+00 0. -1.
        -11    1    1    2    0    0  0.48904186622E+01 -0.12897655545E+01  0.16723807797E+03  0.16731453737E+03  0.00000000000E+00 0. -1.
         11    1    1    2    0    0  0.10051043451E+02 -0.55606600195E+01 -0.13800659965E+03  0.13848381119E+03  0.00000000000E+00 0. -1.
        -15    1    1    2    0    0  0.82966737944E+01 -0.16447759923E+02 -0.97209000750E+01  0.20904957063E+02  0.17770000000E+01 0.  1.
         15    1    1    2    0    0 -0.23238135907E+02  0.23298185497E+02 -0.19510578252E+02  0.38296694383E+02  0.17770000000E+01 0. -1.
</event>
<event>
 6    1  0.1697564E-002  0.1848353E+03  0.7546771E-02  0.1066611E+00
        -11   -1    0    0    0    0  0.00000000000E+00  0.00000000000E+00  0.18250000000E+03  0.18250000000E+03  0.00000000000E+00 0. -1.
         11   -1    0    0    0    0 -0.00000000000E+00 -0.00000000000E+00 -0.18250000000E+03  0.18250000000E+03  0.00000000000E+00 0.  1.
        -11    1    1    2    0    0 -0.39413506532E+01 -0.17674430392E+01  0.18011287609E+03  0.18016466422E+03  0.00000000000E+00 0. -1.
         11    1    1    2    0    0  0.48923171071E+01  0.45437806174E+01 -0.17606598960E+03  0.17619254639E+03  0.00000000000E+00 0.  1.
        -15    1    1    2    0    0 -0.23093627496E+01 -0.36449912238E+00 -0.44470566562E+01  0.53291704629E+01  0.17770000000E+01 0. -1.
         15    1    1    2    0    0  0.13583962957E+01 -0.24118384558E+01  0.40017016434E+00  0.33136189270E+01  0.17770000000E+01 0.  1.
</event>
<event>
 6    1  0.1697564E-002  0.1833691E+03  0.7546771E-02  0.1067765E+00
        -11   -1    0    0    0    0  0.00000000000E+00  0.00000000000E+00  0.18250000000E+03  0.18250000000E+03  0.00000000000E+00 0.  1.
         11   -1    0    0    0    0 -0.00000000000E+00 -0.00000000000E+00 -0.18250000000E+03  0.18250000000E+03  0.00000000000E+00 0.  1.
        -11    1    1    2    0    0 -0.21153386381E+01  0.14400213867E+01  0.18161284322E+03  0.18163087056E+03  0.00000000000E+00 0.  1.
         11    1    1    2    0    0 -0.35434599537E+00 -0.25064874245E+01 -0.16556969876E+03  0.16558904911E+03  0.00000000000E+00 0.  1.
        -15    1    1    2    0    0  0.13322800281E+01  0.24751744688E+01 -0.14349434465E+02  0.14729747356E+02  0.17770000000E+01 0. -1.
         15    1    1    2    0    0  0.11374046054E+01 -0.14087084310E+01 -0.16937099949E+01  0.30503329698E+01  0.17770000000E+01 0.  1.
</event>
<event>
 6    1  0.1697564E-002  0.1829148E+03  0.7546771E-02  0.1068125E+00
        -11   -1    0    0    0    0  0.00000000000E+00  0.00000000000E+00  0.18250000000E+03  0.18250000000E+03  0.00000000000E+00 0.  1.
         11   -1    0    0    0    0 -0.00000000000E+00 -0.00000000000E+00 -0.18250000000E+03  0.18250000000E+03  0.00000000000E+00 0.  1.
        -11    1    1    2    0    0 -0.26703465298E+01  0.28980007634E+01  0.14131457250E+03  0.14136950718E+03  0.00000000000E+00 0.  1.
         11    1    1    2    0    0  0.39495110671E+01 -0.13745385114E+01 -0.18203715736E+03  0.18208518516E+03  0.00000000000E+00 0.  1.
        -15    1    1    2    0    0 -0.21697953115E+01 -0.87314303377E+00  0.37994233879E+02  0.38107609837E+02  0.17770000000E+01 0.  1.
         15    1    1    2    0    0  0.89063077424E+00 -0.65031921825E+00  0.27283509832E+01  0.34376978269E+01  0.17770000000E+01 0.  1.
</event>
<event>
 6    1  0.1697564E-002  0.1828373E+03  0.7546771E-02  0.1068187E+00
        -11   -1    0    0    0    0  0.00000000000E+00  0.00000000000E+00  0.18250000000E+03  0.18250000000E+03  0.00000000000E+00 0.  1.
         11   -1    0    0    0    0 -0.00000000000E+00 -0.00000000000E+00 -0.18250000000E+03  0.18250000000E+03  0.00000000000E+00 0.  1.
        -11    1    1    2    0    0 -0.31397965033E-01  0.27771106894E+01  0.18214151640E+03  0.18216268917E+03  0.00000000000E+00 0.  1.
         11    1    1    2    0    0  0.23377988961E+01  0.85233264693E-01 -0.12537633636E+03  0.12539815902E+03  0.00000000000E+00 0.  1.
        -15    1    1    2    0    0  0.18208082765E+01  0.90519573392E+00 -0.12581499304E+02  0.12868044755E+02  0.17770000000E+01 0. -1.
         15    1    1    2    0    0 -0.41272092076E+01 -0.37675396880E+01 -0.44183680740E+02  0.44571107052E+02  0.17770000000E+01 0. -1.
</event>
<event>
 6    1  0.1697564E-002  0.1853213E+03  0.7546771E-02  0.1066231E+00
        -11   -1    0    0    0    0  0.00000000000E+00  0.00000000000E+00  0.18250000000E+03  0.18250000000E+03  0.00000000000E+00 0.  1.
         11   -1    0    0    0    0 -0.00000000000E+00 -0.00000000000E+00 -0.18250000000E+03  0.18250000000E+03  0.00000000000E+00 0.  1.
        -11    1    1    2    0    0  0.24860278310E+01  0.34988528061E+00  0.17067829392E+03  0.17069675676E+03  0.00000000000E+00 0.  1.
         11    1    1    2    0    0 -0.30114425138E+01  0.85594418606E+00 -0.17965141918E+03  0.17967869612E+03  0.00000000000E+00 0.  1.
        -15    1    1    2    0    0  0.43087382965E+01 -0.22138561270E+01  0.89429443108E+01  0.10324745353E+02  0.17770000000E+01 0.  1.
         15    1    1    2    0    0 -0.37833236137E+01  0.10080266603E+01  0.30180947136E-01  0.42998017633E+01  0.17770000000E+01 0.  1.
</event>
<event>
 6    1  0.1697564E-002  0.1831261E+03  0.7546771E-02  0.1067957E+00
        -11   -1    0    0    0    0  0.00000000000E+00  0.00000000000E+00  0.18250000000E+03  0.18250000000E+03  0.00000000000E+00 0.  1.
         11   -1    0    0    0    0 -0.00000000000E+00 -0.00000000000E+00 -0.18250000000E+03  0.18250000000E+03  0.00000000000E+00 0.  1.
        -11    1    1    2    0    0  0.31647050332E+01 -0.16620059601E+01  0.18183871894E+03  0.18187385003E+03  0.00000000000E+00 0.  1.
         11    1    1    2    0    0  0.11399601375E+01  0.34253403900E+01 -0.13653701251E+03  0.13658472920E+03  0.00000000000E+00 0.  1.
        -15    1    1    2    0    0  0.49065547732E+00 -0.33134768664E+01 -0.31727012764E+02  0.31952792361E+02  0.17770000000E+01 0. -1.
         15    1    1    2    0    0 -0.47953206480E+01  0.15501424365E+01 -0.13574693666E+02  0.14588628408E+02  0.17770000000E+01 0.  1.
</event>
<event>
 6    1  0.1697564E-002  0.1855243E+03  0.7546771E-02  0.1066073E+00
        -11   -1    0    0    0    0  0.00000000000E+00  0.00000000000E+00  0.18250000000E+03  0.18250000000E+03  0.00000000000E+00 0.  1.
         11   -1    0    0    0    0 -0.00000000000E+00 -0.00000000000E+00 -0.18250000000E+03  0.18250000000E+03  0.00000000000E+00 0.  1.
        -11    1    1    2    0    0 -0.49235203230E+01 -0.25554819130E+01  0.15577933296E+03  0.15587806811E+03  0.00000000000E+00 0.  1.
         11    1    1    2    0    0 -0.74036809919E+01  0.40293402720E+01 -0.17927760396E+03  0.17947565116E+03  0.00000000000E+00 0.  1.
        -15    1    1    2    0    0  0.13716617534E+02 -0.73338239881E-01  0.13598329769E+02  0.19396475880E+02  0.17770000000E+01 0. -1.
         15    1    1    2    0    0 -0.13894162188E+01 -0.14005201190E+01  0.98999412343E+01  0.10249804851E+02  0.17770000000E+01 0. -1.
</event>
<event>
 6    1  0.1697564E-002  0.1828481E+03  0.7546771E-02  0.1068178E+00
        -11   -1    0    0    0    0  0.00000000000E+00  0.00000000000E+00  0.18250000000E+03  0.18250000000E+03  0.00000000000E+00 0.  1.
         11   -1    0    0    0    0 -0.00000000000E+00 -0.00000000000E+00 -0.18250000000E+03  0.18250000000E+03  0.00000000000E+00 0.  1.
        -11    1    1    2    0    0  0.13494479123E+01  0.56671351644E+00  0.51643713629E+02  0.51664449395E+02  0.00000000000E+00 0.  1.
         11    1    1    2    0    0 -0.21634576073E+01  0.16417383403E+01 -0.18213165102E+03  0.18215189858E+03  0.00000000000E+00 0.  1.
        -15    1    1    2    0    0 -0.58646985191E+01  0.31111933368E+00  0.58716325188E+02  0.59036057258E+02  0.17770000000E+01 0. -1.
         15    1    1    2    0    0  0.66787082141E+01 -0.25195711904E+01  0.71771612206E+02  0.72147594763E+02  0.17770000000E+01 0.  1.
</event>
<event>
 6    1  0.1697564E-002  0.1837019E+03  0.7546771E-02  0.1067502E+00
        -11   -1    0    0    0    0  0.00000000000E+00  0.00000000000E+00  0.18250000000E+03  0.18250000000E+03  0.00000000000E+00 0. -1.
         11   -1    0    0    0    0 -0.00000000000E+00 -0.00000000000E+00 -0.18250000000E+03  0.18250000000E+03  0.00000000000E+00 0. -1.
        -11    1    1    2    0    0  0.23218262971E+01 -0.40948927435E+01  0.10481076872E+03  0.10491642514E+03  0.00000000000E+00 0. -1.
         11    1    1    2    0    0 -0.18745252578E+01  0.20027190579E+01 -0.18127736942E+03  0.18129812297E+03  0.00000000000E+00 0. -1.
        -15    1    1    2    0    0  0.82758933083E+01 -0.18473487281E+01  0.26531015251E+02  0.27909776183E+02  0.17770000000E+01 0. -1.
         15    1    1    2    0    0 -0.87231943477E+01  0.39395224137E+01  0.49935585444E+02  0.50875675712E+02  0.17770000000E+01 0. -1.
</event>
<event>
 6    1  0.1697564E-002  0.1858238E+03  0.7546771E-02  0.1065839E+00
        -11   -1    0    0    0    0  0.00000000000E+00  0.00000000000E+00  0.18250000000E+03  0.18250000000E+03  0.00000000000E+00 0.  1.
         11   -1    0    0    0    0 -0.00000000000E+00 -0.00000000000E+00 -0.18250000000E+03  0.18250000000E+03  0.00000000000E+00 0. -1.
        -11    1    1    2    0    0 -0.50017509465E+01  0.29807450006E+00  0.17910612608E+03  0.17917620032E+03  0.00000000000E+00 0.  1.
         11    1    1    2    0    0 -0.37844633910E+01 -0.11009691485E+01 -0.17187399263E+03  0.17191917763E+03  0.00000000000E+00 0. -1.
        -15    1    1    2    0    0 -0.11942891106E+00 -0.16066119291E+01 -0.84206095799E+00  0.25420977189E+01  0.17770000000E+01 0. -1.
         15    1    1    2    0    0  0.89056432485E+01  0.24095065775E+01 -0.63900724971E+01  0.11362524329E+02  0.17770000000E+01 0.  1.
</event>
<event>
 6    1  0.1697564E-002  0.1843322E+03  0.7546771E-02  0.1067006E+00
        -11   -1    0    0    0    0  0.00000000000E+00  0.00000000000E+00  0.18250000000E+03  0.18250000000E+03  0.00000000000E+00 0. -1.
         11   -1    0    0    0    0 -0.00000000000E+00 -0.00000000000E+00 -0.18250000000E+03  0.18250000000E+03  0.00000000000E+00 0.  1.
        -11    1    1    2    0    0 -0.12721599379E+01  0.74201531129E-01  0.85094425312E+02  0.85103966512E+02  0.00000000000E+00 0. -1.
         11    1    1    2    0    0 -0.47933334480E+01 -0.44683825027E+01 -0.18054893005E+03  0.18066781293E+03  0.00000000000E+00 0.  1.
        -15    1    1    2    0    0  0.88881630330E+01 -0.88738610357E+01  0.57522155865E+02  0.58904167902E+02  0.17770000000E+01 0.  1.
         15    1    1    2    0    0 -0.28226696472E+01  0.13268042007E+02  0.37932348871E+02  0.40324052655E+02  0.17770000000E+01 0. -1.
</event>
<event>
 6    1  0.2503126E-002  0.1843678E+03  0.7546771E-02  0.1066978E+00
        -11   -1    0    0    0    0  0.00000000000E+00  0.00000000000E+00  0.18250000000E+03  0.18250000000E+03  0.00000000000E+00 0.  1.
         11   -1    0    0    0    0 -0.00000000000E+00 -0.00000000000E+00 -0.18250000000E+03  0.18250000000E+03  0.00000000000E+00 0.  1.
        -11    1    1    2    0    0  0.16601915506E+01 -0.49369343942E+01  0.16449493692E+03  0.16457737946E+03  0.00000000000E+00 0.  1.
         11    1    1    2    0    0  0.20889301852E+01  0.37544724177E+01 -0.18058105846E+03  0.18063216316E+03  0.00000000000E+00 0.  1.
        -15    1    1    2    0    0 -0.90254713142E+00 -0.28146901970E+01  0.66800521073E+00  0.35129805282E+01  0.17770000000E+01 0.  1.
         15    1    1    2    0    0 -0.28465746044E+01  0.39971521735E+01  0.15418116334E+02  0.16277476855E+02  0.17770000000E+01 0. -1.
</event>
<event>
 6    1  0.1697564E-002  0.1875473E+03  0.7546771E-02  0.1064507E+00
        -11   -1    0    0    0    0  0.00000000000E+00  0.00000000000E+00  0.18250000000E+03  0.18250000000E+03  0.00000000000E+00 0.  1.
         11   -1    0    0    0    0 -0.00000000000E+00 -0.00000000000E+00 -0.18250000000E+03  0.18250000000E+03  0.00000000000E+00 0. -1.
        -11    1    1    2    0    0 -0.24356726320E+00  0.26143448378E+01  0.66004306891E+02  0.66056511050E+02  0.00000000000E+00 0.  1.
         11    1    1    2    0    0  0.10757575168E+00 -0.32842845943E+01 -0.17742231674E+03  0.17745274463E+03  0.00000000000E+00 0. -1.
        -15    1    1    2    0    0  0.18577860303E+01 -0.82539728290E+01 -0.99031681316E+00  0.87016028861E+01  0.17770000000E+01 0. -1.
         15    1    1    2    0    0 -0.17217945188E+01  0.89239125856E+01  0.11240832667E+03  0.11278914143E+03  0.17770000000E+01 0.  1.
</event>
<event>
 6    1  0.1697564E-002  0.1724502E+03  0.7546771E-02  0.1076748E+00
        -11   -1    0    0    0    0  0.00000000000E+00  0.00000000000E+00  0.18250000000E+03  0.18250000000E+03  0.00000000000E+00 0. -1.
         11   -1    0    0    0    0 -0.00000000000E+00 -0.00000000000E+00 -0.18250000000E+03  0.18250000000E+03  0.00000000000E+00 0.  1.
        -11    1    1    2    0    0 -0.57978637422E+01  0.69519082745E+00  0.17441096596E+03  0.17450869194E+03  0.00000000000E+00 0. -1.
         11    1    1    2    0    0 -0.30249595187E+01 -0.27022769170E+01 -0.17048443701E+03  0.17053268292E+03  0.00000000000E+00 0.  1.
        -15    1    1    2    0    0  0.34207786242E+01 -0.25291492049E+01  0.60532089790E+01  0.76090334498E+01  0.17770000000E+01 0. -1.
         15    1    1    2    0    0  0.54020446367E+01  0.45362352945E+01 -0.99797379305E+01  0.12349591696E+02  0.17770000000E+01 0. -1.
</event>
<event>
 6    1  0.1697564E-002  0.1847969E+03  0.7546771E-02  0.1066641E+00
        -11   -1    0    0    0    0  0.00000000000E+00  0.00000000000E+00  0.18250000000E+03  0.18250000000E+03  0.00000000000E+00 0.  1.
         11   -1    0    0    0    0 -0.00000000000E+00 -0.00000000000E+00 -0.18250000000E+03  0.18250000000E+03  0.00000000000E+00 0.  1.
        -11    1    1    2    0    0 -0.15265805084E+02 -0.32455816995E+01  0.17952601124E+03  0.18020312793E+03  0.00000000000E+00 0.  1.
         11    1    1    2    0    0  0.13518908707E+02 -0.20265225558E+01 -0.11840056835E+03  0.11918708937E+03  0.00000000000E+00 0.  1.
        -15    1    1    2    0    0 -0.70519317735E+01  0.10374213415E+02 -0.24846397979E+02  0.27890056781E+02  0.17770000000E+01 0. -1.
         15    1    1    2    0    0  0.87988281501E+01 -0.51021091600E+01 -0.36279044909E+02  0.37719725917E+02  0.17770000000E+01 0.  1.
</event>
<event>
 6    1  0.1697564E-002  0.1851116E+03  0.7546771E-02  0.1066395E+00
        -11   -1    0    0    0    0  0.00000000000E+00  0.00000000000E+00  0.18250000000E+03  0.18250000000E+03  0.00000000000E+00 0.  1.
         11   -1    0    0    0    0 -0.00000000000E+00 -0.00000000000E+00 -0.18250000000E+03  0.18250000000E+03  0.00000000000E+00 0. -1.
        -11    1    1    2    0    0 -0.23306348782E+01 -0.28837115529E+01  0.17441874060E+03  0.17445814605E+03  0.00000000000E+00 0.  1.
         11    1    1    2    0    0  0.20336706459E+01 -0.39191540288E+01 -0.17983423001E+03  0.17988842616E+03  0.00000000000E+00 0. -1.
        -15    1    1    2    0    0 -0.20917530415E+01  0.49561683857E+01  0.31664655092E+01  0.64902441152E+01  0.17770000000E+01 0. -1.
         15    1    1    2    0    0  0.23887172739E+01  0.18466971960E+01  0.22490239008E+01  0.41631836681E+01  0.17770000000E+01 0.  1.
</event>
<event>
 6    1  0.1697564E-002  0.1848135E+03  0.7546771E-02  0.1066628E+00
        -11   -1    0    0    0    0  0.00000000000E+00  0.00000000000E+00  0.18250000000E+03  0.18250000000E+03  0.00000000000E+00 0. -1.
         11   -1    0    0    0    0 -0.00000000000E+00 -0.00000000000E+00 -0.18250000000E+03  0.18250000000E+03  0.00000000000E+00 0.  1.
        -11    1    1    2    0    0  0.27781601543E+01 -0.30799105505E+01  0.59867574537E+02  0.60011086508E+02  0.00000000000E+00 0. -1.
         11    1    1    2    0    0 -0.14673345046E+01  0.36745659908E+01 -0.18014304912E+03  0.18018649687E+03  0.00000000000E+00 0.  1.
        -15    1    1    2    0    0  0.14487142531E+02 -0.68779039215E+01  0.62707742635E+02  0.64750301748E+02  0.17770000000E+01 0. -1.
         15    1    1    2    0    0 -0.15797968180E+02  0.62832484812E+01  0.57567731952E+02  0.60052114877E+02  0.17770000000E+01 0. -1.
</event>
<event>
 6    1  0.1697564E-002  0.1892140E+03  0.7546771E-02  0.1063233E+00
        -11   -1    0    0    0    0  0.00000000000E+00  0.00000000000E+00  0.18250000000E+03  0.18250000000E+03  0.00000000000E+00 0.  1.
         11   -1    0    0    0    0 -0.00000000000E+00 -0.00000000000E+00 -0.18250000000E+03  0.18250000000E+03  0.00000000000E+00 0. -1.
        -11    1    1    2    0    0 -0.45973063721E+00 -0.86354313734E+01  0.16039491979E+03  0.16062786907E+03  0.00000000000E+00 0.  1.
         11    1    1    2    0    0  0.71048712424E+01 -0.15596480091E+01 -0.17563544489E+03  0.17578600968E+03  0.00000000000E+00 0. -1.
        -15    1    1    2    0    0 -0.25443868314E+01  0.40512602887E+01  0.19306165511E+02  0.19969285666E+02  0.17770000000E+01 0. -1.
         15    1    1    2    0    0 -0.41007537738E+01  0.61438190939E+01 -0.40656404160E+01  0.86168355887E+01  0.17770000000E+01 0.  1.
</event>
<event>
 6    1  0.1697564E-002  0.1827857E+03  0.7546771E-02  0.1068228E+00
        -11   -1    0    0    0    0  0.00000000000E+00  0.00000000000E+00  0.18250000000E+03  0.18250000000E+03  0.00000000000E+00 0. -1.
         11   -1    0    0    0    0 -0.00000000000E+00 -0.00000000000E+00 -0.18250000000E+03  0.18250000000E+03  0.00000000000E+00 0.  1.
        -11    1    1    2    0    0  0.28894436768E+01  0.61319714116E+00  0.18219038071E+03  0.18221432358E+03  0.00000000000E+00 0. -1.
         11    1    1    2    0    0 -0.11596578134E+01 -0.13569490504E+01 -0.48233583672E+02  0.48266600365E+02  0.00000000000E+00 0.  1.
        -15    1    1    2    0    0  0.32411602326E+00  0.16947482431E+01 -0.12653060690E+03  0.12655484753E+03  0.17770000000E+01 0.  1.
         15    1    1    2    0    0 -0.20539018867E+01 -0.95099633392E+00 -0.74261901373E+01  0.79642285215E+01  0.17770000000E+01 0. -1.
</event>
<event>
 6    1  0.1697564E-002  0.1833854E+03  0.7546771E-02  0.1067752E+00
        -11   -1    0    0    0    0  0.00000000000E+00  0.00000000000E+00  0.18250000000E+03  0.18250000000E+03  0.00000000000E+00 0. -1.
         11   -1    0    0    0    0 -0.00000000000E+00 -0.00000000000E+00 -0.18250000000E+03  0.18250000000E+03  0.00000000000E+00 0. -1.
        -11    1    1    2    0    0 -0.12466433367E+02  0.71125063691E+00  0.18118488063E+03  0.18161464370E+03  0.00000000000E+00 0. -1.
         11    1    1    2    0    0  0.85849795944E+01  0.16060811371E+01 -0.11735701189E+03  0.11768156019E+03  0.00000000000E+00 0. -1.
        -15    1    1    2    0    0 -0.30157892735E+00  0.24226414980E+01 -0.22222347032E+01  0.37491596063E+01  0.17770000000E+01 0. -1.
         15    1    1    2    0    0  0.41830326994E+01 -0.47399732720E+01 -0.61605634040E+02  0.61954636498E+02  0.17770000000E+01 0. -1.
</event>
<event>
 6    1  0.1697564E-002  0.1833013E+03  0.7546771E-02  0.1067819E+00
        -11   -1    0    0    0    0  0.00000000000E+00  0.00000000000E+00  0.18250000000E+03  0.18250000000E+03  0.00000000000E+00 0.  1.
         11   -1    0    0    0    0 -0.00000000000E+00 -0.00000000000E+00 -0.18250000000E+03  0.18250000000E+03  0.00000000000E+00 0.  1.
        -11    1    1    2    0    0  0.73401285446E+01  0.44703548869E+00  0.18154986348E+03  0.18169873488E+03  0.00000000000E+00 0.  1.
         11    1    1    2    0    0  0.47685170783E+01  0.65941924018E+01 -0.74404315380E+02  0.74848007828E+02  0.00000000000E+00 0.  1.
        -15    1    1    2    0    0 -0.12920489548E+02 -0.50701224812E+01 -0.87209688468E+02  0.88325153178E+02  0.17770000000E+01 0.  1.
         15    1    1    2    0    0  0.81184392546E+00 -0.19711054093E+01 -0.19935859630E+02  0.20128104115E+02  0.17770000000E+01 0. -1.
</event>
<event>
 6    1  0.1697564E-002  0.1848801E+03  0.7546771E-02  0.1066576E+00
        -11   -1    0    0    0    0  0.00000000000E+00  0.00000000000E+00  0.18250000000E+03  0.18250000000E+03  0.00000000000E+00 0.  1.
         11   -1    0    0    0    0 -0.00000000000E+00 -0.00000000000E+00 -0.18250000000E+03  0.18250000000E+03  0.00000000000E+00 0. -1.
        -11    1    1    2    0    0 -0.38331532947E+01 -0.94242006125E+00  0.18007666919E+03  0.18011992673E+03  0.00000000000E+00 0.  1.
         11    1    1    2    0    0  0.82912147982E+00  0.21863537649E+01 -0.17341079944E+03  0.17342656356E+03  0.00000000000E+00 0. -1.
        -15    1    1    2    0    0  0.90989956242E+00 -0.32333293719E+01 -0.70817018123E+01  0.80368255922E+01  0.17770000000E+01 0.  1.
         15    1    1    2    0    0  0.20941322525E+01  0.19893956683E+01  0.41583206597E+00  0.34166841122E+01  0.17770000000E+01 0. -1.
</event>
<event>
 6    1  0.1697564E-002  0.1880105E+03  0.7546771E-02  0.1064151E+00
        -11   -1    0    0    0    0  0.00000000000E+00  0.00000000000E+00  0.18250000000E+03  0.18250000000E+03  0.00000000000E+00 0.  1.
         11   -1    0    0    0    0 -0.00000000000E+00 -0.00000000000E+00 -0.18250000000E+03  0.18250000000E+03  0.00000000000E+00 0.  1.
        -11    1    1    2    0    0  0.15631112259E+01  0.10678797511E+02  0.94888921215E+02  0.95500719381E+02  0.00000000000E+00 0.  1.
         11    1    1    2    0    0 -0.31577199334E+01 -0.50812775859E+01 -0.17688836503E+03  0.17698950325E+03  0.00000000000E+00 0.  1.
        -15    1    1    2    0    0 -0.29439439938E+01  0.94770872553E+01  0.11780884066E+01  0.10150251740E+02  0.17770000000E+01 0.  1.
         15    1    1    2    0    0  0.45385527013E+01 -0.15074607181E+02  0.80821355411E+02  0.82359525628E+02  0.17770000000E+01 0. -1.
</event>
<event>
 6    1  0.1697564E-002  0.1903104E+03  0.7546771E-02  0.1062402E+00
        -11   -1    0    0    0    0  0.00000000000E+00  0.00000000000E+00  0.18250000000E+03  0.18250000000E+03  0.00000000000E+00 0. -1.
         11   -1    0    0    0    0 -0.00000000000E+00 -0.00000000000E+00 -0.18250000000E+03  0.18250000000E+03  0.00000000000E+00 0.  1.
        -11    1    1    2    0    0 -0.33122188217E+01  0.59500026125E+01  0.17455686032E+03  0.17468964139E+03  0.00000000000E+00 0. -1.
         11    1    1    2    0    0 -0.38987431435E+01  0.23556571961E+01 -0.16727362426E+03  0.16733563485E+03  0.00000000000E+00 0.  1.
        -15    1    1    2    0    0  0.12619595787E+02 -0.64314156351E+01 -0.10287200809E+01  0.14311998424E+02  0.17770000000E+01 0.  1.
         15    1    1    2    0    0 -0.54086338218E+01 -0.18742441735E+01 -0.62545159782E+01  0.86627253311E+01  0.17770000000E+01 0.  1.
</event>
<event>
 6    1  0.1697564E-002  0.1865316E+03  0.7546771E-02  0.1065290E+00
        -11   -1    0    0    0    0  0.00000000000E+00  0.00000000000E+00  0.18250000000E+03  0.18250000000E+03  0.00000000000E+00 0.  1.
         11   -1    0    0    0    0 -0.00000000000E+00 -0.00000000000E+00 -0.18250000000E+03  0.18250000000E+03  0.00000000000E+00 0. -1.
        -11    1    1    2    0    0  0.31238210734E+01 -0.19545991581E+01  0.17843035857E+03  0.17846840498E+03  0.00000000000E+00 0.  1.
         11    1    1    2    0    0  0.54174658422E+01  0.52896951447E-01 -0.17276259061E+03  0.17284751791E+03  0.00000000000E+00 0. -1.
        -15    1    1    2    0    0 -0.89723885619E+01  0.51397893603E+00 -0.20311335373E+01  0.93835581364E+01  0.17770000000E+01 0.  1.
         15    1    1    2    0    0  0.43110164635E+00  0.13877232706E+01 -0.36366344220E+01  0.43005189716E+01  0.17770000000E+01 0. -1.
</event>
<event>
 6    1  0.1697564E-002  0.1844590E+03  0.7546771E-02  0.1066906E+00
        -11   -1    0    0    0    0  0.00000000000E+00  0.00000000000E+00  0.18250000000E+03  0.18250000000E+03  0.00000000000E+00 0. -1.
         11   -1    0    0    0    0 -0.00000000000E+00 -0.00000000000E+00 -0.18250000000E+03  0.18250000000E+03  0.00000000000E+00 0.  1.
        -11    1    1    2    0    0  0.23925886961E+01  0.44878975905E+01  0.11428584424E+02  0.12509126564E+02  0.00000000000E+00 0. -1.
         11    1    1    2    0    0 -0.24091006094E+01  0.68127773760E+00 -0.18052361091E+03  0.18054097042E+03  0.00000000000E+00 0.  1.
        -15    1    1    2    0    0 -0.10011100072E+01 -0.55938947286E+01  0.16967516068E+03  0.16977959759E+03  0.17770000000E+01 0. -1.
         15    1    1    2    0    0  0.10176219204E+01  0.42471940053E+00 -0.58013419232E+00  0.21703054216E+01  0.17770000000E+01 0.  1.
</event>
<event>
 6    1  0.1697564E-002  0.1836295E+03  0.7546771E-02  0.1067559E+00
        -11   -1    0    0    0    0  0.00000000000E+00  0.00000000000E+00  0.18250000000E+03  0.18250000000E+03  0.00000000000E+00 0.  1.
         11   -1    0    0    0    0 -0.00000000000E+00 -0.00000000000E+00 -0.18250000000E+03  0.18250000000E+03  0.00000000000E+00 0. -1.
        -11    1    1    2    0    0  0.44722385285E+01  0.28769015725E+01  0.18129253832E+03  0.18137051010E+03  0.00000000000E+00 0.  1.
         11    1    1    2    0    0 -0.24462815394E+01 -0.24911057237E+01 -0.17516199229E+03  0.17519678492E+03  0.00000000000E+00 0. -1.
        -15    1    1    2    0    0 -0.13352103380E+01  0.50921588698E+00 -0.38408164941E+00  0.23124305783E+01  0.17770000000E+01 0.  1.
         15    1    1    2    0    0 -0.69074665116E+00 -0.89501173583E+00 -0.57464643825E+01  0.61202744091E+01  0.17770000000E+01 0. -1.
</event>
<event>
 6    1  0.1697564E-002  0.1836812E+03  0.7546771E-02  0.1067518E+00
        -11   -1    0    0    0    0  0.00000000000E+00  0.00000000000E+00  0.18250000000E+03  0.18250000000E+03  0.00000000000E+00 0.  1.
         11   -1    0    0    0    0 -0.00000000000E+00 -0.00000000000E+00 -0.18250000000E+03  0.18250000000E+03  0.00000000000E+00 0. -1.
        -11    1    1    2    0    0  0.35245478011E+01 -0.10310378981E+01  0.18128160200E+03  0.18131879301E+03  0.00000000000E+00 0.  1.
         11    1    1    2    0    0 -0.38527674219E+01  0.26258659220E+01 -0.16065121019E+03  0.16071885491E+03  0.00000000000E+00 0. -1.
        -15    1    1    2    0    0 -0.32659600779E+01  0.20522578344E+01 -0.12404396198E+02  0.13111255908E+02  0.17770000000E+01 0.  1.
         15    1    1    2    0    0  0.35941796987E+01 -0.36470858583E+01 -0.82259956069E+01  0.98510961669E+01  0.17770000000E+01 0. -1.
</event>
<event>
 6    1  0.1697564E-002  0.1882752E+03  0.7546771E-02  0.1063948E+00
        -11   -1    0    0    0    0  0.00000000000E+00  0.00000000000E+00  0.18250000000E+03  0.18250000000E+03  0.00000000000E+00 0.  1.
         11   -1    0    0    0    0 -0.00000000000E+00 -0.00000000000E+00 -0.18250000000E+03  0.18250000000E+03  0.00000000000E+00 0.  1.
        -11    1    1    2    0    0  0.13348515994E+02 -0.24093215954E+00  0.17621977455E+03  0.17672478567E+03  0.00000000000E+00 0.  1.
         11    1    1    2    0    0  0.28240875187E+00 -0.26718028974E+01 -0.15667669566E+03  0.15669972958E+03  0.00000000000E+00 0.  1.
        -15    1    1    2    0    0 -0.63588352239E+01 -0.56635220146E+01  0.29437693785E+00  0.87037149423E+01  0.17770000000E+01 0.  1.
         15    1    1    2    0    0 -0.72720895215E+01  0.85762570716E+01 -0.19837455830E+02  0.22871769809E+02  0.17770000000E+01 0. -1.
</event>
<event>
 6    1  0.1697564E-002  0.1892417E+03  0.7546771E-02  0.1063212E+00
        -11   -1    0    0    0    0  0.00000000000E+00  0.00000000000E+00  0.18250000000E+03  0.18250000000E+03  0.00000000000E+00 0.  1.
         11   -1    0    0    0    0 -0.00000000000E+00 -0.00000000000E+00 -0.18250000000E+03  0.18250000000E+03  0.00000000000E+00 0. -1.
        -11    1    1    2    0    0 -0.35653534112E+01  0.49195137726E-01  0.17572211791E+03  0.17575829110E+03  0.00000000000E+00 0.  1.
         11    1    1    2    0    0 -0.35660226575E+01  0.21210618871E+00 -0.16018675635E+03  0.16022658461E+03  0.00000000000E+00 0. -1.
        -15    1    1    2    0    0  0.20761150436E+01 -0.19033126972E+01  0.59457904907E+01  0.68149105979E+01  0.17770000000E+01 0.  1.
         15    1    1    2    0    0  0.50552610251E+01  0.16420113707E+01 -0.21481152054E+02  0.22200213691E+02  0.17770000000E+01 0. -1.
</event>
<event>
 6    1  0.1697564E-002  0.1826447E+03  0.7546771E-02  0.1068340E+00
        -11   -1    0    0    0    0  0.00000000000E+00  0.00000000000E+00  0.18250000000E+03  0.18250000000E+03  0.00000000000E+00 0.  1.
         11   -1    0    0    0    0 -0.00000000000E+00 -0.00000000000E+00 -0.18250000000E+03  0.18250000000E+03  0.00000000000E+00 0. -1.
        -11    1    1    2    0    0 -0.18680481741E+01 -0.14071958254E+01  0.67517060041E+02  0.67557554727E+02  0.00000000000E+00 0.  1.
         11    1    1    2    0    0  0.52425213846E+01  0.21857806225E+01 -0.18226677109E+03  0.18235525084E+03  0.00000000000E+00 0. -1.
        -15    1    1    2    0    0 -0.26935169621E+00 -0.10692818742E+01  0.94412055806E+02  0.94435215490E+02  0.17770000000E+01 0.  1.
         15    1    1    2    0    0 -0.31051215143E+01  0.29069707707E+00  0.20337655241E+02  0.20651978939E+02  0.17770000000E+01 0. -1.
</event>
<event>
 6    1  0.1697564E-002  0.1831559E+03  0.7546771E-02  0.1067934E+00
        -11   -1    0    0    0    0  0.00000000000E+00  0.00000000000E+00  0.18250000000E+03  0.18250000000E+03  0.00000000000E+00 0. -1.
         11   -1    0    0    0    0 -0.00000000000E+00 -0.00000000000E+00 -0.18250000000E+03  0.18250000000E+03  0.00000000000E+00 0.  1.
        -11    1    1    2    0    0 -0.22097708756E+01  0.10795713236E+01  0.18182742934E+03  0.18184406128E+03  0.00000000000E+00 0. -1.
         11    1    1    2    0    0 -0.22554157993E+01 -0.26597431620E+00 -0.16060428565E+03  0.16062034183E+03  0.00000000000E+00 0.  1.
        -15    1    1    2    0    0  0.35046910337E+01 -0.34437333721E+00 -0.19327754386E+02  0.19726157022E+02  0.17770000000E+01 0. -1.
         15    1    1    2    0    0  0.96049564117E+00 -0.46922367019E+00 -0.18953893091E+01  0.28094398663E+01  0.17770000000E+01 0.  1.
</event>
<event>
 6    1  0.1697564E-002  0.1848218E+03  0.7546771E-02  0.1066622E+00
        -11   -1    0    0    0    0  0.00000000000E+00  0.00000000000E+00  0.18250000000E+03  0.18250000000E+03  0.00000000000E+00 0.  1.
         11   -1    0    0    0    0 -0.00000000000E+00 -0.00000000000E+00 -0.18250000000E+03  0.18250000000E+03  0.00000000000E+00 0. -1.
        -11    1    1    2    0    0 -0.86570741395E+00 -0.77636674886E+01  0.18000876710E+03  0.18017819017E+03  0.00000000000E+00 0.  1.
         11    1    1    2    0    0 -0.18589684754E+01  0.30797060518E+01 -0.17387610915E+03  0.17391331659E+03  0.00000000000E+00 0. -1.
        -15    1    1    2    0    0  0.12718153383E+01  0.58789390263E+01 -0.52345524603E+01  0.81693149523E+01  0.17770000000E+01 0.  1.
         15    1    1    2    0    0  0.14528605510E+01 -0.11949775896E+01 -0.89810548783E+00  0.27391782869E+01  0.17770000000E+01 0. -1.
</event>
<event>
 6    1  0.1697564E-002  0.1833216E+03  0.7546771E-02  0.1067803E+00
        -11   -1    0    0    0    0  0.00000000000E+00  0.00000000000E+00  0.18250000000E+03  0.18250000000E+03  0.00000000000E+00 0.  1.
         11   -1    0    0    0    0 -0.00000000000E+00 -0.00000000000E+00 -0.18250000000E+03  0.18250000000E+03  0.00000000000E+00 0. -1.
        -11    1    1    2    0    0 -0.22921337638E+01  0.21526527149E+01  0.16936685258E+03  0.16939604052E+03  0.00000000000E+00 0.  1.
         11    1    1    2    0    0  0.14026754881E+01  0.25092410956E+01 -0.18165562761E+03  0.18167837194E+03  0.00000000000E+00 0. -1.
        -15    1    1    2    0    0  0.12431268974E+01 -0.31815994086E+01  0.96996331507E+01  0.10435926003E+02  0.17770000000E+01 0.  1.
         15    1    1    2    0    0 -0.35366862164E+00 -0.14802944019E+01  0.25891418767E+01  0.34896615406E+01  0.17770000000E+01 0. -1.
</event>
<event>
 6    1  0.1697564E-002  0.1882793E+03  0.7546771E-02  0.1063945E+00
        -11   -1    0    0    0    0  0.00000000000E+00  0.00000000000E+00  0.18250000000E+03  0.18250000000E+03  0.00000000000E+00 0.  1.
         11   -1    0    0    0    0 -0.00000000000E+00 -0.00000000000E+00 -0.18250000000E+03  0.18250000000E+03  0.00000000000E+00 0. -1.
        -11    1    1    2    0    0 -0.11300103662E+01 -0.42618247528E+01  0.16223667981E+03  0.16229658144E+03  0.00000000000E+00 0.  1.
         11    1    1    2    0    0 -0.96840129116E+01  0.18712404779E+00 -0.17645511368E+03  0.17672074656E+03  0.00000000000E+00 0. -1.
        -15    1    1    2    0    0  0.86532467849E+01  0.18222989497E+01 -0.21104629951E+01  0.92634354554E+01  0.17770000000E+01 0.  1.
         15    1    1    2    0    0  0.21607764930E+01  0.22524017553E+01  0.16328896867E+02  0.16719236544E+02  0.17770000000E+01 0. -1.
</event>
<event>
 6    1  0.1697564E-002  0.1783316E+03  0.7546771E-02  0.1071822E+00
        -11   -1    0    0    0    0  0.00000000000E+00  0.00000000000E+00  0.18250000000E+03  0.18250000000E+03  0.00000000000E+00 0.  1.
         11   -1    0    0    0    0 -0.00000000000E+00 -0.00000000000E+00 -0.18250000000E+03  0.18250000000E+03  0.00000000000E+00 0. -1.
        -11    1    1    2    0    0  0.95790404558E+01  0.11071576999E+01  0.63660970452E+01  0.11554696267E+02  0.00000000000E+00 0.  1.
         11    1    1    2    0    0 -0.14993114652E+02 -0.67338108853E+01 -0.17770092525E+03  0.17845939743E+03  0.00000000000E+00 0. -1.
        -15    1    1    2    0    0  0.16799403368E+02 -0.63916570564E+01  0.70018722222E+02  0.72310804338E+02  0.17770000000E+01 0. -1.
         15    1    1    2    0    0 -0.11385329172E+02  0.12018310242E+02  0.10131610599E+03  0.10267510196E+03  0.17770000000E+01 0.  1.
</event>
<event>
 6    1  0.1697564E-002  0.1836431E+03  0.7546771E-02  0.1067548E+00
        -11   -1    0    0    0    0  0.00000000000E+00  0.00000000000E+00  0.18250000000E+03  0.18250000000E+03  0.00000000000E+00 0. -1.
         11   -1    0    0    0    0 -0.00000000000E+00 -0.00000000000E+00 -0.18250000000E+03  0.18250000000E+03  0.00000000000E+00 0. -1.
        -11    1    1    2    0    0  0.20280271098E+01 -0.33517023549E+01  0.16286424516E+03  0.16291135367E+03  0.00000000000E+00 0. -1.
         11    1    1    2    0    0 -0.19687795061E+01 -0.15123698806E+01 -0.18133987357E+03  0.18135686671E+03  0.00000000000E+00 0. -1.
        -15    1    1    2    0    0  0.20993057876E+01 -0.93125263452E+00  0.46507149656E+01  0.54828090383E+01  0.17770000000E+01 0.  1.
         15    1    1    2    0    0 -0.21585533913E+01  0.57953248700E+01  0.13824913442E+02  0.15248970580E+02  0.17770000000E+01 0. -1.
</event>
<event>
 6    1  0.1697564E-002  0.1891849E+03  0.7546771E-02  0.1063255E+00
        -11   -1    0    0    0    0  0.00000000000E+00  0.00000000000E+00  0.18250000000E+03  0.18250000000E+03  0.00000000000E+00 0.  1.
         11   -1    0    0    0    0 -0.00000000000E+00 -0.00000000000E+00 -0.18250000000E+03  0.18250000000E+03  0.00000000000E+00 0. -1.
        -11    1    1    2    0    0 -0.50749241595E+01 -0.59321212605E+01  0.17564164474E+03  0.17581505136E+03  0.00000000000E+00 0.  1.
         11    1    1    2    0    0  0.36980814457E+01 -0.61600395931E+01 -0.12815749738E+03  0.12835873959E+03  0.00000000000E+00 0. -1.
        -15    1    1    2    0    0 -0.32969826583E+01  0.61867020300E+01 -0.51570743914E+02  0.52075375500E+02  0.17770000000E+01 0. -1.
         15    1    1    2    0    0  0.46738253720E+01  0.59054588237E+01  0.40865965549E+01  0.87508335562E+01  0.17770000000E+01 0.  1.
</event>
<event>
 6    1  0.1698316E-002  0.1845011E+03  0.7546771E-02  0.1066873E+00
        -11   -1    0    0    0    0  0.00000000000E+00  0.00000000000E+00  0.18250000000E+03  0.18250000000E+03  0.00000000000E+00 0. -1.
         11   -1    0    0    0    0 -0.00000000000E+00 -0.00000000000E+00 -0.18250000000E+03  0.18250000000E+03  0.00000000000E+00 0. -1.
        -11    1    1    2    0    0  0.40549083882E+01 -0.23035781632E+01  0.16740220499E+03  0.16746715198E+03  0.00000000000E+00 0. -1.
         11    1    1    2    0    0 -0.38069368998E+01  0.20261301415E-01 -0.18045873820E+03  0.18049889022E+03  0.00000000000E+00 0. -1.
        -15    1    1    2    0    0  0.23142333765E+01 -0.20692975631E+00 -0.44166521107E+00  0.29582584748E+01  0.17770000000E+01 0.  1.
         15    1    1    2    0    0 -0.25622048649E+01  0.24902466181E+01  0.13498198418E+02  0.14075699327E+02  0.17770000000E+01 0. -1.
</event>
<event>
 6    1  0.1697564E-002  0.2061569E+03  0.7546771E-02  0.1051043E+00
        -11   -1    0    0    0    0  0.00000000000E+00  0.00000000000E+00  0.18250000000E+03  0.18250000000E+03  0.00000000000E+00 0. -1.
         11   -1    0    0    0    0 -0.00000000000E+00 -0.00000000000E+00 -0.18250000000E+03  0.18250000000E+03  0.00000000000E+00 0. -1.
        -11    1    1    2    0    0  0.27805730234E+01 -0.88921722375E-01  0.13985195231E+03  0.13987961988E+03  0.00000000000E+00 0. -1.
         11    1    1    2    0    0 -0.55804327901E+01 -0.12871930594E+01 -0.15873978048E+03  0.15884305463E+03  0.00000000000E+00 0. -1.
        -15    1    1    2    0    0 -0.97831925174E+01 -0.18192764844E+02  0.33026523976E+02  0.38994827393E+02  0.17770000000E+01 0.  1.
         15    1    1    2    0    0  0.12583052284E+02  0.19568879626E+02 -0.14138695799E+02  0.27282498099E+02  0.17770000000E+01 0. -1.
</event>
<event>
 6    1  0.1697564E-002  0.1830729E+03  0.7546771E-02  0.1068000E+00
        -11   -1    0    0    0    0  0.00000000000E+00  0.00000000000E+00  0.18250000000E+03  0.18250000000E+03  0.00000000000E+00 0.  1.
         11   -1    0    0    0    0 -0.00000000000E+00 -0.00000000000E+00 -0.18250000000E+03  0.18250000000E+03  0.00000000000E+00 0. -1.
        -11    1    1    2    0    0 -0.35260667879E-01 -0.17937451173E+01  0.65289757430E+02  0.65314402624E+02  0.00000000000E+00 0.  1.
         11    1    1    2    0    0 -0.34827693260E+01  0.38832078025E+01 -0.18185232627E+03  0.18192712154E+03  0.00000000000E+00 0. -1.
        -15    1    1    2    0    0 -0.67730711510E+00 -0.73449948266E-01  0.10662425808E+03  0.10664124100E+03  0.17770000000E+01 0.  1.
         15    1    1    2    0    0  0.41953371090E+01 -0.20160127370E+01  0.99383107512E+01  0.11117234836E+02  0.17770000000E+01 0. -1.
</event>
<event>
 6    1  0.1697564E-002  0.1834839E+03  0.7546771E-02  0.1067674E+00
        -11   -1    0    0    0    0  0.00000000000E+00  0.00000000000E+00  0.18250000000E+03  0.18250000000E+03  0.00000000000E+00 0. -1.
         11   -1    0    0    0    0 -0.00000000000E+00 -0.00000000000E+00 -0.18250000000E+03  0.18250000000E+03  0.00000000000E+00 0.  1.
        -11    1    1    2    0    0  0.12213903237E+01  0.47847006705E+01  0.18144890372E+03  0.18151608693E+03  0.00000000000E+00 0. -1.
         11    1    1    2    0    0  0.22931156449E+01 -0.12147338641E+01 -0.11276824116E+03  0.11279809472E+03  0.00000000000E+00 0.  1.
        -15    1    1    2    0    0  0.51615560671E+01 -0.32735769434E+01 -0.44094872385E+02  0.44551918776E+02  0.17770000000E+01 0.  1.
         15    1    1    2    0    0 -0.86760620357E+01 -0.29638986301E+00 -0.24585790170E+02  0.26133899569E+02  0.17770000000E+01 0. -1.
</event>
<event>
 6    1  0.1697564E-002  0.1845338E+03  0.7546771E-02  0.1066847E+00
        -11   -1    0    0    0    0  0.00000000000E+00  0.00000000000E+00  0.18250000000E+03  0.18250000000E+03  0.00000000000E+00 0. -1.
         11   -1    0    0    0    0 -0.00000000000E+00 -0.00000000000E+00 -0.18250000000E+03  0.18250000000E+03  0.00000000000E+00 0. -1.
        -11    1    1    2    0    0 -0.93190025066E-01  0.31171262551E+01  0.18043924540E+03  0.18046619196E+03  0.00000000000E+00 0. -1.
         11    1    1    2    0    0  0.24894333741E+01 -0.21477908955E+01 -0.17050733485E+03  0.17053903226E+03  0.00000000000E+00 0. -1.
        -15    1    1    2    0    0 -0.19204977815E+01  0.14772736162E+01 -0.10464863272E+02  0.10887687604E+02  0.17770000000E+01 0. -1.
         15    1    1    2    0    0 -0.47574556752E+00 -0.24466089757E+01  0.53295272174E+00  0.31070881752E+01  0.17770000000E+01 0.  1.
</event>
<event>
 6    1  0.1697564E-002  0.1836450E+03  0.7546771E-02  0.1067547E+00
        -11   -1    0    0    0    0  0.00000000000E+00  0.00000000000E+00  0.18250000000E+03  0.18250000000E+03  0.00000000000E+00 0.  1.
         11   -1    0    0    0    0 -0.00000000000E+00 -0.00000000000E+00 -0.18250000000E+03  0.18250000000E+03  0.00000000000E+00 0. -1.
        -11    1    1    2    0    0  0.22200588444E+01 -0.20160636408E+01  0.18133017372E+03  0.18135496981E+03  0.00000000000E+00 0.  1.
         11    1    1    2    0    0 -0.23694495513E+00 -0.18913271064E+01 -0.88415435911E+02  0.88435980056E+02  0.00000000000E+00 0. -1.
        -15    1    1    2    0    0 -0.53775920597E+01  0.84059765247E+01 -0.83365227345E+02  0.83979150966E+02  0.17770000000E+01 0. -1.
         15    1    1    2    0    0  0.33944781705E+01 -0.44985857774E+01 -0.95495104680E+01  0.11229899164E+02  0.17770000000E+01 0. -1.
</event>
<event>
 6    1  0.1697564E-002  0.1855622E+03  0.7546771E-02  0.1066043E+00
        -11   -1    0    0    0    0  0.00000000000E+00  0.00000000000E+00  0.18250000000E+03  0.18250000000E+03  0.00000000000E+00 0.  1.
         11   -1    0    0    0    0 -0.00000000000E+00 -0.00000000000E+00 -0.18250000000E+03  0.18250000000E+03  0.00000000000E+00 0. -1.
        -11    1    1    2    0    0  0.31621246290E+01 -0.54989150741E+01  0.14266794417E+03  0.14280889115E+03  0.00000000000E+00 0.  1.
         11    1    1    2    0    0 -0.76626017063E+01 -0.46768902884E+01 -0.17921306813E+03  0.17943776792E+03  0.00000000000E+00 0. -1.
        -15    1    1    2    0    0  0.58332266685E+01  0.68593290396E+01  0.37535023111E+02  0.38640815431E+02  0.17770000000E+01 0.  1.
         15    1    1    2    0    0 -0.13327495911E+01  0.33164763228E+01 -0.98989915009E+00  0.41125255014E+01  0.17770000000E+01 0. -1.
</event>
<event>
 6    1  0.1697564E-002  0.1844760E+03  0.7546771E-02  0.1066893E+00
        -11   -1    0    0    0    0  0.00000000000E+00  0.00000000000E+00  0.18250000000E+03  0.18250000000E+03  0.00000000000E+00 0. -1.
         11   -1    0    0    0    0 -0.00000000000E+00 -0.00000000000E+00 -0.18250000000E+03  0.18250000000E+03  0.00000000000E+00 0.  1.
        -11    1    1    2    0    0  0.41065235621E+01  0.86567824127E+00  0.15507013486E+03  0.15512691468E+03  0.00000000000E+00 0. -1.
         11    1    1    2    0    0 -0.85473663683E+01 -0.90956456446E+00 -0.18031922861E+03  0.18052398452E+03  0.00000000000E+00 0.  1.
        -15    1    1    2    0    0 -0.23760088925E+01 -0.26683668311E+01  0.19381790363E+02  0.19788307822E+02  0.17770000000E+01 0. -1.
         15    1    1    2    0    0  0.68168516988E+01  0.27122531543E+01  0.58673033905E+01  0.95607929761E+01  0.17770000000E+01 0.  1.
</event>
<event>
 6    1  0.1697564E-002  0.1859190E+03  0.7546771E-02  0.1065765E+00
        -11   -1    0    0    0    0  0.00000000000E+00  0.00000000000E+00  0.18250000000E+03  0.18250000000E+03  0.00000000000E+00 0.  1.
         11   -1    0    0    0    0 -0.00000000000E+00 -0.00000000000E+00 -0.18250000000E+03  0.18250000000E+03  0.00000000000E+00 0. -1.
        -11    1    1    2    0    0 -0.13942948657E+00  0.18129808463E+01  0.98344815445E+02  0.98361623944E+02  0.00000000000E+00 0.  1.
         11    1    1    2    0    0  0.10915036698E+01  0.25477016119E+01 -0.17905956971E+03  0.17908101984E+03  0.00000000000E+00 0. -1.
        -15    1    1    2    0    0 -0.28650736256E+01 -0.36570270979E+01 -0.15794730656E+01  0.52187123163E+01  0.17770000000E+01 0. -1.
         15    1    1    2    0    0  0.19129994424E+01 -0.70365536028E+00  0.82294227330E+02  0.82338643896E+02  0.17770000000E+01 0.  1.
</event>
<event>
 6    1  0.1697564E-002  0.1828329E+03  0.7546771E-02  0.1068190E+00
        -11   -1    0    0    0    0  0.00000000000E+00  0.00000000000E+00  0.18250000000E+03  0.18250000000E+03  0.00000000000E+00 0.  1.
         11   -1    0    0    0    0 -0.00000000000E+00 -0.00000000000E+00 -0.18250000000E+03  0.18250000000E+03  0.00000000000E+00 0. -1.
        -11    1    1    2    0    0  0.93665665791E+01 -0.89494348616E+00  0.18192389925E+03  0.18216706237E+03  0.00000000000E+00 0.  1.
         11    1    1    2    0    0 -0.19897448704E+01  0.24202192924E+01 -0.64060832700E+02  0.64137405875E+02  0.00000000000E+00 0. -1.
        -15    1    1    2    0    0 -0.38766439926E+01 -0.27547963040E+01 -0.16837521719E+02  0.17586276979E+02  0.17770000000E+01 0.  1.
         15    1    1    2    0    0 -0.35001777162E+01  0.12295204977E+01 -0.10102554483E+03  0.10110925478E+03  0.17770000000E+01 0. -1.
</event>
