<event>
 6    1  0.1360243E-005  0.5059974E+03  0.7546771E-02  0.9386489E-01
        -11   -1    0    0    0    0  0.00000000000E+00  0.00000000000E+00  0.50000000000E+03  0.50000000000E+03  0.00000000000E+00 0.  1.
         11   -1    0    0    0    0 -0.00000000000E+00 -0.00000000000E+00 -0.50000000000E+03  0.50000000000E+03  0.00000000000E+00 0. -1.
        -11    1    1    2    0    0 -0.19330289931E+02 -0.24281601230E+02  0.49302673513E+03  0.49400264961E+03  0.00000000000E+00 0.  1.
         11    1    1    2    0    0 -0.13689544781E+02 -0.35083580229E+02 -0.10865120536E+03  0.11499280701E+03  0.00000000000E+00 0. -1.
        -15    1    1    2    0    0  0.14849483071E+02  0.16303497859E+02 -0.77906949277E+02  0.80987416705E+02  0.17770000000E+01 0.  1.
         15    1    1    2    0    0  0.18170351641E+02  0.43061683599E+02 -0.30646858049E+03  0.31001712668E+03  0.17770000000E+01 0. -1.
</event>
<event>
 6    1  0.1360243E-005  0.4672430E+03  0.7546771E-02  0.9476245E-01
        -11   -1    0    0    0    0  0.00000000000E+00  0.00000000000E+00  0.50000000000E+03  0.50000000000E+03  0.00000000000E+00 0.  1.
         11   -1    0    0    0    0 -0.00000000000E+00 -0.00000000000E+00 -0.50000000000E+03  0.50000000000E+03  0.00000000000E+00 0.  1.
        -11    1    1    2    0    0 -0.31541184119E+02  0.45984024131E+02  0.47582195761E+03  0.47907818998E+03  0.00000000000E+00 0.  1.
         11    1    1    2    0    0 -0.15395827296E+02 -0.73746385561E+02 -0.45107678800E+03  0.45732464350E+03  0.00000000000E+00 0.  1.
        -15    1    1    2    0    0  0.38611139924E+02  0.28402035316E+02 -0.14187143298E+02  0.50019281285E+02  0.17770000000E+01 0.  1.
         15    1    1    2    0    0  0.83258714914E+01 -0.63967388583E+00 -0.10558026319E+02  0.13577885237E+02  0.17770000000E+01 0. -1.
</event>
<event>
 6    1  0.1360243E-005  0.5034259E+03  0.7546771E-02  0.9392177E-01
        -11   -1    0    0    0    0  0.00000000000E+00  0.00000000000E+00  0.50000000000E+03  0.50000000000E+03  0.00000000000E+00 0.  1.
         11   -1    0    0    0    0 -0.00000000000E+00 -0.00000000000E+00 -0.50000000000E+03  0.50000000000E+03  0.00000000000E+00 0.  1.
        -11    1    1    2    0    0  0.15349462435E+01  0.55919690887E+02  0.32656123793E+03  0.33131798926E+03  0.00000000000E+00 0.  1.
         11    1    1    2    0    0 -0.32061630189E+02 -0.44608860692E+02 -0.49352606233E+03  0.49657413623E+03  0.00000000000E+00 0.  1.
        -15    1    1    2    0    0  0.11923250647E+02  0.60254121902E+01  0.90698431316E+02  0.91694234661E+02  0.17770000000E+01 0. -1.
         15    1    1    2    0    0  0.18603433299E+02 -0.17336242386E+02  0.76266393085E+02  0.80413639849E+02  0.17770000000E+01 0.  1.
</event>
<event>
 6    1  0.1360243E-005  0.5027926E+03  0.7546771E-02  0.9393583E-01
        -11   -1    0    0    0    0  0.00000000000E+00  0.00000000000E+00  0.50000000000E+03  0.50000000000E+03  0.00000000000E+00 0.  1.
         11   -1    0    0    0    0 -0.00000000000E+00 -0.00000000000E+00 -0.50000000000E+03  0.50000000000E+03  0.00000000000E+00 0. -1.
        -11    1    1    2    0    0 -0.15288749916E+03  0.16745603513E+03  0.44249194166E+03  0.49720743110E+03  0.00000000000E+00 0.  1.
         11    1    1    2    0    0  0.13103919481E+03 -0.15286028095E+03 -0.37379969484E+03  0.42457478485E+03  0.00000000000E+00 0. -1.
        -15    1    1    2    0    0  0.96727567684E+01 -0.17294323189E+02 -0.59174530374E+02  0.62429469100E+02  0.17770000000E+01 0. -1.
         15    1    1    2    0    0  0.12175547584E+02  0.26985690119E+01 -0.95177164463E+01  0.15788314952E+02  0.17770000000E+01 0.  1.
</event>
<event>
 6    1  0.1360243E-005  0.5043583E+03  0.7546771E-02  0.9390110E-01
        -11   -1    0    0    0    0  0.00000000000E+00  0.00000000000E+00  0.50000000000E+03  0.50000000000E+03  0.00000000000E+00 0. -1.
         11   -1    0    0    0    0 -0.00000000000E+00 -0.00000000000E+00 -0.50000000000E+03  0.50000000000E+03  0.00000000000E+00 0.  1.
        -11    1    1    2    0    0  0.84267071706E+02  0.86153871487E+02  0.48076735639E+03  0.49564168501E+03  0.00000000000E+00 0. -1.
         11    1    1    2    0    0 -0.81586525470E+02 -0.64265460469E+02 -0.27139879408E+03  0.29059200948E+03  0.00000000000E+00 0.  1.
        -15    1    1    2    0    0 -0.86047965495E+01 -0.10182065607E+02 -0.18896829097E+03  0.18944627129E+03  0.17770000000E+01 0.  1.
         15    1    1    2    0    0  0.59242503132E+01 -0.11706345412E+02 -0.20400271342E+02  0.24320034221E+02  0.17770000000E+01 0. -1.
</event>
<event>
 6    1  0.1360243E-005  0.5004333E+03  0.7546771E-02  0.9398841E-01
        -11   -1    0    0    0    0  0.00000000000E+00  0.00000000000E+00  0.50000000000E+03  0.50000000000E+03  0.00000000000E+00 0.  1.
         11   -1    0    0    0    0 -0.00000000000E+00 -0.00000000000E+00 -0.50000000000E+03  0.50000000000E+03  0.00000000000E+00 0.  1.
        -11    1    1    2    0    0  0.11510281096E+02 -0.49042865968E+02  0.48503412759E+03  0.48764310125E+03  0.00000000000E+00 0.  1.
         11    1    1    2    0    0 -0.12903241701E+02  0.50294295209E+02 -0.49686097553E+03  0.49956665099E+03  0.00000000000E+00 0.  1.
        -15    1    1    2    0    0  0.44225142155E-01  0.61069762901E+00  0.58480608579E+01  0.61426746825E+01  0.17770000000E+01 0. -1.
         15    1    1    2    0    0  0.13487354628E+01 -0.18621268701E+01  0.59787870803E+01  0.66475730745E+01  0.17770000000E+01 0. -1.
</event>
<event>
 6    1  0.1360243E-005  0.5119145E+03  0.7546771E-02  0.9373538E-01
        -11   -1    0    0    0    0  0.00000000000E+00  0.00000000000E+00  0.50000000000E+03  0.50000000000E+03  0.00000000000E+00 0. -1.
         11   -1    0    0    0    0 -0.00000000000E+00 -0.00000000000E+00 -0.50000000000E+03  0.50000000000E+03  0.00000000000E+00 0. -1.
        -11    1    1    2    0    0  0.27749367505E+02 -0.21450285304E+02  0.48682373230E+03  0.48808553396E+03  0.00000000000E+00 0. -1.
         11    1    1    2    0    0 -0.83764678769E+02  0.13185004748E+02 -0.17183125554E+03  0.19161509893E+03  0.00000000000E+00 0. -1.
        -15    1    1    2    0    0  0.39550202606E+01 -0.48370152485E+00 -0.43362622396E+02  0.43581543140E+02  0.17770000000E+01 0.  1.
         15    1    1    2    0    0  0.52060291004E+02  0.87489820810E+01 -0.27162985436E+03  0.27671782396E+03  0.17770000000E+01 0. -1.
</event>
<event>
 6    1  0.1360243E-005  0.5128258E+03  0.7546771E-02  0.9371560E-01
        -11   -1    0    0    0    0  0.00000000000E+00  0.00000000000E+00  0.50000000000E+03  0.50000000000E+03  0.00000000000E+00 0.  1.
         11   -1    0    0    0    0 -0.00000000000E+00 -0.00000000000E+00 -0.50000000000E+03  0.50000000000E+03  0.00000000000E+00 0. -1.
        -11    1    1    2    0    0 -0.16413845370E+03 -0.47641878226E+02  0.45620997369E+03  0.48717422001E+03  0.00000000000E+00 0.  1.
         11    1    1    2    0    0  0.11651595980E+03  0.45203309627E+02 -0.12146041020E+03  0.17427546969E+03  0.00000000000E+00 0. -1.
        -15    1    1    2    0    0  0.38448158757E+02  0.77809782801E+01 -0.23999092010E+03  0.24318224440E+03  0.17770000000E+01 0. -1.
         15    1    1    2    0    0  0.91743351429E+01 -0.53424096812E+01 -0.94758643395E+02  0.95368065900E+02  0.17770000000E+01 0.  1.
</event>
<event>
 6    1  0.1360243E-005  0.5075175E+03  0.7546771E-02  0.9383144E-01
        -11   -1    0    0    0    0  0.00000000000E+00  0.00000000000E+00  0.50000000000E+03  0.50000000000E+03  0.00000000000E+00 0. -1.
         11   -1    0    0    0    0 -0.00000000000E+00 -0.00000000000E+00 -0.50000000000E+03  0.50000000000E+03  0.00000000000E+00 0. -1.
        -11    1    1    2    0    0  0.41908215065E+02 -0.51785386176E+02  0.18749222573E+03  0.19897577596E+03  0.00000000000E+00 0. -1.
         11    1    1    2    0    0 -0.20503628518E+02  0.45846739174E+02  0.30442674914E+03  0.30854167930E+03  0.00000000000E+00 0. -1.
        -15    1    1    2    0    0 -0.97701528875E+01  0.36548561646E+01 -0.16160161818E+03  0.16194769090E+03  0.17770000000E+01 0.  1.
         15    1    1    2    0    0 -0.11634433660E+02  0.22837908371E+01 -0.33031735669E+03  0.33053485384E+03  0.17770000000E+01 0. -1.
</event>
<event>
 6    1  0.1360243E-005  0.4905675E+03  0.7546771E-02  0.9421167E-01
        -11   -1    0    0    0    0  0.00000000000E+00  0.00000000000E+00  0.50000000000E+03  0.50000000000E+03  0.00000000000E+00 0.  1.
         11   -1    0    0    0    0 -0.00000000000E+00 -0.00000000000E+00 -0.50000000000E+03  0.50000000000E+03  0.00000000000E+00 0. -1.
        -11    1    1    2    0    0 -0.92283414661E+02  0.24166654356E+03  0.41205224350E+03  0.48652440666E+03  0.00000000000E+00 0.  1.
         11    1    1    2    0    0  0.10238806839E+03 -0.23305852589E+03 -0.42426895907E+03  0.49477645727E+03  0.00000000000E+00 0. -1.
        -15    1    1    2    0    0 -0.45977586846E+01 -0.27590117425E+01  0.31979165023E+01  0.64912194288E+01  0.17770000000E+01 0. -1.
         15    1    1    2    0    0 -0.55068950448E+01 -0.58490059240E+01  0.90187990631E+01  0.12207916648E+02  0.17770000000E+01 0. -1.
</event>
<event>
 6    1  0.1360243E-005  0.5021899E+03  0.7546771E-02  0.9394923E-01
        -11   -1    0    0    0    0  0.00000000000E+00  0.00000000000E+00  0.50000000000E+03  0.50000000000E+03  0.00000000000E+00 0. -1.
         11   -1    0    0    0    0 -0.00000000000E+00 -0.00000000000E+00 -0.50000000000E+03  0.50000000000E+03  0.00000000000E+00 0. -1.
        -11    1    1    2    0    0  0.25485060376E+02  0.87643431980E+02  0.48937104514E+03  0.49781008356E+03  0.00000000000E+00 0. -1.
         11    1    1    2    0    0 -0.36961464253E+02 -0.81983389108E+02 -0.33363564477E+03  0.34554329597E+03  0.00000000000E+00 0. -1.
        -15    1    1    2    0    0  0.21163441521E+01  0.28954553871E+01 -0.31576498371E+02  0.31829161988E+02  0.17770000000E+01 0. -1.
         15    1    1    2    0    0  0.93600597244E+01 -0.85554982587E+01 -0.12415890199E+03  0.12481745848E+03  0.17770000000E+01 0.  1.
</event>
<event>
 6    1  0.1360243E-005  0.5006112E+03  0.7546771E-02  0.9398443E-01
        -11   -1    0    0    0    0  0.00000000000E+00  0.00000000000E+00  0.50000000000E+03  0.50000000000E+03  0.00000000000E+00 0. -1.
         11   -1    0    0    0    0 -0.00000000000E+00 -0.00000000000E+00 -0.50000000000E+03  0.50000000000E+03  0.00000000000E+00 0.  1.
        -11    1    1    2    0    0  0.91958742278E+01 -0.20646336268E+02  0.49887710990E+03  0.49938883256E+03  0.00000000000E+00 0. -1.
         11    1    1    2    0    0 -0.19417874363E+02  0.53088889920E+01 -0.18429665177E+03  0.18539281001E+03  0.00000000000E+00 0.  1.
        -15    1    1    2    0    0  0.74447538313E+00  0.49555084781E+01 -0.56633473131E+02  0.56882504478E+02  0.17770000000E+01 0. -1.
         15    1    1    2    0    0  0.94775247521E+01  0.10381938798E+02 -0.25794698499E+03  0.25833585296E+03  0.17770000000E+01 0.  1.
</event>
<event>
 6    1  0.1360243E-005  0.5050975E+03  0.7546771E-02  0.9388475E-01
        -11   -1    0    0    0    0  0.00000000000E+00  0.00000000000E+00  0.50000000000E+03  0.50000000000E+03  0.00000000000E+00 0.  1.
         11   -1    0    0    0    0 -0.00000000000E+00 -0.00000000000E+00 -0.50000000000E+03  0.50000000000E+03  0.00000000000E+00 0. -1.
        -11    1    1    2    0    0  0.17701707824E+02 -0.58799129260E+02  0.49107820423E+03  0.49490250629E+03  0.00000000000E+00 0.  1.
         11    1    1    2    0    0 -0.51158765483E+02  0.53638156814E+02 -0.29106397988E+03  0.30035397706E+03  0.00000000000E+00 0. -1.
        -15    1    1    2    0    0  0.97973169408E+01 -0.10163133943E+02 -0.45627487789E+02  0.47794372908E+02  0.17770000000E+01 0.  1.
         15    1    1    2    0    0  0.23659740718E+02  0.15324106388E+02 -0.15438673656E+03  0.15694914374E+03  0.17770000000E+01 0. -1.
</event>
<event>
 6    1  0.1360243E-005  0.5055656E+03  0.7546771E-02  0.9387442E-01
        -11   -1    0    0    0    0  0.00000000000E+00  0.00000000000E+00  0.50000000000E+03  0.50000000000E+03  0.00000000000E+00 0.  1.
         11   -1    0    0    0    0 -0.00000000000E+00 -0.00000000000E+00 -0.50000000000E+03  0.50000000000E+03  0.00000000000E+00 0. -1.
        -11    1    1    2    0    0  0.10858100793E+03 -0.47282291900E+02  0.48004153932E+03  0.49443435346E+03  0.00000000000E+00 0.  1.
         11    1    1    2    0    0 -0.10386086790E+03  0.52912916831E+02 -0.25564435661E+03  0.28096422141E+03  0.00000000000E+00 0. -1.
        -15    1    1    2    0    0 -0.31716972135E+01 -0.19324575433E+01 -0.16105307218E+03  0.16110569153E+03  0.17770000000E+01 0. -1.
         15    1    1    2    0    0 -0.15484428179E+01 -0.36981673879E+01 -0.63344110532E+02  0.63495733599E+02  0.17770000000E+01 0. -1.
</event>
<event>
 6    1  0.1360243E-005  0.5056518E+03  0.7546771E-02  0.9387252E-01
        -11   -1    0    0    0    0  0.00000000000E+00  0.00000000000E+00  0.50000000000E+03  0.50000000000E+03  0.00000000000E+00 0.  1.
         11   -1    0    0    0    0 -0.00000000000E+00 -0.00000000000E+00 -0.50000000000E+03  0.50000000000E+03  0.00000000000E+00 0. -1.
        -11    1    1    2    0    0 -0.19622037897E+03 -0.38717441124E+02  0.45208264031E+03  0.49434824875E+03  0.00000000000E+00 0.  1.
         11    1    1    2    0    0  0.19346450130E+03  0.54982829519E+02 -0.36440956411E+03  0.41622824894E+03  0.00000000000E+00 0. -1.
        -15    1    1    2    0    0  0.25307552547E+01 -0.35467888366E+01 -0.20451130459E+02  0.20985492590E+02  0.17770000000E+01 0.  1.
         15    1    1    2    0    0  0.22512241554E+00 -0.12718599558E+02 -0.67221945748E+02  0.68438009716E+02  0.17770000000E+01 0.  1.
</event>
<event>
 6    1  0.1360243E-005  0.5340201E+03  0.7546771E-02  0.9326748E-01
        -11   -1    0    0    0    0  0.00000000000E+00  0.00000000000E+00  0.50000000000E+03  0.50000000000E+03  0.00000000000E+00 0. -1.
         11   -1    0    0    0    0 -0.00000000000E+00 -0.00000000000E+00 -0.50000000000E+03  0.50000000000E+03  0.00000000000E+00 0.  1.
        -11    1    1    2    0    0 -0.83688041741E+02  0.11576600903E+03  0.44354462469E+03  0.46597992582E+03  0.00000000000E+00 0. -1.
         11    1    1    2    0    0 -0.39082212249E+02  0.16991697673E+02 -0.17549390810E+03  0.18059415518E+03  0.00000000000E+00 0.  1.
        -15    1    1    2    0    0  0.26917421848E+02 -0.27570919874E+02  0.11057498306E+02  0.40126415482E+02  0.17770000000E+01 0. -1.
         15    1    1    2    0    0  0.95852832142E+02 -0.10518678683E+03 -0.27910821490E+03  0.31329950352E+03  0.17770000000E+01 0.  1.
</event>
<event>
 6    1  0.1360243E-005  0.5056680E+03  0.7546771E-02  0.9387216E-01
        -11   -1    0    0    0    0  0.00000000000E+00  0.00000000000E+00  0.50000000000E+03  0.50000000000E+03  0.00000000000E+00 0. -1.
         11   -1    0    0    0    0 -0.00000000000E+00 -0.00000000000E+00 -0.50000000000E+03  0.50000000000E+03  0.00000000000E+00 0. -1.
        -11    1    1    2    0    0  0.68786906451E+02  0.52795404587E+02  0.48666735211E+03  0.49433197838E+03  0.00000000000E+00 0. -1.
         11    1    1    2    0    0 -0.71910580696E+02 -0.49473191436E+02 -0.19548648789E+03  0.21408805486E+03  0.00000000000E+00 0. -1.
        -15    1    1    2    0    0 -0.36018331057E+01 -0.64686037299E+01 -0.14762061146E+03  0.14781684171E+03  0.17770000000E+01 0. -1.
         15    1    1    2    0    0  0.67255073503E+01  0.31463905794E+01 -0.14356025276E+03  0.14376312505E+03  0.17770000000E+01 0.  1.
</event>
<event>
 6    1  0.1360243E-005  0.5039817E+03  0.7546771E-02  0.9390944E-01
        -11   -1    0    0    0    0  0.00000000000E+00  0.00000000000E+00  0.50000000000E+03  0.50000000000E+03  0.00000000000E+00 0.  1.
         11   -1    0    0    0    0 -0.00000000000E+00 -0.00000000000E+00 -0.50000000000E+03  0.50000000000E+03  0.00000000000E+00 0.  1.
        -11    1    1    2    0    0  0.15914485031E+02 -0.38908458350E+02  0.49423372159E+03  0.49601825624E+03  0.00000000000E+00 0.  1.
         11    1    1    2    0    0 -0.22786627196E+02 -0.14849859020E+02 -0.24137590331E+03  0.24290342812E+03  0.00000000000E+00 0.  1.
        -15    1    1    2    0    0  0.11050997520E+02  0.61695427819E+01 -0.10275634774E+03  0.10354811700E+03  0.17770000000E+01 0. -1.
         15    1    1    2    0    0 -0.41788553556E+01  0.47588774588E+02 -0.15010147053E+03  0.15753019864E+03  0.17770000000E+01 0.  1.
</event>
<event>
 6    1  0.1360243E-005  0.5023472E+03  0.7546771E-02  0.9394573E-01
        -11   -1    0    0    0    0  0.00000000000E+00  0.00000000000E+00  0.50000000000E+03  0.50000000000E+03  0.00000000000E+00 0.  1.
         11   -1    0    0    0    0 -0.00000000000E+00 -0.00000000000E+00 -0.50000000000E+03  0.50000000000E+03  0.00000000000E+00 0. -1.
        -11    1    1    2    0    0  0.12799486702E+02 -0.63107763954E+02  0.29503106867E+03  0.30197640340E+03  0.00000000000E+00 0.  1.
         11    1    1    2    0    0 -0.11253471838E+01  0.53880045349E+02 -0.49472619249E+03  0.49765282198E+03  0.00000000000E+00 0. -1.
        -15    1    1    2    0    0 -0.28042221279E+01 -0.25051250633E+00  0.43248936851E+02  0.43376891152E+02  0.17770000000E+01 0. -1.
         15    1    1    2    0    0 -0.88699173907E+01  0.94782311119E+01  0.15644618697E+03  0.15699388347E+03  0.17770000000E+01 0. -1.
</event>
<event>
 6    1  0.1360243E-005  0.4489577E+03  0.7546771E-02  0.9521873E-01
        -11   -1    0    0    0    0  0.00000000000E+00  0.00000000000E+00  0.50000000000E+03  0.50000000000E+03  0.00000000000E+00 0.  1.
         11   -1    0    0    0    0 -0.00000000000E+00 -0.00000000000E+00 -0.50000000000E+03  0.50000000000E+03  0.00000000000E+00 0.  1.
        -11    1    1    2    0    0  0.17996288373E+03 -0.11065481767E+03  0.37795614653E+03  0.43299189010E+03  0.00000000000E+00 0.  1.
         11    1    1    2    0    0 -0.23031867796E+03  0.34792852554E+02 -0.40826159079E+03  0.47003697995E+03  0.00000000000E+00 0.  1.
        -15    1    1    2    0    0  0.46729715228E+02  0.64924098129E+02  0.23161757469E+02  0.83297236096E+02  0.17770000000E+01 0.  1.
         15    1    1    2    0    0  0.36260790042E+01  0.10937866985E+02  0.71436867933E+01  0.13673893854E+02  0.17770000000E+01 0. -1.
</event>
<event>
 6    1  0.1360243E-005  0.5038828E+03  0.7546771E-02  0.9391163E-01
        -11   -1    0    0    0    0  0.00000000000E+00  0.00000000000E+00  0.50000000000E+03  0.50000000000E+03  0.00000000000E+00 0. -1.
         11   -1    0    0    0    0 -0.00000000000E+00 -0.00000000000E+00 -0.50000000000E+03  0.50000000000E+03  0.00000000000E+00 0. -1.
        -11    1    1    2    0    0  0.74908568333E+02 -0.10309610011E+03  0.47947071450E+03  0.49611718931E+03  0.00000000000E+00 0. -1.
         11    1    1    2    0    0 -0.88617215564E+02  0.88273879651E+02 -0.45312109775E+03  0.47006809927E+03  0.00000000000E+00 0. -1.
        -15    1    1    2    0    0  0.73233449881E+00  0.20840843502E+01 -0.25675068511E+01  0.38248584062E+01  0.17770000000E+01 0. -1.
         15    1    1    2    0    0  0.12976312732E+02  0.12738136104E+02 -0.23782109896E+02  0.29989853011E+02  0.17770000000E+01 0. -1.
</event>
<event>
 6    1  0.1360243E-005  0.5084251E+03  0.7546771E-02  0.9381153E-01
        -11   -1    0    0    0    0  0.00000000000E+00  0.00000000000E+00  0.50000000000E+03  0.50000000000E+03  0.00000000000E+00 0. -1.
         11   -1    0    0    0    0 -0.00000000000E+00 -0.00000000000E+00 -0.50000000000E+03  0.50000000000E+03  0.00000000000E+00 0.  1.
        -11    1    1    2    0    0 -0.19645283960E+02 -0.72974205095E+02  0.48573115521E+03  0.49157494539E+03  0.00000000000E+00 0. -1.
         11    1    1    2    0    0 -0.49516480268E+01  0.33549294209E+02 -0.18575522954E+02  0.38666833503E+02  0.00000000000E+00 0.  1.
        -15    1    1    2    0    0  0.24988217554E+02  0.28211280320E+02 -0.33603003088E+03  0.33814143007E+03  0.17770000000E+01 0.  1.
         15    1    1    2    0    0 -0.39128556774E+00  0.11213630566E+02 -0.13112560138E+03  0.13161679103E+03  0.17770000000E+01 0. -1.
</event>
<event>
 6    1  0.1360243E-005  0.5184320E+03  0.7546771E-02  0.9359486E-01
        -11   -1    0    0    0    0  0.00000000000E+00  0.00000000000E+00  0.50000000000E+03  0.50000000000E+03  0.00000000000E+00 0. -1.
         11   -1    0    0    0    0 -0.00000000000E+00 -0.00000000000E+00 -0.50000000000E+03  0.50000000000E+03  0.00000000000E+00 0.  1.
        -11    1    1    2    0    0  0.10191022940E+02  0.18202411380E+02  0.24549493409E+03  0.24637968137E+03  0.00000000000E+00 0. -1.
         11    1    1    2    0    0 -0.91453713419E+02 -0.68355898372E+02 -0.46783693839E+03  0.48156797179E+03  0.00000000000E+00 0.  1.
        -15    1    1    2    0    0  0.98468958187E+02  0.13868237423E+02  0.20582323167E+03  0.22859314111E+03  0.17770000000E+01 0. -1.
         15    1    1    2    0    0 -0.17206267708E+02  0.36285249569E+02  0.16518772627E+02  0.43459205732E+02  0.17770000000E+01 0.  1.
</event>
<event>
 6    1  0.1360243E-005  0.5066919E+03  0.7546771E-02  0.9384959E-01
        -11   -1    0    0    0    0  0.00000000000E+00  0.00000000000E+00  0.50000000000E+03  0.50000000000E+03  0.00000000000E+00 0. -1.
         11   -1    0    0    0    0 -0.00000000000E+00 -0.00000000000E+00 -0.50000000000E+03  0.50000000000E+03  0.00000000000E+00 0. -1.
        -11    1    1    2    0    0  0.55881924679E+02 -0.17325994635E+03  0.31669277032E+03  0.36528907634E+03  0.00000000000E+00 0. -1.
         11    1    1    2    0    0 -0.63786016536E+02  0.17298221318E+03 -0.45756025828E+03  0.49330811055E+03  0.00000000000E+00 0. -1.
        -15    1    1    2    0    0 -0.31864545453E-01 -0.27200058505E+01  0.55913588087E+02  0.56007914699E+02  0.17770000000E+01 0.  1.
         15    1    1    2    0    0  0.79359564029E+01  0.29977390202E+01  0.84953899866E+02  0.85394898411E+02  0.17770000000E+01 0. -1.
</event>
<event>
 6    1  0.1360243E-005  0.5179436E+03  0.7546771E-02  0.9360531E-01
        -11   -1    0    0    0    0  0.00000000000E+00  0.00000000000E+00  0.50000000000E+03  0.50000000000E+03  0.00000000000E+00 0.  1.
         11   -1    0    0    0    0 -0.00000000000E+00 -0.00000000000E+00 -0.50000000000E+03  0.50000000000E+03  0.00000000000E+00 0. -1.
        -11    1    1    2    0    0  0.55593679747E+02 -0.96051867035E+02  0.46910737732E+03  0.48205637621E+03  0.00000000000E+00 0.  1.
         11    1    1    2    0    0 -0.58462633234E+02  0.91910427911E+02 -0.10352537165E+03  0.15027610861E+03  0.00000000000E+00 0. -1.
        -15    1    1    2    0    0  0.42737011081E-01  0.16174473065E+02 -0.31977934643E+03  0.32019307228E+03  0.17770000000E+01 0. -1.
         15    1    1    2    0    0  0.28262164761E+01 -0.12033033942E+02 -0.45802659245E+02  0.47474442896E+02  0.17770000000E+01 0.  1.
</event>
<event>
 6    1  0.1360243E-005  0.5150403E+03  0.7546771E-02  0.9366771E-01
        -11   -1    0    0    0    0  0.00000000000E+00  0.00000000000E+00  0.50000000000E+03  0.50000000000E+03  0.00000000000E+00 0.  1.
         11   -1    0    0    0    0 -0.00000000000E+00 -0.00000000000E+00 -0.50000000000E+03  0.50000000000E+03  0.00000000000E+00 0. -1.
        -11    1    1    2    0    0  0.58682625225E+02  0.21956441994E+03  0.42840838681E+03  0.48495972090E+03  0.00000000000E+00 0.  1.
         11    1    1    2    0    0 -0.32816902210E+02 -0.17074783474E+03 -0.15001023548E+03  0.22964068213E+03  0.00000000000E+00 0. -1.
        -15    1    1    2    0    0 -0.28502058548E+02 -0.25452550735E+02 -0.14659868685E+03  0.15150753247E+03  0.17770000000E+01 0.  1.
         15    1    1    2    0    0  0.26363355338E+01 -0.23364034464E+02 -0.13179946448E+03  0.13389206451E+03  0.17770000000E+01 0. -1.
</event>
<event>
 6    1  0.1360243E-005  0.5029124E+03  0.7546771E-02  0.9393316E-01
        -11   -1    0    0    0    0  0.00000000000E+00  0.00000000000E+00  0.50000000000E+03  0.50000000000E+03  0.00000000000E+00 0.  1.
         11   -1    0    0    0    0 -0.00000000000E+00 -0.00000000000E+00 -0.50000000000E+03  0.50000000000E+03  0.00000000000E+00 0. -1.
        -11    1    1    2    0    0 -0.10833398506E+03 -0.36131065392E+02  0.48379163446E+03  0.49708756953E+03  0.00000000000E+00 0.  1.
         11    1    1    2    0    0  0.11017861151E+03  0.33161160702E+02 -0.33869328876E+03  0.35770397379E+03  0.00000000000E+00 0. -1.
        -15    1    1    2    0    0 -0.67280948463E+00  0.15443273136E+01 -0.37628708874E+02  0.37708289274E+02  0.17770000000E+01 0. -1.
         15    1    1    2    0    0 -0.11718169612E+01  0.14255773768E+01 -0.10746963682E+03  0.10750016741E+03  0.17770000000E+01 0. -1.
</event>
<event>
 6    1  0.1360243E-005  0.5001429E+03  0.7546771E-02  0.9399490E-01
        -11   -1    0    0    0    0  0.00000000000E+00  0.00000000000E+00  0.50000000000E+03  0.50000000000E+03  0.00000000000E+00 0.  1.
         11   -1    0    0    0    0 -0.00000000000E+00 -0.00000000000E+00 -0.50000000000E+03  0.50000000000E+03  0.00000000000E+00 0. -1.
        -11    1    1    2    0    0 -0.50243687933E+02  0.15005860666E+02  0.49709905148E+03  0.49985705058E+03  0.00000000000E+00 0.  1.
         11    1    1    2    0    0  0.72379269569E+01 -0.20992472305E+01 -0.45765807933E+02  0.46382147442E+02  0.00000000000E+00 0. -1.
        -15    1    1    2    0    0  0.21859913281E+01 -0.42475970294E+01 -0.46086407179E+02  0.46367394733E+02  0.17770000000E+01 0. -1.
         15    1    1    2    0    0  0.40819769648E+02 -0.86590164057E+01 -0.40524683636E+03  0.40739340725E+03  0.17770000000E+01 0. -1.
</event>
<event>
 6    1  0.1360243E-005  0.5019614E+03  0.7546771E-02  0.9395431E-01
        -11   -1    0    0    0    0  0.00000000000E+00  0.00000000000E+00  0.50000000000E+03  0.50000000000E+03  0.00000000000E+00 0.  1.
         11   -1    0    0    0    0 -0.00000000000E+00 -0.00000000000E+00 -0.50000000000E+03  0.50000000000E+03  0.00000000000E+00 0.  1.
        -11    1    1    2    0    0 -0.53897842921E+01 -0.31824887732E+02  0.26981361402E+03  0.27173748281E+03  0.00000000000E+00 0.  1.
         11    1    1    2    0    0  0.41940221824E+02  0.99506323491E+02 -0.48619122594E+03  0.49803855152E+03  0.00000000000E+00 0.  1.
        -15    1    1    2    0    0 -0.30382657137E+02 -0.40949511997E+02  0.13432811655E+03  0.14369122803E+03  0.17770000000E+01 0.  1.
         15    1    1    2    0    0 -0.61677803944E+01 -0.26731923762E+02  0.82049495371E+02  0.86532737635E+02  0.17770000000E+01 0. -1.
</event>
<event>
 6    1  0.1360243E-005  0.5226370E+03  0.7546771E-02  0.9350535E-01
        -11   -1    0    0    0    0  0.00000000000E+00  0.00000000000E+00  0.50000000000E+03  0.50000000000E+03  0.00000000000E+00 0.  1.
         11   -1    0    0    0    0 -0.00000000000E+00 -0.00000000000E+00 -0.50000000000E+03  0.50000000000E+03  0.00000000000E+00 0. -1.
        -11    1    1    2    0    0  0.26795680126E+03  0.12227726416E+03  0.23902689535E+03  0.37932365254E+03  0.00000000000E+00 0.  1.
         11    1    1    2    0    0 -0.26049438831E+03 -0.11871076473E+03 -0.38200245909E+03  0.47736301779E+03  0.00000000000E+00 0. -1.
        -15    1    1    2    0    0 -0.24968475639E+01  0.55848664464E+00  0.50072883467E+02  0.50169687489E+02  0.17770000000E+01 0. -1.
         15    1    1    2    0    0 -0.49655653927E+01 -0.41249860726E+01  0.92902680265E+02  0.93143642184E+02  0.17770000000E+01 0.  1.
</event>
<event>
 6    1  0.1360243E-005  0.5070893E+03  0.7546771E-02  0.9384085E-01
        -11   -1    0    0    0    0  0.00000000000E+00  0.00000000000E+00  0.50000000000E+03  0.50000000000E+03  0.00000000000E+00 0.  1.
         11   -1    0    0    0    0 -0.00000000000E+00 -0.00000000000E+00 -0.50000000000E+03  0.50000000000E+03  0.00000000000E+00 0.  1.
        -11    1    1    2    0    0 -0.32634530541E+02  0.28722611006E+02  0.54152676735E+02  0.69444318444E+02  0.00000000000E+00 0.  1.
         11    1    1    2    0    0  0.13331134471E+03  0.34548207304E+02 -0.47328154345E+03  0.49291065380E+03  0.00000000000E+00 0.  1.
        -15    1    1    2    0    0 -0.63763090885E+02 -0.30560039453E+02  0.17841437660E+03  0.19192314940E+03  0.17770000000E+01 0. -1.
         15    1    1    2    0    0 -0.36913723286E+02 -0.32710778857E+02  0.24071449012E+03  0.24572187835E+03  0.17770000000E+01 0.  1.
</event>
<event>
 6    1  0.1360243E-005  0.5146505E+03  0.7546771E-02  0.9367612E-01
        -11   -1    0    0    0    0  0.00000000000E+00  0.00000000000E+00  0.50000000000E+03  0.50000000000E+03  0.00000000000E+00 0.  1.
         11   -1    0    0    0    0 -0.00000000000E+00 -0.00000000000E+00 -0.50000000000E+03  0.50000000000E+03  0.00000000000E+00 0.  1.
        -11    1    1    2    0    0  0.14060039776E+03  0.33377602404E+02  0.46333741766E+03  0.48534946049E+03  0.00000000000E+00 0.  1.
         11    1    1    2    0    0 -0.10580044471E+03 -0.40502564771E+02 -0.10495513562E+03  0.15443371505E+03  0.00000000000E+00 0.  1.
        -15    1    1    2    0    0 -0.31638531263E+02  0.74446043167E+01 -0.31268805527E+03  0.31437779252E+03  0.17770000000E+01 0.  1.
         15    1    1    2    0    0 -0.31614217898E+01 -0.31964195053E+00 -0.45694226779E+02  0.45839031934E+02  0.17770000000E+01 0. -1.
</event>
<event>
 6    1  0.1360243E-005  0.5071625E+03  0.7546771E-02  0.9383924E-01
        -11   -1    0    0    0    0  0.00000000000E+00  0.00000000000E+00  0.50000000000E+03  0.50000000000E+03  0.00000000000E+00 0. -1.
         11   -1    0    0    0    0 -0.00000000000E+00 -0.00000000000E+00 -0.50000000000E+03  0.50000000000E+03  0.00000000000E+00 0.  1.
        -11    1    1    2    0    0  0.13166583296E+02  0.16011721515E+03  0.46591620914E+03  0.49283749395E+03  0.00000000000E+00 0. -1.
         11    1    1    2    0    0 -0.94653004370E+01 -0.16299397556E+03 -0.46156235793E+03  0.48958802910E+03  0.00000000000E+00 0.  1.
        -15    1    1    2    0    0 -0.94048666291E+01  0.16672056527E+01 -0.57933679793E+01  0.11311583998E+02  0.17770000000E+01 0.  1.
         15    1    1    2    0    0  0.57035837699E+01  0.12095547531E+01  0.14395167688E+01  0.62628929457E+01  0.17770000000E+01 0. -1.
</event>
<event>
 6    1  0.1360243E-005  0.5033834E+03  0.7546771E-02  0.9392271E-01
        -11   -1    0    0    0    0  0.00000000000E+00  0.00000000000E+00  0.50000000000E+03  0.50000000000E+03  0.00000000000E+00 0. -1.
         11   -1    0    0    0    0 -0.00000000000E+00 -0.00000000000E+00 -0.50000000000E+03  0.50000000000E+03  0.00000000000E+00 0.  1.
        -11    1    1    2    0    0  0.68242742576E+02 -0.35197879140E+01  0.49189286934E+03  0.49661660839E+03  0.00000000000E+00 0. -1.
         11    1    1    2    0    0 -0.67726547465E+02 -0.16288917843E+02 -0.26123760469E+03  0.27036512383E+03  0.00000000000E+00 0.  1.
        -15    1    1    2    0    0 -0.72894637152E+01  0.23855045663E+02 -0.17619502739E+03  0.17796079594E+03  0.17770000000E+01 0.  1.
         15    1    1    2    0    0  0.67732686037E+01 -0.40463399059E+01 -0.54460237257E+02  0.55057471839E+02  0.17770000000E+01 0. -1.
</event>
<event>
 6    1  0.1360243E-005  0.5044588E+03  0.7546771E-02  0.9389888E-01
        -11   -1    0    0    0    0  0.00000000000E+00  0.00000000000E+00  0.50000000000E+03  0.50000000000E+03  0.00000000000E+00 0.  1.
         11   -1    0    0    0    0 -0.00000000000E+00 -0.00000000000E+00 -0.50000000000E+03  0.50000000000E+03  0.00000000000E+00 0. -1.
        -11    1    1    2    0    0 -0.16924480659E+03 -0.16275186745E+03  0.27674032183E+03  0.36292861646E+03  0.00000000000E+00 0.  1.
         11    1    1    2    0    0  0.20158837909E+03  0.18824150712E+03 -0.41168961336E+03  0.49554119640E+03  0.00000000000E+00 0. -1.
        -15    1    1    2    0    0 -0.77110694055E+01 -0.12257981542E+02  0.49421865334E+02  0.51530546328E+02  0.17770000000E+01 0. -1.
         15    1    1    2    0    0 -0.24632503095E+02 -0.13231658124E+02  0.85527426195E+02  0.89999640810E+02  0.17770000000E+01 0.  1.
</event>
<event>
 6    1  0.1360243E-005  0.5215040E+03  0.7546771E-02  0.9352938E-01
        -11   -1    0    0    0    0  0.00000000000E+00  0.00000000000E+00  0.50000000000E+03  0.50000000000E+03  0.00000000000E+00 0. -1.
         11   -1    0    0    0    0 -0.00000000000E+00 -0.00000000000E+00 -0.50000000000E+03  0.50000000000E+03  0.00000000000E+00 0.  1.
        -11    1    1    2    0    0 -0.28924627937E+02 -0.24081933864E+02  0.28738353180E+03  0.28983765799E+03  0.00000000000E+00 0. -1.
         11    1    1    2    0    0 -0.66461835209E+02  0.22238081614E+02 -0.47333572095E+03  0.47849599010E+03  0.00000000000E+00 0.  1.
        -15    1    1    2    0    0  0.81551774614E+02  0.15792732350E+02  0.19346990125E+03  0.21055607983E+03  0.17770000000E+01 0. -1.
         15    1    1    2    0    0  0.13834688532E+02 -0.13948880100E+02 -0.75177120947E+01  0.21110272072E+02  0.17770000000E+01 0.  1.
</event>
<event>
 6    1  0.1360243E-005  0.5041039E+03  0.7546771E-02  0.9390674E-01
        -11   -1    0    0    0    0  0.00000000000E+00  0.00000000000E+00  0.50000000000E+03  0.50000000000E+03  0.00000000000E+00 0. -1.
         11   -1    0    0    0    0 -0.00000000000E+00 -0.00000000000E+00 -0.50000000000E+03  0.50000000000E+03  0.00000000000E+00 0.  1.
        -11    1    1    2    0    0 -0.32822640114E+02  0.16920876765E+03  0.39568940085E+03  0.43160054993E+03  0.00000000000E+00 0. -1.
         11    1    1    2    0    0  0.57307902853E+02 -0.17075821102E+03 -0.46202859351E+03  0.49589614193E+03  0.00000000000E+00 0.  1.
        -15    1    1    2    0    0 -0.40569365122E+01  0.19951026472E+01  0.25263979105E+01  0.54753615259E+01  0.17770000000E+01 0.  1.
         15    1    1    2    0    0 -0.20428326227E+02 -0.44565927778E+00  0.63812794751E+02  0.67027946616E+02  0.17770000000E+01 0. -1.
</event>
<event>
 6    1  0.1360243E-005  0.5111158E+03  0.7546771E-02  0.9375275E-01
        -11   -1    0    0    0    0  0.00000000000E+00  0.00000000000E+00  0.50000000000E+03  0.50000000000E+03  0.00000000000E+00 0. -1.
         11   -1    0    0    0    0 -0.00000000000E+00 -0.00000000000E+00 -0.50000000000E+03  0.50000000000E+03  0.00000000000E+00 0. -1.
        -11    1    1    2    0    0  0.51708184833E+02 -0.59198549022E+02  0.48252419201E+03  0.48888424034E+03  0.00000000000E+00 0. -1.
         11    1    1    2    0    0 -0.41932498142E+02  0.99081074929E+01 -0.23347433722E+02  0.49006200178E+02  0.00000000000E+00 0. -1.
        -15    1    1    2    0    0 -0.10711473424E+02  0.45178735381E+02 -0.43715127368E+03  0.43961374819E+03  0.17770000000E+01 0. -1.
         15    1    1    2    0    0  0.93578673262E+00  0.41117061475E+01 -0.22025484604E+02  0.22495811284E+02  0.17770000000E+01 0.  1.
</event>
<event>
 6    1  0.1360243E-005  0.5099558E+03  0.7546771E-02  0.9377804E-01
        -11   -1    0    0    0    0  0.00000000000E+00  0.00000000000E+00  0.50000000000E+03  0.50000000000E+03  0.00000000000E+00 0. -1.
         11   -1    0    0    0    0 -0.00000000000E+00 -0.00000000000E+00 -0.50000000000E+03  0.50000000000E+03  0.00000000000E+00 0. -1.
        -11    1    1    2    0    0 -0.65410078442E+01  0.91903891596E+02  0.48130471518E+03  0.49004422140E+03  0.00000000000E+00 0. -1.
         11    1    1    2    0    0  0.16065021097E+02 -0.12828406361E+03 -0.38432896831E+03  0.40549185166E+03  0.00000000000E+00 0. -1.
        -15    1    1    2    0    0 -0.31784984072E+01  0.27643372751E+02 -0.68417650458E+02  0.73880928069E+02  0.17770000000E+01 0.  1.
         15    1    1    2    0    0 -0.63455148452E+01  0.87367992608E+01 -0.28558096413E+02  0.30582998867E+02  0.17770000000E+01 0. -1.
</event>
<event>
 6    1  0.1360243E-005  0.4838870E+03  0.7546771E-02  0.9436604E-01
        -11   -1    0    0    0    0  0.00000000000E+00  0.00000000000E+00  0.50000000000E+03  0.50000000000E+03  0.00000000000E+00 0.  1.
         11   -1    0    0    0    0 -0.00000000000E+00 -0.00000000000E+00 -0.50000000000E+03  0.50000000000E+03  0.00000000000E+00 0. -1.
        -11    1    1    2    0    0 -0.19364072890E+03 -0.18700498994E+03  0.40189155505E+03  0.48371936097E+03  0.00000000000E+00 0.  1.
         11    1    1    2    0    0  0.18859349639E+03  0.20450852667E+03 -0.39635711949E+03  0.48424189259E+03  0.00000000000E+00 0. -1.
        -15    1    1    2    0    0 -0.40383521506E+01 -0.10169935384E+02 -0.13742270684E+02  0.17656262525E+02  0.17770000000E+01 0.  1.
         15    1    1    2    0    0  0.90855846622E+01 -0.73336013404E+01  0.82078351281E+01  0.14382483922E+02  0.17770000000E+01 0. -1.
</event>
<event>
 6    1  0.1360243E-005  0.4272465E+03  0.7546771E-02  0.9579154E-01
        -11   -1    0    0    0    0  0.00000000000E+00  0.00000000000E+00  0.50000000000E+03  0.50000000000E+03  0.00000000000E+00 0.  1.
         11   -1    0    0    0    0 -0.00000000000E+00 -0.00000000000E+00 -0.50000000000E+03  0.50000000000E+03  0.00000000000E+00 0. -1.
        -11    1    1    2    0    0 -0.10077232647E+03 -0.56149774447E+02  0.41796397984E+03  0.43359168281E+03  0.00000000000E+00 0.  1.
         11    1    1    2    0    0  0.18739273927E+02  0.78101687445E+02 -0.41745431616E+03  0.42511073857E+03  0.00000000000E+00 0. -1.
        -15    1    1    2    0    0 -0.18004204931E+02 -0.24867271426E+02  0.23092369584E+02  0.38457090963E+02  0.17770000000E+01 0. -1.
         15    1    1    2    0    0  0.10003725748E+03  0.29153584278E+01 -0.23602033270E+02  0.10284048766E+03  0.17770000000E+01 0.  1.
</event>
<event>
 6    1  0.1360243E-005  0.3682348E+03  0.7546771E-02  0.9755213E-01
        -11   -1    0    0    0    0  0.00000000000E+00  0.00000000000E+00  0.50000000000E+03  0.50000000000E+03  0.00000000000E+00 0. -1.
         11   -1    0    0    0    0 -0.00000000000E+00 -0.00000000000E+00 -0.50000000000E+03  0.50000000000E+03  0.00000000000E+00 0. -1.
        -11    1    1    2    0    0  0.58069293548E+02 -0.94283113035E+02  0.28955993824E+03  0.31001017094E+03  0.00000000000E+00 0. -1.
         11    1    1    2    0    0  0.88312140871E+02  0.31506443271E+02 -0.45092511501E+03  0.46057046100E+03  0.00000000000E+00 0. -1.
        -15    1    1    2    0    0  0.93085767699E+00 -0.53095921339E+00  0.51629520956E+01  0.55643703186E+01  0.17770000000E+01 0.  1.
         15    1    1    2    0    0 -0.14731229210E+03  0.63307628978E+02  0.15620222468E+03  0.22385499774E+03  0.17770000000E+01 0. -1.
</event>
<event>
 6    1  0.1360243E-005  0.5316653E+03  0.7546771E-02  0.9331617E-01
        -11   -1    0    0    0    0  0.00000000000E+00  0.00000000000E+00  0.50000000000E+03  0.50000000000E+03  0.00000000000E+00 0. -1.
         11   -1    0    0    0    0 -0.00000000000E+00 -0.00000000000E+00 -0.50000000000E+03  0.50000000000E+03  0.00000000000E+00 0. -1.
        -11    1    1    2    0    0  0.72166750704E+02 -0.70855869459E+02  0.45728416969E+03  0.46833471577E+03  0.00000000000E+00 0. -1.
         11    1    1    2    0    0  0.57382839286E+02  0.48740407996E+02 -0.97434237597E+02  0.12313345716E+03  0.00000000000E+00 0. -1.
        -15    1    1    2    0    0 -0.67720021561E+02  0.74897290555E+02 -0.26504032290E+03  0.28362851751E+03  0.17770000000E+01 0.  1.
         15    1    1    2    0    0 -0.61829568429E+02 -0.52781829092E+02 -0.94809609196E+02  0.12490330956E+03  0.17770000000E+01 0. -1.
</event>
<event>
 6    1  0.1360243E-005  0.5181214E+03  0.7546771E-02  0.9360150E-01
        -11   -1    0    0    0    0  0.00000000000E+00  0.00000000000E+00  0.50000000000E+03  0.50000000000E+03  0.00000000000E+00 0. -1.
         11   -1    0    0    0    0 -0.00000000000E+00 -0.00000000000E+00 -0.50000000000E+03  0.50000000000E+03  0.00000000000E+00 0. -1.
        -11    1    1    2    0    0 -0.26468995741E+02  0.12267767900E+02  0.48099462848E+03  0.48187855160E+03  0.00000000000E+00 0. -1.
         11    1    1    2    0    0 -0.37339146085E+02  0.33785634982E+01 -0.42569262584E+03  0.42734042427E+03  0.00000000000E+00 0. -1.
        -15    1    1    2    0    0  0.60863333017E+02 -0.55861839253E+01 -0.44494134366E+02  0.75620344344E+02  0.17770000000E+01 0. -1.
         15    1    1    2    0    0  0.29448088092E+01 -0.10060147473E+02 -0.10807868275E+02  0.15160679792E+02  0.17770000000E+01 0.  1.
</event>
<event>
 6    1  0.1360243E-005  0.4899160E+03  0.7546771E-02  0.9422660E-01
        -11   -1    0    0    0    0  0.00000000000E+00  0.00000000000E+00  0.50000000000E+03  0.50000000000E+03  0.00000000000E+00 0.  1.
         11   -1    0    0    0    0 -0.00000000000E+00 -0.00000000000E+00 -0.50000000000E+03  0.50000000000E+03  0.00000000000E+00 0. -1.
        -11    1    1    2    0    0  0.44261240113E+02  0.13444941325E+02  0.49165255487E+03  0.49382391451E+03  0.00000000000E+00 0.  1.
         11    1    1    2    0    0  0.60486218702E+01 -0.17285721878E+02 -0.86946725011E+01  0.20272625318E+02  0.00000000000E+00 0. -1.
        -15    1    1    2    0    0 -0.17418521578E+02  0.77727932667E+01 -0.13226372000E+03  0.13364381978E+03  0.17770000000E+01 0.  1.
         15    1    1    2    0    0 -0.32891340405E+02 -0.39320127140E+01 -0.35069416238E+03  0.35225964040E+03  0.17770000000E+01 0. -1.
</event>
<event>
 6    1  0.1360243E-005  0.5066930E+03  0.7546771E-02  0.9384957E-01
        -11   -1    0    0    0    0  0.00000000000E+00  0.00000000000E+00  0.50000000000E+03  0.50000000000E+03  0.00000000000E+00 0. -1.
         11   -1    0    0    0    0 -0.00000000000E+00 -0.00000000000E+00 -0.50000000000E+03  0.50000000000E+03  0.00000000000E+00 0. -1.
        -11    1    1    2    0    0 -0.81340945399E+02  0.44705542628E+03  0.25839079100E+02  0.45512917020E+03  0.00000000000E+00 0. -1.
         11    1    1    2    0    0  0.94885706974E+02 -0.48012968693E+03 -0.61838421080E+02  0.49330700784E+03  0.00000000000E+00 0. -1.
        -15    1    1    2    0    0 -0.93696601231E+01  0.27845626920E+02  0.25260424258E+02  0.38786804870E+02  0.17770000000E+01 0. -1.
         15    1    1    2    0    0 -0.41751014515E+01  0.52286337324E+01  0.10738917722E+02  0.12777017089E+02  0.17770000000E+01 0. -1.
</event>
<event>
 6    1  0.1625197E-005  0.5006255E+03  0.7546771E-02  0.9398411E-01
        -11   -1    0    0    0    0  0.00000000000E+00  0.00000000000E+00  0.50000000000E+03  0.50000000000E+03  0.00000000000E+00 0.  1.
         11   -1    0    0    0    0 -0.00000000000E+00 -0.00000000000E+00 -0.50000000000E+03  0.50000000000E+03  0.00000000000E+00 0. -1.
        -11    1    1    2    0    0 -0.84054116621E+02 -0.81104801804E+02  0.42718862477E+03  0.44286928606E+03  0.00000000000E+00 0.  1.
         11    1    1    2    0    0  0.83769588748E+02  0.88703313195E+02 -0.48424096991E+03  0.49937454752E+03  0.00000000000E+00 0. -1.
        -15    1    1    2    0    0 -0.14158911263E+01 -0.29200606741E+01  0.22681443418E+02  0.22981233790E+02  0.17770000000E+01 0.  1.
         15    1    1    2    0    0  0.17004189990E+01 -0.46784507168E+01  0.34370901719E+02  0.34774932636E+02  0.17770000000E+01 0. -1.
</event>
<event>
 6    1  0.1360243E-005  0.4854221E+03  0.7546771E-02  0.9433033E-01
        -11   -1    0    0    0    0  0.00000000000E+00  0.00000000000E+00  0.50000000000E+03  0.50000000000E+03  0.00000000000E+00 0. -1.
         11   -1    0    0    0    0 -0.00000000000E+00 -0.00000000000E+00 -0.50000000000E+03  0.50000000000E+03  0.00000000000E+00 0. -1.
        -11    1    1    2    0    0 -0.92511731814E+01 -0.40218289794E+03  0.27933496265E+03  0.48975982783E+03  0.00000000000E+00 0. -1.
         11    1    1    2    0    0  0.48515863281E+01  0.40920458477E+03 -0.25363675761E+03  0.48145979573E+03  0.00000000000E+00 0. -1.
        -15    1    1    2    0    0  0.46496791439E+00 -0.14508255317E+01 -0.18707875357E+02  0.18853737541E+02  0.17770000000E+01 0. -1.
         15    1    1    2    0    0  0.39346189389E+01 -0.55708613005E+01 -0.69903296775E+01  0.99266388986E+01  0.17770000000E+01 0.  1.
</event>
<event>
 6    1  0.1360243E-005  0.5003515E+03  0.7546771E-02  0.9399024E-01
        -11   -1    0    0    0    0  0.00000000000E+00  0.00000000000E+00  0.50000000000E+03  0.50000000000E+03  0.00000000000E+00 0. -1.
         11   -1    0    0    0    0 -0.00000000000E+00 -0.00000000000E+00 -0.50000000000E+03  0.50000000000E+03  0.00000000000E+00 0.  1.
        -11    1    1    2    0    0 -0.21813352743E+02 -0.21605560391E+02  0.18825401930E+03  0.19074118166E+03  0.00000000000E+00 0. -1.
         11    1    1    2    0    0  0.52843429382E+02  0.27154098983E+02 -0.49610369574E+03  0.49964852651E+03  0.00000000000E+00 0.  1.
        -15    1    1    2    0    0 -0.12384675360E+02 -0.65090552031E+01  0.11958347254E+03  0.12041226107E+03  0.17770000000E+01 0. -1.
         15    1    1    2    0    0 -0.18645401279E+02  0.96051661072E+00  0.18826620390E+03  0.18919803076E+03  0.17770000000E+01 0.  1.
</event>
<event>
 6    1  0.1360243E-005  0.3635625E+03  0.7546771E-02  0.9770646E-01
        -11   -1    0    0    0    0  0.00000000000E+00  0.00000000000E+00  0.50000000000E+03  0.50000000000E+03  0.00000000000E+00 0. -1.
         11   -1    0    0    0    0 -0.00000000000E+00 -0.00000000000E+00 -0.50000000000E+03  0.50000000000E+03  0.00000000000E+00 0. -1.
        -11    1    1    2    0    0  0.33892185843E+01  0.53352437831E+02  0.41086493031E+03  0.41432832438E+03  0.00000000000E+00 0. -1.
         11    1    1    2    0    0  0.14714930915E+03  0.77683754640E+02 -0.30465364905E+03  0.34713330408E+03  0.00000000000E+00 0. -1.
        -15    1    1    2    0    0 -0.15221984409E+03 -0.10448107585E+03 -0.10367155202E+03  0.21175014657E+03  0.17770000000E+01 0.  1.
         15    1    1    2    0    0  0.16813163528E+01 -0.26555116619E+02 -0.25397292442E+01  0.26788224969E+02  0.17770000000E+01 0. -1.
</event>
<event>
 6    1  0.1360243E-005  0.5097414E+03  0.7546771E-02  0.9378273E-01
        -11   -1    0    0    0    0  0.00000000000E+00  0.00000000000E+00  0.50000000000E+03  0.50000000000E+03  0.00000000000E+00 0. -1.
         11   -1    0    0    0    0 -0.00000000000E+00 -0.00000000000E+00 -0.50000000000E+03  0.50000000000E+03  0.00000000000E+00 0.  1.
        -11    1    1    2    0    0  0.36663278164E+01 -0.98789401272E+02  0.48018820261E+03  0.49025860287E+03  0.00000000000E+00 0. -1.
         11    1    1    2    0    0 -0.61070141306E+01  0.10978104645E+03 -0.19190747130E+03  0.22117335130E+03  0.00000000000E+00 0.  1.
        -15    1    1    2    0    0  0.31273224170E+01 -0.33847001672E+01 -0.12873901262E+03  0.12883372012E+03  0.17770000000E+01 0. -1.
         15    1    1    2    0    0 -0.68663610280E+00 -0.76069450121E+01 -0.15954171869E+03  0.15973432572E+03  0.17770000000E+01 0.  1.
</event>
<event>
 6    1  0.1360243E-005  0.5385045E+03  0.7546771E-02  0.9317549E-01
        -11   -1    0    0    0    0  0.00000000000E+00  0.00000000000E+00  0.50000000000E+03  0.50000000000E+03  0.00000000000E+00 0. -1.
         11   -1    0    0    0    0 -0.00000000000E+00 -0.00000000000E+00 -0.50000000000E+03  0.50000000000E+03  0.00000000000E+00 0.  1.
        -11    1    1    2    0    0 -0.54624602763E+02  0.36762750589E+02  0.28700748507E+03  0.29446331443E+03  0.00000000000E+00 0. -1.
         11    1    1    2    0    0  0.51795799750E+02  0.83722653009E+02 -0.45087230498E+03  0.46149552858E+03  0.00000000000E+00 0.  1.
        -15    1    1    2    0    0  0.12482893916E+02 -0.31347901516E+02  0.14943977461E+03  0.15321200192E+03  0.17770000000E+01 0. -1.
         15    1    1    2    0    0 -0.96540909039E+01 -0.89137502082E+02  0.14425045303E+02  0.90829155064E+02  0.17770000000E+01 0.  1.
</event>
<event>
 6    1  0.1833146E-005  0.5017087E+03  0.7546771E-02  0.9395994E-01
        -11   -1    0    0    0    0  0.00000000000E+00  0.00000000000E+00  0.50000000000E+03  0.50000000000E+03  0.00000000000E+00 0.  1.
         11   -1    0    0    0    0 -0.00000000000E+00 -0.00000000000E+00 -0.50000000000E+03  0.50000000000E+03  0.00000000000E+00 0. -1.
        -11    1    1    2    0    0  0.47109159974E+02  0.79617041794E+02  0.29616333964E+03  0.31027547445E+03  0.00000000000E+00 0.  1.
         11    1    1    2    0    0 -0.53892095822E+02 -0.92948194219E+02 -0.48657011775E+03  0.49829128458E+03  0.00000000000E+00 0. -1.
        -15    1    1    2    0    0  0.46319304206E+01 -0.91554403530E+00  0.63115786648E+02  0.63317085005E+02  0.17770000000E+01 0. -1.
         15    1    1    2    0    0  0.21510054268E+01  0.14246696461E+02  0.12729099146E+03  0.12811615597E+03  0.17770000000E+01 0.  1.
</event>
<event>
 6    1  0.1360243E-005  0.5021763E+03  0.7546771E-02  0.9394953E-01
        -11   -1    0    0    0    0  0.00000000000E+00  0.00000000000E+00  0.50000000000E+03  0.50000000000E+03  0.00000000000E+00 0.  1.
         11   -1    0    0    0    0 -0.00000000000E+00 -0.00000000000E+00 -0.50000000000E+03  0.50000000000E+03  0.00000000000E+00 0.  1.
        -11    1    1    2    0    0  0.53350693667E+02  0.25800283138E+02  0.49428381174E+03  0.49782370140E+03  0.00000000000E+00 0.  1.
         11    1    1    2    0    0 -0.51497112094E+02 -0.17593967272E+02 -0.44839342337E+03  0.45168369725E+03  0.00000000000E+00 0.  1.
        -15    1    1    2    0    0 -0.11651376264E+01  0.10937806143E+01 -0.38201320041E+02  0.38276004018E+02  0.17770000000E+01 0.  1.
         15    1    1    2    0    0 -0.68844394666E+00 -0.93000964805E+01 -0.76890683259E+01  0.12216597330E+02  0.17770000000E+01 0. -1.
</event>
<event>
 6    1  0.1360243E-005  0.5019506E+03  0.7546771E-02  0.9395456E-01
        -11   -1    0    0    0    0  0.00000000000E+00  0.00000000000E+00  0.50000000000E+03  0.50000000000E+03  0.00000000000E+00 0. -1.
         11   -1    0    0    0    0 -0.00000000000E+00 -0.00000000000E+00 -0.50000000000E+03  0.50000000000E+03  0.00000000000E+00 0.  1.
        -11    1    1    2    0    0  0.21371767502E+02  0.95375329174E+01  0.37218995264E+03  0.37292502977E+03  0.00000000000E+00 0. -1.
         11    1    1    2    0    0 -0.28523133560E+02  0.71485577640E+01 -0.49718055223E+03  0.49804936757E+03  0.00000000000E+00 0.  1.
        -15    1    1    2    0    0  0.13282853709E+02 -0.32312078445E+01  0.89220210416E+02  0.90278893339E+02  0.17770000000E+01 0.  1.
         15    1    1    2    0    0 -0.61314876503E+01 -0.13454882837E+02  0.35770389171E+02  0.38746709324E+02  0.17770000000E+01 0. -1.
</event>
<event>
 6    1  0.1360243E-005  0.5086367E+03  0.7546771E-02  0.9380689E-01
        -11   -1    0    0    0    0  0.00000000000E+00  0.00000000000E+00  0.50000000000E+03  0.50000000000E+03  0.00000000000E+00 0. -1.
         11   -1    0    0    0    0 -0.00000000000E+00 -0.00000000000E+00 -0.50000000000E+03  0.50000000000E+03  0.00000000000E+00 0.  1.
        -11    1    1    2    0    0 -0.34104215328E+01  0.18594029128E+03  0.41219135340E+03  0.45220253727E+03  0.00000000000E+00 0. -1.
         11    1    1    2    0    0 -0.29132482512E+02 -0.19221739509E+03 -0.45126669830E+03  0.49136326837E+03  0.00000000000E+00 0.  1.
        -15    1    1    2    0    0  0.28163088121E+02  0.11081216847E+02  0.39367850696E+02  0.49688412097E+02  0.17770000000E+01 0.  1.
         15    1    1    2    0    0  0.43798159237E+01 -0.48041130391E+01 -0.29250580096E+00  0.67457822573E+01  0.17770000000E+01 0. -1.
</event>
<event>
 6    1  0.1360243E-005  0.3641915E+03  0.7546771E-02  0.9768554E-01
        -11   -1    0    0    0    0  0.00000000000E+00  0.00000000000E+00  0.50000000000E+03  0.50000000000E+03  0.00000000000E+00 0. -1.
         11   -1    0    0    0    0 -0.00000000000E+00 -0.00000000000E+00 -0.50000000000E+03  0.50000000000E+03  0.00000000000E+00 0. -1.
        -11    1    1    2    0    0 -0.18333795225E+03 -0.19347641747E+02  0.27542016531E+03  0.33142631675E+03  0.00000000000E+00 0. -1.
         11    1    1    2    0    0  0.15832391793E+03  0.82386529533E+02  0.15272037235E+03  0.23489894714E+03  0.00000000000E+00 0. -1.
        -15    1    1    2    0    0  0.83165471914E+00 -0.11816692940E+02 -0.58345145562E+02  0.59562065287E+02  0.17770000000E+01 0.  1.
         15    1    1    2    0    0  0.24182379594E+02 -0.51222194847E+02 -0.36979539209E+03  0.37411267082E+03  0.17770000000E+01 0. -1.
</event>
<event>
 6    1  0.1360243E-005  0.5003561E+03  0.7546771E-02  0.9399013E-01
        -11   -1    0    0    0    0  0.00000000000E+00  0.00000000000E+00  0.50000000000E+03  0.50000000000E+03  0.00000000000E+00 0.  1.
         11   -1    0    0    0    0 -0.00000000000E+00 -0.00000000000E+00 -0.50000000000E+03  0.50000000000E+03  0.00000000000E+00 0. -1.
        -11    1    1    2    0    0  0.53209458446E+02 -0.50020930102E+01  0.49677742349E+03  0.49964394912E+03  0.00000000000E+00 0.  1.
         11    1    1    2    0    0 -0.30084704406E+02  0.13156821585E+02 -0.25059472178E+03  0.25273683146E+03  0.00000000000E+00 0. -1.
        -15    1    1    2    0    0 -0.22421326377E+02 -0.93695080351E+01 -0.22641413528E+03  0.22772136909E+03  0.17770000000E+01 0. -1.
         15    1    1    2    0    0 -0.70342766391E+00  0.12147794606E+01 -0.19768566431E+02  0.19897850320E+02  0.17770000000E+01 0.  1.
</event>
<event>
 6    1  0.1360243E-005  0.5028070E+03  0.7546771E-02  0.9393551E-01
        -11   -1    0    0    0    0  0.00000000000E+00  0.00000000000E+00  0.50000000000E+03  0.50000000000E+03  0.00000000000E+00 0. -1.
         11   -1    0    0    0    0 -0.00000000000E+00 -0.00000000000E+00 -0.50000000000E+03  0.50000000000E+03  0.00000000000E+00 0.  1.
        -11    1    1    2    0    0 -0.78912756979E+02  0.83234375178E+02  0.48378270251E+03  0.49719300848E+03  0.00000000000E+00 0. -1.
         11    1    1    2    0    0  0.56762124000E+02 -0.78900571724E+02 -0.26014921433E+03  0.27771361626E+03  0.00000000000E+00 0.  1.
        -15    1    1    2    0    0  0.12922269847E+02 -0.38544783641E+01 -0.17688695228E+03  0.17740911385E+03  0.17770000000E+01 0.  1.
         15    1    1    2    0    0  0.92283631319E+01 -0.47932508971E+00 -0.46746535905E+02  0.47684261416E+02  0.17770000000E+01 0.  1.
</event>
<event>
 6    1  0.1360243E-005  0.5077149E+03  0.7546771E-02  0.9382711E-01
        -11   -1    0    0    0    0  0.00000000000E+00  0.00000000000E+00  0.50000000000E+03  0.50000000000E+03  0.00000000000E+00 0.  1.
         11   -1    0    0    0    0 -0.00000000000E+00 -0.00000000000E+00 -0.50000000000E+03  0.50000000000E+03  0.00000000000E+00 0. -1.
        -11    1    1    2    0    0 -0.11209198177E+03 -0.39995330838E+02  0.20216628516E+03  0.23459634635E+03  0.00000000000E+00 0.  1.
         11    1    1    2    0    0  0.12307876087E+03  0.10366332228E+03 -0.46524202628E+03  0.49228508893E+03  0.00000000000E+00 0. -1.
        -15    1    1    2    0    0  0.49814674100E+00 -0.22988730504E+01  0.72674707298E+02  0.72734474476E+02  0.17770000000E+01 0. -1.
         15    1    1    2    0    0 -0.11484925842E+02 -0.61369118390E+02  0.19040103382E+03  0.20038409024E+03  0.17770000000E+01 0.  1.
</event>
<event>
 6    1  0.1360243E-005  0.5017923E+03  0.7546771E-02  0.9395808E-01
        -11   -1    0    0    0    0  0.00000000000E+00  0.00000000000E+00  0.50000000000E+03  0.50000000000E+03  0.00000000000E+00 0. -1.
         11   -1    0    0    0    0 -0.00000000000E+00 -0.00000000000E+00 -0.50000000000E+03  0.50000000000E+03  0.00000000000E+00 0.  1.
        -11    1    1    2    0    0 -0.36315909881E+02 -0.48928453367E+02  0.49446751487E+03  0.49820774996E+03  0.00000000000E+00 0. -1.
         11    1    1    2    0    0  0.28639645376E+02  0.43778472175E+02 -0.18801251097E+03  0.19515503630E+03  0.00000000000E+00 0.  1.
        -15    1    1    2    0    0  0.79462180027E+00  0.12953978321E+01 -0.92359715900E+02  0.92389308524E+02  0.17770000000E+01 0.  1.
         15    1    1    2    0    0  0.68816427046E+01  0.38545833596E+01 -0.21409528800E+03  0.21424790522E+03  0.17770000000E+01 0.  1.
</event>
