<event>
 6    1  0.1507019E-006  0.1661811E+03  0.7546771E-02  0.1082242E+00
        -11   -1    0    0    0    0  0.00000000000E+00  0.00000000000E+00  0.18250000000E+03  0.18250000000E+03  0.00000000000E+00 0. -1.
         11   -1    0    0    0    0 -0.00000000000E+00 -0.00000000000E+00 -0.18250000000E+03  0.18250000000E+03  0.00000000000E+00 0. -1.
        -11    1    1    2    0    0 -0.51752509189E+02 -0.10091097233E+03  0.12039690313E+03  0.16539879331E+03  0.00000000000E+00 0. -1.
         11    1    1    2    0    0  0.69263164060E+02  0.84597211410E+02 -0.12741907831E+03  0.16789787250E+03  0.00000000000E+00 0. -1.
        -15    1    1    2    0    0 -0.33427166820E+01  0.60992992962E+01  0.11525844313E+02  0.13578586924E+02  0.17770000000E+01 0.  1.
         15    1    1    2    0    0 -0.14167938189E+02  0.10214461627E+02 -0.45036691297E+01  0.18124747267E+02  0.17770000000E+01 0. -1.
</event>
<event>
 6    1  0.1507019E-006  0.1879268E+03  0.7546771E-02  0.1064215E+00
        -11   -1    0    0    0    0  0.00000000000E+00  0.00000000000E+00  0.18250000000E+03  0.18250000000E+03  0.00000000000E+00 0.  1.
         11   -1    0    0    0    0 -0.00000000000E+00 -0.00000000000E+00 -0.18250000000E+03  0.18250000000E+03  0.00000000000E+00 0.  1.
        -11    1    1    2    0    0  0.13555960436E+02 -0.40714611501E+02  0.17179490520E+03  0.17707324221E+03  0.00000000000E+00 0.  1.
         11    1    1    2    0    0 -0.24504093412E+02  0.30225328581E+02 -0.42933515042E+02  0.57942279862E+02  0.00000000000E+00 0.  1.
        -15    1    1    2    0    0 -0.37902101212E+00  0.80566030323E+00 -0.12027304103E+02  0.12190427328E+02  0.17770000000E+01 0.  1.
         15    1    1    2    0    0  0.11327153989E+02  0.96836226171E+01 -0.11683408605E+03  0.11779405060E+03  0.17770000000E+01 0.  1.
</event>
<event>
 6    1  0.1507019E-006  0.1840693E+03  0.7546771E-02  0.1067213E+00
        -11   -1    0    0    0    0  0.00000000000E+00  0.00000000000E+00  0.18250000000E+03  0.18250000000E+03  0.00000000000E+00 0. -1.
         11   -1    0    0    0    0 -0.00000000000E+00 -0.00000000000E+00 -0.18250000000E+03  0.18250000000E+03  0.00000000000E+00 0. -1.
        -11    1    1    2    0    0 -0.89493174719E+01 -0.15473537816E+02  0.18004558962E+03  0.18093074642E+03  0.00000000000E+00 0. -1.
         11    1    1    2    0    0  0.99829376075E+00  0.13297644437E+02 -0.21916516743E+02  0.25654583297E+02  0.00000000000E+00 0. -1.
        -15    1    1    2    0    0  0.58482351754E+01  0.17506758464E+01 -0.87505780341E+02  0.87736457888E+02  0.17770000000E+01 0. -1.
         15    1    1    2    0    0  0.21027885357E+01  0.42521753212E+00 -0.70623292540E+02  0.70678212398E+02  0.17770000000E+01 0. -1.
</event>
<event>
 6    1  0.1507019E-006  0.1858509E+03  0.7546771E-02  0.1065818E+00
        -11   -1    0    0    0    0  0.00000000000E+00  0.00000000000E+00  0.18250000000E+03  0.18250000000E+03  0.00000000000E+00 0. -1.
         11   -1    0    0    0    0 -0.00000000000E+00 -0.00000000000E+00 -0.18250000000E+03  0.18250000000E+03  0.00000000000E+00 0.  1.
        -11    1    1    2    0    0  0.27243083745E+02  0.67100524849E+02  0.16042949597E+03  0.17601786621E+03  0.00000000000E+00 0. -1.
         11    1    1    2    0    0 -0.30757624197E+02 -0.70512387724E+02 -0.16179116050E+03  0.17914912192E+03  0.00000000000E+00 0.  1.
        -15    1    1    2    0    0 -0.91902596419E+00  0.31626477914E+01 -0.17455954005E+01  0.41293803503E+01  0.17770000000E+01 0. -1.
         15    1    1    2    0    0  0.44335664161E+01  0.24921508404E+00  0.31072599287E+01  0.57036315264E+01  0.17770000000E+01 0.  1.
</event>
<event>
 6    1  0.1507019E-006  0.1853093E+03  0.7546771E-02  0.1066240E+00
        -11   -1    0    0    0    0  0.00000000000E+00  0.00000000000E+00  0.18250000000E+03  0.18250000000E+03  0.00000000000E+00 0. -1.
         11   -1    0    0    0    0 -0.00000000000E+00 -0.00000000000E+00 -0.18250000000E+03  0.18250000000E+03  0.00000000000E+00 0.  1.
        -11    1    1    2    0    0  0.37650712673E+02 -0.35952282174E+02  0.17198427139E+03  0.17969065742E+03  0.00000000000E+00 0. -1.
         11    1    1    2    0    0 -0.28346621339E+02  0.16853658709E+02 -0.41932993442E+02  0.53347471282E+02  0.00000000000E+00 0.  1.
        -15    1    1    2    0    0 -0.89321716883E+01  0.14225713190E+02 -0.89657783850E+02  0.91235029132E+02  0.17770000000E+01 0.  1.
         15    1    1    2    0    0 -0.37191964598E+00  0.48729102756E+01 -0.40393494095E+02  0.40726842168E+02  0.17770000000E+01 0. -1.
</event>
<event>
 6    1  0.2671398E-006  0.1828615E+03  0.7546771E-02  0.1068167E+00
        -11   -1    0    0    0    0  0.00000000000E+00  0.00000000000E+00  0.18250000000E+03  0.18250000000E+03  0.00000000000E+00 0. -1.
         11   -1    0    0    0    0 -0.00000000000E+00 -0.00000000000E+00 -0.18250000000E+03  0.18250000000E+03  0.00000000000E+00 0.  1.
        -11    1    1    2    0    0  0.17652761098E+02  0.22775162497E+02  0.11656006473E+03  0.12006904968E+03  0.00000000000E+00 0. -1.
         11    1    1    2    0    0 -0.21152943594E+02 -0.30922098914E+02 -0.17824368784E+03  0.18213850631E+03  0.00000000000E+00 0.  1.
        -15    1    1    2    0    0  0.88178439017E-01  0.60879141182E+01  0.22832834151E+02  0.23697394753E+02  0.17770000000E+01 0.  1.
         15    1    1    2    0    0  0.34120040570E+01  0.20590222989E+01  0.38850788961E+02  0.39095049257E+02  0.17770000000E+01 0. -1.
</event>
<event>
 6    1  0.1507019E-006  0.1864067E+03  0.7546771E-02  0.1065387E+00
        -11   -1    0    0    0    0  0.00000000000E+00  0.00000000000E+00  0.18250000000E+03  0.18250000000E+03  0.00000000000E+00 0. -1.
         11   -1    0    0    0    0 -0.00000000000E+00 -0.00000000000E+00 -0.18250000000E+03  0.18250000000E+03  0.00000000000E+00 0.  1.
        -11    1    1    2    0    0  0.48307254851E+01 -0.25750432881E+02  0.10392787084E+03  0.10717939653E+03  0.00000000000E+00 0. -1.
         11    1    1    2    0    0 -0.30304159412E+02  0.37914641631E+02 -0.17187123452E+03  0.17859334642E+03  0.00000000000E+00 0.  1.
        -15    1    1    2    0    0  0.15340694764E+02 -0.87646586548E+00  0.60100018731E+02  0.62058642337E+02  0.17770000000E+01 0.  1.
         15    1    1    2    0    0  0.10132739163E+02 -0.11287742884E+02  0.78433449492E+01  0.17168614719E+02  0.17770000000E+01 0. -1.
</event>
<event>
 6    1  0.1507019E-006  0.1868177E+03  0.7546771E-02  0.1065069E+00
        -11   -1    0    0    0    0  0.00000000000E+00  0.00000000000E+00  0.18250000000E+03  0.18250000000E+03  0.00000000000E+00 0.  1.
         11   -1    0    0    0    0 -0.00000000000E+00 -0.00000000000E+00 -0.18250000000E+03  0.18250000000E+03  0.00000000000E+00 0. -1.
        -11    1    1    2    0    0  0.31739399138E+02  0.87788827135E+02  0.55589789971E+02  0.10864848078E+03  0.00000000000E+00 0.  1.
         11    1    1    2    0    0 -0.33499272509E+02 -0.12390485537E+03 -0.12358935891E+03  0.17818233380E+03  0.00000000000E+00 0. -1.
        -15    1    1    2    0    0 -0.47897126477E+01  0.16696499096E+02  0.24898135648E+02  0.30410348848E+02  0.17770000000E+01 0. -1.
         15    1    1    2    0    0  0.65495860186E+01  0.19419529142E+02  0.43101433294E+02  0.47758836565E+02  0.17770000000E+01 0.  1.
</event>
<event>
 6    1  0.1507019E-006  0.1828938E+03  0.7546771E-02  0.1068142E+00
        -11   -1    0    0    0    0  0.00000000000E+00  0.00000000000E+00  0.18250000000E+03  0.18250000000E+03  0.00000000000E+00 0. -1.
         11   -1    0    0    0    0 -0.00000000000E+00 -0.00000000000E+00 -0.18250000000E+03  0.18250000000E+03  0.00000000000E+00 0.  1.
        -11    1    1    2    0    0 -0.75736273801E+00  0.31852682185E+02  0.17929723906E+03  0.18210619675E+03  0.00000000000E+00 0. -1.
         11    1    1    2    0    0 -0.92213125953E+00 -0.28923998133E+02 -0.12873786230E+03  0.13195031331E+03  0.00000000000E+00 0.  1.
        -15    1    1    2    0    0  0.19689846794E+01 -0.20192326732E+00 -0.14974832628E+02  0.15209241102E+02  0.17770000000E+01 0. -1.
         15    1    1    2    0    0 -0.28949068191E+00 -0.27267607852E+01 -0.35584544133E+02  0.35734248829E+02  0.17770000000E+01 0. -1.
</event>
<event>
 6    1  0.1507019E-006  0.1851588E+03  0.7546771E-02  0.1066358E+00
        -11   -1    0    0    0    0  0.00000000000E+00  0.00000000000E+00  0.18250000000E+03  0.18250000000E+03  0.00000000000E+00 0.  1.
         11   -1    0    0    0    0 -0.00000000000E+00 -0.00000000000E+00 -0.18250000000E+03  0.18250000000E+03  0.00000000000E+00 0. -1.
        -11    1    1    2    0    0 -0.95543311156E+02  0.32294601227E+02  0.14890058456E+03  0.17984117898E+03  0.00000000000E+00 0.  1.
         11    1    1    2    0    0  0.95614884880E+02 -0.26735448448E+02 -0.14462356667E+03  0.17542225187E+03  0.00000000000E+00 0. -1.
        -15    1    1    2    0    0  0.67285424888E+00 -0.16585246561E+01  0.11576072072E+01  0.27751072630E+01  0.17770000000E+01 0. -1.
         15    1    1    2    0    0 -0.74442797236E+00 -0.39006281235E+01 -0.54346250945E+01  0.69614618926E+01  0.17770000000E+01 0.  1.
</event>
<event>
 6    1  0.1507019E-006  0.1870159E+03  0.7546771E-02  0.1064916E+00
        -11   -1    0    0    0    0  0.00000000000E+00  0.00000000000E+00  0.18250000000E+03  0.18250000000E+03  0.00000000000E+00 0.  1.
         11   -1    0    0    0    0 -0.00000000000E+00 -0.00000000000E+00 -0.18250000000E+03  0.18250000000E+03  0.00000000000E+00 0. -1.
        -11    1    1    2    0    0 -0.56229722927E+02 -0.23518040659E+01  0.79588659672E+02  0.97476497020E+02  0.00000000000E+00 0.  1.
         11    1    1    2    0    0  0.55996937062E+02  0.69897219333E+00 -0.16894430827E+03  0.17798405777E+03  0.00000000000E+00 0. -1.
        -15    1    1    2    0    0 -0.14544855130E+01  0.11720966612E+01  0.66069814810E+02  0.66120099037E+02  0.17770000000E+01 0. -1.
         15    1    1    2    0    0  0.16872713786E+01  0.48073521142E+00  0.23285833789E+02  0.23419346176E+02  0.17770000000E+01 0.  1.
</event>
<event>
 6    1  0.1507019E-006  0.1871944E+03  0.7546771E-02  0.1064778E+00
        -11   -1    0    0    0    0  0.00000000000E+00  0.00000000000E+00  0.18250000000E+03  0.18250000000E+03  0.00000000000E+00 0. -1.
         11   -1    0    0    0    0 -0.00000000000E+00 -0.00000000000E+00 -0.18250000000E+03  0.18250000000E+03  0.00000000000E+00 0. -1.
        -11    1    1    2    0    0 -0.92632193720E+02  0.88214296229E+01  0.11444442409E+03  0.14749938013E+03  0.00000000000E+00 0. -1.
         11    1    1    2    0    0  0.90749297801E+02 -0.85579373308E+00 -0.15290078231E+03  0.17780555859E+03  0.00000000000E+00 0. -1.
        -15    1    1    2    0    0  0.29575246427E+01 -0.59212326138E+01  0.24677594887E+02  0.25611508470E+02  0.17770000000E+01 0. -1.
         15    1    1    2    0    0 -0.10746287234E+01 -0.20444032761E+01  0.13778763337E+02  0.14083552810E+02  0.17770000000E+01 0. -1.
</event>
<event>
 6    1  0.1507019E-006  0.1867770E+03  0.7546771E-02  0.1065100E+00
        -11   -1    0    0    0    0  0.00000000000E+00  0.00000000000E+00  0.18250000000E+03  0.18250000000E+03  0.00000000000E+00 0. -1.
         11   -1    0    0    0    0 -0.00000000000E+00 -0.00000000000E+00 -0.18250000000E+03  0.18250000000E+03  0.00000000000E+00 0.  1.
        -11    1    1    2    0    0 -0.97501564996E+02  0.26558719834E+02  0.14680436884E+03  0.17822301615E+03  0.00000000000E+00 0. -1.
         11    1    1    2    0    0  0.97891887572E+02 -0.17318301780E+02 -0.12529613209E+03  0.15994332104E+03  0.00000000000E+00 0.  1.
        -15    1    1    2    0    0  0.19183171673E+01 -0.11167118383E+01  0.76700103409E+00  0.29449967182E+01  0.17770000000E+01 0.  1.
         15    1    1    2    0    0 -0.23086397436E+01 -0.81237062153E+01 -0.22275237780E+02  0.23888666085E+02  0.17770000000E+01 0. -1.
</event>
<event>
 6    1  0.1507019E-006  0.1162944E+03  0.7546771E-02  0.1138287E+00
        -11   -1    0    0    0    0  0.00000000000E+00  0.00000000000E+00  0.18250000000E+03  0.18250000000E+03  0.00000000000E+00 0.  1.
         11   -1    0    0    0    0 -0.00000000000E+00 -0.00000000000E+00 -0.18250000000E+03  0.18250000000E+03  0.00000000000E+00 0.  1.
        -11    1    1    2    0    0 -0.91394924050E+02  0.11162203927E+03  0.92470828722E+01  0.14456147597E+03  0.00000000000E+00 0.  1.
         11    1    1    2    0    0 -0.16322798291E+02 -0.10678658216E+03 -0.19615116391E+02  0.10979326329E+03  0.00000000000E+00 0.  1.
        -15    1    1    2    0    0  0.70286797600E+02  0.39938693887E+01  0.14580904094E+02  0.71916238798E+02  0.17770000000E+01 0.  1.
         15    1    1    2    0    0  0.37430924740E+02 -0.88293264962E+01 -0.42128705745E+01  0.38729021944E+02  0.17770000000E+01 0. -1.
</event>
<event>
 6    1  0.1507019E-006  0.1523084E+03  0.7546771E-02  0.1095402E+00
        -11   -1    0    0    0    0  0.00000000000E+00  0.00000000000E+00  0.18250000000E+03  0.18250000000E+03  0.00000000000E+00 0.  1.
         11   -1    0    0    0    0 -0.00000000000E+00 -0.00000000000E+00 -0.18250000000E+03  0.18250000000E+03  0.00000000000E+00 0. -1.
        -11    1    1    2    0    0 -0.22048648716E+02  0.10825670431E+03  0.11253693286E+03  0.15770294289E+03  0.00000000000E+00 0.  1.
         11    1    1    2    0    0  0.14560158301E+02 -0.12960721242E+03 -0.74356947216E+02  0.15012988817E+03  0.00000000000E+00 0. -1.
        -15    1    1    2    0    0  0.12042222855E+02 -0.67129276005E+01 -0.14908908068E+02  0.20384106481E+02  0.17770000000E+01 0.  1.
         15    1    1    2    0    0 -0.45537324400E+01  0.28063435712E+02 -0.23271077578E+02  0.36783062457E+02  0.17770000000E+01 0. -1.
</event>
<event>
 6    1  0.1507019E-006  0.1610518E+03  0.7546771E-02  0.1086938E+00
        -11   -1    0    0    0    0  0.00000000000E+00  0.00000000000E+00  0.18250000000E+03  0.18250000000E+03  0.00000000000E+00 0. -1.
         11   -1    0    0    0    0 -0.00000000000E+00 -0.00000000000E+00 -0.18250000000E+03  0.18250000000E+03  0.00000000000E+00 0.  1.
        -11    1    1    2    0    0  0.14986867597E+03 -0.36217236934E+02  0.49729878761E+02  0.16200422566E+03  0.00000000000E+00 0. -1.
         11    1    1    2    0    0 -0.15621657886E+03  0.43531498305E+02 -0.11122437615E+02  0.16254943702E+03  0.00000000000E+00 0.  1.
        -15    1    1    2    0    0  0.60194470342E+01 -0.79608686318E+01 -0.32568165855E+02  0.34109417000E+02  0.17770000000E+01 0.  1.
         15    1    1    2    0    0  0.32845585544E+00  0.64660726073E+00 -0.60392752917E+01  0.63369203284E+01  0.17770000000E+01 0.  1.
</event>
<event>
 6    1  0.1507019E-006  0.1663734E+03  0.7546771E-02  0.1082069E+00
        -11   -1    0    0    0    0  0.00000000000E+00  0.00000000000E+00  0.18250000000E+03  0.18250000000E+03  0.00000000000E+00 0.  1.
         11   -1    0    0    0    0 -0.00000000000E+00 -0.00000000000E+00 -0.18250000000E+03  0.18250000000E+03  0.00000000000E+00 0.  1.
        -11    1    1    2    0    0  0.11622253869E+03  0.12324263346E+03 -0.30742309176E+01  0.16942808533E+03  0.00000000000E+00 0.  1.
         11    1    1    2    0    0 -0.12624123596E+03 -0.10419926449E+03 -0.18057526793E+02  0.16468275761E+03  0.00000000000E+00 0.  1.
        -15    1    1    2    0    0  0.90977860026E+01 -0.17455775940E+02  0.17201423589E+02  0.26201536717E+02  0.17770000000E+01 0.  1.
         15    1    1    2    0    0  0.92091126807E+00 -0.15875930292E+01  0.39303341211E+01  0.46876203444E+01  0.17770000000E+01 0.  1.
</event>
<event>
 6    1  0.1507019E-006  0.1870788E+03  0.7546771E-02  0.1064867E+00
        -11   -1    0    0    0    0  0.00000000000E+00  0.00000000000E+00  0.18250000000E+03  0.18250000000E+03  0.00000000000E+00 0. -1.
         11   -1    0    0    0    0 -0.00000000000E+00 -0.00000000000E+00 -0.18250000000E+03  0.18250000000E+03  0.00000000000E+00 0. -1.
        -11    1    1    2    0    0  0.74102654666E+02  0.91648406691E+02  0.11506489850E+03  0.16471358397E+03  0.00000000000E+00 0. -1.
         11    1    1    2    0    0 -0.77848354756E+02 -0.86982271962E+02 -0.13427463121E+03  0.17792121448E+03  0.00000000000E+00 0. -1.
        -15    1    1    2    0    0  0.61149730787E+01 -0.54144958680E+01  0.13205523870E+02  0.15628603614E+02  0.17770000000E+01 0. -1.
         15    1    1    2    0    0 -0.23692729893E+01  0.74836113928E+00  0.60042088467E+01  0.67365979372E+01  0.17770000000E+01 0.  1.
</event>
<event>
 6    1  0.2117726E-006  0.1582385E+03  0.7546771E-02  0.1089596E+00
        -11   -1    0    0    0    0  0.00000000000E+00  0.00000000000E+00  0.18250000000E+03  0.18250000000E+03  0.00000000000E+00 0.  1.
         11   -1    0    0    0    0 -0.00000000000E+00 -0.00000000000E+00 -0.18250000000E+03  0.18250000000E+03  0.00000000000E+00 0. -1.
        -11    1    1    2    0    0 -0.63375163035E+02 -0.11699217696E+03  0.63465126014E+02  0.14741574875E+03  0.00000000000E+00 0.  1.
         11    1    1    2    0    0  0.69601503827E+02  0.11485825514E+03 -0.10781137064E+03  0.17222102006E+03  0.00000000000E+00 0. -1.
        -15    1    1    2    0    0 -0.45606003416E+01 -0.14441173837E+01  0.27522539835E+02  0.27991650156E+02  0.17770000000E+01 0.  1.
         15    1    1    2    0    0 -0.16657404504E+01  0.35780391963E+01  0.16823704795E+02  0.17371581039E+02  0.17770000000E+01 0. -1.
</event>
<event>
 6    1  0.1507019E-006  0.1540859E+03  0.7546771E-02  0.1093632E+00
        -11   -1    0    0    0    0  0.00000000000E+00  0.00000000000E+00  0.18250000000E+03  0.18250000000E+03  0.00000000000E+00 0.  1.
         11   -1    0    0    0    0 -0.00000000000E+00 -0.00000000000E+00 -0.18250000000E+03  0.18250000000E+03  0.00000000000E+00 0.  1.
        -11    1    1    2    0    0  0.15590167297E+02  0.47254494858E+02  0.14756316761E+03  0.15572709795E+03  0.00000000000E+00 0.  1.
         11    1    1    2    0    0 -0.18825197098E+02 -0.48190199866E+02  0.90237592726E+01  0.52517726915E+02  0.00000000000E+00 0.  1.
        -15    1    1    2    0    0  0.37715988260E+01  0.20993653987E+01 -0.12770024681E+03  0.12778553540E+03  0.17770000000E+01 0.  1.
         15    1    1    2    0    0 -0.53656902488E+00 -0.11636603909E+01 -0.28886680076E+02  0.28969639739E+02  0.17770000000E+01 0.  1.
</event>
<event>
 6    1  0.1507019E-006  0.1864544E+03  0.7546771E-02  0.1065350E+00
        -11   -1    0    0    0    0  0.00000000000E+00  0.00000000000E+00  0.18250000000E+03  0.18250000000E+03  0.00000000000E+00 0. -1.
         11   -1    0    0    0    0 -0.00000000000E+00 -0.00000000000E+00 -0.18250000000E+03  0.18250000000E+03  0.00000000000E+00 0.  1.
        -11    1    1    2    0    0 -0.20604018642E+02  0.10840442145E+02  0.12887563801E+03  0.13096171518E+03  0.00000000000E+00 0. -1.
         11    1    1    2    0    0  0.12107941972E+02 -0.81655912124E+01 -0.17794735621E+03  0.17854562644E+03  0.00000000000E+00 0.  1.
        -15    1    1    2    0    0  0.16101566474E+02 -0.61450617424E+01  0.31401646867E+02  0.35864235412E+02  0.17770000000E+01 0.  1.
         15    1    1    2    0    0 -0.76054898047E+01  0.34702108097E+01  0.17670071336E+02  0.19628422969E+02  0.17770000000E+01 0. -1.
</event>
<event>
 6    1  0.1507019E-006  0.1521281E+03  0.7546771E-02  0.1095583E+00
        -11   -1    0    0    0    0  0.00000000000E+00  0.00000000000E+00  0.18250000000E+03  0.18250000000E+03  0.00000000000E+00 0.  1.
         11   -1    0    0    0    0 -0.00000000000E+00 -0.00000000000E+00 -0.18250000000E+03  0.18250000000E+03  0.00000000000E+00 0. -1.
        -11    1    1    2    0    0 -0.49974909458E+01  0.13890628824E+03  0.58614108674E+02  0.15084941354E+03  0.00000000000E+00 0.  1.
         11    1    1    2    0    0  0.60837055592E+00 -0.15814480469E+03 -0.73925847966E+01  0.15831866496E+03  0.00000000000E+00 0. -1.
        -15    1    1    2    0    0  0.64819763334E+01  0.73924340451E+01 -0.20993599425E+02  0.23249796646E+02  0.17770000000E+01 0.  1.
         15    1    1    2    0    0 -0.20928559434E+01  0.11846082404E+02 -0.30227924453E+02  0.32582124855E+02  0.17770000000E+01 0. -1.
</event>
<event>
 6    1  0.1647659E-006  0.1867260E+03  0.7546771E-02  0.1065140E+00
        -11   -1    0    0    0    0  0.00000000000E+00  0.00000000000E+00  0.18250000000E+03  0.18250000000E+03  0.00000000000E+00 0. -1.
         11   -1    0    0    0    0 -0.00000000000E+00 -0.00000000000E+00 -0.18250000000E+03  0.18250000000E+03  0.00000000000E+00 0. -1.
        -11    1    1    2    0    0 -0.26830578812E+02  0.79455659247E+02  0.10776942957E+03  0.13655523313E+03  0.00000000000E+00 0. -1.
         11    1    1    2    0    0  0.29228522983E+02 -0.78285728504E+02 -0.15747585347E+03  0.17827396408E+03  0.00000000000E+00 0. -1.
        -15    1    1    2    0    0  0.58932801401E+00 -0.19180826367E+01  0.31930204158E+02  0.32042503258E+02  0.17770000000E+01 0.  1.
         15    1    1    2    0    0 -0.29872721847E+01  0.74815189326E+00  0.17776219747E+02  0.18128299530E+02  0.17770000000E+01 0. -1.
</event>
<event>
 6    1  0.1507019E-006  0.1859603E+03  0.7546771E-02  0.1065733E+00
        -11   -1    0    0    0    0  0.00000000000E+00  0.00000000000E+00  0.18250000000E+03  0.18250000000E+03  0.00000000000E+00 0. -1.
         11   -1    0    0    0    0 -0.00000000000E+00 -0.00000000000E+00 -0.18250000000E+03  0.18250000000E+03  0.00000000000E+00 0.  1.
        -11    1    1    2    0    0 -0.25719331335E+01  0.30679818780E+02  0.17637274484E+03  0.17903969181E+03  0.00000000000E+00 0. -1.
         11    1    1    2    0    0  0.66685295791E+01 -0.16237678691E+02 -0.10637876171E+03  0.10781731048E+03  0.00000000000E+00 0.  1.
        -15    1    1    2    0    0  0.58570076291E+01 -0.21155662475E+02 -0.51627857961E+02  0.56128959012E+02  0.17770000000E+01 0.  1.
         15    1    1    2    0    0 -0.99536040747E+01  0.67135223856E+01 -0.18366125176E+02  0.22014038700E+02  0.17770000000E+01 0. -1.
</event>
<event>
 6    1  0.1507019E-006  0.1865553E+03  0.7546771E-02  0.1065272E+00
        -11   -1    0    0    0    0  0.00000000000E+00  0.00000000000E+00  0.18250000000E+03  0.18250000000E+03  0.00000000000E+00 0.  1.
         11   -1    0    0    0    0 -0.00000000000E+00 -0.00000000000E+00 -0.18250000000E+03  0.18250000000E+03  0.00000000000E+00 0.  1.
        -11    1    1    2    0    0 -0.72245720429E+01  0.67187092240E+02  0.95344878236E+02  0.11686293515E+03  0.00000000000E+00 0.  1.
         11    1    1    2    0    0 -0.11862568673E+01 -0.69477186366E+02 -0.16435944500E+03  0.17844470794E+03  0.00000000000E+00 0.  1.
        -15    1    1    2    0    0  0.24962348184E+01 -0.12045551139E+00  0.21730342635E+02  0.21945642342E+02  0.17770000000E+01 0.  1.
         15    1    1    2    0    0  0.59145940918E+01  0.24105496378E+01  0.47284224125E+02  0.47746714577E+02  0.17770000000E+01 0.  1.
</event>
<event>
 6    1  0.1507019E-006  0.1865072E+03  0.7546771E-02  0.1065309E+00
        -11   -1    0    0    0    0  0.00000000000E+00  0.00000000000E+00  0.18250000000E+03  0.18250000000E+03  0.00000000000E+00 0.  1.
         11   -1    0    0    0    0 -0.00000000000E+00 -0.00000000000E+00 -0.18250000000E+03  0.18250000000E+03  0.00000000000E+00 0.  1.
        -11    1    1    2    0    0 -0.36720443866E+02  0.48440274530E+02  0.16782383450E+03  0.17849283072E+03  0.00000000000E+00 0.  1.
         11    1    1    2    0    0  0.77245954183E+01  0.14036808465E+01 -0.73598350090E+01  0.10761359842E+02  0.00000000000E+00 0.  1.
        -15    1    1    2    0    0 -0.47902010452E+01 -0.51398582323E+01 -0.17989378848E+01  0.74671329983E+01  0.17770000000E+01 0. -1.
         15    1    1    2    0    0  0.33786049493E+02 -0.44704097144E+02 -0.15866506160E+03  0.16827867644E+03  0.17770000000E+01 0.  1.
</event>
<event>
 6    1  0.1507019E-006  0.1838604E+03  0.7546771E-02  0.1067377E+00
        -11   -1    0    0    0    0  0.00000000000E+00  0.00000000000E+00  0.18250000000E+03  0.18250000000E+03  0.00000000000E+00 0. -1.
         11   -1    0    0    0    0 -0.00000000000E+00 -0.00000000000E+00 -0.18250000000E+03  0.18250000000E+03  0.00000000000E+00 0. -1.
        -11    1    1    2    0    0 -0.50196027899E+01 -0.29004168717E+01  0.58247126080E+01  0.82180354808E+01  0.00000000000E+00 0. -1.
         11    1    1    2    0    0  0.19962495284E+01 -0.11510955941E+02 -0.18076246711E+03  0.18113960538E+03  0.00000000000E+00 0. -1.
        -15    1    1    2    0    0  0.22528075364E+01  0.50101281248E+01  0.84387328649E+02  0.84584605521E+02  0.17770000000E+01 0.  1.
         15    1    1    2    0    0  0.77054572513E+00  0.94012446884E+01  0.90550425858E+02  0.91057753621E+02  0.17770000000E+01 0. -1.
</event>
<event>
 6    1  0.1507019E-006  0.1853890E+03  0.7546771E-02  0.1066178E+00
        -11   -1    0    0    0    0  0.00000000000E+00  0.00000000000E+00  0.18250000000E+03  0.18250000000E+03  0.00000000000E+00 0.  1.
         11   -1    0    0    0    0 -0.00000000000E+00 -0.00000000000E+00 -0.18250000000E+03  0.18250000000E+03  0.00000000000E+00 0.  1.
        -11    1    1    2    0    0  0.49993711209E+02  0.25979834179E+02  0.17054560769E+03  0.17961104434E+03  0.00000000000E+00 0.  1.
         11    1    1    2    0    0 -0.40241362528E+02 -0.24825368216E+02 -0.75240915221E+02  0.88864286912E+02  0.00000000000E+00 0.  1.
        -15    1    1    2    0    0 -0.11883686077E+02 -0.16772180438E+01 -0.67948176531E+02  0.69022804043E+02  0.17770000000E+01 0.  1.
         15    1    1    2    0    0  0.21313373956E+01  0.52275208128E+00 -0.27356515943E+02  0.27501864707E+02  0.17770000000E+01 0. -1.
</event>
<event>
 6    1  0.1507019E-006  0.1836360E+03  0.7546771E-02  0.1067554E+00
        -11   -1    0    0    0    0  0.00000000000E+00  0.00000000000E+00  0.18250000000E+03  0.18250000000E+03  0.00000000000E+00 0. -1.
         11   -1    0    0    0    0 -0.00000000000E+00 -0.00000000000E+00 -0.18250000000E+03  0.18250000000E+03  0.00000000000E+00 0.  1.
        -11    1    1    2    0    0 -0.50250077166E+01 -0.30967472799E+02  0.17862994092E+03  0.18136397345E+03  0.00000000000E+00 0. -1.
         11    1    1    2    0    0  0.44560231164E+01  0.31724817854E+02 -0.10729240519E+03  0.11197312366E+03  0.00000000000E+00 0.  1.
        -15    1    1    2    0    0  0.11044695411E+01 -0.13501938731E+01 -0.64634696637E+02  0.64682645391E+02  0.17770000000E+01 0.  1.
         15    1    1    2    0    0 -0.53548494086E+00  0.59284881788E+00 -0.67028390880E+01  0.69802574940E+01  0.17770000000E+01 0. -1.
</event>
<event>
 6    1  0.1507019E-006  0.1856198E+03  0.7546771E-02  0.1065998E+00
        -11   -1    0    0    0    0  0.00000000000E+00  0.00000000000E+00  0.18250000000E+03  0.18250000000E+03  0.00000000000E+00 0. -1.
         11   -1    0    0    0    0 -0.00000000000E+00 -0.00000000000E+00 -0.18250000000E+03  0.18250000000E+03  0.00000000000E+00 0.  1.
        -11    1    1    2    0    0  0.12295023597E+02  0.47439386646E+02  0.17255610527E+03  0.17938024550E+03  0.00000000000E+00 0. -1.
         11    1    1    2    0    0 -0.49805542949E+01 -0.42577072741E+02 -0.72288273557E+02  0.84042891063E+02  0.00000000000E+00 0.  1.
        -15    1    1    2    0    0 -0.11627777928E+01 -0.85780739605E+01 -0.56696657212E+02  0.57381217075E+02  0.17770000000E+01 0.  1.
         15    1    1    2    0    0 -0.61516915096E+01  0.37157600554E+01 -0.43571174498E+02  0.44195646362E+02  0.17770000000E+01 0. -1.
</event>
<event>
 6    1  0.1507019E-006  0.1896729E+03  0.7546771E-02  0.1062884E+00
        -11   -1    0    0    0    0  0.00000000000E+00  0.00000000000E+00  0.18250000000E+03  0.18250000000E+03  0.00000000000E+00 0. -1.
         11   -1    0    0    0    0 -0.00000000000E+00 -0.00000000000E+00 -0.18250000000E+03  0.18250000000E+03  0.00000000000E+00 0. -1.
        -11    1    1    2    0    0  0.33798423487E+02  0.20775677934E+02  0.28147732643E+02  0.48644188520E+02  0.00000000000E+00 0. -1.
         11    1    1    2    0    0 -0.48036940513E+02 -0.69178117915E+02 -0.15377391348E+03  0.17532705473E+03  0.00000000000E+00 0. -1.
        -15    1    1    2    0    0 -0.10942665567E+02  0.27696626182E+02  0.44454878309E+02  0.53537267076E+02  0.17770000000E+01 0.  1.
         15    1    1    2    0    0  0.25181182594E+02  0.20705813799E+02  0.81171302531E+02  0.87491489675E+02  0.17770000000E+01 0. -1.
</event>
<event>
 6    1  0.1507019E-006  0.1839487E+03  0.7546771E-02  0.1067307E+00
        -11   -1    0    0    0    0  0.00000000000E+00  0.00000000000E+00  0.18250000000E+03  0.18250000000E+03  0.00000000000E+00 0. -1.
         11   -1    0    0    0    0 -0.00000000000E+00 -0.00000000000E+00 -0.18250000000E+03  0.18250000000E+03  0.00000000000E+00 0. -1.
        -11    1    1    2    0    0 -0.11756025918E+03 -0.61167562451E+01  0.13755627884E+03  0.18105126096E+03  0.00000000000E+00 0. -1.
         11    1    1    2    0    0  0.10077882747E+03  0.10478322724E+02 -0.10042943232E+03  0.14266127081E+03  0.00000000000E+00 0. -1.
        -15    1    1    2    0    0  0.85508247983E+01 -0.37044387691E+01 -0.17158009038E+02  0.19605980579E+02  0.17770000000E+01 0. -1.
         15    1    1    2    0    0  0.82306069141E+01 -0.65712770976E+00 -0.19968837491E+02  0.21681487650E+02  0.17770000000E+01 0. -1.
</event>
<event>
 6    1  0.1507019E-006  0.1236964E+03  0.7546771E-02  0.1128178E+00
        -11   -1    0    0    0    0  0.00000000000E+00  0.00000000000E+00  0.18250000000E+03  0.18250000000E+03  0.00000000000E+00 0.  1.
         11   -1    0    0    0    0 -0.00000000000E+00 -0.00000000000E+00 -0.18250000000E+03  0.18250000000E+03  0.00000000000E+00 0.  1.
        -11    1    1    2    0    0  0.84294763002E+02  0.50378328289E+02  0.11186219480E+03  0.14885138110E+03  0.00000000000E+00 0.  1.
         11    1    1    2    0    0 -0.78934889762E+02 -0.59141791944E+02  0.49298385458E+01  0.98756122262E+02  0.00000000000E+00 0.  1.
        -15    1    1    2    0    0 -0.51803821895E+01  0.70730080291E+01 -0.10257666869E+03  0.10296598705E+03  0.17770000000E+01 0.  1.
         15    1    1    2    0    0 -0.17949104969E+00  0.16904556253E+01 -0.14215364660E+02  0.14426509581E+02  0.17770000000E+01 0.  1.
</event>
<event>
 6    1  0.1507019E-006  0.1827436E+03  0.7546771E-02  0.1068261E+00
        -11   -1    0    0    0    0  0.00000000000E+00  0.00000000000E+00  0.18250000000E+03  0.18250000000E+03  0.00000000000E+00 0.  1.
         11   -1    0    0    0    0 -0.00000000000E+00 -0.00000000000E+00 -0.18250000000E+03  0.18250000000E+03  0.00000000000E+00 0. -1.
        -11    1    1    2    0    0 -0.25042396549E+02  0.20074986010E+02  0.17940812678E+03  0.18225642003E+03  0.00000000000E+00 0.  1.
         11    1    1    2    0    0  0.15862920575E+02 -0.16884555085E+02 -0.11905608500E+03  0.12128920737E+03  0.00000000000E+00 0. -1.
        -15    1    1    2    0    0  0.91106055039E+01 -0.21794328335E+01 -0.48840804950E+02  0.49762787475E+02  0.17770000000E+01 0. -1.
         15    1    1    2    0    0  0.68870470666E-01 -0.10109980916E+01 -0.11511236832E+02  0.11691585122E+02  0.17770000000E+01 0.  1.
</event>
<event>
 6    1  0.1507019E-006  0.1848292E+03  0.7546771E-02  0.1066616E+00
        -11   -1    0    0    0    0  0.00000000000E+00  0.00000000000E+00  0.18250000000E+03  0.18250000000E+03  0.00000000000E+00 0. -1.
         11   -1    0    0    0    0 -0.00000000000E+00 -0.00000000000E+00 -0.18250000000E+03  0.18250000000E+03  0.00000000000E+00 0.  1.
        -11    1    1    2    0    0 -0.79426988565E+02 -0.47080865272E+01  0.16164995710E+03  0.18017081123E+03  0.00000000000E+00 0. -1.
         11    1    1    2    0    0  0.23945687980E+02  0.18106286861E+01 -0.19023639064E+02  0.30636141929E+02  0.00000000000E+00 0.  1.
        -15    1    1    2    0    0  0.56440915703E+02  0.24652684881E+01 -0.13798627341E+03  0.14911413042E+03  0.17770000000E+01 0.  1.
         15    1    1    2    0    0 -0.95961511807E+00  0.43218935299E+00 -0.46400446270E+01  0.50789164152E+01  0.17770000000E+01 0. -1.
</event>
<event>
 6    1  0.1507019E-006  0.1863975E+03  0.7546771E-02  0.1065394E+00
        -11   -1    0    0    0    0  0.00000000000E+00  0.00000000000E+00  0.18250000000E+03  0.18250000000E+03  0.00000000000E+00 0.  1.
         11   -1    0    0    0    0 -0.00000000000E+00 -0.00000000000E+00 -0.18250000000E+03  0.18250000000E+03  0.00000000000E+00 0. -1.
        -11    1    1    2    0    0 -0.17452803175E+02  0.43483175210E+02  0.67580705706E+02  0.82234656008E+02  0.00000000000E+00 0.  1.
         11    1    1    2    0    0  0.25219766196E+02 -0.88020885059E+02 -0.15334647681E+03  0.17860250492E+03  0.00000000000E+00 0. -1.
        -15    1    1    2    0    0 -0.20878403340E+02  0.12385380566E+02  0.35762784818E+02  0.43260141987E+02  0.17770000000E+01 0.  1.
         15    1    1    2    0    0  0.13111440318E+02  0.32152329283E+02  0.50002986286E+02  0.60902697084E+02  0.17770000000E+01 0. -1.
</event>
<event>
 6    1  0.1507019E-006  0.1880568E+03  0.7546771E-02  0.1064116E+00
        -11   -1    0    0    0    0  0.00000000000E+00  0.00000000000E+00  0.18250000000E+03  0.18250000000E+03  0.00000000000E+00 0.  1.
         11   -1    0    0    0    0 -0.00000000000E+00 -0.00000000000E+00 -0.18250000000E+03  0.18250000000E+03  0.00000000000E+00 0.  1.
        -11    1    1    2    0    0  0.76420121325E+01  0.10519589977E+02 -0.33005222258E+02  0.35474030205E+02  0.00000000000E+00 0.  1.
         11    1    1    2    0    0 -0.38270449574E+02 -0.75045514687E+02 -0.12722045392E+03  0.15258276600E+03  0.00000000000E+00 0.  1.
        -15    1    1    2    0    0  0.42108023726E+01  0.29980715601E+01  0.34658468486E+01  0.64721799325E+01  0.17770000000E+01 0. -1.
         15    1    1    2    0    0  0.26417635069E+02  0.61527853150E+02  0.15675982933E+03  0.17047102386E+03  0.17770000000E+01 0.  1.
</event>
<event>
 6    1  0.1507019E-006  0.1853400E+03  0.7546771E-02  0.1066216E+00
        -11   -1    0    0    0    0  0.00000000000E+00  0.00000000000E+00  0.18250000000E+03  0.18250000000E+03  0.00000000000E+00 0. -1.
         11   -1    0    0    0    0 -0.00000000000E+00 -0.00000000000E+00 -0.18250000000E+03  0.18250000000E+03  0.00000000000E+00 0.  1.
        -11    1    1    2    0    0  0.10089810084E+03 -0.16045806649E+02  0.14778296419E+03  0.17965995427E+03  0.00000000000E+00 0. -1.
         11    1    1    2    0    0 -0.96165376649E+02  0.15883623551E+02 -0.11155978052E+03  0.14814065543E+03  0.00000000000E+00 0.  1.
        -15    1    1    2    0    0 -0.47557923561E+01 -0.19977267246E+01 -0.27594748126E+02  0.28128923302E+02  0.17770000000E+01 0.  1.
         15    1    1    2    0    0  0.23068167272E-01  0.21599098228E+01 -0.86284355433E+01  0.90704669950E+01  0.17770000000E+01 0.  1.
</event>
<event>
 6    1  0.1507019E-006  0.1928017E+03  0.7546771E-02  0.1060538E+00
        -11   -1    0    0    0    0  0.00000000000E+00  0.00000000000E+00  0.18250000000E+03  0.18250000000E+03  0.00000000000E+00 0. -1.
         11   -1    0    0    0    0 -0.00000000000E+00 -0.00000000000E+00 -0.18250000000E+03  0.18250000000E+03  0.00000000000E+00 0. -1.
        -11    1    1    2    0    0 -0.49626433839E+02 -0.13491714606E+02  0.16433940648E+03  0.17219828635E+03  0.00000000000E+00 0. -1.
         11    1    1    2    0    0  0.39165360308E+02  0.48343760940E+02 -0.88703532411E+02  0.10834833331E+03  0.00000000000E+00 0. -1.
        -15    1    1    2    0    0  0.50297168926E+01 -0.16563208459E+02 -0.45804864638E+02  0.48998788556E+02  0.17770000000E+01 0. -1.
         15    1    1    2    0    0  0.54313566389E+01 -0.18288837875E+02 -0.29831009432E+02  0.35454591783E+02  0.17770000000E+01 0.  1.
</event>
<event>
 6    1  0.1507019E-006  0.1848556E+03  0.7546771E-02  0.1066595E+00
        -11   -1    0    0    0    0  0.00000000000E+00  0.00000000000E+00  0.18250000000E+03  0.18250000000E+03  0.00000000000E+00 0.  1.
         11   -1    0    0    0    0 -0.00000000000E+00 -0.00000000000E+00 -0.18250000000E+03  0.18250000000E+03  0.00000000000E+00 0. -1.
        -11    1    1    2    0    0  0.27131315115E+02  0.50260582624E+02  0.81081042028E+02  0.99178474489E+02  0.00000000000E+00 0.  1.
         11    1    1    2    0    0 -0.28528230798E+02 -0.76284847737E+02 -0.16068220954E+03  0.18014441542E+03  0.00000000000E+00 0. -1.
        -15    1    1    2    0    0 -0.50210611275E+01  0.17251781054E+01  0.23831387998E+02  0.24480197656E+02  0.17770000000E+01 0. -1.
         15    1    1    2    0    0  0.64179768106E+01  0.24299087007E+02  0.55769779510E+02  0.61196912433E+02  0.17770000000E+01 0.  1.
</event>
<event>
 6    1  0.1507019E-006  0.1833687E+03  0.7546771E-02  0.1067765E+00
        -11   -1    0    0    0    0  0.00000000000E+00  0.00000000000E+00  0.18250000000E+03  0.18250000000E+03  0.00000000000E+00 0. -1.
         11   -1    0    0    0    0 -0.00000000000E+00 -0.00000000000E+00 -0.18250000000E+03  0.18250000000E+03  0.00000000000E+00 0.  1.
        -11    1    1    2    0    0  0.37887449735E+02  0.28705178575E+02  0.14528450049E+03  0.15286278882E+03  0.00000000000E+00 0. -1.
         11    1    1    2    0    0 -0.41593153684E+02 -0.25153660647E+02 -0.17500634318E+03  0.18163126721E+03  0.00000000000E+00 0.  1.
        -15    1    1    2    0    0  0.21630830174E+01 -0.17102219779E+01  0.21683345336E+02  0.21930093053E+02  0.17770000000E+01 0. -1.
         15    1    1    2    0    0  0.15426209310E+01 -0.18412959500E+01  0.80384973560E+01  0.85758509114E+01  0.17770000000E+01 0. -1.
</event>
<event>
 6    1  0.1699077E-006  0.1851503E+03  0.7546771E-02  0.1066365E+00
        -11   -1    0    0    0    0  0.00000000000E+00  0.00000000000E+00  0.18250000000E+03  0.18250000000E+03  0.00000000000E+00 0. -1.
         11   -1    0    0    0    0 -0.00000000000E+00 -0.00000000000E+00 -0.18250000000E+03  0.18250000000E+03  0.00000000000E+00 0. -1.
        -11    1    1    2    0    0 -0.32219926183E+02  0.28252498636E+02  0.93176783524E+02  0.10255847264E+03  0.00000000000E+00 0. -1.
         11    1    1    2    0    0  0.30042304692E+02 -0.28947341098E+02 -0.17494408171E+03  0.17984971602E+03  0.00000000000E+00 0. -1.
        -15    1    1    2    0    0 -0.25475570589E+00 -0.49259071662E+01  0.39389777004E+02  0.39737157967E+02  0.17770000000E+01 0.  1.
         15    1    1    2    0    0  0.24323771971E+01  0.56207496288E+01  0.42377521181E+02  0.42854653373E+02  0.17770000000E+01 0. -1.
</event>
<event>
 6    1  0.1507019E-006  0.1580726E+03  0.7546771E-02  0.1089754E+00
        -11   -1    0    0    0    0  0.00000000000E+00  0.00000000000E+00  0.18250000000E+03  0.18250000000E+03  0.00000000000E+00 0. -1.
         11   -1    0    0    0    0 -0.00000000000E+00 -0.00000000000E+00 -0.18250000000E+03  0.18250000000E+03  0.00000000000E+00 0. -1.
        -11    1    1    2    0    0 -0.20254339593E+02 -0.24782118885E+02  0.33549261084E+02  0.46367495167E+02  0.00000000000E+00 0. -1.
         11    1    1    2    0    0 -0.47003021573E+02 -0.79902585235E+02 -0.13044145730E+03  0.16002712566E+03  0.00000000000E+00 0. -1.
        -15    1    1    2    0    0  0.13746568256E+01  0.66347316526E+00  0.26617255221E+01  0.35457565884E+01  0.17770000000E+01 0.  1.
         15    1    1    2    0    0  0.65882704341E+02  0.10402123095E+03  0.94230470693E+02  0.15505962259E+03  0.17770000000E+01 0. -1.
</event>
<event>
 6    1  0.1507019E-006  0.1724419E+03  0.7546771E-02  0.1076755E+00
        -11   -1    0    0    0    0  0.00000000000E+00  0.00000000000E+00  0.18250000000E+03  0.18250000000E+03  0.00000000000E+00 0.  1.
         11   -1    0    0    0    0 -0.00000000000E+00 -0.00000000000E+00 -0.18250000000E+03  0.18250000000E+03  0.00000000000E+00 0. -1.
        -11    1    1    2    0    0 -0.43212464160E+01 -0.67728767196E+02  0.14645459056E+03  0.16141501223E+03  0.00000000000E+00 0.  1.
         11    1    1    2    0    0 -0.81466971052E+01  0.21379759392E+02  0.14822391018E+02  0.27261072262E+02  0.00000000000E+00 0. -1.
        -15    1    1    2    0    0  0.16016663762E+02  0.36495543180E+02 -0.16081657115E+03  0.16569123536E+03  0.17770000000E+01 0. -1.
         15    1    1    2    0    0 -0.35487202407E+01  0.98534646228E+01 -0.46041042397E+00  0.10632680150E+02  0.17770000000E+01 0.  1.
</event>
<event>
 6    1  0.1507019E-006  0.1830570E+03  0.7546771E-02  0.1068012E+00
        -11   -1    0    0    0    0  0.00000000000E+00  0.00000000000E+00  0.18250000000E+03  0.18250000000E+03  0.00000000000E+00 0.  1.
         11   -1    0    0    0    0 -0.00000000000E+00 -0.00000000000E+00 -0.18250000000E+03  0.18250000000E+03  0.00000000000E+00 0.  1.
        -11    1    1    2    0    0 -0.61321378622E+02 -0.31033485176E+02  0.16846319988E+03  0.18194295367E+03  0.00000000000E+00 0.  1.
         11    1    1    2    0    0  0.33464685637E+02  0.13084207601E+02 -0.10052100223E+03  0.10674995814E+03  0.00000000000E+00 0.  1.
        -15    1    1    2    0    0  0.25894247119E+02  0.16656116179E+02 -0.55221104087E+02  0.63249239565E+02  0.17770000000E+01 0. -1.
         15    1    1    2    0    0  0.19624458653E+01  0.12931613952E+01 -0.12721093567E+02  0.13057848625E+02  0.17770000000E+01 0.  1.
</event>
<event>
 6    1  0.1507019E-006  0.1940961E+03  0.7546771E-02  0.1059582E+00
        -11   -1    0    0    0    0  0.00000000000E+00  0.00000000000E+00  0.18250000000E+03  0.18250000000E+03  0.00000000000E+00 0.  1.
         11   -1    0    0    0    0 -0.00000000000E+00 -0.00000000000E+00 -0.18250000000E+03  0.18250000000E+03  0.00000000000E+00 0. -1.
        -11    1    1    2    0    0  0.44808274375E+02  0.29104445924E+02  0.42715205851E+02  0.68406425399E+02  0.00000000000E+00 0.  1.
         11    1    1    2    0    0 -0.72694741727E+01 -0.10582146858E+03 -0.13400419575E+03  0.17090392900E+03  0.00000000000E+00 0. -1.
        -15    1    1    2    0    0 -0.34627726202E+02  0.74047917599E+02  0.88735773165E+02  0.12066220904E+03  0.17770000000E+01 0.  1.
         15    1    1    2    0    0 -0.29110740002E+01  0.26691050612E+01  0.25532167370E+01  0.50274365604E+01  0.17770000000E+01 0.  1.
</event>
<event>
 6    1  0.1507019E-006  0.1395226E+03  0.7546771E-02  0.1108974E+00
        -11   -1    0    0    0    0  0.00000000000E+00  0.00000000000E+00  0.18250000000E+03  0.18250000000E+03  0.00000000000E+00 0.  1.
         11   -1    0    0    0    0 -0.00000000000E+00 -0.00000000000E+00 -0.18250000000E+03  0.18250000000E+03  0.00000000000E+00 0. -1.
        -11    1    1    2    0    0  0.12675356096E+03 -0.43086570630E+02  0.83418062582E+02  0.15773867930E+03  0.00000000000E+00 0.  1.
         11    1    1    2    0    0 -0.98300422943E+02 -0.21757553820E+02 -0.82482538425E+02  0.13015273122E+03  0.00000000000E+00 0. -1.
        -15    1    1    2    0    0 -0.25609801005E+02  0.67716422134E+02  0.63679666281E+00  0.72421950907E+02  0.17770000000E+01 0.  1.
         15    1    1    2    0    0 -0.28433370067E+01 -0.28722976844E+01 -0.15723208197E+01  0.46866385696E+01  0.17770000000E+01 0. -1.
</event>
<event>
 6    1  0.1507019E-006  0.1895566E+03  0.7546771E-02  0.1062973E+00
        -11   -1    0    0    0    0  0.00000000000E+00  0.00000000000E+00  0.18250000000E+03  0.18250000000E+03  0.00000000000E+00 0.  1.
         11   -1    0    0    0    0 -0.00000000000E+00 -0.00000000000E+00 -0.18250000000E+03  0.18250000000E+03  0.00000000000E+00 0.  1.
        -11    1    1    2    0    0 -0.66502044677E+02 -0.35011954177E+02  0.15853084018E+03  0.17544339877E+03  0.00000000000E+00 0.  1.
         11    1    1    2    0    0  0.65342934670E+02  0.34325237862E+00 -0.88756323158E+02  0.11021570593E+03  0.00000000000E+00 0.  1.
        -15    1    1    2    0    0 -0.19384145738E+01 -0.24859824649E+00 -0.41452919373E+01  0.49153256651E+01  0.17770000000E+01 0. -1.
         15    1    1    2    0    0  0.30975245803E+01  0.34917300045E+02 -0.65629225089E+02  0.74425569636E+02  0.17770000000E+01 0.  1.
</event>
<event>
 6    1  0.1507019E-006  0.1837875E+03  0.7546771E-02  0.1067435E+00
        -11   -1    0    0    0    0  0.00000000000E+00  0.00000000000E+00  0.18250000000E+03  0.18250000000E+03  0.00000000000E+00 0. -1.
         11   -1    0    0    0    0 -0.00000000000E+00 -0.00000000000E+00 -0.18250000000E+03  0.18250000000E+03  0.00000000000E+00 0. -1.
        -11    1    1    2    0    0  0.49659071752E+02  0.60478690791E+02  0.16344502839E+03  0.18121250716E+03  0.00000000000E+00 0. -1.
         11    1    1    2    0    0 -0.52549310866E+02 -0.52119749797E+02 -0.14332078129E+03  0.16130326946E+03  0.00000000000E+00 0. -1.
        -15    1    1    2    0    0  0.28897913736E+01 -0.68466313988E+01 -0.14377572000E+02  0.16281878311E+02  0.17770000000E+01 0. -1.
         15    1    1    2    0    0  0.44774046358E-03 -0.15123095948E+01 -0.57466751032E+01  0.62023450608E+01  0.17770000000E+01 0.  1.
</event>
<event>
 6    1  0.1507019E-006  0.1906391E+03  0.7546771E-02  0.1062155E+00
        -11   -1    0    0    0    0  0.00000000000E+00  0.00000000000E+00  0.18250000000E+03  0.18250000000E+03  0.00000000000E+00 0.  1.
         11   -1    0    0    0    0 -0.00000000000E+00 -0.00000000000E+00 -0.18250000000E+03  0.18250000000E+03  0.00000000000E+00 0. -1.
        -11    1    1    2    0    0  0.61475057225E+02 -0.14980126920E+03  0.64669244354E+02  0.17436087314E+03  0.00000000000E+00 0.  1.
         11    1    1    2    0    0 -0.39889132257E+02  0.12979681682E+03 -0.23492553345E+02  0.13780513993E+03  0.00000000000E+00 0. -1.
        -15    1    1    2    0    0 -0.36883046274E+01  0.10285889856E+02 -0.22797961807E+02  0.25343794362E+02  0.17770000000E+01 0.  1.
         15    1    1    2    0    0 -0.17897620340E+02  0.97185625312E+01 -0.18378729203E+02  0.27490192572E+02  0.17770000000E+01 0. -1.
</event>
<event>
 6    1  0.1507019E-006  0.1645359E+03  0.7546771E-02  0.1083727E+00
        -11   -1    0    0    0    0  0.00000000000E+00  0.00000000000E+00  0.18250000000E+03  0.18250000000E+03  0.00000000000E+00 0.  1.
         11   -1    0    0    0    0 -0.00000000000E+00 -0.00000000000E+00 -0.18250000000E+03  0.18250000000E+03  0.00000000000E+00 0. -1.
        -11    1    1    2    0    0  0.59695895336E+01 -0.58539769600E+01  0.16029882452E+03  0.16051672246E+03  0.00000000000E+00 0.  1.
         11    1    1    2    0    0 -0.18001936701E+02 -0.12797686761E+02 -0.16794522416E+03  0.16939140719E+03  0.00000000000E+00 0. -1.
        -15    1    1    2    0    0 -0.33335144589E+01  0.16731779786E+02 -0.11548008901E+01  0.17191744168E+02  0.17770000000E+01 0. -1.
         15    1    1    2    0    0  0.15365861626E+02  0.19198839356E+01  0.88012005235E+01  0.17900126187E+02  0.17770000000E+01 0.  1.
</event>
<event>
 6    1  0.1507019E-006  0.1284450E+03  0.7546771E-02  0.1122097E+00
        -11   -1    0    0    0    0  0.00000000000E+00  0.00000000000E+00  0.18250000000E+03  0.18250000000E+03  0.00000000000E+00 0. -1.
         11   -1    0    0    0    0 -0.00000000000E+00 -0.00000000000E+00 -0.18250000000E+03  0.18250000000E+03  0.00000000000E+00 0.  1.
        -11    1    1    2    0    0  0.56856460465E+02 -0.82221650038E+02  0.11656747670E+03  0.15356117171E+03  0.00000000000E+00 0. -1.
         11    1    1    2    0    0 -0.48937928710E+02  0.78136323952E+02  0.21296121814E+01  0.92221153947E+02  0.00000000000E+00 0.  1.
        -15    1    1    2    0    0 -0.67863367832E+01  0.27556147726E+01 -0.10663094415E+03  0.10689697732E+03  0.17770000000E+01 0. -1.
         15    1    1    2    0    0 -0.11321949718E+01  0.13297113130E+01 -0.12066144729E+02  0.12320697028E+02  0.17770000000E+01 0. -1.
</event>
<event>
 6    1  0.1507019E-006  0.1837955E+03  0.7546771E-02  0.1067428E+00
        -11   -1    0    0    0    0  0.00000000000E+00  0.00000000000E+00  0.18250000000E+03  0.18250000000E+03  0.00000000000E+00 0.  1.
         11   -1    0    0    0    0 -0.00000000000E+00 -0.00000000000E+00 -0.18250000000E+03  0.18250000000E+03  0.00000000000E+00 0.  1.
        -11    1    1    2    0    0 -0.14373877089E+03 -0.89525505112E+02  0.64493502534E+02  0.18120447619E+03  0.00000000000E+00 0.  1.
         11    1    1    2    0    0  0.13257864464E+03  0.89428413870E+02 -0.57646294410E+02  0.16999303951E+03  0.00000000000E+00 0.  1.
        -15    1    1    2    0    0  0.61558158330E+01  0.11109094531E+01 -0.45036106067E+01  0.79100205991E+01  0.17770000000E+01 0. -1.
         15    1    1    2    0    0  0.50043104201E+01 -0.10138182110E+01 -0.23435975170E+01  0.58924637010E+01  0.17770000000E+01 0.  1.
</event>
<event>
 6    1  0.1507019E-006  0.1839843E+03  0.7546771E-02  0.1067279E+00
        -11   -1    0    0    0    0  0.00000000000E+00  0.00000000000E+00  0.18250000000E+03  0.18250000000E+03  0.00000000000E+00 0.  1.
         11   -1    0    0    0    0 -0.00000000000E+00 -0.00000000000E+00 -0.18250000000E+03  0.18250000000E+03  0.00000000000E+00 0. -1.
        -11    1    1    2    0    0  0.51697342899E+02 -0.17326906109E+01  0.17346774062E+03  0.18101567478E+03  0.00000000000E+00 0.  1.
         11    1    1    2    0    0 -0.53047741999E+02 -0.30651923345E+01 -0.15412688788E+03  0.16302930995E+03  0.00000000000E+00 0. -1.
        -15    1    1    2    0    0  0.17630033784E+01  0.30554453103E+01 -0.17195824088E+02  0.17643639704E+02  0.17770000000E+01 0. -1.
         15    1    1    2    0    0 -0.41260427790E+00  0.17424376351E+01 -0.21450286529E+01  0.33113755638E+01  0.17770000000E+01 0. -1.
</event>
<event>
 6    1  0.1507019E-006  0.2000671E+03  0.7546771E-02  0.1055272E+00
        -11   -1    0    0    0    0  0.00000000000E+00  0.00000000000E+00  0.18250000000E+03  0.18250000000E+03  0.00000000000E+00 0.  1.
         11   -1    0    0    0    0 -0.00000000000E+00 -0.00000000000E+00 -0.18250000000E+03  0.18250000000E+03  0.00000000000E+00 0.  1.
        -11    1    1    2    0    0  0.34599780398E+02  0.47136012506E+02  0.15422036906E+03  0.16493292792E+03  0.00000000000E+00 0.  1.
         11    1    1    2    0    0 -0.32820191814E+02 -0.62262782372E+02 -0.12880419877E+03  0.14677990558E+03  0.00000000000E+00 0.  1.
        -15    1    1    2    0    0 -0.21415193223E+02  0.79544298043E-01 -0.15860088130E+02  0.26707994170E+02  0.17770000000E+01 0.  1.
         15    1    1    2    0    0  0.19635604639E+02  0.15047225569E+02 -0.95560821586E+01  0.26579172336E+02  0.17770000000E+01 0. -1.
</event>
<event>
 6    1  0.1507019E-006  0.1214682E+03  0.7546771E-02  0.1131137E+00
        -11   -1    0    0    0    0  0.00000000000E+00  0.00000000000E+00  0.18250000000E+03  0.18250000000E+03  0.00000000000E+00 0. -1.
         11   -1    0    0    0    0 -0.00000000000E+00 -0.00000000000E+00 -0.18250000000E+03  0.18250000000E+03  0.00000000000E+00 0.  1.
        -11    1    1    2    0    0 -0.11275932002E+02 -0.46020078291E+02  0.14529543629E+03  0.15282590767E+03  0.00000000000E+00 0. -1.
         11    1    1    2    0    0 -0.59818199179E+02  0.65701128712E+01 -0.90949803111E+02  0.10905617828E+03  0.00000000000E+00 0.  1.
        -15    1    1    2    0    0  0.67941766972E+02  0.27733710044E+02 -0.53487162337E+02  0.90825528547E+02  0.17770000000E+01 0. -1.
         15    1    1    2    0    0  0.31523642090E+01  0.11716255376E+02 -0.85847083897E+00  0.12292385501E+02  0.17770000000E+01 0.  1.
</event>
<event>
 6    1  0.1507019E-006  0.1849423E+03  0.7546771E-02  0.1066527E+00
        -11   -1    0    0    0    0  0.00000000000E+00  0.00000000000E+00  0.18250000000E+03  0.18250000000E+03  0.00000000000E+00 0.  1.
         11   -1    0    0    0    0 -0.00000000000E+00 -0.00000000000E+00 -0.18250000000E+03  0.18250000000E+03  0.00000000000E+00 0. -1.
        -11    1    1    2    0    0 -0.61547187662E+01 -0.31593224973E+02  0.17715743425E+03  0.18005768225E+03  0.00000000000E+00 0.  1.
         11    1    1    2    0    0  0.82721947647E+00  0.26494734352E+02 -0.43394318201E+02  0.50849995994E+02  0.00000000000E+00 0. -1.
        -15    1    1    2    0    0 -0.79894269322E-02  0.18430598965E+01 -0.55876121809E+02  0.55934744578E+02  0.17770000000E+01 0.  1.
         15    1    1    2    0    0  0.53354887167E+01  0.32554307246E+01 -0.77886994242E+02  0.78157577177E+02  0.17770000000E+01 0. -1.
</event>
<event>
 6    1  0.1507019E-006  0.1847613E+03  0.7546771E-02  0.1066669E+00
        -11   -1    0    0    0    0  0.00000000000E+00  0.00000000000E+00  0.18250000000E+03  0.18250000000E+03  0.00000000000E+00 0. -1.
         11   -1    0    0    0    0 -0.00000000000E+00 -0.00000000000E+00 -0.18250000000E+03  0.18250000000E+03  0.00000000000E+00 0.  1.
        -11    1    1    2    0    0  0.34253449612E+01 -0.37736197960E+02  0.17621071936E+03  0.18023865080E+03  0.00000000000E+00 0. -1.
         11    1    1    2    0    0 -0.93004129755E+01  0.40157599851E+02 -0.10975553189E+03  0.11724080896E+03  0.00000000000E+00 0.  1.
        -15    1    1    2    0    0 -0.18577365171E+01 -0.20669535945E+01 -0.10540725129E+02  0.11044822197E+02  0.17770000000E+01 0. -1.
         15    1    1    2    0    0  0.77328045315E+01 -0.35444829653E+00 -0.55914462346E+02  0.56475718038E+02  0.17770000000E+01 0.  1.
</event>
<event>
 6    1  0.1507019E-006  0.1199427E+03  0.7546771E-02  0.1133204E+00
        -11   -1    0    0    0    0  0.00000000000E+00  0.00000000000E+00  0.18250000000E+03  0.18250000000E+03  0.00000000000E+00 0.  1.
         11   -1    0    0    0    0 -0.00000000000E+00 -0.00000000000E+00 -0.18250000000E+03  0.18250000000E+03  0.00000000000E+00 0. -1.
        -11    1    1    2    0    0  0.36394409004E+02  0.43776643924E+02  0.11475548487E+03  0.12810062009E+03  0.00000000000E+00 0.  1.
         11    1    1    2    0    0 -0.44866741352E+00 -0.10765239689E+03 -0.22990552102E+02  0.11008090363E+03  0.00000000000E+00 0. -1.
        -15    1    1    2    0    0  0.25593621667E+00  0.40189228672E+02 -0.63297803452E+02  0.75000061703E+02  0.17770000000E+01 0. -1.
         15    1    1    2    0    0 -0.36201677808E+02  0.23686524292E+02 -0.28467129312E+02  0.51818414578E+02  0.17770000000E+01 0.  1.
</event>
<event>
 6    1  0.1507019E-006  0.1901061E+03  0.7546771E-02  0.1062557E+00
        -11   -1    0    0    0    0  0.00000000000E+00  0.00000000000E+00  0.18250000000E+03  0.18250000000E+03  0.00000000000E+00 0.  1.
         11   -1    0    0    0    0 -0.00000000000E+00 -0.00000000000E+00 -0.18250000000E+03  0.18250000000E+03  0.00000000000E+00 0.  1.
        -11    1    1    2    0    0  0.65374379658E-01  0.33290217819E+02  0.17169634090E+03  0.17489390028E+03  0.00000000000E+00 0.  1.
         11    1    1    2    0    0  0.57205276885E+01 -0.30293948816E+02 -0.17434086953E+02  0.35417441463E+02  0.00000000000E+00 0.  1.
        -15    1    1    2    0    0  0.21364479057E+01 -0.11948302224E+01 -0.31449354873E+02  0.31594488124E+02  0.17770000000E+01 0. -1.
         15    1    1    2    0    0 -0.79223499739E+01 -0.18014387806E+01 -0.12281289908E+03  0.12309417013E+03  0.17770000000E+01 0.  1.
</event>
<event>
 6    1  0.1507019E-006  0.1279245E+03  0.7546771E-02  0.1122749E+00
        -11   -1    0    0    0    0  0.00000000000E+00  0.00000000000E+00  0.18250000000E+03  0.18250000000E+03  0.00000000000E+00 0.  1.
         11   -1    0    0    0    0 -0.00000000000E+00 -0.00000000000E+00 -0.18250000000E+03  0.18250000000E+03  0.00000000000E+00 0. -1.
        -11    1    1    2    0    0  0.22878550144E+02 -0.40441230020E+02  0.94806616583E+02  0.10558037550E+03  0.00000000000E+00 0.  1.
         11    1    1    2    0    0  0.17165266258E+02 -0.24378003611E+02 -0.14376634024E+03  0.14682538613E+03  0.00000000000E+00 0. -1.
        -15    1    1    2    0    0 -0.10521899834E+02  0.24275182757E+02  0.55958789624E+02  0.61923652502E+02  0.17770000000E+01 0.  1.
         15    1    1    2    0    0 -0.29521916568E+02  0.40544050874E+02 -0.69990659655E+01  0.50670585871E+02  0.17770000000E+01 0. -1.
</event>
<event>
 6    1  0.1507019E-006  0.1844279E+03  0.7546771E-02  0.1066930E+00
        -11   -1    0    0    0    0  0.00000000000E+00  0.00000000000E+00  0.18250000000E+03  0.18250000000E+03  0.00000000000E+00 0.  1.
         11   -1    0    0    0    0 -0.00000000000E+00 -0.00000000000E+00 -0.18250000000E+03  0.18250000000E+03  0.00000000000E+00 0. -1.
        -11    1    1    2    0    0 -0.28846348109E+01 -0.60147155379E+02  0.12467423103E+03  0.13845456042E+03  0.00000000000E+00 0.  1.
         11    1    1    2    0    0  0.72998755089E+00  0.60932319873E+02 -0.16997943060E+03  0.18057211112E+03  0.00000000000E+00 0. -1.
        -15    1    1    2    0    0  0.39468982911E+01 -0.19073209632E+01  0.21854008637E+02  0.22360038057E+02  0.17770000000E+01 0. -1.
         15    1    1    2    0    0 -0.17922510311E+01  0.11221564695E+01  0.23451190926E+02  0.23613290405E+02  0.17770000000E+01 0.  1.
</event>
<event>
 6    1  0.1507019E-006  0.1830746E+03  0.7546771E-02  0.1067998E+00
        -11   -1    0    0    0    0  0.00000000000E+00  0.00000000000E+00  0.18250000000E+03  0.18250000000E+03  0.00000000000E+00 0. -1.
         11   -1    0    0    0    0 -0.00000000000E+00 -0.00000000000E+00 -0.18250000000E+03  0.18250000000E+03  0.00000000000E+00 0.  1.
        -11    1    1    2    0    0  0.27233680577E+02 -0.75931513083E+01  0.12034957231E+03  0.12362584220E+03  0.00000000000E+00 0. -1.
         11    1    1    2    0    0 -0.29966826595E+02  0.12273065885E+02 -0.17902016461E+03  0.18192541927E+03  0.00000000000E+00 0.  1.
        -15    1    1    2    0    0 -0.20608786523E+01 -0.13011546713E+00  0.15073422574E+02  0.15317635194E+02  0.17770000000E+01 0.  1.
         15    1    1    2    0    0  0.47940246700E+01 -0.45497991097E+01  0.43597169724E+02  0.44131103334E+02  0.17770000000E+01 0. -1.
</event>
<event>
 6    1  0.1507019E-006  0.1681107E+03  0.7546771E-02  0.1080523E+00
        -11   -1    0    0    0    0  0.00000000000E+00  0.00000000000E+00  0.18250000000E+03  0.18250000000E+03  0.00000000000E+00 0.  1.
         11   -1    0    0    0    0 -0.00000000000E+00 -0.00000000000E+00 -0.18250000000E+03  0.18250000000E+03  0.00000000000E+00 0. -1.
        -11    1    1    2    0    0  0.16351329786E+03 -0.45129128001E+02  0.19355108828E+02  0.17072743485E+03  0.00000000000E+00 0.  1.
         11    1    1    2    0    0 -0.15398430396E+03  0.62360504504E+02 -0.72112137499E+01  0.16628890519E+03  0.00000000000E+00 0. -1.
        -15    1    1    2    0    0  0.28569318654E+01  0.25289829502E+00 -0.33491918573E+01  0.47540332696E+01  0.17770000000E+01 0.  1.
         15    1    1    2    0    0 -0.12385925771E+02 -0.17484274798E+02 -0.87947032203E+01  0.23229626690E+02  0.17770000000E+01 0. -1.
</event>
<event>
 6    1  0.1507019E-006  0.1344419E+03  0.7546771E-02  0.1114819E+00
        -11   -1    0    0    0    0  0.00000000000E+00  0.00000000000E+00  0.18250000000E+03  0.18250000000E+03  0.00000000000E+00 0. -1.
         11   -1    0    0    0    0 -0.00000000000E+00 -0.00000000000E+00 -0.18250000000E+03  0.18250000000E+03  0.00000000000E+00 0. -1.
        -11    1    1    2    0    0  0.32040170019E+01 -0.91966169637E+02 -0.70074709716E+01  0.92288388934E+02  0.00000000000E+00 0. -1.
         11    1    1    2    0    0  0.72937499086E+02  0.64160889202E+02 -0.91429733061E+02  0.13340125398E+03  0.00000000000E+00 0. -1.
        -15    1    1    2    0    0 -0.63641203296E+02  0.44134081323E+02  0.71909685864E+02  0.10569853614E+03  0.17770000000E+01 0.  1.
         15    1    1    2    0    0 -0.12500312791E+02 -0.16328800888E+02  0.26527518168E+02  0.33611820949E+02  0.17770000000E+01 0. -1.
</event>
<event>
 6    1  0.1507019E-006  0.1837887E+03  0.7546771E-02  0.1067434E+00
        -11   -1    0    0    0    0  0.00000000000E+00  0.00000000000E+00  0.18250000000E+03  0.18250000000E+03  0.00000000000E+00 0. -1.
         11   -1    0    0    0    0 -0.00000000000E+00 -0.00000000000E+00 -0.18250000000E+03  0.18250000000E+03  0.00000000000E+00 0.  1.
        -11    1    1    2    0    0  0.74847315120E+02  0.53810495182E+02  0.11927488773E+03  0.15074544376E+03  0.00000000000E+00 0. -1.
         11    1    1    2    0    0 -0.81330353144E+02 -0.60376186476E+02 -0.15025856816E+03  0.18121133392E+03  0.00000000000E+00 0.  1.
        -15    1    1    2    0    0  0.11917481585E+01  0.20665437462E+01  0.32845812054E+01  0.44313733112E+01  0.17770000000E+01 0. -1.
         15    1    1    2    0    0  0.52912898655E+01  0.44991475483E+01  0.27699099219E+02  0.28611849007E+02  0.17770000000E+01 0. -1.
</event>
<event>
 6    1  0.1507019E-006  0.2083366E+03  0.7546771E-02  0.1049567E+00
        -11   -1    0    0    0    0  0.00000000000E+00  0.00000000000E+00  0.18250000000E+03  0.18250000000E+03  0.00000000000E+00 0.  1.
         11   -1    0    0    0    0 -0.00000000000E+00 -0.00000000000E+00 -0.18250000000E+03  0.18250000000E+03  0.00000000000E+00 0.  1.
        -11    1    1    2    0    0 -0.16978424032E+02 -0.14063401824E+03 -0.38527533905E+02  0.14680110639E+03  0.00000000000E+00 0.  1.
         11    1    1    2    0    0  0.13256081727E+02  0.15094453825E+03  0.39792466747E+02  0.15666338992E+03  0.00000000000E+00 0.  1.
        -15    1    1    2    0    0  0.20381702030E+02 -0.20642489950E+01 -0.24332233069E+02  0.31857341330E+02  0.17770000000E+01 0. -1.
         15    1    1    2    0    0 -0.16659359725E+02 -0.82462710170E+01  0.23067300227E+02  0.29678162357E+02  0.17770000000E+01 0.  1.
</event>
<event>
 6    1  0.1507019E-006  0.1879535E+03  0.7546771E-02  0.1064195E+00
        -11   -1    0    0    0    0  0.00000000000E+00  0.00000000000E+00  0.18250000000E+03  0.18250000000E+03  0.00000000000E+00 0. -1.
         11   -1    0    0    0    0 -0.00000000000E+00 -0.00000000000E+00 -0.18250000000E+03  0.18250000000E+03  0.00000000000E+00 0. -1.
        -11    1    1    2    0    0  0.56130825415E+02  0.61387225668E+01  0.16780081063E+03  0.17704650667E+03  0.00000000000E+00 0. -1.
         11    1    1    2    0    0 -0.30712921337E+02 -0.33471914357E+02 -0.83037951491E+02  0.94651751044E+02  0.00000000000E+00 0. -1.
        -15    1    1    2    0    0 -0.19346215734E+02  0.25261061900E+02 -0.74953108142E+02  0.81446445353E+02  0.17770000000E+01 0. -1.
         15    1    1    2    0    0 -0.60716883443E+01  0.20721298911E+01 -0.98097509987E+01  0.11855296930E+02  0.17770000000E+01 0. -1.
</event>
<event>
 6    1  0.1507019E-006  0.1865095E+03  0.7546771E-02  0.1065307E+00
        -11   -1    0    0    0    0  0.00000000000E+00  0.00000000000E+00  0.18250000000E+03  0.18250000000E+03  0.00000000000E+00 0. -1.
         11   -1    0    0    0    0 -0.00000000000E+00 -0.00000000000E+00 -0.18250000000E+03  0.18250000000E+03  0.00000000000E+00 0. -1.
        -11    1    1    2    0    0 -0.16172201748E+02  0.39347736691E+02  0.17334668342E+03  0.17849049595E+03  0.00000000000E+00 0. -1.
         11    1    1    2    0    0  0.21670450965E+02 -0.45758326425E+02 -0.10050224815E+03  0.11253503795E+03  0.00000000000E+00 0. -1.
        -15    1    1    2    0    0 -0.46082981700E+01  0.68378277867E+01 -0.32432851212E+02  0.33511786996E+02  0.17770000000E+01 0. -1.
         15    1    1    2    0    0 -0.88995104630E+00 -0.42723805208E+00 -0.40411584059E+02  0.40462679105E+02  0.17770000000E+01 0.  1.
</event>
<event>
 6    1  0.1507019E-006  0.1829664E+03  0.7546771E-02  0.1068084E+00
        -11   -1    0    0    0    0  0.00000000000E+00  0.00000000000E+00  0.18250000000E+03  0.18250000000E+03  0.00000000000E+00 0.  1.
         11   -1    0    0    0    0 -0.00000000000E+00 -0.00000000000E+00 -0.18250000000E+03  0.18250000000E+03  0.00000000000E+00 0.  1.
        -11    1    1    2    0    0 -0.14239572345E+02  0.13461960236E+02  0.14753421053E+03  0.14882987963E+03  0.00000000000E+00 0.  1.
         11    1    1    2    0    0  0.21967222079E+02 -0.14482137731E+02 -0.18012203263E+03  0.18203361722E+03  0.00000000000E+00 0.  1.
        -15    1    1    2    0    0 -0.37613155388E+01  0.31835618806E+01  0.18932725838E+02  0.19644042289E+02  0.17770000000E+01 0. -1.
         15    1    1    2    0    0 -0.39663341957E+01 -0.21633843851E+01  0.13655096266E+02  0.14492460867E+02  0.17770000000E+01 0.  1.
</event>
<event>
 6    1  0.1507019E-006  0.1884624E+03  0.7546771E-02  0.1063805E+00
        -11   -1    0    0    0    0  0.00000000000E+00  0.00000000000E+00  0.18250000000E+03  0.18250000000E+03  0.00000000000E+00 0.  1.
         11   -1    0    0    0    0 -0.00000000000E+00 -0.00000000000E+00 -0.18250000000E+03  0.18250000000E+03  0.00000000000E+00 0.  1.
        -11    1    1    2    0    0  0.86655662710E+02  0.93858901092E+02  0.12184749200E+03  0.17653755550E+03  0.00000000000E+00 0.  1.
         11    1    1    2    0    0 -0.49848691320E+02 -0.53444052629E+02 -0.26261931886E+02  0.77658533685E+02  0.00000000000E+00 0.  1.
        -15    1    1    2    0    0 -0.16526495034E+02 -0.10675003302E+02 -0.28975645231E+02  0.35068881920E+02  0.17770000000E+01 0.  1.
         15    1    1    2    0    0 -0.20280476356E+02 -0.29739845161E+02 -0.66609914888E+02  0.75735028895E+02  0.17770000000E+01 0. -1.
</event>
<event>
 6    1  0.1507019E-006  0.1833663E+03  0.7546771E-02  0.1067767E+00
        -11   -1    0    0    0    0  0.00000000000E+00  0.00000000000E+00  0.18250000000E+03  0.18250000000E+03  0.00000000000E+00 0. -1.
         11   -1    0    0    0    0 -0.00000000000E+00 -0.00000000000E+00 -0.18250000000E+03  0.18250000000E+03  0.00000000000E+00 0. -1.
        -11    1    1    2    0    0 -0.82135708538E+01 -0.68098215467E+02  0.10618594559E+03  0.12641315096E+03  0.00000000000E+00 0. -1.
         11    1    1    2    0    0  0.68815124880E+00  0.89760737171E+02 -0.15790295529E+03  0.18163371597E+03  0.00000000000E+00 0. -1.
        -15    1    1    2    0    0  0.19893930296E+00 -0.40103368736E+01  0.13331329404E+02  0.14035827420E+02  0.17770000000E+01 0. -1.
         15    1    1    2    0    0  0.73264803021E+01 -0.17652184830E+02  0.38385680296E+02  0.42917305643E+02  0.17770000000E+01 0. -1.
</event>
<event>
 6    1  0.1507019E-006  0.1547624E+03  0.7546771E-02  0.1092965E+00
        -11   -1    0    0    0    0  0.00000000000E+00  0.00000000000E+00  0.18250000000E+03  0.18250000000E+03  0.00000000000E+00 0.  1.
         11   -1    0    0    0    0 -0.00000000000E+00 -0.00000000000E+00 -0.18250000000E+03  0.18250000000E+03  0.00000000000E+00 0.  1.
        -11    1    1    2    0    0  0.28874773621E+02 -0.46982439770E+02  0.13219580227E+03  0.14323697964E+03  0.00000000000E+00 0.  1.
         11    1    1    2    0    0 -0.41448301634E+02  0.33097192140E+01  0.30928693510E+02  0.51821810387E+02  0.00000000000E+00 0.  1.
        -15    1    1    2    0    0  0.10052447721E+02  0.40936674018E+02 -0.13288216640E+03  0.13941911943E+03  0.17770000000E+01 0.  1.
         15    1    1    2    0    0  0.25210802915E+01  0.27360465386E+01 -0.30242329374E+02  0.30522090548E+02  0.17770000000E+01 0. -1.
</event>
<event>
 6    1  0.1507019E-006  0.1849811E+03  0.7546771E-02  0.1066497E+00
        -11   -1    0    0    0    0  0.00000000000E+00  0.00000000000E+00  0.18250000000E+03  0.18250000000E+03  0.00000000000E+00 0. -1.
         11   -1    0    0    0    0 -0.00000000000E+00 -0.00000000000E+00 -0.18250000000E+03  0.18250000000E+03  0.00000000000E+00 0. -1.
        -11    1    1    2    0    0 -0.29820155443E+02 -0.36332367995E+02  0.17377436406E+03  0.18001892189E+03  0.00000000000E+00 0. -1.
         11    1    1    2    0    0  0.20423905951E+02  0.44043830996E+02 -0.13554955929E+03  0.14398151967E+03  0.00000000000E+00 0. -1.
        -15    1    1    2    0    0  0.10128777810E+02 -0.72315798819E+01 -0.35257052625E+02  0.37431342166E+02  0.17770000000E+01 0.  1.
         15    1    1    2    0    0 -0.73252831871E+00 -0.47988311978E+00 -0.29677521461E+01  0.35682162696E+01  0.17770000000E+01 0.  1.
</event>
<event>
 6    1  0.1507019E-006  0.1497709E+03  0.7546771E-02  0.1097976E+00
        -11   -1    0    0    0    0  0.00000000000E+00  0.00000000000E+00  0.18250000000E+03  0.18250000000E+03  0.00000000000E+00 0.  1.
         11   -1    0    0    0    0 -0.00000000000E+00 -0.00000000000E+00 -0.18250000000E+03  0.18250000000E+03  0.00000000000E+00 0. -1.
        -11    1    1    2    0    0 -0.42486793913E+02  0.15757615919E+02  0.16479972307E+03  0.17091629191E+03  0.00000000000E+00 0.  1.
         11    1    1    2    0    0  0.74967197411E+01 -0.44510529538E+02 -0.40035462090E+02  0.60334287692E+02  0.00000000000E+00 0. -1.
        -15    1    1    2    0    0  0.97359121020E+01  0.12370641461E+02 -0.63767405068E+02  0.65705863001E+02  0.17770000000E+01 0. -1.
         15    1    1    2    0    0  0.25254162070E+02  0.16382272157E+02 -0.60996855912E+02  0.68043557396E+02  0.17770000000E+01 0. -1.
</event>
<event>
 6    1  0.1507019E-006  0.1320849E+03  0.7546771E-02  0.1117628E+00
        -11   -1    0    0    0    0  0.00000000000E+00  0.00000000000E+00  0.18250000000E+03  0.18250000000E+03  0.00000000000E+00 0.  1.
         11   -1    0    0    0    0 -0.00000000000E+00 -0.00000000000E+00 -0.18250000000E+03  0.18250000000E+03  0.00000000000E+00 0. -1.
        -11    1    1    2    0    0 -0.10900400552E+03  0.55779233158E+02  0.10263462476E+03  0.15977190701E+03  0.00000000000E+00 0.  1.
         11    1    1    2    0    0  0.97176958271E+02 -0.56033795446E+02 -0.26780608655E+02  0.11532713666E+03  0.00000000000E+00 0. -1.
        -15    1    1    2    0    0 -0.14449818562E+02 -0.65228078997E+01 -0.10457001410E+02  0.19074875802E+02  0.17770000000E+01 0. -1.
         15    1    1    2    0    0  0.26276865808E+02  0.67773701885E+01 -0.65397014691E+02  0.70826080527E+02  0.17770000000E+01 0.  1.
</event>
<event>
 6    1  0.1507019E-006  0.1385487E+03  0.7546771E-02  0.1110073E+00
        -11   -1    0    0    0    0  0.00000000000E+00  0.00000000000E+00  0.18250000000E+03  0.18250000000E+03  0.00000000000E+00 0. -1.
         11   -1    0    0    0    0 -0.00000000000E+00 -0.00000000000E+00 -0.18250000000E+03  0.18250000000E+03  0.00000000000E+00 0. -1.
        -11    1    1    2    0    0  0.10415125470E+01 -0.23226495929E+02  0.14060196954E+03  0.14251129324E+03  0.00000000000E+00 0. -1.
         11    1    1    2    0    0 -0.49800986129E+02 -0.33843080657E+02 -0.13159302502E+03  0.14471425832E+03  0.00000000000E+00 0. -1.
        -15    1    1    2    0    0  0.79333259416E+01  0.15665508514E+02  0.41495824717E+01  0.18130708237E+02  0.17770000000E+01 0.  1.
         15    1    1    2    0    0  0.40826147640E+02  0.41404068072E+02 -0.13158526989E+02  0.59643740204E+02  0.17770000000E+01 0. -1.
</event>
<event>
 6    1  0.1507019E-006  0.1867866E+03  0.7546771E-02  0.1065093E+00
        -11   -1    0    0    0    0  0.00000000000E+00  0.00000000000E+00  0.18250000000E+03  0.18250000000E+03  0.00000000000E+00 0. -1.
         11   -1    0    0    0    0 -0.00000000000E+00 -0.00000000000E+00 -0.18250000000E+03  0.18250000000E+03  0.00000000000E+00 0.  1.
        -11    1    1    2    0    0  0.21629879931E+02  0.82066785048E+02  0.12952012455E+03  0.15484918978E+03  0.00000000000E+00 0. -1.
         11    1    1    2    0    0 -0.17684873827E+02 -0.76855706997E+02 -0.15981385005E+03  0.17821341456E+03  0.00000000000E+00 0.  1.
        -15    1    1    2    0    0 -0.54488497279E+01 -0.52668691704E+01  0.23098622774E+02  0.24374863636E+02  0.17770000000E+01 0.  1.
         15    1    1    2    0    0  0.15038436243E+01  0.55791118662E-01  0.71951027304E+01  0.75625320228E+01  0.17770000000E+01 0. -1.
</event>
<event>
 6    1  0.1507019E-006  0.1901845E+03  0.7546771E-02  0.1062497E+00
        -11   -1    0    0    0    0  0.00000000000E+00  0.00000000000E+00  0.18250000000E+03  0.18250000000E+03  0.00000000000E+00 0. -1.
         11   -1    0    0    0    0 -0.00000000000E+00 -0.00000000000E+00 -0.18250000000E+03  0.18250000000E+03  0.00000000000E+00 0.  1.
        -11    1    1    2    0    0 -0.31461640169E+02 -0.56135651796E+02  0.16254053119E+03  0.17481553273E+03  0.00000000000E+00 0. -1.
         11    1    1    2    0    0  0.46325932046E+01  0.55460825637E+02 -0.51798223455E+02  0.76029073736E+02  0.00000000000E+00 0.  1.
        -15    1    1    2    0    0  0.22708179097E+02 -0.12732153242E+01 -0.91072893608E+02  0.93886698495E+02  0.17770000000E+01 0.  1.
         15    1    1    2    0    0  0.41208678673E+01  0.19480414840E+01 -0.19669414124E+02  0.20268695039E+02  0.17770000000E+01 0.  1.
</event>
<event>
 6    1  0.1507019E-006  0.1456870E+03  0.7546771E-02  0.1102239E+00
        -11   -1    0    0    0    0  0.00000000000E+00  0.00000000000E+00  0.18250000000E+03  0.18250000000E+03  0.00000000000E+00 0.  1.
         11   -1    0    0    0    0 -0.00000000000E+00 -0.00000000000E+00 -0.18250000000E+03  0.18250000000E+03  0.00000000000E+00 0.  1.
        -11    1    1    2    0    0 -0.11778566257E+03 -0.14960804225E+02  0.74639372558E+02  0.14024380167E+03  0.00000000000E+00 0.  1.
         11    1    1    2    0    0  0.87757921471E+02  0.72945797470E+01 -0.13146472498E+03  0.15823285875E+03  0.00000000000E+00 0.  1.
        -15    1    1    2    0    0  0.29539059656E+00  0.26390362322E+01  0.12373573499E+02  0.12779468611E+02  0.17770000000E+01 0. -1.
         15    1    1    2    0    0  0.29732350505E+02  0.50271882457E+01  0.44451778924E+02  0.53743870968E+02  0.17770000000E+01 0.  1.
</event>
<event>
 6    1  0.1507019E-006  0.1860264E+03  0.7546771E-02  0.1065682E+00
        -11   -1    0    0    0    0  0.00000000000E+00  0.00000000000E+00  0.18250000000E+03  0.18250000000E+03  0.00000000000E+00 0. -1.
         11   -1    0    0    0    0 -0.00000000000E+00 -0.00000000000E+00 -0.18250000000E+03  0.18250000000E+03  0.00000000000E+00 0. -1.
        -11    1    1    2    0    0  0.36129261237E+02 -0.23972413744E+02  0.17364200896E+03  0.17897359418E+03  0.00000000000E+00 0. -1.
         11    1    1    2    0    0 -0.35546360113E+02  0.29574202975E+02 -0.91932150178E+02  0.10290625557E+03  0.00000000000E+00 0. -1.
        -15    1    1    2    0    0 -0.54552973044E+01 -0.87860392817E+00 -0.15699275775E+02  0.16737897192E+02  0.17770000000E+01 0. -1.
         15    1    1    2    0    0  0.48723961804E+01 -0.47231853028E+01 -0.66010583004E+02  0.66382253061E+02  0.17770000000E+01 0. -1.
</event>
<event>
 6    1  0.1507019E-006  0.1227605E+03  0.7546771E-02  0.1129413E+00
        -11   -1    0    0    0    0  0.00000000000E+00  0.00000000000E+00  0.18250000000E+03  0.18250000000E+03  0.00000000000E+00 0. -1.
         11   -1    0    0    0    0 -0.00000000000E+00 -0.00000000000E+00 -0.18250000000E+03  0.18250000000E+03  0.00000000000E+00 0.  1.
        -11    1    1    2    0    0  0.22853375553E+02 -0.80190937197E+02  0.12357394333E+03  0.14907509065E+03  0.00000000000E+00 0. -1.
         11    1    1    2    0    0  0.61061634501E+02  0.60893217169E+02 -0.76564532645E+02  0.11531970675E+03  0.00000000000E+00 0.  1.
        -15    1    1    2    0    0 -0.10482025056E+02 -0.26866663110E+01 -0.60512619232E+00  0.10982482955E+02  0.17770000000E+01 0. -1.
         15    1    1    2    0    0 -0.73432984998E+02  0.21984386339E+02 -0.46404284493E+02  0.89622719646E+02  0.17770000000E+01 0.  1.
</event>
<event>
 6    1  0.1507019E-006  0.1420869E+03  0.7546771E-02  0.1106126E+00
        -11   -1    0    0    0    0  0.00000000000E+00  0.00000000000E+00  0.18250000000E+03  0.18250000000E+03  0.00000000000E+00 0. -1.
         11   -1    0    0    0    0 -0.00000000000E+00 -0.00000000000E+00 -0.18250000000E+03  0.18250000000E+03  0.00000000000E+00 0. -1.
        -11    1    1    2    0    0 -0.34089871056E+02 -0.72250507363E+02  0.13015894733E+03  0.15272068194E+03  0.00000000000E+00 0. -1.
         11    1    1    2    0    0  0.44466522693E+02  0.61395329137E+02  0.13996746495E+00  0.75806844487E+02  0.00000000000E+00 0. -1.
        -15    1    1    2    0    0 -0.14403283820E+02  0.54616852044E+01 -0.17193155833E+02  0.23152687243E+02  0.17770000000E+01 0. -1.
         15    1    1    2    0    0  0.40266321830E+01  0.53934930218E+01 -0.11310575896E+03  0.11331978633E+03  0.17770000000E+01 0.  1.
</event>
<event>
 6    1  0.1507019E-006  0.1834112E+03  0.7546771E-02  0.1067732E+00
        -11   -1    0    0    0    0  0.00000000000E+00  0.00000000000E+00  0.18250000000E+03  0.18250000000E+03  0.00000000000E+00 0.  1.
         11   -1    0    0    0    0 -0.00000000000E+00 -0.00000000000E+00 -0.18250000000E+03  0.18250000000E+03  0.00000000000E+00 0.  1.
        -11    1    1    2    0    0  0.48139659338E+02  0.29316690375E+02  0.17261984394E+03  0.18158883682E+03  0.00000000000E+00 0.  1.
         11    1    1    2    0    0 -0.18114699340E+02 -0.94382676730E+01 -0.31669993892E+02  0.37685696782E+02  0.00000000000E+00 0.  1.
        -15    1    1    2    0    0 -0.12368790533E+02 -0.50082953660E+01 -0.42073524220E+02  0.44174757170E+02  0.17770000000E+01 0. -1.
         15    1    1    2    0    0 -0.17656169466E+02 -0.14870127336E+02 -0.98876325826E+02  0.10155070923E+03  0.17770000000E+01 0.  1.
</event>
<event>
 6    1  0.1507019E-006  0.1253207E+03  0.7546771E-02  0.1126065E+00
        -11   -1    0    0    0    0  0.00000000000E+00  0.00000000000E+00  0.18250000000E+03  0.18250000000E+03  0.00000000000E+00 0. -1.
         11   -1    0    0    0    0 -0.00000000000E+00 -0.00000000000E+00 -0.18250000000E+03  0.18250000000E+03  0.00000000000E+00 0.  1.
        -11    1    1    2    0    0  0.39720753936E+02  0.45101294036E+02  0.89361324685E+02  0.10769081375E+03  0.00000000000E+00 0. -1.
         11    1    1    2    0    0  0.37864399863E+02 -0.88629151044E+02 -0.11015699840E+03  0.14636735800E+03  0.00000000000E+00 0.  1.
        -15    1    1    2    0    0 -0.36329647786E+02  0.42520269588E+02  0.36437595551E+02  0.66773293559E+02  0.17770000000E+01 0. -1.
         15    1    1    2    0    0 -0.41255506013E+02  0.10075874197E+01 -0.15641921835E+02  0.44168534688E+02  0.17770000000E+01 0.  1.
</event>
<event>
 6    1  0.1507019E-006  0.1848553E+03  0.7546771E-02  0.1066595E+00
        -11   -1    0    0    0    0  0.00000000000E+00  0.00000000000E+00  0.18250000000E+03  0.18250000000E+03  0.00000000000E+00 0.  1.
         11   -1    0    0    0    0 -0.00000000000E+00 -0.00000000000E+00 -0.18250000000E+03  0.18250000000E+03  0.00000000000E+00 0. -1.
        -11    1    1    2    0    0  0.61117440614E+02 -0.17095173325E+02  0.63844185046E+02  0.90020366931E+02  0.00000000000E+00 0.  1.
         11    1    1    2    0    0 -0.90391562867E+02  0.32009513165E+02 -0.15250208120E+03  0.18014474275E+03  0.00000000000E+00 0. -1.
        -15    1    1    2    0    0  0.27228246998E+02 -0.12530715099E+02  0.77806196115E+02  0.83398789790E+02  0.17770000000E+01 0.  1.
         15    1    1    2    0    0  0.20458752548E+01 -0.23836247403E+01  0.10851700041E+02  0.11436100526E+02  0.17770000000E+01 0.  1.
</event>
<event>
 6    1  0.1507019E-006  0.2046583E+03  0.7546771E-02  0.1052069E+00
        -11   -1    0    0    0    0  0.00000000000E+00  0.00000000000E+00  0.18250000000E+03  0.18250000000E+03  0.00000000000E+00 0. -1.
         11   -1    0    0    0    0 -0.00000000000E+00 -0.00000000000E+00 -0.18250000000E+03  0.18250000000E+03  0.00000000000E+00 0. -1.
        -11    1    1    2    0    0  0.68051453629E+00  0.14802246773E+02  0.12412870484E+03  0.12501001950E+03  0.00000000000E+00 0. -1.
         11    1    1    2    0    0  0.35687839818E+01 -0.36202459720E+02 -0.15616056048E+03  0.16034174428E+03  0.00000000000E+00 0. -1.
        -15    1    1    2    0    0  0.94132334728E+01  0.28059891771E+02 -0.12786349060E+02  0.32289548493E+02  0.17770000000E+01 0.  1.
         15    1    1    2    0    0 -0.13662531991E+02 -0.66596788243E+01  0.44818204695E+02  0.47358687730E+02  0.17770000000E+01 0. -1.
</event>
<event>
 6    1  0.1507019E-006  0.1926025E+03  0.7546771E-02  0.1060686E+00
        -11   -1    0    0    0    0  0.00000000000E+00  0.00000000000E+00  0.18250000000E+03  0.18250000000E+03  0.00000000000E+00 0.  1.
         11   -1    0    0    0    0 -0.00000000000E+00 -0.00000000000E+00 -0.18250000000E+03  0.18250000000E+03  0.00000000000E+00 0.  1.
        -11    1    1    2    0    0 -0.77347747452E+02  0.50408147371E+02  0.14559278126E+03  0.17239754439E+03  0.00000000000E+00 0.  1.
         11    1    1    2    0    0  0.86259510125E+02 -0.33349757075E+02 -0.78795538695E+02  0.12149751562E+03  0.00000000000E+00 0.  1.
        -15    1    1    2    0    0  0.34000165082E+01 -0.84655402748E+00 -0.11537779826E+02  0.12188308262E+02  0.17770000000E+01 0. -1.
         15    1    1    2    0    0 -0.12311779181E+02 -0.16211836268E+02 -0.55259462744E+02  0.58916631723E+02  0.17770000000E+01 0.  1.
</event>
<event>
 6    1  0.1507019E-006  0.1281979E+03  0.7546771E-02  0.1122406E+00
        -11   -1    0    0    0    0  0.00000000000E+00  0.00000000000E+00  0.18250000000E+03  0.18250000000E+03  0.00000000000E+00 0. -1.
         11   -1    0    0    0    0 -0.00000000000E+00 -0.00000000000E+00 -0.18250000000E+03  0.18250000000E+03  0.00000000000E+00 0.  1.
        -11    1    1    2    0    0 -0.95313671679E+02 -0.28723628081E+01  0.13011971706E+03  0.16131982905E+03  0.00000000000E+00 0. -1.
         11    1    1    2    0    0  0.10428763302E+03 -0.63553227520E+00 -0.38434287047E+02  0.11114633923E+03  0.00000000000E+00 0.  1.
        -15    1    1    2    0    0 -0.54563141617E+01  0.80161750466E-01 -0.25276535966E+02  0.25919853193E+02  0.17770000000E+01 0.  1.
         15    1    1    2    0    0 -0.35176471821E+01  0.34277333328E+01 -0.66408894049E+02  0.66613978528E+02  0.17770000000E+01 0.  1.
</event>
<event>
 6    1  0.1507019E-006  0.1832425E+03  0.7546771E-02  0.1067865E+00
        -11   -1    0    0    0    0  0.00000000000E+00  0.00000000000E+00  0.18250000000E+03  0.18250000000E+03  0.00000000000E+00 0. -1.
         11   -1    0    0    0    0 -0.00000000000E+00 -0.00000000000E+00 -0.18250000000E+03  0.18250000000E+03  0.00000000000E+00 0.  1.
        -11    1    1    2    0    0  0.25324494178E+02  0.45007025401E+01  0.10471884272E+03  0.10783145343E+03  0.00000000000E+00 0. -1.
         11    1    1    2    0    0 -0.27303286101E+02 -0.50371446520E+01 -0.17962442730E+03  0.18175746791E+03  0.00000000000E+00 0.  1.
        -15    1    1    2    0    0 -0.11100760113E+00 -0.30284617056E+01  0.18796535036E+02  0.19122012482E+02  0.17770000000E+01 0.  1.
         15    1    1    2    0    0  0.20897995241E+01  0.35649038176E+01  0.56109049544E+02  0.56289066177E+02  0.17770000000E+01 0. -1.
</event>
<event>
 6    1  0.1507019E-006  0.1966133E+03  0.7546771E-02  0.1057745E+00
        -11   -1    0    0    0    0  0.00000000000E+00  0.00000000000E+00  0.18250000000E+03  0.18250000000E+03  0.00000000000E+00 0. -1.
         11   -1    0    0    0    0 -0.00000000000E+00 -0.00000000000E+00 -0.18250000000E+03  0.18250000000E+03  0.00000000000E+00 0. -1.
        -11    1    1    2    0    0  0.52486307998E+02  0.29929724186E+02  0.10144300076E+03  0.11807321170E+03  0.00000000000E+00 0. -1.
         11    1    1    2    0    0 -0.29868218029E+02 -0.15574123981E+02 -0.16498309355E+03  0.16838671249E+03  0.00000000000E+00 0. -1.
        -15    1    1    2    0    0  0.42519247418E+01 -0.16595202944E+02  0.14354972610E+02  0.22421030137E+02  0.17770000000E+01 0.  1.
         15    1    1    2    0    0 -0.26870014711E+02  0.22396027395E+01  0.49185120182E+02  0.56119045673E+02  0.17770000000E+01 0. -1.
</event>
<event>
 6    1  0.1507019E-006  0.1828930E+03  0.7546771E-02  0.1068142E+00
        -11   -1    0    0    0    0  0.00000000000E+00  0.00000000000E+00  0.18250000000E+03  0.18250000000E+03  0.00000000000E+00 0.  1.
         11   -1    0    0    0    0 -0.00000000000E+00 -0.00000000000E+00 -0.18250000000E+03  0.18250000000E+03  0.00000000000E+00 0.  1.
        -11    1    1    2    0    0 -0.19702089799E+01 -0.30178607303E+02  0.99252363308E+02  0.10375770663E+03  0.00000000000E+00 0.  1.
         11    1    1    2    0    0  0.10781591092E+02  0.42644766619E+02 -0.17671485301E+03  0.18210699630E+03  0.00000000000E+00 0.  1.
        -15    1    1    2    0    0 -0.47006938921E+01 -0.34538226380E+01  0.27182329116E+02  0.27857892222E+02  0.17770000000E+01 0.  1.
         15    1    1    2    0    0 -0.41106882195E+01 -0.90123366774E+01  0.50280160590E+02  0.51277404849E+02  0.17770000000E+01 0.  1.
</event>
<event>
 6    1  0.1507019E-006  0.1386127E+03  0.7546771E-02  0.1110000E+00
        -11   -1    0    0    0    0  0.00000000000E+00  0.00000000000E+00  0.18250000000E+03  0.18250000000E+03  0.00000000000E+00 0. -1.
         11   -1    0    0    0    0 -0.00000000000E+00 -0.00000000000E+00 -0.18250000000E+03  0.18250000000E+03  0.00000000000E+00 0. -1.
        -11    1    1    2    0    0 -0.78401194668E+02  0.60869191237E+01  0.12915099212E+03  0.15120772690E+03  0.00000000000E+00 0. -1.
         11    1    1    2    0    0  0.10832211647E+03 -0.44583840269E+02 -0.69944891225E+02  0.13643198869E+03  0.00000000000E+00 0. -1.
        -15    1    1    2    0    0 -0.85033088086E+01  0.52216615588E+01 -0.10776877245E+02  0.14794283433E+02  0.17770000000E+01 0. -1.
         15    1    1    2    0    0 -0.21417612989E+02  0.33275259586E+02 -0.48429223645E+02  0.62566000980E+02  0.17770000000E+01 0. -1.
</event>
<event>
 6    1  0.1507019E-006  0.1329361E+03  0.7546771E-02  0.1116607E+00
        -11   -1    0    0    0    0  0.00000000000E+00  0.00000000000E+00  0.18250000000E+03  0.18250000000E+03  0.00000000000E+00 0. -1.
         11   -1    0    0    0    0 -0.00000000000E+00 -0.00000000000E+00 -0.18250000000E+03  0.18250000000E+03  0.00000000000E+00 0. -1.
        -11    1    1    2    0    0 -0.27680662988E+02  0.22019276717E+01  0.11535256088E+03  0.11864771759E+03  0.00000000000E+00 0. -1.
         11    1    1    2    0    0 -0.35184983032E+02 -0.42383759748E+02 -0.14983437195E+03  0.15963929697E+03  0.00000000000E+00 0. -1.
        -15    1    1    2    0    0  0.55499886312E+02  0.27027704914E+02  0.18045944335E+02  0.64339319622E+02  0.17770000000E+01 0. -1.
         15    1    1    2    0    0  0.73657597088E+01  0.13154127163E+02  0.16435866737E+02  0.22373665812E+02  0.17770000000E+01 0.  1.
</event>
<event>
 6    1  0.1507019E-006  0.1377743E+03  0.7546771E-02  0.1110954E+00
        -11   -1    0    0    0    0  0.00000000000E+00  0.00000000000E+00  0.18250000000E+03  0.18250000000E+03  0.00000000000E+00 0. -1.
         11   -1    0    0    0    0 -0.00000000000E+00 -0.00000000000E+00 -0.18250000000E+03  0.18250000000E+03  0.00000000000E+00 0. -1.
        -11    1    1    2    0    0  0.43976958102E+02  0.58533949047E+02  0.42086162249E+02  0.84447860173E+02  0.00000000000E+00 0. -1.
         11    1    1    2    0    0  0.99966651553E+02 -0.25903308570E+02 -0.68093977767E+02  0.12369762579E+03  0.00000000000E+00 0. -1.
        -15    1    1    2    0    0 -0.23650373631E+02  0.11720751753E+02  0.38856839011E+01  0.26738968995E+02  0.17770000000E+01 0.  1.
         15    1    1    2    0    0 -0.12029323602E+03 -0.44351392230E+02  0.22122131617E+02  0.13011554504E+03  0.17770000000E+01 0. -1.
</event>
<event>
 6    1  0.1507019E-006  0.1507992E+03  0.7546771E-02  0.1096926E+00
        -11   -1    0    0    0    0  0.00000000000E+00  0.00000000000E+00  0.18250000000E+03  0.18250000000E+03  0.00000000000E+00 0.  1.
         11   -1    0    0    0    0 -0.00000000000E+00 -0.00000000000E+00 -0.18250000000E+03  0.18250000000E+03  0.00000000000E+00 0.  1.
        -11    1    1    2    0    0  0.46717344107E+01  0.36423487610E+02 -0.46453218590E+02  0.59214838254E+02  0.00000000000E+00 0.  1.
         11    1    1    2    0    0  0.43385165751E+02 -0.10545311712E+03 -0.89132019710E+02  0.14473130088E+03  0.00000000000E+00 0.  1.
        -15    1    1    2    0    0 -0.13226448624E+02  0.34754157862E+02  0.69520525117E+02  0.78860963559E+02  0.17770000000E+01 0. -1.
         15    1    1    2    0    0 -0.34830451538E+02  0.34275471645E+02  0.66064713183E+02  0.82192897307E+02  0.17770000000E+01 0.  1.
</event>
<event>
 6    1  0.1507019E-006  0.1534751E+03  0.7546771E-02  0.1094237E+00
        -11   -1    0    0    0    0  0.00000000000E+00  0.00000000000E+00  0.18250000000E+03  0.18250000000E+03  0.00000000000E+00 0.  1.
         11   -1    0    0    0    0 -0.00000000000E+00 -0.00000000000E+00 -0.18250000000E+03  0.18250000000E+03  0.00000000000E+00 0. -1.
        -11    1    1    2    0    0  0.91377280906E+02  0.11109287194E+02 -0.11200277304E+03  0.14497532513E+03  0.00000000000E+00 0. -1.
         11    1    1    2    0    0 -0.62454124123E+02 -0.21143998389E+02  0.15250099238E+03  0.16614493361E+03  0.00000000000E+00 0.  1.
        -15    1    1    2    0    0 -0.27569106586E+02  0.14004855640E+02 -0.34900361289E+02  0.46662453500E+02  0.17770000000E+01 0. -1.
         15    1    1    2    0    0 -0.13540501964E+01 -0.39701444451E+01 -0.55978580524E+01  0.72172877609E+01  0.17770000000E+01 0.  1.
</event>
<event>
 6    1  0.1507019E-006  0.1899511E+03  0.7546771E-02  0.1062674E+00
        -11   -1    0    0    0    0  0.00000000000E+00  0.00000000000E+00  0.18250000000E+03  0.18250000000E+03  0.00000000000E+00 0. -1.
         11   -1    0    0    0    0 -0.00000000000E+00 -0.00000000000E+00 -0.18250000000E+03  0.18250000000E+03  0.00000000000E+00 0. -1.
        -11    1    1    2    0    0  0.55798893509E+02 -0.52612515216E+02  0.15735481237E+03  0.17504893673E+03  0.00000000000E+00 0. -1.
         11    1    1    2    0    0 -0.21701790437E+02  0.52572621286E+02 -0.45672697990E+02  0.72944112570E+02  0.00000000000E+00 0. -1.
        -15    1    1    2    0    0 -0.24331524824E+02 -0.27296071050E+01 -0.75974199144E+02  0.79841784298E+02  0.17770000000E+01 0. -1.
         15    1    1    2    0    0 -0.97655782476E+01  0.27695010355E+01 -0.35707915234E+02  0.37165166405E+02  0.17770000000E+01 0.  1.
</event>
<event>
 6    1  0.1507019E-006  0.1343331E+03  0.7546771E-02  0.1114947E+00
        -11   -1    0    0    0    0  0.00000000000E+00  0.00000000000E+00  0.18250000000E+03  0.18250000000E+03  0.00000000000E+00 0.  1.
         11   -1    0    0    0    0 -0.00000000000E+00 -0.00000000000E+00 -0.18250000000E+03  0.18250000000E+03  0.00000000000E+00 0. -1.
        -11    1    1    2    0    0 -0.11058498345E+02  0.22182344586E+02  0.12169162716E+03  0.12419017239E+03  0.00000000000E+00 0.  1.
         11    1    1    2    0    0 -0.30069026201E+02  0.38926752982E+02 -0.14761483209E+03  0.15559427074E+03  0.00000000000E+00 0. -1.
        -15    1    1    2    0    0  0.31977153108E+02 -0.63345962088E+02  0.26099503411E+02  0.75627977899E+02  0.17770000000E+01 0.  1.
         15    1    1    2    0    0  0.91503714377E+01  0.22368645197E+01 -0.17629847921E+00  0.95875789687E+01  0.17770000000E+01 0. -1.
</event>
<event>
 6    1  0.1507019E-006  0.1919675E+03  0.7546771E-02  0.1061159E+00
        -11   -1    0    0    0    0  0.00000000000E+00  0.00000000000E+00  0.18250000000E+03  0.18250000000E+03  0.00000000000E+00 0.  1.
         11   -1    0    0    0    0 -0.00000000000E+00 -0.00000000000E+00 -0.18250000000E+03  0.18250000000E+03  0.00000000000E+00 0. -1.
        -11    1    1    2    0    0  0.79608238588E+02  0.22902666781E+02  0.15191523767E+03  0.17303249185E+03  0.00000000000E+00 0.  1.
         11    1    1    2    0    0 -0.83534349415E+02 -0.38631301595E+02 -0.94183028158E+02  0.13168450094E+03  0.00000000000E+00 0. -1.
        -15    1    1    2    0    0  0.27247984362E+01  0.12308085383E+02 -0.49544258951E+02  0.51153737071E+02  0.17770000000E+01 0.  1.
         15    1    1    2    0    0  0.12013123904E+01  0.34205494309E+01 -0.81879505648E+01  0.91292701417E+01  0.17770000000E+01 0.  1.
</event>
<event>
 6    1  0.1507019E-006  0.1867061E+03  0.7546771E-02  0.1065155E+00
        -11   -1    0    0    0    0  0.00000000000E+00  0.00000000000E+00  0.18250000000E+03  0.18250000000E+03  0.00000000000E+00 0.  1.
         11   -1    0    0    0    0 -0.00000000000E+00 -0.00000000000E+00 -0.18250000000E+03  0.18250000000E+03  0.00000000000E+00 0.  1.
        -11    1    1    2    0    0  0.64212062710E+02 -0.12413608649E+03  0.11070579394E+03  0.17829394207E+03  0.00000000000E+00 0.  1.
         11    1    1    2    0    0 -0.23649819255E+02  0.83872355494E+02 -0.49788735268E+02  0.10036336048E+03  0.00000000000E+00 0.  1.
        -15    1    1    2    0    0 -0.80853888397E+00  0.48136738291E+01  0.26857059664E+00  0.52014469165E+01  0.17770000000E+01 0. -1.
         15    1    1    2    0    0 -0.39753704571E+02  0.35450057165E+02 -0.61185629272E+02  0.81141250536E+02  0.17770000000E+01 0.  1.
</event>
<event>
 6    1  0.1507019E-006  0.1665305E+03  0.7546771E-02  0.1081929E+00
        -11   -1    0    0    0    0  0.00000000000E+00  0.00000000000E+00  0.18250000000E+03  0.18250000000E+03  0.00000000000E+00 0. -1.
         11   -1    0    0    0    0 -0.00000000000E+00 -0.00000000000E+00 -0.18250000000E+03  0.18250000000E+03  0.00000000000E+00 0.  1.
        -11    1    1    2    0    0  0.14553432156E+03  0.38967249098E+02  0.58930184113E+02  0.16177593101E+03  0.00000000000E+00 0. -1.
         11    1    1    2    0    0 -0.14209672096E+03 -0.42765595995E+02 -0.88158231290E+02  0.17260431065E+03  0.00000000000E+00 0.  1.
        -15    1    1    2    0    0  0.95176882049E+00  0.14930015017E+01  0.32095735887E+01  0.40735744737E+01  0.17770000000E+01 0. -1.
         15    1    1    2    0    0 -0.43893694156E+01  0.23053453951E+01  0.26018473589E+02  0.26546183871E+02  0.17770000000E+01 0. -1.
</event>
<event>
 6    1  0.1507019E-006  0.1913855E+03  0.7546771E-02  0.1061594E+00
        -11   -1    0    0    0    0  0.00000000000E+00  0.00000000000E+00  0.18250000000E+03  0.18250000000E+03  0.00000000000E+00 0. -1.
         11   -1    0    0    0    0 -0.00000000000E+00 -0.00000000000E+00 -0.18250000000E+03  0.18250000000E+03  0.00000000000E+00 0.  1.
        -11    1    1    2    0    0 -0.33055247893E+01 -0.24302621677E+01  0.17356598730E+03  0.17361447121E+03  0.00000000000E+00 0. -1.
         11    1    1    2    0    0 -0.16234290733E+01  0.13861996957E+02 -0.15691737676E+03  0.15753683255E+03  0.00000000000E+00 0.  1.
        -15    1    1    2    0    0  0.55226201814E+01 -0.21779717190E+01  0.64199433860E+01  0.89227964538E+01  0.17770000000E+01 0.  1.
         15    1    1    2    0    0 -0.59366631887E+00 -0.92537630706E+01 -0.23068553925E+02  0.24925899781E+02  0.17770000000E+01 0. -1.
</event>
<event>
 6    1  0.1507019E-006  0.1856762E+03  0.7546771E-02  0.1065954E+00
        -11   -1    0    0    0    0  0.00000000000E+00  0.00000000000E+00  0.18250000000E+03  0.18250000000E+03  0.00000000000E+00 0.  1.
         11   -1    0    0    0    0 -0.00000000000E+00 -0.00000000000E+00 -0.18250000000E+03  0.18250000000E+03  0.00000000000E+00 0. -1.
        -11    1    1    2    0    0 -0.53945295231E+02 -0.11072594428E+03  0.11416211435E+03  0.16793843505E+03  0.00000000000E+00 0.  1.
         11    1    1    2    0    0  0.67936050404E+02  0.11700966937E+03 -0.11768792881E+03  0.17932378052E+03  0.00000000000E+00 0. -1.
        -15    1    1    2    0    0 -0.95712248432E+01 -0.91326967728E+00  0.39533035697E+01  0.10546503905E+02  0.17770000000E+01 0.  1.
         15    1    1    2    0    0 -0.44195303299E+01 -0.53704554193E+01 -0.42748910526E+00  0.71912805315E+01  0.17770000000E+01 0. -1.
</event>
<event>
 6    1  0.1507019E-006  0.1849120E+03  0.7546771E-02  0.1066551E+00
        -11   -1    0    0    0    0  0.00000000000E+00  0.00000000000E+00  0.18250000000E+03  0.18250000000E+03  0.00000000000E+00 0.  1.
         11   -1    0    0    0    0 -0.00000000000E+00 -0.00000000000E+00 -0.18250000000E+03  0.18250000000E+03  0.00000000000E+00 0.  1.
        -11    1    1    2    0    0 -0.53363678401E+02  0.15522207866E+03  0.74095273391E+02  0.18008799353E+03  0.00000000000E+00 0.  1.
         11    1    1    2    0    0  0.46741867767E+02 -0.14732577657E+03 -0.64611128972E+02  0.16752398226E+03  0.00000000000E+00 0.  1.
        -15    1    1    2    0    0  0.83593478501E+01 -0.51339587926E+01 -0.39532571270E+01  0.10724840338E+02  0.17770000000E+01 0.  1.
         15    1    1    2    0    0 -0.17375372166E+01 -0.27623432914E+01 -0.55308872918E+01  0.66631838690E+01  0.17770000000E+01 0. -1.
</event>
<event>
 6    1  0.1507019E-006  0.1685775E+03  0.7546771E-02  0.1080111E+00
        -11   -1    0    0    0    0  0.00000000000E+00  0.00000000000E+00  0.18250000000E+03  0.18250000000E+03  0.00000000000E+00 0.  1.
         11   -1    0    0    0    0 -0.00000000000E+00 -0.00000000000E+00 -0.18250000000E+03  0.18250000000E+03  0.00000000000E+00 0.  1.
        -11    1    1    2    0    0  0.14554293231E+01 -0.23721771682E+02  0.20139007782E+02  0.31151570758E+02  0.00000000000E+00 0.  1.
         11    1    1    2    0    0 -0.38353009457E+02  0.43472836308E+02 -0.16660838288E+03  0.17640633231E+03  0.00000000000E+00 0.  1.
        -15    1    1    2    0    0  0.21382676845E+02 -0.25379369498E+02  0.53349508899E+02  0.62854268701E+02  0.17770000000E+01 0. -1.
         15    1    1    2    0    0  0.15514903289E+02  0.56283048714E+01  0.93119866202E+02  0.94587828235E+02  0.17770000000E+01 0.  1.
</event>
<event>
 6    1  0.1507019E-006  0.1830358E+03  0.7546771E-02  0.1068029E+00
        -11   -1    0    0    0    0  0.00000000000E+00  0.00000000000E+00  0.18250000000E+03  0.18250000000E+03  0.00000000000E+00 0. -1.
         11   -1    0    0    0    0 -0.00000000000E+00 -0.00000000000E+00 -0.18250000000E+03  0.18250000000E+03  0.00000000000E+00 0. -1.
        -11    1    1    2    0    0 -0.28413916251E+02 -0.21736479097E+02  0.17841285591E+03  0.18196420614E+03  0.00000000000E+00 0. -1.
         11    1    1    2    0    0  0.20560881771E+02  0.46767308065E+01 -0.87230639333E+02  0.89743000333E+02  0.00000000000E+00 0. -1.
        -15    1    1    2    0    0  0.10941078368E+00  0.42697523653E+01 -0.24342780978E+02  0.24778447706E+02  0.17770000000E+01 0.  1.
         15    1    1    2    0    0  0.77436236966E+01  0.12789995925E+02 -0.66839435600E+02  0.68514345826E+02  0.17770000000E+01 0.  1.
</event>
<event>
 6    1  0.1507019E-006  0.1361938E+03  0.7546771E-02  0.1112772E+00
        -11   -1    0    0    0    0  0.00000000000E+00  0.00000000000E+00  0.18250000000E+03  0.18250000000E+03  0.00000000000E+00 0. -1.
         11   -1    0    0    0    0 -0.00000000000E+00 -0.00000000000E+00 -0.18250000000E+03  0.18250000000E+03  0.00000000000E+00 0.  1.
        -11    1    1    2    0    0  0.35146616263E+02 -0.55575225921E+02  0.15536186594E+03  0.16870447463E+03  0.00000000000E+00 0. -1.
         11    1    1    2    0    0 -0.36205430799E+02  0.60181194476E+02 -0.40259724626E+02  0.80953411385E+02  0.00000000000E+00 0.  1.
        -15    1    1    2    0    0 -0.17519161349E+01 -0.21292342255E+01 -0.53789163412E+02  0.53889096096E+02  0.17770000000E+01 0. -1.
         15    1    1    2    0    0  0.28107306710E+01 -0.24767343293E+01 -0.61312977902E+02  0.61453017892E+02  0.17770000000E+01 0.  1.
</event>
<event>
 6    1  0.1507019E-006  0.1855212E+03  0.7546771E-02  0.1066075E+00
        -11   -1    0    0    0    0  0.00000000000E+00  0.00000000000E+00  0.18250000000E+03  0.18250000000E+03  0.00000000000E+00 0. -1.
         11   -1    0    0    0    0 -0.00000000000E+00 -0.00000000000E+00 -0.18250000000E+03  0.18250000000E+03  0.00000000000E+00 0.  1.
        -11    1    1    2    0    0  0.35975295406E+02 -0.69826777640E+02  0.13985138976E+03  0.16040078545E+03  0.00000000000E+00 0. -1.
         11    1    1    2    0    0 -0.32283778238E+02  0.90617149161E+02 -0.15152199594E+03  0.17947876006E+03  0.00000000000E+00 0.  1.
        -15    1    1    2    0    0 -0.44029963202E+01 -0.16832022850E+02  0.73969160726E+01  0.18988824771E+02  0.17770000000E+01 0. -1.
         15    1    1    2    0    0  0.71147915275E+00 -0.39583486714E+01  0.42736901157E+01  0.61316297177E+01  0.17770000000E+01 0.  1.
</event>
<event>
 6    1  0.1507019E-006  0.1848659E+03  0.7546771E-02  0.1066587E+00
        -11   -1    0    0    0    0  0.00000000000E+00  0.00000000000E+00  0.18250000000E+03  0.18250000000E+03  0.00000000000E+00 0.  1.
         11   -1    0    0    0    0 -0.00000000000E+00 -0.00000000000E+00 -0.18250000000E+03  0.18250000000E+03  0.00000000000E+00 0.  1.
        -11    1    1    2    0    0 -0.73995743994E+02  0.80429404916E+02  0.14319228526E+03  0.18013408857E+03  0.00000000000E+00 0.  1.
         11    1    1    2    0    0  0.49439282658E+02 -0.45134357477E+02 -0.56932965021E+02  0.87878981563E+02  0.00000000000E+00 0.  1.
        -15    1    1    2    0    0  0.22733665439E+02 -0.25837946211E+02 -0.64626459472E+02  0.73240398699E+02  0.17770000000E+01 0.  1.
         15    1    1    2    0    0  0.18227958979E+01 -0.94571012281E+01 -0.21632860771E+02  0.23746531171E+02  0.17770000000E+01 0.  1.
</event>
<event>
 6    1  0.1507019E-006  0.1328218E+03  0.7546771E-02  0.1116743E+00
        -11   -1    0    0    0    0  0.00000000000E+00  0.00000000000E+00  0.18250000000E+03  0.18250000000E+03  0.00000000000E+00 0. -1.
         11   -1    0    0    0    0 -0.00000000000E+00 -0.00000000000E+00 -0.18250000000E+03  0.18250000000E+03  0.00000000000E+00 0. -1.
        -11    1    1    2    0    0  0.48375098783E+02 -0.39991468179E+02  0.11824741154E+03  0.13387276812E+03  0.00000000000E+00 0. -1.
         11    1    1    2    0    0  0.24928082572E+01  0.93139617365E+02 -0.38071820749E+02  0.10065120939E+03  0.00000000000E+00 0. -1.
        -15    1    1    2    0    0 -0.19676297637E+02  0.64646984230E+01  0.55227075949E+01  0.21508301713E+02  0.17770000000E+01 0.  1.
         15    1    1    2    0    0 -0.31191609403E+02 -0.59612847609E+02 -0.85698298382E+02  0.10896772078E+03  0.17770000000E+01 0. -1.
</event>
<event>
 6    1  0.1507019E-006  0.1888954E+03  0.7546771E-02  0.1063475E+00
        -11   -1    0    0    0    0  0.00000000000E+00  0.00000000000E+00  0.18250000000E+03  0.18250000000E+03  0.00000000000E+00 0. -1.
         11   -1    0    0    0    0 -0.00000000000E+00 -0.00000000000E+00 -0.18250000000E+03  0.18250000000E+03  0.00000000000E+00 0.  1.
        -11    1    1    2    0    0  0.66084883916E+02 -0.75762836749E+02  0.14458776065E+03  0.17610462755E+03  0.00000000000E+00 0. -1.
         11    1    1    2    0    0 -0.56067175053E+02  0.23082070471E+02 -0.75026299854E+02  0.96463753636E+02  0.00000000000E+00 0.  1.
        -15    1    1    2    0    0 -0.27857946827E+01  0.51735669566E+02 -0.66512775134E+02  0.84329396669E+02  0.17770000000E+01 0. -1.
         15    1    1    2    0    0 -0.72319141806E+01  0.94509671324E+00 -0.30486856579E+01  0.81022221491E+01  0.17770000000E+01 0.  1.
</event>
<event>
 6    1  0.1507019E-006  0.1862760E+03  0.7546771E-02  0.1065488E+00
        -11   -1    0    0    0    0  0.00000000000E+00  0.00000000000E+00  0.18250000000E+03  0.18250000000E+03  0.00000000000E+00 0. -1.
         11   -1    0    0    0    0 -0.00000000000E+00 -0.00000000000E+00 -0.18250000000E+03  0.18250000000E+03  0.00000000000E+00 0. -1.
        -11    1    1    2    0    0  0.24757062547E+02  0.67420378388E+02  0.16365766327E+03  0.17872395003E+03  0.00000000000E+00 0. -1.
         11    1    1    2    0    0 -0.37850663346E+02 -0.49984058317E+02 -0.13446550949E+03  0.14836459161E+03  0.00000000000E+00 0. -1.
        -15    1    1    2    0    0  0.79269325836E+01 -0.88711060838E+01 -0.23156539337E+02  0.26094363882E+02  0.17770000000E+01 0.  1.
         15    1    1    2    0    0  0.51666682150E+01 -0.85652139875E+01 -0.60356144444E+01  0.11817094474E+02  0.17770000000E+01 0. -1.
</event>
<event>
 6    1  0.1507019E-006  0.1870035E+03  0.7546771E-02  0.1064926E+00
        -11   -1    0    0    0    0  0.00000000000E+00  0.00000000000E+00  0.18250000000E+03  0.18250000000E+03  0.00000000000E+00 0.  1.
         11   -1    0    0    0    0 -0.00000000000E+00 -0.00000000000E+00 -0.18250000000E+03  0.18250000000E+03  0.00000000000E+00 0. -1.
        -11    1    1    2    0    0  0.69524332252E+02 -0.82001559323E+02  0.11614167852E+03  0.15826173889E+03  0.00000000000E+00 0.  1.
         11    1    1    2    0    0 -0.60502937892E+02  0.95368394452E+02 -0.13757553792E+03  0.17799653027E+03  0.00000000000E+00 0. -1.
        -15    1    1    2    0    0 -0.99984551806E+01 -0.84746859910E+01  0.11692612142E+02  0.17654017003E+02  0.17770000000E+01 0. -1.
         15    1    1    2    0    0  0.97706082073E+00 -0.48921491373E+01  0.97412472587E+01  0.11087713839E+02  0.17770000000E+01 0.  1.
</event>
<event>
 6    1  0.1507019E-006  0.1536680E+03  0.7546771E-02  0.1094045E+00
        -11   -1    0    0    0    0  0.00000000000E+00  0.00000000000E+00  0.18250000000E+03  0.18250000000E+03  0.00000000000E+00 0.  1.
         11   -1    0    0    0    0 -0.00000000000E+00 -0.00000000000E+00 -0.18250000000E+03  0.18250000000E+03  0.00000000000E+00 0. -1.
        -11    1    1    2    0    0  0.21910681228E+02  0.11221616008E+03  0.95719955000E+02  0.14911356183E+03  0.00000000000E+00 0.  1.
         11    1    1    2    0    0 -0.16482171274E+02 -0.94460298267E+02 -0.12877310004E+03  0.16055192684E+03  0.00000000000E+00 0. -1.
        -15    1    1    2    0    0 -0.96529980246E+00  0.39600793141E+01  0.32791922652E+02  0.33092022484E+02  0.17770000000E+01 0. -1.
         15    1    1    2    0    0 -0.44632101512E+01 -0.21715941129E+02  0.26122238922E+00  0.22242488847E+02  0.17770000000E+01 0.  1.
</event>
<event>
 6    1  0.1507019E-006  0.1499181E+03  0.7546771E-02  0.1097825E+00
        -11   -1    0    0    0    0  0.00000000000E+00  0.00000000000E+00  0.18250000000E+03  0.18250000000E+03  0.00000000000E+00 0. -1.
         11   -1    0    0    0    0 -0.00000000000E+00 -0.00000000000E+00 -0.18250000000E+03  0.18250000000E+03  0.00000000000E+00 0. -1.
        -11    1    1    2    0    0  0.12004989959E+02  0.85869846872E+02  0.12469772477E+03  0.15187913928E+03  0.00000000000E+00 0. -1.
         11    1    1    2    0    0 -0.28325219033E+02  0.36073424680E+02 -0.41187785209E+02  0.61644494092E+02  0.00000000000E+00 0. -1.
        -15    1    1    2    0    0 -0.62251507260E+01 -0.41077414360E+02 -0.19707711725E+02  0.46018019324E+02  0.17770000000E+01 0.  1.
         15    1    1    2    0    0  0.22545379801E+02 -0.80865857192E+02 -0.63802227837E+02  0.10545834730E+03  0.17770000000E+01 0. -1.
</event>
<event>
 6    1  0.1507019E-006  0.1856022E+03  0.7546771E-02  0.1066012E+00
        -11   -1    0    0    0    0  0.00000000000E+00  0.00000000000E+00  0.18250000000E+03  0.18250000000E+03  0.00000000000E+00 0.  1.
         11   -1    0    0    0    0 -0.00000000000E+00 -0.00000000000E+00 -0.18250000000E+03  0.18250000000E+03  0.00000000000E+00 0.  1.
        -11    1    1    2    0    0  0.70791205668E+02  0.46697532092E+02 -0.15302337873E+03  0.17495201840E+03  0.00000000000E+00 0.  1.
         11    1    1    2    0    0 -0.70910697166E+02 -0.45109587911E+02  0.15849405105E+03  0.17939778737E+03  0.00000000000E+00 0.  1.
        -15    1    1    2    0    0  0.94391129824E+00  0.26850012948E+01  0.10570410848E+00  0.33569484432E+01  0.17770000000E+01 0.  1.
         15    1    1    2    0    0 -0.82441980090E+00 -0.42729454765E+01 -0.55763764279E+01  0.72932457877E+01  0.17770000000E+01 0. -1.
</event>
<event>
 6    1  0.1507019E-006  0.1898610E+03  0.7546771E-02  0.1062742E+00
        -11   -1    0    0    0    0  0.00000000000E+00  0.00000000000E+00  0.18250000000E+03  0.18250000000E+03  0.00000000000E+00 0.  1.
         11   -1    0    0    0    0 -0.00000000000E+00 -0.00000000000E+00 -0.18250000000E+03  0.18250000000E+03  0.00000000000E+00 0. -1.
        -11    1    1    2    0    0  0.19998748832E+02  0.22453672997E+02  0.70409775671E+02  0.76561438701E+02  0.00000000000E+00 0.  1.
         11    1    1    2    0    0 -0.27992644188E+02  0.16007168602E+02 -0.17214484178E+03  0.17513898517E+03  0.00000000000E+00 0. -1.
        -15    1    1    2    0    0 -0.11679237334E+01 -0.16602748063E+02  0.77757579270E+02  0.79538758804E+02  0.17770000000E+01 0.  1.
         15    1    1    2    0    0  0.91618190895E+01 -0.21858093536E+02  0.23977486841E+02  0.33760817322E+02  0.17770000000E+01 0. -1.
</event>
<event>
 6    1  0.1507019E-006  0.1840939E+03  0.7546771E-02  0.1067193E+00
        -11   -1    0    0    0    0  0.00000000000E+00  0.00000000000E+00  0.18250000000E+03  0.18250000000E+03  0.00000000000E+00 0.  1.
         11   -1    0    0    0    0 -0.00000000000E+00 -0.00000000000E+00 -0.18250000000E+03  0.18250000000E+03  0.00000000000E+00 0.  1.
        -11    1    1    2    0    0  0.17619747583E+02  0.23449776025E+02  0.17851236009E+03  0.18090608118E+03  0.00000000000E+00 0.  1.
         11    1    1    2    0    0 -0.71687326409E+01 -0.13587805822E+02 -0.50960821432E+02  0.53226163827E+02  0.00000000000E+00 0.  1.
        -15    1    1    2    0    0 -0.16669226368E+02  0.81727704025E+00 -0.71857746880E+02  0.73791764886E+02  0.17770000000E+01 0. -1.
         15    1    1    2    0    0  0.62182114251E+01 -0.10679247243E+02 -0.55693791782E+02  0.57075990110E+02  0.17770000000E+01 0.  1.
</event>
<event>
 6    1  0.1507019E-006  0.1386117E+03  0.7546771E-02  0.1110001E+00
        -11   -1    0    0    0    0  0.00000000000E+00  0.00000000000E+00  0.18250000000E+03  0.18250000000E+03  0.00000000000E+00 0.  1.
         11   -1    0    0    0    0 -0.00000000000E+00 -0.00000000000E+00 -0.18250000000E+03  0.18250000000E+03  0.00000000000E+00 0. -1.
        -11    1    1    2    0    0 -0.37666454149E+02 -0.81245895520E+02  0.87331281454E+02  0.12508561079E+03  0.00000000000E+00 0.  1.
         11    1    1    2    0    0  0.35133721166E+02  0.41731107843E+02 -0.15315927621E+03  0.16258421699E+03  0.00000000000E+00 0. -1.
        -15    1    1    2    0    0  0.49725199861E+01  0.21966401426E+02  0.33161915454E+02  0.40126289539E+02  0.17770000000E+01 0.  1.
         15    1    1    2    0    0 -0.24397870027E+01  0.17548386251E+02  0.32666079300E+02  0.37203882680E+02  0.17770000000E+01 0. -1.
</event>
<event>
 6    1  0.1507019E-006  0.1503445E+03  0.7546771E-02  0.1097390E+00
        -11   -1    0    0    0    0  0.00000000000E+00  0.00000000000E+00  0.18250000000E+03  0.18250000000E+03  0.00000000000E+00 0.  1.
         11   -1    0    0    0    0 -0.00000000000E+00 -0.00000000000E+00 -0.18250000000E+03  0.18250000000E+03  0.00000000000E+00 0. -1.
        -11    1    1    2    0    0 -0.18254505012E+02 -0.63836647858E+02  0.88388272399E+02  0.11054786864E+03  0.00000000000E+00 0.  1.
         11    1    1    2    0    0  0.61312717212E+02  0.45237685074E+02 -0.90235853093E+02  0.11810252591E+03  0.00000000000E+00 0. -1.
        -15    1    1    2    0    0  0.42311294989E+02  0.24046703717E+02  0.12088030886E+02  0.50177364050E+02  0.17770000000E+01 0.  1.
         15    1    1    2    0    0 -0.85369507189E+02 -0.54477409321E+01 -0.10240450192E+02  0.86172241401E+02  0.17770000000E+01 0. -1.
</event>
<event>
 6    1  0.1507019E-006  0.1634347E+03  0.7546771E-02  0.1084733E+00
        -11   -1    0    0    0    0  0.00000000000E+00  0.00000000000E+00  0.18250000000E+03  0.18250000000E+03  0.00000000000E+00 0. -1.
         11   -1    0    0    0    0 -0.00000000000E+00 -0.00000000000E+00 -0.18250000000E+03  0.18250000000E+03  0.00000000000E+00 0. -1.
        -11    1    1    2    0    0 -0.13118278535E+03  0.95893537289E+02  0.17137156003E+02  0.16339576427E+03  0.00000000000E+00 0. -1.
         11    1    1    2    0    0  0.14737932823E+03 -0.74685306063E+02  0.47608782894E+01  0.16529134065E+03  0.00000000000E+00 0. -1.
        -15    1    1    2    0    0 -0.63145093742E+01 -0.14952770082E+01 -0.37753465020E+01  0.77149110285E+01  0.17770000000E+01 0.  1.
         15    1    1    2    0    0 -0.98820335079E+01 -0.19712954218E+02 -0.18122687790E+02  0.28597984055E+02  0.17770000000E+01 0. -1.
</event>
<event>
 6    1  0.1507019E-006  0.1967530E+03  0.7546771E-02  0.1057643E+00
        -11   -1    0    0    0    0  0.00000000000E+00  0.00000000000E+00  0.18250000000E+03  0.18250000000E+03  0.00000000000E+00 0. -1.
         11   -1    0    0    0    0 -0.00000000000E+00 -0.00000000000E+00 -0.18250000000E+03  0.18250000000E+03  0.00000000000E+00 0.  1.
        -11    1    1    2    0    0  0.75536757916E+01  0.44055057785E+02  0.16220092526E+03  0.16824698003E+03  0.00000000000E+00 0. -1.
         11    1    1    2    0    0  0.13029887591E+02 -0.43849982262E+02 -0.76755444137E+02  0.89353215497E+02  0.00000000000E+00 0.  1.
        -15    1    1    2    0    0 -0.40123196856E+02  0.98912752171E+00 -0.35081716200E+02  0.53336046346E+02  0.17770000000E+01 0.  1.
         15    1    1    2    0    0  0.19539633474E+02 -0.11942030438E+01 -0.50363764919E+02  0.54063758129E+02  0.17770000000E+01 0. -1.
</event>
<event>
 6    1  0.1507019E-006  0.1628641E+03  0.7546771E-02  0.1085257E+00
        -11   -1    0    0    0    0  0.00000000000E+00  0.00000000000E+00  0.18250000000E+03  0.18250000000E+03  0.00000000000E+00 0. -1.
         11   -1    0    0    0    0 -0.00000000000E+00 -0.00000000000E+00 -0.18250000000E+03  0.18250000000E+03  0.00000000000E+00 0.  1.
        -11    1    1    2    0    0  0.82714083597E+02  0.61149298082E+02  0.11408278026E+03  0.15360903955E+03  0.00000000000E+00 0. -1.
         11    1    1    2    0    0 -0.67232497913E+02 -0.67352322959E+02 -0.14576592158E+03  0.17408115371E+03  0.00000000000E+00 0.  1.
        -15    1    1    2    0    0 -0.11603133512E+02  0.36255514104E+01  0.12646559546E+02  0.17631520855E+02  0.17770000000E+01 0.  1.
         15    1    1    2    0    0 -0.38784521728E+01  0.25774734675E+01  0.19036581771E+02  0.19678285882E+02  0.17770000000E+01 0. -1.
</event>
<event>
 6    1  0.1507019E-006  0.1981998E+03  0.7546771E-02  0.1056602E+00
        -11   -1    0    0    0    0  0.00000000000E+00  0.00000000000E+00  0.18250000000E+03  0.18250000000E+03  0.00000000000E+00 0. -1.
         11   -1    0    0    0    0 -0.00000000000E+00 -0.00000000000E+00 -0.18250000000E+03  0.18250000000E+03  0.00000000000E+00 0.  1.
        -11    1    1    2    0    0 -0.55582095500E+02 -0.11461206280E+03  0.52825762220E+02  0.13789798923E+03  0.00000000000E+00 0. -1.
         11    1    1    2    0    0  0.49951441509E+02  0.13103584531E+03 -0.90314806036E+02  0.16680019021E+03  0.00000000000E+00 0.  1.
        -15    1    1    2    0    0 -0.16580497164E+02 -0.81292280904E+01  0.35892562756E+01  0.18895441915E+02  0.17770000000E+01 0.  1.
         15    1    1    2    0    0  0.22211151155E+02 -0.82945544207E+01  0.33899787540E+02  0.41406378650E+02  0.17770000000E+01 0. -1.
</event>
<event>
 6    1  0.1507019E-006  0.1879700E+03  0.7546771E-02  0.1064182E+00
        -11   -1    0    0    0    0  0.00000000000E+00  0.00000000000E+00  0.18250000000E+03  0.18250000000E+03  0.00000000000E+00 0.  1.
         11   -1    0    0    0    0 -0.00000000000E+00 -0.00000000000E+00 -0.18250000000E+03  0.18250000000E+03  0.00000000000E+00 0. -1.
        -11    1    1    2    0    0 -0.89097007283E+02 -0.11164519315E+03  0.10457867556E+03  0.17703001226E+03  0.00000000000E+00 0.  1.
         11    1    1    2    0    0  0.86412600583E+02  0.10417288988E+03 -0.70820422575E+02  0.15275686819E+03  0.00000000000E+00 0. -1.
        -15    1    1    2    0    0  0.22676271907E+01  0.84314386021E+00 -0.13143076368E+02  0.13481513641E+02  0.17770000000E+01 0. -1.
         15    1    1    2    0    0  0.41677950861E+00  0.66291594041E+01 -0.20615176613E+02  0.21731605908E+02  0.17770000000E+01 0.  1.
</event>
<event>
 6    1  0.1507019E-006  0.1907789E+03  0.7546771E-02  0.1062049E+00
        -11   -1    0    0    0    0  0.00000000000E+00  0.00000000000E+00  0.18250000000E+03  0.18250000000E+03  0.00000000000E+00 0.  1.
         11   -1    0    0    0    0 -0.00000000000E+00 -0.00000000000E+00 -0.18250000000E+03  0.18250000000E+03  0.00000000000E+00 0. -1.
        -11    1    1    2    0    0 -0.11940662811E+02 -0.11543583272E+03  0.12994219426E+03  0.17422108010E+03  0.00000000000E+00 0.  1.
         11    1    1    2    0    0  0.91179272775E+01  0.10644407478E+03 -0.83257741045E+02  0.13544493013E+03  0.00000000000E+00 0. -1.
        -15    1    1    2    0    0 -0.10967288276E+02 -0.14609651828E+01 -0.11349380177E+02  0.15949357066E+02  0.17770000000E+01 0.  1.
         15    1    1    2    0    0  0.13790023810E+02  0.10452723117E+02 -0.35335073038E+02  0.39384632699E+02  0.17770000000E+01 0. -1.
</event>
<event>
 6    1  0.1507019E-006  0.1570436E+03  0.7546771E-02  0.1090743E+00
        -11   -1    0    0    0    0  0.00000000000E+00  0.00000000000E+00  0.18250000000E+03  0.18250000000E+03  0.00000000000E+00 0.  1.
         11   -1    0    0    0    0 -0.00000000000E+00 -0.00000000000E+00 -0.18250000000E+03  0.18250000000E+03  0.00000000000E+00 0.  1.
        -11    1    1    2    0    0  0.11911901622E+03  0.30225434327E+02  0.12043178021E+03  0.17206606461E+03  0.00000000000E+00 0.  1.
         11    1    1    2    0    0 -0.11960305339E+03 -0.35766524593E+02 -0.74551688965E+02  0.14540319457E+03  0.00000000000E+00 0.  1.
        -15    1    1    2    0    0  0.46281755424E+01  0.42573374304E+01 -0.15966742485E+02  0.17252232476E+02  0.17770000000E+01 0. -1.
         15    1    1    2    0    0 -0.41441383732E+01  0.12837528358E+01 -0.29913348764E+02  0.30278508343E+02  0.17770000000E+01 0.  1.
</event>
<event>
 6    1  0.1507019E-006  0.1930648E+03  0.7546771E-02  0.1060343E+00
        -11   -1    0    0    0    0  0.00000000000E+00  0.00000000000E+00  0.18250000000E+03  0.18250000000E+03  0.00000000000E+00 0.  1.
         11   -1    0    0    0    0 -0.00000000000E+00 -0.00000000000E+00 -0.18250000000E+03  0.18250000000E+03  0.00000000000E+00 0. -1.
        -11    1    1    2    0    0 -0.49766493091E+02  0.32953469186E+02  0.16124227142E+03  0.17193517691E+03  0.00000000000E+00 0.  1.
         11    1    1    2    0    0  0.52782975191E+02 -0.13222178150E+02 -0.44660058245E+02  0.70394525835E+02  0.00000000000E+00 0. -1.
        -15    1    1    2    0    0 -0.12700689575E+02  0.61043785131E+00 -0.66460599966E+02  0.67689358299E+02  0.17770000000E+01 0.  1.
         15    1    1    2    0    0  0.96842074756E+01 -0.20341728888E+02 -0.50121613211E+02  0.54980938955E+02  0.17770000000E+01 0. -1.
</event>
<event>
 6    1  0.1507019E-006  0.1840690E+03  0.7546771E-02  0.1067213E+00
        -11   -1    0    0    0    0  0.00000000000E+00  0.00000000000E+00  0.18250000000E+03  0.18250000000E+03  0.00000000000E+00 0. -1.
         11   -1    0    0    0    0 -0.00000000000E+00 -0.00000000000E+00 -0.18250000000E+03  0.18250000000E+03  0.00000000000E+00 0.  1.
        -11    1    1    2    0    0 -0.90579602679E+02 -0.64637701565E+02  0.14266512593E+03  0.18093102288E+03  0.00000000000E+00 0. -1.
         11    1    1    2    0    0  0.82158078549E+02  0.49175360105E+02 -0.10740075590E+03  0.14388567782E+03  0.00000000000E+00 0.  1.
        -15    1    1    2    0    0  0.77118278541E+01  0.84770153355E+01 -0.25617457221E+02  0.28120169297E+02  0.17770000000E+01 0. -1.
         15    1    1    2    0    0  0.70969627568E+00  0.69853261252E+01 -0.96469128054E+01  0.12063130006E+02  0.17770000000E+01 0.  1.
</event>
<event>
 6    1  0.1507019E-006  0.1886174E+03  0.7546771E-02  0.1063687E+00
        -11   -1    0    0    0    0  0.00000000000E+00  0.00000000000E+00  0.18250000000E+03  0.18250000000E+03  0.00000000000E+00 0.  1.
         11   -1    0    0    0    0 -0.00000000000E+00 -0.00000000000E+00 -0.18250000000E+03  0.18250000000E+03  0.00000000000E+00 0. -1.
        -11    1    1    2    0    0  0.22479266499E+02 -0.47969391834E+02  0.16823928359E+03  0.17638264234E+03  0.00000000000E+00 0.  1.
         11    1    1    2    0    0 -0.30183780108E+02  0.50028980615E+02 -0.80179631896E+02  0.99210548099E+02  0.00000000000E+00 0. -1.
        -15    1    1    2    0    0  0.15610623768E+01  0.37906858135E+01 -0.56566813125E+02  0.56743002131E+02  0.17770000000E+01 0. -1.
         15    1    1    2    0    0  0.61434512327E+01 -0.58502745945E+01 -0.31492838568E+02  0.32663807432E+02  0.17770000000E+01 0.  1.
</event>
<event>
 6    1  0.1733176E-006  0.1831279E+03  0.7546771E-02  0.1067956E+00
        -11   -1    0    0    0    0  0.00000000000E+00  0.00000000000E+00  0.18250000000E+03  0.18250000000E+03  0.00000000000E+00 0.  1.
         11   -1    0    0    0    0 -0.00000000000E+00 -0.00000000000E+00 -0.18250000000E+03  0.18250000000E+03  0.00000000000E+00 0.  1.
        -11    1    1    2    0    0  0.24226678820E+02  0.82214961988E+01  0.99548127533E+02  0.10278304657E+03  0.00000000000E+00 0.  1.
         11    1    1    2    0    0 -0.27955965372E+02 -0.90802655131E+01 -0.17948108532E+03  0.18187206275E+03  0.00000000000E+00 0.  1.
        -15    1    1    2    0    0  0.14576958575E+01  0.34487154007E+01  0.47695364325E+02  0.47875087700E+02  0.17770000000E+01 0. -1.
         15    1    1    2    0    0  0.22715906941E+01 -0.25899460864E+01  0.32237593457E+02  0.32469802986E+02  0.17770000000E+01 0.  1.
</event>
<event>
 6    1  0.1507019E-006  0.1849019E+03  0.7546771E-02  0.1066559E+00
        -11   -1    0    0    0    0  0.00000000000E+00  0.00000000000E+00  0.18250000000E+03  0.18250000000E+03  0.00000000000E+00 0. -1.
         11   -1    0    0    0    0 -0.00000000000E+00 -0.00000000000E+00 -0.18250000000E+03  0.18250000000E+03  0.00000000000E+00 0. -1.
        -11    1    1    2    0    0  0.51257584695E+02  0.93135497663E+02  0.14537454789E+03  0.18009808463E+03  0.00000000000E+00 0. -1.
         11    1    1    2    0    0 -0.55559383129E+02 -0.81423651202E+02 -0.13350264247E+03  0.16595062993E+03  0.00000000000E+00 0. -1.
        -15    1    1    2    0    0  0.18534718678E+01 -0.43634815619E+01 -0.93173432523E+01  0.10604053168E+02  0.17770000000E+01 0.  1.
         15    1    1    2    0    0  0.24483265656E+01 -0.73483648995E+01 -0.25545621732E+01  0.83472322698E+01  0.17770000000E+01 0. -1.
</event>
<event>
 6    1  0.1507019E-006  0.2035549E+03  0.7546771E-02  0.1052830E+00
        -11   -1    0    0    0    0  0.00000000000E+00  0.00000000000E+00  0.18250000000E+03  0.18250000000E+03  0.00000000000E+00 0.  1.
         11   -1    0    0    0    0 -0.00000000000E+00 -0.00000000000E+00 -0.18250000000E+03  0.18250000000E+03  0.00000000000E+00 0. -1.
        -11    1    1    2    0    0 -0.46388218223E+02 -0.49072911743E+02  0.96518716077E+02  0.11779592527E+03  0.00000000000E+00 0.  1.
         11    1    1    2    0    0  0.43215604715E+02  0.72260248895E+02 -0.13775120383E+03  0.16144511828E+03  0.00000000000E+00 0. -1.
        -15    1    1    2    0    0  0.21079288359E+02 -0.25474219384E+02 -0.73345883047E+01  0.33914984381E+02  0.17770000000E+01 0. -1.
         15    1    1    2    0    0 -0.17906674850E+02  0.22868822326E+01  0.48567076054E+02  0.51843972070E+02  0.17770000000E+01 0.  1.
</event>
<event>
 6    1  0.1507019E-006  0.1833148E+03  0.7546771E-02  0.1067808E+00
        -11   -1    0    0    0    0  0.00000000000E+00  0.00000000000E+00  0.18250000000E+03  0.18250000000E+03  0.00000000000E+00 0.  1.
         11   -1    0    0    0    0 -0.00000000000E+00 -0.00000000000E+00 -0.18250000000E+03  0.18250000000E+03  0.00000000000E+00 0. -1.
        -11    1    1    2    0    0 -0.74289954701E+02  0.45825034047E+02  0.15934421391E+03  0.18168519373E+03  0.00000000000E+00 0.  1.
         11    1    1    2    0    0  0.63276272544E+02 -0.30589486194E+02 -0.11487662923E+03  0.13467087018E+03  0.00000000000E+00 0. -1.
        -15    1    1    2    0    0  0.26000343905E+01 -0.55571743658E+01 -0.19495797463E+02  0.20515511533E+02  0.17770000000E+01 0.  1.
         15    1    1    2    0    0  0.84136477670E+01 -0.96783734875E+01 -0.24971787214E+02  0.28128424552E+02  0.17770000000E+01 0.  1.
</event>
<event>
 6    1  0.1507019E-006  0.1313212E+03  0.7546771E-02  0.1118553E+00
        -11   -1    0    0    0    0  0.00000000000E+00  0.00000000000E+00  0.18250000000E+03  0.18250000000E+03  0.00000000000E+00 0.  1.
         11   -1    0    0    0    0 -0.00000000000E+00 -0.00000000000E+00 -0.18250000000E+03  0.18250000000E+03  0.00000000000E+00 0. -1.
        -11    1    1    2    0    0  0.10692477147E+02 -0.12364496945E+02 -0.76928812483E+00  0.16364646542E+02  0.00000000000E+00 0.  1.
         11    1    1    2    0    0 -0.76651706473E+02 -0.21497520202E+02 -0.14012414547E+03  0.16115955952E+03  0.00000000000E+00 0. -1.
        -15    1    1    2    0    0  0.71322324428E+02 -0.16309812200E+02  0.82638342406E+02  0.11038630939E+03  0.17770000000E+01 0.  1.
         15    1    1    2    0    0 -0.53630951020E+01  0.50171829347E+02  0.58255091193E+02  0.77089484549E+02  0.17770000000E+01 0. -1.
</event>
<event>
 6    1  0.1507019E-006  0.1856573E+03  0.7546771E-02  0.1065969E+00
        -11   -1    0    0    0    0  0.00000000000E+00  0.00000000000E+00  0.18250000000E+03  0.18250000000E+03  0.00000000000E+00 0.  1.
         11   -1    0    0    0    0 -0.00000000000E+00 -0.00000000000E+00 -0.18250000000E+03  0.18250000000E+03  0.00000000000E+00 0. -1.
        -11    1    1    2    0    0 -0.65726468340E+02 -0.91745497587E+02  0.13937934140E+03  0.17934270483E+03  0.00000000000E+00 0.  1.
         11    1    1    2    0    0  0.70657784107E+02  0.75359465555E+02 -0.11873927135E+03  0.15738674043E+03  0.00000000000E+00 0. -1.
        -15    1    1    2    0    0  0.78498161641E+00  0.11119309705E+02 -0.13161217218E+02  0.17338702723E+02  0.17770000000E+01 0.  1.
         15    1    1    2    0    0 -0.57162973827E+01  0.52667223269E+01 -0.74788528266E+01  0.10931852013E+02  0.17770000000E+01 0. -1.
</event>
<event>
 6    1  0.1507019E-006  0.9912725E+02  0.7546771E-02  0.1165334E+00
        -11   -1    0    0    0    0  0.00000000000E+00  0.00000000000E+00  0.18250000000E+03  0.18250000000E+03  0.00000000000E+00 0.  1.
         11   -1    0    0    0    0 -0.00000000000E+00 -0.00000000000E+00 -0.18250000000E+03  0.18250000000E+03  0.00000000000E+00 0. -1.
        -11    1    1    2    0    0  0.30255598511E+02  0.38897898586E+02  0.70738206416E+02  0.86211029472E+02  0.00000000000E+00 0.  1.
         11    1    1    2    0    0  0.40389383197E+02 -0.93314678365E+02 -0.61783862775E+02  0.11897973430E+03  0.00000000000E+00 0. -1.
        -15    1    1    2    0    0 -0.42215731629E+02 -0.36479301374E+02  0.21478142317E+02  0.59811167453E+02  0.17770000000E+01 0.  1.
         15    1    1    2    0    0 -0.28429250079E+02  0.90896081154E+02 -0.30432485958E+02  0.99998068780E+02  0.17770000000E+01 0. -1.
</event>
<event>
 6    1  0.1507019E-006  0.1316251E+03  0.7546771E-02  0.1118184E+00
        -11   -1    0    0    0    0  0.00000000000E+00  0.00000000000E+00  0.18250000000E+03  0.18250000000E+03  0.00000000000E+00 0. -1.
         11   -1    0    0    0    0 -0.00000000000E+00 -0.00000000000E+00 -0.18250000000E+03  0.18250000000E+03  0.00000000000E+00 0. -1.
        -11    1    1    2    0    0  0.33086153289E+02  0.12278167441E+03  0.10025348552E+03  0.16192836215E+03  0.00000000000E+00 0. -1.
         11    1    1    2    0    0 -0.29316991612E+02 -0.11078243581E+03 -0.13836729245E+02  0.11542828578E+03  0.00000000000E+00 0. -1.
        -15    1    1    2    0    0 -0.47780754851E+01 -0.10604214555E+02 -0.62408160541E+02  0.63507602716E+02  0.17770000000E+01 0. -1.
         15    1    1    2    0    0  0.10089138081E+01 -0.13950240383E+01 -0.24008595729E+02  0.24135749357E+02  0.17770000000E+01 0.  1.
</event>
<event>
 6    1  0.1507019E-006  0.1930695E+03  0.7546771E-02  0.1060339E+00
        -11   -1    0    0    0    0  0.00000000000E+00  0.00000000000E+00  0.18250000000E+03  0.18250000000E+03  0.00000000000E+00 0.  1.
         11   -1    0    0    0    0 -0.00000000000E+00 -0.00000000000E+00 -0.18250000000E+03  0.18250000000E+03  0.00000000000E+00 0.  1.
        -11    1    1    2    0    0  0.14095766055E+03 -0.17459562671E+02  0.96882343513E+02  0.17193047107E+03  0.00000000000E+00 0.  1.
         11    1    1    2    0    0 -0.10711237244E+03  0.40116126435E+02 -0.37178991369E+02  0.12026903729E+03  0.00000000000E+00 0.  1.
        -15    1    1    2    0    0 -0.49999448842E+01 -0.29032338190E+01 -0.13842119556E+02  0.15105966313E+02  0.17770000000E+01 0.  1.
         15    1    1    2    0    0 -0.28845343228E+02 -0.19753329945E+02 -0.45861232587E+02  0.57694525332E+02  0.17770000000E+01 0.  1.
</event>
<event>
 6    1  0.1507019E-006  0.1849301E+03  0.7546771E-02  0.1066537E+00
        -11   -1    0    0    0    0  0.00000000000E+00  0.00000000000E+00  0.18250000000E+03  0.18250000000E+03  0.00000000000E+00 0. -1.
         11   -1    0    0    0    0 -0.00000000000E+00 -0.00000000000E+00 -0.18250000000E+03  0.18250000000E+03  0.00000000000E+00 0. -1.
        -11    1    1    2    0    0  0.19817128713E+02  0.14750036494E+03 -0.36041664560E+02  0.15312765208E+03  0.00000000000E+00 0. -1.
         11    1    1    2    0    0 -0.79273909831E+01 -0.17367421951E+03  0.46899882242E+02  0.18006992255E+03  0.00000000000E+00 0. -1.
        -15    1    1    2    0    0 -0.27742763680E+00  0.16887652769E+01 -0.21797345322E+01  0.32920914151E+01  0.17770000000E+01 0.  1.
         15    1    1    2    0    0 -0.11612310093E+02  0.24485089299E+02 -0.86784831495E+01  0.28510333959E+02  0.17770000000E+01 0.  1.
</event>
<event>
 6    1  0.1507019E-006  0.1558078E+03  0.7546771E-02  0.1091941E+00
        -11   -1    0    0    0    0  0.00000000000E+00  0.00000000000E+00  0.18250000000E+03  0.18250000000E+03  0.00000000000E+00 0. -1.
         11   -1    0    0    0    0 -0.00000000000E+00 -0.00000000000E+00 -0.18250000000E+03  0.18250000000E+03  0.00000000000E+00 0.  1.
        -11    1    1    2    0    0 -0.31785512456E+02  0.50936153961E+02 -0.12914504247E+03  0.14241928442E+03  0.00000000000E+00 0. -1.
         11    1    1    2    0    0  0.38980514132E+02  0.25474088152E+02 -0.21664097594E+02  0.51358960014E+02  0.00000000000E+00 0.  1.
        -15    1    1    2    0    0 -0.39933863023E+01 -0.75580040697E+02  0.14882750314E+03  0.16697626510E+03  0.17770000000E+01 0. -1.
         15    1    1    2    0    0 -0.32016153740E+01 -0.83020141614E+00  0.19816369181E+01  0.42454904628E+01  0.17770000000E+01 0.  1.
</event>
<event>
 6    1  0.1507019E-006  0.1885529E+03  0.7546771E-02  0.1063736E+00
        -11   -1    0    0    0    0  0.00000000000E+00  0.00000000000E+00  0.18250000000E+03  0.18250000000E+03  0.00000000000E+00 0.  1.
         11   -1    0    0    0    0 -0.00000000000E+00 -0.00000000000E+00 -0.18250000000E+03  0.18250000000E+03  0.00000000000E+00 0. -1.
        -11    1    1    2    0    0  0.56057753036E+02  0.82288259140E+00  0.16730342474E+03  0.17644711599E+03  0.00000000000E+00 0.  1.
         11    1    1    2    0    0 -0.48701432890E+02  0.99947965964E+01 -0.50592899392E+02  0.70932129487E+02  0.00000000000E+00 0. -1.
        -15    1    1    2    0    0 -0.75393998180E+01 -0.95359449568E+01 -0.10377730626E+03  0.10450197998E+03  0.17770000000E+01 0. -1.
         15    1    1    2    0    0  0.18307967190E+00 -0.12817342310E+01 -0.12933219083E+02  0.13118774548E+02  0.17770000000E+01 0.  1.
</event>
<event>
 6    1  0.1507019E-006  0.1836545E+03  0.7546771E-02  0.1067540E+00
        -11   -1    0    0    0    0  0.00000000000E+00  0.00000000000E+00  0.18250000000E+03  0.18250000000E+03  0.00000000000E+00 0.  1.
         11   -1    0    0    0    0 -0.00000000000E+00 -0.00000000000E+00 -0.18250000000E+03  0.18250000000E+03  0.00000000000E+00 0.  1.
        -11    1    1    2    0    0 -0.24551705773E+01 -0.83270218341E+02  0.14314435216E+03  0.16562084012E+03  0.00000000000E+00 0.  1.
         11    1    1    2    0    0  0.88929970327E+01  0.92883635875E+02 -0.15549840109E+03  0.18134554848E+03  0.00000000000E+00 0.  1.
        -15    1    1    2    0    0 -0.31075131956E+01 -0.11340680010E+01  0.25878221092E+01  0.45604057671E+01  0.17770000000E+01 0.  1.
         15    1    1    2    0    0 -0.33303132597E+01 -0.84793495326E+01  0.97662268211E+01  0.13473205640E+02  0.17770000000E+01 0.  1.
</event>
<event>
 6    1  0.1507019E-006  0.1432281E+03  0.7546771E-02  0.1104881E+00
        -11   -1    0    0    0    0  0.00000000000E+00  0.00000000000E+00  0.18250000000E+03  0.18250000000E+03  0.00000000000E+00 0.  1.
         11   -1    0    0    0    0 -0.00000000000E+00 -0.00000000000E+00 -0.18250000000E+03  0.18250000000E+03  0.00000000000E+00 0.  1.
        -11    1    1    2    0    0  0.11454039857E+03  0.22781221159E+02  0.10782597516E+03  0.15894945065E+03  0.00000000000E+00 0.  1.
         11    1    1    2    0    0 -0.12744924689E+03  0.77220283359E+01 -0.46459230230E+02  0.13587273578E+03  0.00000000000E+00 0.  1.
        -15    1    1    2    0    0  0.93295491239E+01 -0.27138408699E+02 -0.50238421571E+02  0.57884284953E+02  0.17770000000E+01 0.  1.
         15    1    1    2    0    0  0.35792991950E+01 -0.33648407953E+01 -0.11128323355E+02  0.12293528623E+02  0.17770000000E+01 0. -1.
</event>
<event>
 6    1  0.1507019E-006  0.1497430E+03  0.7546771E-02  0.1098005E+00
        -11   -1    0    0    0    0  0.00000000000E+00  0.00000000000E+00  0.18250000000E+03  0.18250000000E+03  0.00000000000E+00 0.  1.
         11   -1    0    0    0    0 -0.00000000000E+00 -0.00000000000E+00 -0.18250000000E+03  0.18250000000E+03  0.00000000000E+00 0. -1.
        -11    1    1    2    0    0 -0.48788836299E+02  0.18391876193E+02  0.13616027569E+03  0.14580203130E+03  0.00000000000E+00 0.  1.
         11    1    1    2    0    0  0.72213349201E+02  0.35674851723E+02 -0.13758662295E+03  0.15942879810E+03  0.00000000000E+00 0. -1.
        -15    1    1    2    0    0 -0.55994083670E-01 -0.29457766245E+01  0.78225159291E+00  0.35285098573E+01  0.17770000000E+01 0. -1.
         15    1    1    2    0    0 -0.23368518818E+02 -0.51120951292E+02  0.64409566828E+00  0.56240660744E+02  0.17770000000E+01 0.  1.
</event>
<event>
 6    1  0.1507019E-006  0.1865373E+03  0.7546771E-02  0.1065286E+00
        -11   -1    0    0    0    0  0.00000000000E+00  0.00000000000E+00  0.18250000000E+03  0.18250000000E+03  0.00000000000E+00 0. -1.
         11   -1    0    0    0    0 -0.00000000000E+00 -0.00000000000E+00 -0.18250000000E+03  0.18250000000E+03  0.00000000000E+00 0.  1.
        -11    1    1    2    0    0  0.22421458379E+02  0.20981051586E+02  0.60894894604E+02  0.68199079982E+02  0.00000000000E+00 0. -1.
         11    1    1    2    0    0 -0.36617212629E+02 -0.15253375083E+02 -0.17399838087E+03  0.17846266348E+03  0.00000000000E+00 0.  1.
        -15    1    1    2    0    0 -0.61683646183E+01 -0.11749097736E+02  0.48277611122E+02  0.50099655531E+02  0.17770000000E+01 0.  1.
         15    1    1    2    0    0  0.20364118868E+02  0.60214212323E+01  0.64825875140E+02  0.68238601008E+02  0.17770000000E+01 0. -1.
</event>
<event>
 6    1  0.1507019E-006  0.1906768E+03  0.7546771E-02  0.1062126E+00
        -11   -1    0    0    0    0  0.00000000000E+00  0.00000000000E+00  0.18250000000E+03  0.18250000000E+03  0.00000000000E+00 0. -1.
         11   -1    0    0    0    0 -0.00000000000E+00 -0.00000000000E+00 -0.18250000000E+03  0.18250000000E+03  0.00000000000E+00 0.  1.
        -11    1    1    2    0    0 -0.71194832333E+02  0.50815185959E+02  0.15079019900E+03  0.17432318087E+03  0.00000000000E+00 0. -1.
         11    1    1    2    0    0  0.61315279884E+02 -0.48681755159E+02 -0.59464892713E+02  0.98313530595E+02  0.00000000000E+00 0.  1.
        -15    1    1    2    0    0  0.10501271887E+02 -0.30769702920E+00 -0.81518234061E+02  0.82211626928E+02  0.17770000000E+01 0.  1.
         15    1    1    2    0    0 -0.62171943800E+00 -0.18257337707E+01 -0.98070722220E+01  0.10151661609E+02  0.17770000000E+01 0. -1.
</event>
<event>
 6    1  0.1507019E-006  0.1925976E+03  0.7546771E-02  0.1060690E+00
        -11   -1    0    0    0    0  0.00000000000E+00  0.00000000000E+00  0.18250000000E+03  0.18250000000E+03  0.00000000000E+00 0. -1.
         11   -1    0    0    0    0 -0.00000000000E+00 -0.00000000000E+00 -0.18250000000E+03  0.18250000000E+03  0.00000000000E+00 0. -1.
        -11    1    1    2    0    0 -0.52520621204E+02 -0.57084957303E+01  0.16410841931E+03  0.17240236618E+03  0.00000000000E+00 0. -1.
         11    1    1    2    0    0  0.46365617074E+02  0.10341475153E+02 -0.26122919891E+02  0.54213683684E+02  0.00000000000E+00 0. -1.
        -15    1    1    2    0    0 -0.29725332382E+00 -0.24778286153E+01 -0.26400580032E+02  0.26577741612E+02  0.17770000000E+01 0.  1.
         15    1    1    2    0    0  0.64522574541E+01 -0.21551508074E+01 -0.11158491939E+03  0.11180620853E+03  0.17770000000E+01 0. -1.
</event>
<event>
 6    1  0.1507019E-006  0.1840798E+03  0.7546771E-02  0.1067204E+00
        -11   -1    0    0    0    0  0.00000000000E+00  0.00000000000E+00  0.18250000000E+03  0.18250000000E+03  0.00000000000E+00 0. -1.
         11   -1    0    0    0    0 -0.00000000000E+00 -0.00000000000E+00 -0.18250000000E+03  0.18250000000E+03  0.00000000000E+00 0.  1.
        -11    1    1    2    0    0 -0.37609690734E+02 -0.26211033032E+02  0.76947854845E+02  0.89568294920E+02  0.00000000000E+00 0. -1.
         11    1    1    2    0    0  0.76035415815E+02  0.26784854516E+02 -0.16196701877E+03  0.18092022568E+03  0.00000000000E+00 0.  1.
        -15    1    1    2    0    0 -0.37855710560E+02  0.19354700608E+01  0.80727001928E+02  0.89200938535E+02  0.17770000000E+01 0. -1.
         15    1    1    2    0    0 -0.57001452220E+00 -0.25092915453E+01  0.42921620022E+01  0.53105408640E+01  0.17770000000E+01 0. -1.
</event>
<event>
 6    1  0.1507019E-006  0.1889837E+03  0.7546771E-02  0.1063408E+00
        -11   -1    0    0    0    0  0.00000000000E+00  0.00000000000E+00  0.18250000000E+03  0.18250000000E+03  0.00000000000E+00 0. -1.
         11   -1    0    0    0    0 -0.00000000000E+00 -0.00000000000E+00 -0.18250000000E+03  0.18250000000E+03  0.00000000000E+00 0. -1.
        -11    1    1    2    0    0 -0.94355074298E+02  0.97180160468E+02 -0.71170791739E+02  0.15301027819E+03  0.00000000000E+00 0. -1.
         11    1    1    2    0    0  0.11163760852E+03 -0.96565939751E+02  0.95884291760E+02  0.17601628835E+03  0.00000000000E+00 0. -1.
        -15    1    1    2    0    0 -0.10607191555E+02 -0.93510801671E+01 -0.95364230085E+01  0.17148070031E+02  0.17770000000E+01 0. -1.
         15    1    1    2    0    0 -0.66753426690E+01  0.87368594507E+01 -0.15177077013E+02  0.18825363435E+02  0.17770000000E+01 0.  1.
</event>
<event>
 6    1  0.1507019E-006  0.1322302E+03  0.7546771E-02  0.1117453E+00
        -11   -1    0    0    0    0  0.00000000000E+00  0.00000000000E+00  0.18250000000E+03  0.18250000000E+03  0.00000000000E+00 0. -1.
         11   -1    0    0    0    0 -0.00000000000E+00 -0.00000000000E+00 -0.18250000000E+03  0.18250000000E+03  0.00000000000E+00 0.  1.
        -11    1    1    2    0    0  0.38710676195E+02 -0.43660266731E+02  0.85741835286E+02  0.10371305444E+03  0.00000000000E+00 0. -1.
         11    1    1    2    0    0 -0.16793002353E+02 -0.59392529253E+02 -0.11234418330E+03  0.12818226469E+03  0.00000000000E+00 0.  1.
        -15    1    1    2    0    0 -0.38066752335E+02  0.34038018112E+02  0.34666686379E+02  0.61746264533E+02  0.17770000000E+01 0.  1.
         15    1    1    2    0    0  0.16149078492E+02  0.69014777872E+02 -0.80643383677E+01  0.71358416344E+02  0.17770000000E+01 0. -1.
</event>
<event>
 6    1  0.1507019E-006  0.1201755E+03  0.7546771E-02  0.1132886E+00
        -11   -1    0    0    0    0  0.00000000000E+00  0.00000000000E+00  0.18250000000E+03  0.18250000000E+03  0.00000000000E+00 0. -1.
         11   -1    0    0    0    0 -0.00000000000E+00 -0.00000000000E+00 -0.18250000000E+03  0.18250000000E+03  0.00000000000E+00 0. -1.
        -11    1    1    2    0    0 -0.42633198857E+02 -0.13254156294E+03 -0.62061073946E+02  0.15243501058E+03  0.00000000000E+00 0. -1.
         11    1    1    2    0    0  0.31214217284E+02  0.91392974512E+02 -0.37623807738E+02  0.10364629303E+03  0.00000000000E+00 0. -1.
        -15    1    1    2    0    0  0.10594381636E+02  0.23723948973E+02  0.65789610355E+02  0.70756605605E+02  0.17770000000E+01 0. -1.
         15    1    1    2    0    0  0.82459993708E+00  0.17424639454E+02  0.33895271330E+02  0.38162090780E+02  0.17770000000E+01 0.  1.
</event>
<event>
 6    1  0.1507019E-006  0.2015205E+03  0.7546771E-02  0.1054248E+00
        -11   -1    0    0    0    0  0.00000000000E+00  0.00000000000E+00  0.18250000000E+03  0.18250000000E+03  0.00000000000E+00 0. -1.
         11   -1    0    0    0    0 -0.00000000000E+00 -0.00000000000E+00 -0.18250000000E+03  0.18250000000E+03  0.00000000000E+00 0.  1.
        -11    1    1    2    0    0  0.48754705663E+02  0.41319786380E+02  0.13833101612E+03  0.15238049774E+03  0.00000000000E+00 0. -1.
         11    1    1    2    0    0 -0.43761247537E+02 -0.51508101898E+02 -0.14885361959E+03  0.16347945257E+03  0.00000000000E+00 0.  1.
        -15    1    1    2    0    0  0.54898677254E+01 -0.35866199289E+01  0.25370842762E+02  0.26264803095E+02  0.17770000000E+01 0.  1.
         15    1    1    2    0    0 -0.10483325851E+02  0.13774935448E+02 -0.14848239294E+02  0.22875246591E+02  0.17770000000E+01 0. -1.
</event>
<event>
 6    1  0.1507019E-006  0.1849409E+03  0.7546771E-02  0.1066528E+00
        -11   -1    0    0    0    0  0.00000000000E+00  0.00000000000E+00  0.18250000000E+03  0.18250000000E+03  0.00000000000E+00 0. -1.
         11   -1    0    0    0    0 -0.00000000000E+00 -0.00000000000E+00 -0.18250000000E+03  0.18250000000E+03  0.00000000000E+00 0. -1.
        -11    1    1    2    0    0 -0.58360662648E+02 -0.19007811748E+02  0.11180324170E+03  0.12754304649E+03  0.00000000000E+00 0. -1.
         11    1    1    2    0    0  0.71887810612E+02  0.63868499194E+01 -0.16496256083E+03  0.18005914485E+03  0.00000000000E+00 0. -1.
        -15    1    1    2    0    0 -0.46004439747E+01  0.10404687129E+02  0.21597584242E+02  0.24475190971E+02  0.17770000000E+01 0. -1.
         15    1    1    2    0    0 -0.89267039900E+01  0.22162746996E+01  0.31561734889E+02  0.32922617695E+02  0.17770000000E+01 0.  1.
</event>
<event>
 6    1  0.1507019E-006  0.1833074E+03  0.7546771E-02  0.1067814E+00
        -11   -1    0    0    0    0  0.00000000000E+00  0.00000000000E+00  0.18250000000E+03  0.18250000000E+03  0.00000000000E+00 0. -1.
         11   -1    0    0    0    0 -0.00000000000E+00 -0.00000000000E+00 -0.18250000000E+03  0.18250000000E+03  0.00000000000E+00 0. -1.
        -11    1    1    2    0    0  0.27352227990E+02 -0.25494414455E+02  0.17780348242E+03  0.18169256426E+03  0.00000000000E+00 0. -1.
         11    1    1    2    0    0 -0.26165856939E+02  0.22838825476E+02 -0.12283132369E+03  0.12764716251E+03  0.00000000000E+00 0. -1.
        -15    1    1    2    0    0 -0.25145002190E+01  0.31831633181E+00 -0.80042470232E+01  0.85819424402E+01  0.17770000000E+01 0. -1.
         15    1    1    2    0    0  0.13281291678E+01  0.23372726465E+01 -0.46967911714E+02  0.47078330793E+02  0.17770000000E+01 0.  1.
</event>
<event>
 6    1  0.1507019E-006  0.1598151E+03  0.7546771E-02  0.1088099E+00
        -11   -1    0    0    0    0  0.00000000000E+00  0.00000000000E+00  0.18250000000E+03  0.18250000000E+03  0.00000000000E+00 0.  1.
         11   -1    0    0    0    0 -0.00000000000E+00 -0.00000000000E+00 -0.18250000000E+03  0.18250000000E+03  0.00000000000E+00 0.  1.
        -11    1    1    2    0    0  0.68365770168E+02 -0.10068415826E+03  0.92888641494E+02  0.15309956882E+03  0.00000000000E+00 0.  1.
         11    1    1    2    0    0 -0.79674868491E+02  0.81072796332E+02 -0.12497027516E+03  0.16893327869E+03  0.00000000000E+00 0.  1.
        -15    1    1    2    0    0  0.39239669653E+01 -0.21670164163E+01  0.24259632430E+01  0.53978239643E+01  0.17770000000E+01 0.  1.
         15    1    1    2    0    0  0.73851313568E+01  0.21778378344E+02  0.29655670425E+02  0.37569328525E+02  0.17770000000E+01 0. -1.
</event>
<event>
 6    1  0.1507019E-006  0.1847292E+03  0.7546771E-02  0.1066694E+00
        -11   -1    0    0    0    0  0.00000000000E+00  0.00000000000E+00  0.18250000000E+03  0.18250000000E+03  0.00000000000E+00 0.  1.
         11   -1    0    0    0    0 -0.00000000000E+00 -0.00000000000E+00 -0.18250000000E+03  0.18250000000E+03  0.00000000000E+00 0. -1.
        -11    1    1    2    0    0 -0.85108268697E+02 -0.35311872715E+02  0.15494261847E+03  0.18027079845E+03  0.00000000000E+00 0.  1.
         11    1    1    2    0    0  0.80046193647E+02  0.33379024475E+02 -0.11533003697E+03  0.14430027658E+03  0.00000000000E+00 0. -1.
        -15    1    1    2    0    0  0.23806309150E+01  0.19190705675E+01 -0.31560644080E+02  0.31758183499E+02  0.17770000000E+01 0.  1.
         15    1    1    2    0    0  0.26814441344E+01  0.13777672802E-01 -0.80519374195E+01  0.86707414722E+01  0.17770000000E+01 0.  1.
</event>
<event>
 6    1  0.1507019E-006  0.1835197E+03  0.7546771E-02  0.1067646E+00
        -11   -1    0    0    0    0  0.00000000000E+00  0.00000000000E+00  0.18250000000E+03  0.18250000000E+03  0.00000000000E+00 0. -1.
         11   -1    0    0    0    0 -0.00000000000E+00 -0.00000000000E+00 -0.18250000000E+03  0.18250000000E+03  0.00000000000E+00 0. -1.
        -11    1    1    2    0    0  0.11395041079E+03 -0.65013722743E+02  0.12539388894E+03  0.18148032303E+03  0.00000000000E+00 0. -1.
         11    1    1    2    0    0 -0.10885172294E+03  0.59022749300E+02 -0.11148875401E+03  0.16661970109E+03  0.00000000000E+00 0. -1.
        -15    1    1    2    0    0 -0.43237284586E+01  0.46666202138E+01 -0.12568155484E+02  0.14198177111E+02  0.17770000000E+01 0. -1.
         15    1    1    2    0    0 -0.77495939333E+00  0.13243532298E+01 -0.13369794462E+01  0.27017987672E+01  0.17770000000E+01 0. -1.
</event>
<event>
 6    1  0.1507019E-006  0.1840316E+03  0.7546771E-02  0.1067242E+00
        -11   -1    0    0    0    0  0.00000000000E+00  0.00000000000E+00  0.18250000000E+03  0.18250000000E+03  0.00000000000E+00 0.  1.
         11   -1    0    0    0    0 -0.00000000000E+00 -0.00000000000E+00 -0.18250000000E+03  0.18250000000E+03  0.00000000000E+00 0.  1.
        -11    1    1    2    0    0  0.73128744294E+02 -0.39137263787E+02  0.14956903897E+03  0.17102758864E+03  0.00000000000E+00 0.  1.
         11    1    1    2    0    0 -0.70820337658E+02  0.39817406450E+02 -0.16170530792E+03  0.18096837484E+03  0.00000000000E+00 0.  1.
        -15    1    1    2    0    0 -0.87950418646E+00 -0.10860651600E+01  0.72951500918E+01  0.76374085270E+01  0.17770000000E+01 0. -1.
         15    1    1    2    0    0 -0.14289024486E+01  0.40592249677E+00  0.48411188551E+01  0.53666279963E+01  0.17770000000E+01 0.  1.
</event>
<event>
 6    1  0.1507019E-006  0.1830934E+03  0.7546771E-02  0.1067983E+00
        -11   -1    0    0    0    0  0.00000000000E+00  0.00000000000E+00  0.18250000000E+03  0.18250000000E+03  0.00000000000E+00 0.  1.
         11   -1    0    0    0    0 -0.00000000000E+00 -0.00000000000E+00 -0.18250000000E+03  0.18250000000E+03  0.00000000000E+00 0. -1.
        -11    1    1    2    0    0  0.50454990757E+02  0.36133847964E+02  0.14908275485E+03  0.16148383465E+03  0.00000000000E+00 0.  1.
         11    1    1    2    0    0 -0.53927741200E+02 -0.45861819894E+02 -0.16756644797E+03  0.18190663067E+03  0.00000000000E+00 0. -1.
        -15    1    1    2    0    0  0.17601500964E+01  0.32555172482E+01  0.87211922898E+01  0.96391620420E+01  0.17770000000E+01 0.  1.
         15    1    1    2    0    0  0.17126003462E+01  0.64724546823E+01  0.97625008370E+01  0.11970372640E+02  0.17770000000E+01 0.  1.
</event>
<event>
 6    1  0.1507019E-006  0.1744825E+03  0.7546771E-02  0.1075022E+00
        -11   -1    0    0    0    0  0.00000000000E+00  0.00000000000E+00  0.18250000000E+03  0.18250000000E+03  0.00000000000E+00 0.  1.
         11   -1    0    0    0    0 -0.00000000000E+00 -0.00000000000E+00 -0.18250000000E+03  0.18250000000E+03  0.00000000000E+00 0. -1.
        -11    1    1    2    0    0  0.30926945876E+02  0.70824578882E+02  0.15469043924E+03  0.17292116397E+03  0.00000000000E+00 0.  1.
         11    1    1    2    0    0 -0.43025166101E+02 -0.76066985680E+02 -0.15311136703E+03  0.17629646038E+03  0.00000000000E+00 0. -1.
        -15    1    1    2    0    0  0.93945121086E+01  0.92062243115E+00  0.12517638988E+01  0.96865393861E+01  0.17770000000E+01 0. -1.
         15    1    1    2    0    0  0.27037081160E+01  0.43217843668E+01 -0.28308361146E+01  0.60958362673E+01  0.17770000000E+01 0.  1.
</event>
<event>
 6    1  0.1507019E-006  0.1414465E+03  0.7546771E-02  0.1106831E+00
        -11   -1    0    0    0    0  0.00000000000E+00  0.00000000000E+00  0.18250000000E+03  0.18250000000E+03  0.00000000000E+00 0.  1.
         11   -1    0    0    0    0 -0.00000000000E+00 -0.00000000000E+00 -0.18250000000E+03  0.18250000000E+03  0.00000000000E+00 0. -1.
        -11    1    1    2    0    0  0.37219746855E+02  0.63053215755E+02  0.22993984994E+01  0.73255066763E+02  0.00000000000E+00 0.  1.
         11    1    1    2    0    0 -0.49446783272E+02 -0.81224431838E+02 -0.13032163530E+03  0.16132613344E+03  0.00000000000E+00 0. -1.
        -15    1    1    2    0    0  0.56512672803E+01  0.71882132394E+01  0.84680103030E+02  0.85190872807E+02  0.17770000000E+01 0.  1.
         15    1    1    2    0    0  0.65757691367E+01  0.10983002843E+02  0.43342133769E+02  0.45227926991E+02  0.17770000000E+01 0. -1.
</event>
<event>
 6    1  0.1507019E-006  0.1839936E+03  0.7546771E-02  0.1067272E+00
        -11   -1    0    0    0    0  0.00000000000E+00  0.00000000000E+00  0.18250000000E+03  0.18250000000E+03  0.00000000000E+00 0. -1.
         11   -1    0    0    0    0 -0.00000000000E+00 -0.00000000000E+00 -0.18250000000E+03  0.18250000000E+03  0.00000000000E+00 0.  1.
        -11    1    1    2    0    0 -0.34264323225E+02  0.18130362248E+02  0.17680653128E+03  0.18100636283E+03  0.00000000000E+00 0. -1.
         11    1    1    2    0    0  0.30532696118E+02 -0.12292667450E+02 -0.80928188765E+02  0.87365479121E+02  0.00000000000E+00 0.  1.
        -15    1    1    2    0    0 -0.22484100979E+01 -0.59999072201E+00 -0.11868585949E+02  0.12224418116E+02  0.17770000000E+01 0. -1.
         15    1    1    2    0    0  0.59800372055E+01 -0.52377040758E+01 -0.84009756562E+02  0.84403739938E+02  0.17770000000E+01 0.  1.
</event>
<event>
 6    1  0.1507019E-006  0.1872274E+03  0.7546771E-02  0.1064753E+00
        -11   -1    0    0    0    0  0.00000000000E+00  0.00000000000E+00  0.18250000000E+03  0.18250000000E+03  0.00000000000E+00 0.  1.
         11   -1    0    0    0    0 -0.00000000000E+00 -0.00000000000E+00 -0.18250000000E+03  0.18250000000E+03  0.00000000000E+00 0. -1.
        -11    1    1    2    0    0  0.99917841815E+02  0.18277161006E+02  0.14589541419E+03  0.17777261209E+03  0.00000000000E+00 0.  1.
         11    1    1    2    0    0 -0.46070025935E+02  0.12419207973E+02 -0.43606136340E+02  0.64638836181E+02  0.00000000000E+00 0. -1.
        -15    1    1    2    0    0 -0.64293506017E+01 -0.12722866297E+02 -0.38411357457E+02  0.41009730390E+02  0.17770000000E+01 0. -1.
         15    1    1    2    0    0 -0.47418465278E+02 -0.17973502682E+02 -0.63877920394E+02  0.81578821338E+02  0.17770000000E+01 0.  1.
</event>
<event>
 6    1  0.1507019E-006  0.1829683E+03  0.7546771E-02  0.1068083E+00
        -11   -1    0    0    0    0  0.00000000000E+00  0.00000000000E+00  0.18250000000E+03  0.18250000000E+03  0.00000000000E+00 0. -1.
         11   -1    0    0    0    0 -0.00000000000E+00 -0.00000000000E+00 -0.18250000000E+03  0.18250000000E+03  0.00000000000E+00 0.  1.
        -11    1    1    2    0    0 -0.44437491087E+02 -0.57951985182E+01  0.17642921708E+03  0.18203171037E+03  0.00000000000E+00 0. -1.
         11    1    1    2    0    0  0.42136163552E+02  0.63239041019E+01 -0.16772959380E+03  0.17305682500E+03  0.00000000000E+00 0.  1.
        -15    1    1    2    0    0  0.14054193981E+01  0.27733509081E+00 -0.26793418595E+01  0.35197613892E+01  0.17770000000E+01 0.  1.
         15    1    1    2    0    0  0.89590813682E+00 -0.80604067452E+00 -0.60202814195E+01  0.63917032416E+01  0.17770000000E+01 0.  1.
</event>
<event>
 6    1  0.1650348E-006  0.1831620E+03  0.7546771E-02  0.1067929E+00
        -11   -1    0    0    0    0  0.00000000000E+00  0.00000000000E+00  0.18250000000E+03  0.18250000000E+03  0.00000000000E+00 0. -1.
         11   -1    0    0    0    0 -0.00000000000E+00 -0.00000000000E+00 -0.18250000000E+03  0.18250000000E+03  0.00000000000E+00 0. -1.
        -11    1    1    2    0    0 -0.64149022274E+02  0.63930637077E+02  0.14219706226E+03  0.16858893182E+03  0.00000000000E+00 0. -1.
         11    1    1    2    0    0  0.67241719515E+02 -0.66320880341E+02 -0.15538707337E+03  0.18183797894E+03  0.00000000000E+00 0. -1.
        -15    1    1    2    0    0 -0.91643667928E+00  0.19264188284E+01  0.95852275326E+01  0.99792415314E+01  0.17770000000E+01 0.  1.
         15    1    1    2    0    0 -0.21762605622E+01  0.46382443597E+00  0.36047835799E+01  0.45938477119E+01  0.17770000000E+01 0.  1.
</event>
<event>
 6    1  0.1507019E-006  0.1861744E+03  0.7546771E-02  0.1065567E+00
        -11   -1    0    0    0    0  0.00000000000E+00  0.00000000000E+00  0.18250000000E+03  0.18250000000E+03  0.00000000000E+00 0.  1.
         11   -1    0    0    0    0 -0.00000000000E+00 -0.00000000000E+00 -0.18250000000E+03  0.18250000000E+03  0.00000000000E+00 0. -1.
        -11    1    1    2    0    0  0.80928762263E+02  0.90136407090E+02  0.10150404695E+03  0.15804147554E+03  0.00000000000E+00 0.  1.
         11    1    1    2    0    0 -0.88939428032E+02 -0.87971470219E+02 -0.12778644764E+03  0.17882555083E+03  0.00000000000E+00 0. -1.
        -15    1    1    2    0    0  0.42913192343E+01  0.10478985469E+01  0.13897315097E+02  0.14690357655E+02  0.17770000000E+01 0. -1.
         15    1    1    2    0    0  0.37193465346E+01 -0.32128354172E+01  0.12385085590E+02  0.13442615970E+02  0.17770000000E+01 0.  1.
</event>
<event>
 6    1  0.1507019E-006  0.1687304E+03  0.7546771E-02  0.1079976E+00
        -11   -1    0    0    0    0  0.00000000000E+00  0.00000000000E+00  0.18250000000E+03  0.18250000000E+03  0.00000000000E+00 0. -1.
         11   -1    0    0    0    0 -0.00000000000E+00 -0.00000000000E+00 -0.18250000000E+03  0.18250000000E+03  0.00000000000E+00 0. -1.
        -11    1    1    2    0    0 -0.93084541667E+02 -0.11213362216E+03 -0.87638365207E+02  0.17005635587E+03  0.00000000000E+00 0. -1.
         11    1    1    2    0    0  0.69908687972E+02  0.11931776033E+03  0.96062537409E+02  0.16838041358E+03  0.00000000000E+00 0. -1.
        -15    1    1    2    0    0  0.12561781410E+02 -0.40948653123E+01 -0.15405956270E+01  0.13420038674E+02  0.17770000000E+01 0.  1.
         15    1    1    2    0    0  0.10614072285E+02 -0.30892728491E+01 -0.68835765748E+01  0.13143191876E+02  0.17770000000E+01 0. -1.
</event>
<event>
 6    1  0.1507019E-006  0.1834673E+03  0.7546771E-02  0.1067687E+00
        -11   -1    0    0    0    0  0.00000000000E+00  0.00000000000E+00  0.18250000000E+03  0.18250000000E+03  0.00000000000E+00 0.  1.
         11   -1    0    0    0    0 -0.00000000000E+00 -0.00000000000E+00 -0.18250000000E+03  0.18250000000E+03  0.00000000000E+00 0. -1.
        -11    1    1    2    0    0  0.35643301119E+02  0.19147541806E+02  0.17696628222E+03  0.18153274722E+03  0.00000000000E+00 0.  1.
         11    1    1    2    0    0 -0.36518307703E+02 -0.20831038248E+02 -0.16447715130E+03  0.16976528577E+03  0.00000000000E+00 0. -1.
        -15    1    1    2    0    0 -0.31399638118E+00  0.15195388496E+01 -0.10551002694E+02  0.10811520656E+02  0.17770000000E+01 0.  1.
         15    1    1    2    0    0  0.11890029651E+01  0.16395759302E+00 -0.19381282198E+01  0.28904463565E+01  0.17770000000E+01 0.  1.
</event>
<event>
 6    1  0.1507019E-006  0.1471518E+03  0.7546771E-02  0.1100693E+00
        -11   -1    0    0    0    0  0.00000000000E+00  0.00000000000E+00  0.18250000000E+03  0.18250000000E+03  0.00000000000E+00 0.  1.
         11   -1    0    0    0    0 -0.00000000000E+00 -0.00000000000E+00 -0.18250000000E+03  0.18250000000E+03  0.00000000000E+00 0. -1.
        -11    1    1    2    0    0  0.13959325052E+03  0.72113757596E+01  0.86943588811E+02  0.16461308322E+03  0.00000000000E+00 0.  1.
         11    1    1    2    0    0 -0.13417423380E+03 -0.89950011219E+01 -0.23478727042E+02  0.13650965418E+03  0.00000000000E+00 0. -1.
        -15    1    1    2    0    0 -0.38159557374E+01  0.93337532139E+00 -0.28978656734E+02  0.29297661729E+02  0.17770000000E+01 0. -1.
         15    1    1    2    0    0 -0.16030609800E+01  0.85025004087E+00 -0.34486205034E+02  0.34579600870E+02  0.17770000000E+01 0. -1.
</event>
<event>
 6    1  0.1507019E-006  0.1845657E+03  0.7546771E-02  0.1066822E+00
        -11   -1    0    0    0    0  0.00000000000E+00  0.00000000000E+00  0.18250000000E+03  0.18250000000E+03  0.00000000000E+00 0.  1.
         11   -1    0    0    0    0 -0.00000000000E+00 -0.00000000000E+00 -0.18250000000E+03  0.18250000000E+03  0.00000000000E+00 0.  1.
        -11    1    1    2    0    0  0.59645750918E+02 -0.45062325769E+02  0.16422026293E+03  0.18043426383E+03  0.00000000000E+00 0.  1.
         11    1    1    2    0    0 -0.60334512225E+02  0.43469742864E+02 -0.15784622441E+03  0.17448582313E+03  0.00000000000E+00 0.  1.
        -15    1    1    2    0    0 -0.14640379920E+01  0.24635047693E+01 -0.35804804986E+00  0.33908981696E+01  0.17770000000E+01 0.  1.
         15    1    1    2    0    0  0.21527992983E+01 -0.87092186376E+00 -0.60159904665E+01  0.66890148755E+01  0.17770000000E+01 0.  1.
</event>
<event>
 6    1  0.1507019E-006  0.1841246E+03  0.7546771E-02  0.1067169E+00
        -11   -1    0    0    0    0  0.00000000000E+00  0.00000000000E+00  0.18250000000E+03  0.18250000000E+03  0.00000000000E+00 0. -1.
         11   -1    0    0    0    0 -0.00000000000E+00 -0.00000000000E+00 -0.18250000000E+03  0.18250000000E+03  0.00000000000E+00 0.  1.
        -11    1    1    2    0    0 -0.34344458731E+01  0.43972690051E+02  0.17541523923E+03  0.18087536881E+03  0.00000000000E+00 0. -1.
         11    1    1    2    0    0  0.10686102706E+02 -0.37481647823E+02 -0.99351614006E+02  0.10672305243E+03  0.00000000000E+00 0.  1.
        -15    1    1    2    0    0 -0.16478688827E+01 -0.54984295090E+01 -0.16864595109E+02  0.17903086217E+02  0.17770000000E+01 0. -1.
         15    1    1    2    0    0 -0.56037879503E+01 -0.99261271990E+00 -0.59199030113E+02  0.59498492541E+02  0.17770000000E+01 0.  1.
</event>
<event>
 6    1  0.1507019E-006  0.1850508E+03  0.7546771E-02  0.1066442E+00
        -11   -1    0    0    0    0  0.00000000000E+00  0.00000000000E+00  0.18250000000E+03  0.18250000000E+03  0.00000000000E+00 0. -1.
         11   -1    0    0    0    0 -0.00000000000E+00 -0.00000000000E+00 -0.18250000000E+03  0.18250000000E+03  0.00000000000E+00 0. -1.
        -11    1    1    2    0    0  0.28957021588E+02  0.15716842873E+01  0.17759712746E+03  0.17994921221E+03  0.00000000000E+00 0. -1.
         11    1    1    2    0    0 -0.35050103722E+02 -0.12164190303E+02 -0.14105025625E+03  0.14584804450E+03  0.00000000000E+00 0. -1.
        -15    1    1    2    0    0  0.30487572700E+00  0.91729710500E+00 -0.21071281196E+01  0.29209760526E+01  0.17770000000E+01 0.  1.
         15    1    1    2    0    0  0.57882064073E+01  0.96752089108E+01 -0.34439743095E+02  0.36281767244E+02  0.17770000000E+01 0.  1.
</event>
<event>
 6    1  0.1507019E-006  0.1832340E+03  0.7546771E-02  0.1067872E+00
        -11   -1    0    0    0    0  0.00000000000E+00  0.00000000000E+00  0.18250000000E+03  0.18250000000E+03  0.00000000000E+00 0. -1.
         11   -1    0    0    0    0 -0.00000000000E+00 -0.00000000000E+00 -0.18250000000E+03  0.18250000000E+03  0.00000000000E+00 0. -1.
        -11    1    1    2    0    0 -0.20640825926E+02  0.48316732192E+02  0.17400665767E+03  0.18176596827E+03  0.00000000000E+00 0. -1.
         11    1    1    2    0    0  0.17630082365E+02 -0.44860604298E+02 -0.16338588010E+03  0.17034740807E+03  0.00000000000E+00 0. -1.
        -15    1    1    2    0    0 -0.90064836979E+00 -0.42138889813E+00 -0.31028329741E+01  0.37113390514E+01  0.17770000000E+01 0. -1.
         15    1    1    2    0    0  0.39113919306E+01 -0.30347389958E+01 -0.75179446019E+01  0.91752846084E+01  0.17770000000E+01 0.  1.
</event>
<event>
 6    1  0.1507019E-006  0.1841237E+03  0.7546771E-02  0.1067170E+00
        -11   -1    0    0    0    0  0.00000000000E+00  0.00000000000E+00  0.18250000000E+03  0.18250000000E+03  0.00000000000E+00 0.  1.
         11   -1    0    0    0    0 -0.00000000000E+00 -0.00000000000E+00 -0.18250000000E+03  0.18250000000E+03  0.00000000000E+00 0. -1.
        -11    1    1    2    0    0 -0.72418063113E+01 -0.76965565537E+02  0.16352397695E+03  0.18087629219E+03  0.00000000000E+00 0.  1.
         11    1    1    2    0    0 -0.77335315632E+00  0.65948733776E+02 -0.11457911034E+03  0.13220516665E+03  0.00000000000E+00 0. -1.
        -15    1    1    2    0    0  0.81641166246E+00  0.23272989363E+01 -0.20842987256E+01  0.36857670191E+01  0.17770000000E+01 0.  1.
         15    1    1    2    0    0  0.71987478052E+01  0.86895328243E+01 -0.46860567885E+02  0.48232774150E+02  0.17770000000E+01 0.  1.
</event>
<event>
 6    1  0.1507019E-006  0.1835497E+03  0.7546771E-02  0.1067622E+00
        -11   -1    0    0    0    0  0.00000000000E+00  0.00000000000E+00  0.18250000000E+03  0.18250000000E+03  0.00000000000E+00 0.  1.
         11   -1    0    0    0    0 -0.00000000000E+00 -0.00000000000E+00 -0.18250000000E+03  0.18250000000E+03  0.00000000000E+00 0. -1.
        -11    1    1    2    0    0  0.28256787141E+02 -0.17616021798E+02  0.17836886892E+03  0.18145033382E+03  0.00000000000E+00 0.  1.
         11    1    1    2    0    0 -0.15096645239E+02  0.17490209057E+02 -0.60308231196E+02  0.64582496547E+02  0.00000000000E+00 0. -1.
        -15    1    1    2    0    0 -0.29571095506E+01 -0.12319463559E+01 -0.47053728101E+02  0.47196114733E+02  0.17770000000E+01 0.  1.
         15    1    1    2    0    0 -0.10203032352E+02  0.13577590967E+01 -0.71006909620E+02  0.71771054902E+02  0.17770000000E+01 0. -1.
</event>
<event>
 6    1  0.1507019E-006  0.1321969E+03  0.7546771E-02  0.1117494E+00
        -11   -1    0    0    0    0  0.00000000000E+00  0.00000000000E+00  0.18250000000E+03  0.18250000000E+03  0.00000000000E+00 0. -1.
         11   -1    0    0    0    0 -0.00000000000E+00 -0.00000000000E+00 -0.18250000000E+03  0.18250000000E+03  0.00000000000E+00 0. -1.
        -11    1    1    2    0    0  0.31586278024E+02 -0.59697956601E+02  0.54684177652E+02  0.86901658599E+02  0.00000000000E+00 0. -1.
         11    1    1    2    0    0 -0.27800591985E+02  0.51826356871E+02  0.10373880266E+03  0.11925008746E+03  0.00000000000E+00 0. -1.
        -15    1    1    2    0    0 -0.34980430058E+01  0.87636682891E+01 -0.13271273323E+03  0.13305963128E+03  0.17770000000E+01 0. -1.
         15    1    1    2    0    0 -0.28764303327E+00 -0.89206855883E+00 -0.25710247085E+02  0.25788622665E+02  0.17770000000E+01 0. -1.
</event>
<event>
 6    1  0.1507019E-006  0.1603161E+03  0.7546771E-02  0.1087627E+00
        -11   -1    0    0    0    0  0.00000000000E+00  0.00000000000E+00  0.18250000000E+03  0.18250000000E+03  0.00000000000E+00 0. -1.
         11   -1    0    0    0    0 -0.00000000000E+00 -0.00000000000E+00 -0.18250000000E+03  0.18250000000E+03  0.00000000000E+00 0. -1.
        -11    1    1    2    0    0  0.17144653511E+02  0.41190013333E+02  0.16057414332E+03  0.16665716860E+03  0.00000000000E+00 0. -1.
         11    1    1    2    0    0 -0.16201377262E+02 -0.38516311533E+02 -0.47617253434E+01  0.42055497946E+02  0.00000000000E+00 0. -1.
        -15    1    1    2    0    0 -0.24691037595E+01 -0.63747929362E+01 -0.68029044108E+02  0.68394758787E+02  0.17770000000E+01 0. -1.
         15    1    1    2    0    0  0.15258275106E+01  0.37010911359E+01 -0.87783373868E+02  0.87892574669E+02  0.17770000000E+01 0. -1.
</event>
<event>
 6    1  0.1507019E-006  0.1418190E+03  0.7546771E-02  0.1106421E+00
        -11   -1    0    0    0    0  0.00000000000E+00  0.00000000000E+00  0.18250000000E+03  0.18250000000E+03  0.00000000000E+00 0. -1.
         11   -1    0    0    0    0 -0.00000000000E+00 -0.00000000000E+00 -0.18250000000E+03  0.18250000000E+03  0.00000000000E+00 0. -1.
        -11    1    1    2    0    0 -0.16740883940E+02  0.39458768957E+02  0.12507352281E+03  0.13221436288E+03  0.00000000000E+00 0. -1.
         11    1    1    2    0    0  0.67288870598E+02 -0.24222493281E+02  0.21215701292E+02  0.74596429328E+02  0.00000000000E+00 0. -1.
        -15    1    1    2    0    0 -0.23135816034E+02  0.52348593297E+01 -0.40252610745E+02  0.46755749769E+02  0.17770000000E+01 0.  1.
         15    1    1    2    0    0 -0.27412170625E+02 -0.20471135006E+02 -0.10603661336E+03  0.11143345803E+03  0.17770000000E+01 0. -1.
</event>
<event>
 6    1  0.1507019E-006  0.1905827E+03  0.7546771E-02  0.1062197E+00
        -11   -1    0    0    0    0  0.00000000000E+00  0.00000000000E+00  0.18250000000E+03  0.18250000000E+03  0.00000000000E+00 0. -1.
         11   -1    0    0    0    0 -0.00000000000E+00 -0.00000000000E+00 -0.18250000000E+03  0.18250000000E+03  0.00000000000E+00 0.  1.
        -11    1    1    2    0    0  0.13196950985E+03  0.72153279201E+02  0.88313981266E+02  0.17441733433E+03  0.00000000000E+00 0. -1.
         11    1    1    2    0    0 -0.43835031849E+02 -0.50880326469E+02 -0.36984335826E+02  0.76669151132E+02  0.00000000000E+00 0.  1.
        -15    1    1    2    0    0 -0.83229382114E+02 -0.22898042268E+02 -0.29238271391E+02  0.91156374597E+02  0.17770000000E+01 0.  1.
         15    1    1    2    0    0 -0.49050958865E+01  0.16250895361E+01 -0.22091374050E+02  0.22757139936E+02  0.17770000000E+01 0. -1.
</event>
<event>
 6    1  0.1507019E-006  0.1851587E+03  0.7546771E-02  0.1066358E+00
        -11   -1    0    0    0    0  0.00000000000E+00  0.00000000000E+00  0.18250000000E+03  0.18250000000E+03  0.00000000000E+00 0.  1.
         11   -1    0    0    0    0 -0.00000000000E+00 -0.00000000000E+00 -0.18250000000E+03  0.18250000000E+03  0.00000000000E+00 0.  1.
        -11    1    1    2    0    0  0.56907015399E+02  0.25673462153E+02  0.16865756444E+03  0.17984134425E+03  0.00000000000E+00 0.  1.
         11    1    1    2    0    0 -0.54295711403E+02 -0.18844341069E+02 -0.97247844134E+02  0.11296139454E+03  0.00000000000E+00 0.  1.
        -15    1    1    2    0    0  0.48435988856E+00  0.87531236115E+00 -0.10246352696E+02  0.10447308208E+02  0.17770000000E+01 0.  1.
         15    1    1    2    0    0 -0.30956638849E+01 -0.77044334451E+01 -0.61163367608E+02  0.61749953002E+02  0.17770000000E+01 0. -1.
</event>
<event>
 6    1  0.1507019E-006  0.1854758E+03  0.7546771E-02  0.1066110E+00
        -11   -1    0    0    0    0  0.00000000000E+00  0.00000000000E+00  0.18250000000E+03  0.18250000000E+03  0.00000000000E+00 0. -1.
         11   -1    0    0    0    0 -0.00000000000E+00 -0.00000000000E+00 -0.18250000000E+03  0.18250000000E+03  0.00000000000E+00 0. -1.
        -11    1    1    2    0    0  0.12890661138E+02 -0.24723474470E+02  0.31860336189E+02  0.42337930470E+02  0.00000000000E+00 0. -1.
         11    1    1    2    0    0  0.21602202260E+02  0.11605758368E+03 -0.13525138066E+03  0.17952424305E+03  0.00000000000E+00 0. -1.
        -15    1    1    2    0    0 -0.22500247178E+01 -0.48580151304E+01  0.11906386922E+02  0.13175078776E+02  0.17770000000E+01 0.  1.
         15    1    1    2    0    0 -0.32242838680E+02 -0.86476094079E+02  0.91484657554E+02  0.12996274770E+03  0.17770000000E+01 0. -1.
</event>
<event>
 6    1  0.1507019E-006  0.1831480E+03  0.7546771E-02  0.1067940E+00
        -11   -1    0    0    0    0  0.00000000000E+00  0.00000000000E+00  0.18250000000E+03  0.18250000000E+03  0.00000000000E+00 0.  1.
         11   -1    0    0    0    0 -0.00000000000E+00 -0.00000000000E+00 -0.18250000000E+03  0.18250000000E+03  0.00000000000E+00 0. -1.
        -11    1    1    2    0    0 -0.14594272006E+02 -0.29912330417E+02  0.17878030540E+03  0.18185196696E+03  0.00000000000E+00 0.  1.
         11    1    1    2    0    0  0.12286171438E+02  0.26418881098E+02 -0.12534873723E+03  0.12869037731E+03  0.00000000000E+00 0. -1.
        -15    1    1    2    0    0  0.32244208057E+01 -0.28461324453E+00 -0.78394348947E+01  0.86655849600E+01  0.17770000000E+01 0.  1.
         15    1    1    2    0    0 -0.91632023755E+00  0.37780625628E+01 -0.45592133283E+02  0.45792070774E+02  0.17770000000E+01 0. -1.
</event>
<event>
 6    1  0.1507019E-006  0.1854697E+03  0.7546771E-02  0.1066115E+00
        -11   -1    0    0    0    0  0.00000000000E+00  0.00000000000E+00  0.18250000000E+03  0.18250000000E+03  0.00000000000E+00 0. -1.
         11   -1    0    0    0    0 -0.00000000000E+00 -0.00000000000E+00 -0.18250000000E+03  0.18250000000E+03  0.00000000000E+00 0.  1.
        -11    1    1    2    0    0  0.19168494628E+02 -0.79975927062E+02  0.15958552157E+03  0.17953027263E+03  0.00000000000E+00 0. -1.
         11    1    1    2    0    0 -0.16678465083E+02  0.84467311216E+02 -0.14163804248E+03  0.16575353070E+03  0.00000000000E+00 0.  1.
        -15    1    1    2    0    0  0.14026518971E+01 -0.10230499591E+01 -0.75739404790E+01  0.79709702636E+01  0.17770000000E+01 0. -1.
         15    1    1    2    0    0 -0.38926814428E+01 -0.34683341951E+01 -0.10373538611E+02  0.11745226401E+02  0.17770000000E+01 0.  1.
</event>
<event>
 6    1  0.1507019E-006  0.1874079E+03  0.7546771E-02  0.1064614E+00
        -11   -1    0    0    0    0  0.00000000000E+00  0.00000000000E+00  0.18250000000E+03  0.18250000000E+03  0.00000000000E+00 0. -1.
         11   -1    0    0    0    0 -0.00000000000E+00 -0.00000000000E+00 -0.18250000000E+03  0.18250000000E+03  0.00000000000E+00 0. -1.
        -11    1    1    2    0    0  0.81253501779E+02 -0.10935391619E+02  0.15753490024E+03  0.17759211451E+03  0.00000000000E+00 0. -1.
         11    1    1    2    0    0 -0.61037322570E+02 -0.15645341931E+02 -0.82904253728E+02  0.10413187195E+03  0.00000000000E+00 0. -1.
        -15    1    1    2    0    0 -0.13368735753E+02  0.19982844236E+02 -0.35118874667E+02  0.42597303274E+02  0.17770000000E+01 0.  1.
         15    1    1    2    0    0 -0.68474434569E+01  0.65978893137E+01 -0.39511771846E+02  0.40678710264E+02  0.17770000000E+01 0. -1.
</event>
<event>
 6    1  0.1507019E-006  0.1563914E+03  0.7546771E-02  0.1091374E+00
        -11   -1    0    0    0    0  0.00000000000E+00  0.00000000000E+00  0.18250000000E+03  0.18250000000E+03  0.00000000000E+00 0.  1.
         11   -1    0    0    0    0 -0.00000000000E+00 -0.00000000000E+00 -0.18250000000E+03  0.18250000000E+03  0.00000000000E+00 0. -1.
        -11    1    1    2    0    0 -0.97476738991E+01 -0.37397318000E+02  0.15182106554E+03  0.15666273482E+03  0.00000000000E+00 0.  1.
         11    1    1    2    0    0  0.36711106581E+02  0.31531318923E+02  0.52171415440E+01  0.48673894290E+02  0.00000000000E+00 0. -1.
        -15    1    1    2    0    0 -0.25731881336E+01  0.51601320735E+00 -0.94535561716E+01  0.99707081038E+01  0.17770000000E+01 0. -1.
         15    1    1    2    0    0 -0.24390244549E+02  0.53499858691E+01 -0.14758465091E+03  0.14969266279E+03  0.17770000000E+01 0. -1.
</event>
<event>
 6    1  0.1816323E-006  0.1911343E+03  0.7546771E-02  0.1061782E+00
        -11   -1    0    0    0    0  0.00000000000E+00  0.00000000000E+00  0.18250000000E+03  0.18250000000E+03  0.00000000000E+00 0. -1.
         11   -1    0    0    0    0 -0.00000000000E+00 -0.00000000000E+00 -0.18250000000E+03  0.18250000000E+03  0.00000000000E+00 0.  1.
        -11    1    1    2    0    0 -0.11648208830E+03  0.74418121378E+02  0.80827108031E+02  0.16012231287E+03  0.00000000000E+00 0. -1.
         11    1    1    2    0    0  0.12381095613E+03 -0.80840743843E+02 -0.91459910142E+02  0.17386573523E+03  0.00000000000E+00 0.  1.
        -15    1    1    2    0    0 -0.25148781955E+01 -0.44478105629E+01 -0.75055385459E+01  0.92519440663E+01  0.17770000000E+01 0.  1.
         15    1    1    2    0    0 -0.48139896336E+01  0.10870433029E+02  0.18138340656E+02  0.21760007840E+02  0.17770000000E+01 0. -1.
</event>
<event>
 6    1  0.1507019E-006  0.1654561E+03  0.7546771E-02  0.1082894E+00
        -11   -1    0    0    0    0  0.00000000000E+00  0.00000000000E+00  0.18250000000E+03  0.18250000000E+03  0.00000000000E+00 0. -1.
         11   -1    0    0    0    0 -0.00000000000E+00 -0.00000000000E+00 -0.18250000000E+03  0.18250000000E+03  0.00000000000E+00 0. -1.
        -11    1    1    2    0    0  0.32056417353E+02 -0.22975700895E+02  0.16001929906E+03  0.16480798766E+03  0.00000000000E+00 0. -1.
         11    1    1    2    0    0 -0.23763404860E+02  0.21164732990E+02  0.71924402218E+01  0.32624783975E+02  0.00000000000E+00 0. -1.
        -15    1    1    2    0    0 -0.47375514851E+01 -0.12040250646E+01 -0.55214556164E+02  0.55458984951E+02  0.17770000000E+01 0.  1.
         15    1    1    2    0    0 -0.35554610076E+01  0.30149929688E+01 -0.11199718312E+03  0.11210824341E+03  0.17770000000E+01 0. -1.
</event>
<event>
 6    1  0.1507019E-006  0.1853520E+03  0.7546771E-02  0.1066207E+00
        -11   -1    0    0    0    0  0.00000000000E+00  0.00000000000E+00  0.18250000000E+03  0.18250000000E+03  0.00000000000E+00 0. -1.
         11   -1    0    0    0    0 -0.00000000000E+00 -0.00000000000E+00 -0.18250000000E+03  0.18250000000E+03  0.00000000000E+00 0. -1.
        -11    1    1    2    0    0  0.26274139796E+01  0.49714645722E+02  0.10659205922E+03  0.11764487406E+03  0.00000000000E+00 0. -1.
         11    1    1    2    0    0  0.83070334454E+01 -0.69329987453E+02 -0.16552260787E+03  0.17964795485E+03  0.00000000000E+00 0. -1.
        -15    1    1    2    0    0  0.24273119286E+01  0.15841295462E+02  0.16685725039E+02  0.23203655621E+02  0.17770000000E+01 0.  1.
         15    1    1    2    0    0 -0.13361759354E+02  0.37740462686E+01  0.42244823610E+02  0.44503515469E+02  0.17770000000E+01 0. -1.
</event>
<event>
 6    1  0.1507019E-006  0.1940279E+03  0.7546771E-02  0.1059632E+00
        -11   -1    0    0    0    0  0.00000000000E+00  0.00000000000E+00  0.18250000000E+03  0.18250000000E+03  0.00000000000E+00 0.  1.
         11   -1    0    0    0    0 -0.00000000000E+00 -0.00000000000E+00 -0.18250000000E+03  0.18250000000E+03  0.00000000000E+00 0.  1.
        -11    1    1    2    0    0 -0.14467476671E+02 -0.68714657484E+02  0.28166735363E+02  0.75659612842E+02  0.00000000000E+00 0.  1.
         11    1    1    2    0    0  0.21470738641E+02  0.89060540737E+02 -0.14435611650E+03  0.17097210564E+03  0.00000000000E+00 0.  1.
        -15    1    1    2    0    0 -0.11734535453E+01 -0.96264954078E+01  0.63107138708E+02  0.63872647448E+02  0.17770000000E+01 0.  1.
         15    1    1    2    0    0 -0.58298084245E+01 -0.10719387845E+02  0.53082242433E+02  0.54495634071E+02  0.17770000000E+01 0.  1.
</event>
<event>
 6    1  0.1507019E-006  0.1864332E+03  0.7546771E-02  0.1065366E+00
        -11   -1    0    0    0    0  0.00000000000E+00  0.00000000000E+00  0.18250000000E+03  0.18250000000E+03  0.00000000000E+00 0. -1.
         11   -1    0    0    0    0 -0.00000000000E+00 -0.00000000000E+00 -0.18250000000E+03  0.18250000000E+03  0.00000000000E+00 0. -1.
        -11    1    1    2    0    0  0.17899674612E+02  0.68942915896E+02  0.11667150543E+03  0.13669588210E+03  0.00000000000E+00 0. -1.
         11    1    1    2    0    0 -0.17694896619E+02 -0.63773552995E+02 -0.16584913926E+03  0.17856682901E+03  0.00000000000E+00 0. -1.
        -15    1    1    2    0    0 -0.12615445844E+01 -0.48862681746E+01  0.36036488538E+02  0.36431488393E+02  0.17770000000E+01 0. -1.
         15    1    1    2    0    0  0.10567665914E+01 -0.28309472706E+00  0.13141145297E+02  0.13305800501E+02  0.17770000000E+01 0.  1.
</event>
<event>
 6    1  0.1507019E-006  0.1128709E+03  0.7546771E-02  0.1143249E+00
        -11   -1    0    0    0    0  0.00000000000E+00  0.00000000000E+00  0.18250000000E+03  0.18250000000E+03  0.00000000000E+00 0. -1.
         11   -1    0    0    0    0 -0.00000000000E+00 -0.00000000000E+00 -0.18250000000E+03  0.18250000000E+03  0.00000000000E+00 0.  1.
        -11    1    1    2    0    0  0.33814765592E+02 -0.10630536794E+03 -0.29210512043E+02  0.11531488906E+03  0.00000000000E+00 0. -1.
         11    1    1    2    0    0 -0.37635847620E+02  0.10202585747E+03 -0.83253282035E+02  0.13695561904E+03  0.00000000000E+00 0.  1.
        -15    1    1    2    0    0  0.13313110011E+00  0.48278497863E+00  0.16402797064E+02  0.16506371066E+02  0.17770000000E+01 0. -1.
         15    1    1    2    0    0  0.36879509280E+01  0.37967254903E+01  0.96060997013E+02  0.96223120832E+02  0.17770000000E+01 0. -1.
</event>
<event>
 6    1  0.1507019E-006  0.1855016E+03  0.7546771E-02  0.1066090E+00
        -11   -1    0    0    0    0  0.00000000000E+00  0.00000000000E+00  0.18250000000E+03  0.18250000000E+03  0.00000000000E+00 0.  1.
         11   -1    0    0    0    0 -0.00000000000E+00 -0.00000000000E+00 -0.18250000000E+03  0.18250000000E+03  0.00000000000E+00 0.  1.
        -11    1    1    2    0    0  0.13866827291E+03 -0.48933084044E+02  0.69672686107E+02  0.16271945125E+03  0.00000000000E+00 0.  1.
         11    1    1    2    0    0 -0.14528810784E+03  0.58423647314E+02 -0.87736691763E+02  0.17949842319E+03  0.00000000000E+00 0.  1.
        -15    1    1    2    0    0  0.60377461629E+01 -0.28071036111E+01  0.99730823370E+01  0.12122471271E+02  0.17770000000E+01 0. -1.
         15    1    1    2    0    0  0.58208877007E+00 -0.66834596592E+01  0.80909233185E+01  0.10659654286E+02  0.17770000000E+01 0.  1.
</event>
<event>
 6    1  0.1507019E-006  0.1907688E+03  0.7546771E-02  0.1062057E+00
        -11   -1    0    0    0    0  0.00000000000E+00  0.00000000000E+00  0.18250000000E+03  0.18250000000E+03  0.00000000000E+00 0.  1.
         11   -1    0    0    0    0 -0.00000000000E+00 -0.00000000000E+00 -0.18250000000E+03  0.18250000000E+03  0.00000000000E+00 0.  1.
        -11    1    1    2    0    0  0.78285468499E+01 -0.45369440687E+02 -0.11914155640E+03  0.12772776815E+03  0.00000000000E+00 0.  1.
         11    1    1    2    0    0  0.81086374949E+01  0.32646872996E+02  0.17095306197E+03  0.17423121912E+03  0.00000000000E+00 0.  1.
        -15    1    1    2    0    0 -0.89201283926E+01  0.13236565025E+02 -0.67870684964E+01  0.17435520410E+02  0.17770000000E+01 0.  1.
         15    1    1    2    0    0 -0.70170559522E+01 -0.51399733395E+00 -0.45024437074E+02  0.45605492326E+02  0.17770000000E+01 0. -1.
</event>
<event>
 6    1  0.1507019E-006  0.1829807E+03  0.7546771E-02  0.1068073E+00
        -11   -1    0    0    0    0  0.00000000000E+00  0.00000000000E+00  0.18250000000E+03  0.18250000000E+03  0.00000000000E+00 0. -1.
         11   -1    0    0    0    0 -0.00000000000E+00 -0.00000000000E+00 -0.18250000000E+03  0.18250000000E+03  0.00000000000E+00 0. -1.
        -11    1    1    2    0    0  0.86823522696E+01 -0.29044004213E+02  0.14101650386E+03  0.14423796928E+03  0.00000000000E+00 0. -1.
         11    1    1    2    0    0 -0.15560704506E+02  0.29775731131E+02 -0.17889185240E+03  0.18201929717E+03  0.00000000000E+00 0. -1.
        -15    1    1    2    0    0  0.20563885937E+01 -0.10797801565E+01  0.11260424426E+02  0.11633982400E+02  0.17770000000E+01 0.  1.
         15    1    1    2    0    0  0.48219636431E+01  0.34805323781E+00  0.26614924110E+02  0.27108751148E+02  0.17770000000E+01 0.  1.
</event>
<event>
 6    1  0.1507019E-006  0.1829559E+03  0.7546771E-02  0.1068093E+00
        -11   -1    0    0    0    0  0.00000000000E+00  0.00000000000E+00  0.18250000000E+03  0.18250000000E+03  0.00000000000E+00 0. -1.
         11   -1    0    0    0    0 -0.00000000000E+00 -0.00000000000E+00 -0.18250000000E+03  0.18250000000E+03  0.00000000000E+00 0. -1.
        -11    1    1    2    0    0  0.35041916813E+02  0.28783785581E+02  0.17630547791E+03  0.18204412594E+03  0.00000000000E+00 0. -1.
         11    1    1    2    0    0 -0.27293127979E+02 -0.19588668895E+02 -0.12507036827E+03  0.12950377524E+03  0.00000000000E+00 0. -1.
        -15    1    1    2    0    0 -0.33315410828E+01 -0.59286763480E+01 -0.12955260898E+02  0.14739229395E+02  0.17770000000E+01 0. -1.
         15    1    1    2    0    0 -0.44172477513E+01 -0.32664403381E+01 -0.38279848746E+02  0.38712869426E+02  0.17770000000E+01 0.  1.
</event>
<event>
 6    1  0.1507019E-006  0.1967782E+03  0.7546771E-02  0.1057625E+00
        -11   -1    0    0    0    0  0.00000000000E+00  0.00000000000E+00  0.18250000000E+03  0.18250000000E+03  0.00000000000E+00 0.  1.
         11   -1    0    0    0    0 -0.00000000000E+00 -0.00000000000E+00 -0.18250000000E+03  0.18250000000E+03  0.00000000000E+00 0. -1.
        -11    1    1    2    0    0 -0.84112186033E+02  0.21245137347E+02  0.45642456185E+02  0.98027799663E+02  0.00000000000E+00 0.  1.
         11    1    1    2    0    0  0.10473281234E+03  0.65182064014E+01 -0.13148055703E+03  0.16822183530E+03  0.00000000000E+00 0. -1.
        -15    1    1    2    0    0 -0.39011991602E+01  0.33152973269E+01  0.42447961822E+02  0.42792496341E+02  0.17770000000E+01 0. -1.
         15    1    1    2    0    0 -0.16719427147E+02 -0.31078641075E+02  0.43390139024E+02  0.55957868694E+02  0.17770000000E+01 0.  1.
</event>
<event>
 6    1  0.1507019E-006  0.1647964E+03  0.7546771E-02  0.1083491E+00
        -11   -1    0    0    0    0  0.00000000000E+00  0.00000000000E+00  0.18250000000E+03  0.18250000000E+03  0.00000000000E+00 0.  1.
         11   -1    0    0    0    0 -0.00000000000E+00 -0.00000000000E+00 -0.18250000000E+03  0.18250000000E+03  0.00000000000E+00 0. -1.
        -11    1    1    2    0    0  0.10597694210E+03 -0.35692237367E+02  0.11680355700E+03  0.16170380018E+03  0.00000000000E+00 0.  1.
         11    1    1    2    0    0 -0.12318563541E+03  0.38148150834E+02 -0.10838319023E+03  0.16845443926E+03  0.00000000000E+00 0. -1.
        -15    1    1    2    0    0  0.39072742137E+01 -0.10392946013E+02 -0.14288971591E+02  0.18182754377E+02  0.17770000000E+01 0. -1.
         15    1    1    2    0    0  0.13301419092E+02  0.79370325452E+01  0.58686048203E+01  0.16659006184E+02  0.17770000000E+01 0.  1.
</event>
<event>
 6    1  0.1507019E-006  0.1490375E+03  0.7546771E-02  0.1098731E+00
        -11   -1    0    0    0    0  0.00000000000E+00  0.00000000000E+00  0.18250000000E+03  0.18250000000E+03  0.00000000000E+00 0.  1.
         11   -1    0    0    0    0 -0.00000000000E+00 -0.00000000000E+00 -0.18250000000E+03  0.18250000000E+03  0.00000000000E+00 0. -1.
        -11    1    1    2    0    0 -0.55864083143E+02 -0.12459124739E+03  0.36146365150E+02  0.14124565277E+03  0.00000000000E+00 0.  1.
         11    1    1    2    0    0  0.65202659768E+02  0.11509759241E+03 -0.95036464584E+02  0.16288269466E+03  0.00000000000E+00 0. -1.
        -15    1    1    2    0    0 -0.38577317901E+01  0.83475820392E+01  0.40366688920E+02  0.41439009687E+02  0.17770000000E+01 0. -1.
         15    1    1    2    0    0 -0.54808448351E+01  0.11460729424E+01  0.18523410513E+02  0.19432642881E+02  0.17770000000E+01 0.  1.
</event>
<event>
 6    1  0.1507019E-006  0.1831189E+03  0.7546771E-02  0.1067963E+00
        -11   -1    0    0    0    0  0.00000000000E+00  0.00000000000E+00  0.18250000000E+03  0.18250000000E+03  0.00000000000E+00 0.  1.
         11   -1    0    0    0    0 -0.00000000000E+00 -0.00000000000E+00 -0.18250000000E+03  0.18250000000E+03  0.00000000000E+00 0.  1.
        -11    1    1    2    0    0  0.27268507019E+02  0.64731914678E+02  0.16777052617E+03  0.18188111970E+03  0.00000000000E+00 0.  1.
         11    1    1    2    0    0 -0.24611493711E+02 -0.52508883299E+02 -0.11707497826E+03  0.13065013962E+03  0.00000000000E+00 0.  1.
        -15    1    1    2    0    0  0.68684860471E+00 -0.29848141328E+01 -0.13282504716E+02  0.13746400872E+02  0.17770000000E+01 0. -1.
         15    1    1    2    0    0 -0.33438619128E+01 -0.92382172464E+01 -0.37413043189E+02  0.38722339806E+02  0.17770000000E+01 0. -1.
</event>
<event>
 6    1  0.1507019E-006  0.1568361E+03  0.7546771E-02  0.1090943E+00
        -11   -1    0    0    0    0  0.00000000000E+00  0.00000000000E+00  0.18250000000E+03  0.18250000000E+03  0.00000000000E+00 0.  1.
         11   -1    0    0    0    0 -0.00000000000E+00 -0.00000000000E+00 -0.18250000000E+03  0.18250000000E+03  0.00000000000E+00 0. -1.
        -11    1    1    2    0    0 -0.16829923639E+02  0.47785150729E+02 -0.14117395911E+03  0.14998917858E+03  0.00000000000E+00 0. -1.
         11    1    1    2    0    0  0.61625686585E+00 -0.22000342405E+02  0.16455960837E+03  0.16602487629E+03  0.00000000000E+00 0.  1.
        -15    1    1    2    0    0 -0.43895742745E+01 -0.20613162776E+02 -0.15643988702E+02  0.26307089414E+02  0.17770000000E+01 0. -1.
         15    1    1    2    0    0  0.20603241048E+02 -0.51716455475E+01 -0.77416605615E+01  0.22678855716E+02  0.17770000000E+01 0.  1.
</event>
<event>
 6    1  0.1507019E-006  0.1923151E+03  0.7546771E-02  0.1060900E+00
        -11   -1    0    0    0    0  0.00000000000E+00  0.00000000000E+00  0.18250000000E+03  0.18250000000E+03  0.00000000000E+00 0. -1.
         11   -1    0    0    0    0 -0.00000000000E+00 -0.00000000000E+00 -0.18250000000E+03  0.18250000000E+03  0.00000000000E+00 0.  1.
        -11    1    1    2    0    0  0.58104975396E+02  0.70822556154E+02  0.14638318648E+03  0.17268485721E+03  0.00000000000E+00 0. -1.
         11    1    1    2    0    0 -0.25127092499E+02 -0.54757147480E+02 -0.86640308254E+02  0.10552847479E+03  0.00000000000E+00 0.  1.
        -15    1    1    2    0    0 -0.16454308701E+02  0.39683834947E+01  0.43870904432E+01  0.17575455441E+02  0.17770000000E+01 0. -1.
         15    1    1    2    0    0 -0.16523574196E+02 -0.20033792169E+02 -0.64129968670E+02  0.69211212556E+02  0.17770000000E+01 0.  1.
</event>
<event>
 6    1  0.1507019E-006  0.1500514E+03  0.7546771E-02  0.1097689E+00
        -11   -1    0    0    0    0  0.00000000000E+00  0.00000000000E+00  0.18250000000E+03  0.18250000000E+03  0.00000000000E+00 0. -1.
         11   -1    0    0    0    0 -0.00000000000E+00 -0.00000000000E+00 -0.18250000000E+03  0.18250000000E+03  0.00000000000E+00 0. -1.
        -11    1    1    2    0    0  0.10993954197E+03 -0.76483254086E+02  0.44562029403E+02  0.14114590149E+03  0.00000000000E+00 0. -1.
         11    1    1    2    0    0 -0.10409837032E+03  0.75302800988E+02 -0.10295977197E+03  0.16464415321E+03  0.00000000000E+00 0. -1.
        -15    1    1    2    0    0  0.64628035302E+00  0.15319506726E+01  0.26343519826E+02  0.26455685910E+02  0.17770000000E+01 0.  1.
         15    1    1    2    0    0 -0.64874519944E+01 -0.35149757454E+00  0.32054222740E+02  0.32754259393E+02  0.17770000000E+01 0. -1.
</event>
<event>
 6    1  0.1507019E-006  0.1564108E+03  0.7546771E-02  0.1091355E+00
        -11   -1    0    0    0    0  0.00000000000E+00  0.00000000000E+00  0.18250000000E+03  0.18250000000E+03  0.00000000000E+00 0.  1.
         11   -1    0    0    0    0 -0.00000000000E+00 -0.00000000000E+00 -0.18250000000E+03  0.18250000000E+03  0.00000000000E+00 0. -1.
        -11    1    1    2    0    0  0.63021494720E+02  0.13140173758E+02  0.14715904682E+03  0.16062427595E+03  0.00000000000E+00 0.  1.
         11    1    1    2    0    0 -0.63768265794E+02 -0.29267899745E+02 -0.13576178411E+03  0.15282101852E+03  0.00000000000E+00 0. -1.
        -15    1    1    2    0    0  0.58198839958E+01  0.69390840070E+01  0.18033397817E+02  0.20257914562E+02  0.17770000000E+01 0. -1.
         15    1    1    2    0    0 -0.50731129217E+01  0.91886419804E+01 -0.29430660530E+02  0.31296790960E+02  0.17770000000E+01 0.  1.
</event>
<event>
 6    1  0.1507019E-006  0.1431350E+03  0.7546771E-02  0.1104982E+00
        -11   -1    0    0    0    0  0.00000000000E+00  0.00000000000E+00  0.18250000000E+03  0.18250000000E+03  0.00000000000E+00 0. -1.
         11   -1    0    0    0    0 -0.00000000000E+00 -0.00000000000E+00 -0.18250000000E+03  0.18250000000E+03  0.00000000000E+00 0. -1.
        -11    1    1    2    0    0 -0.70547791074E+02  0.12792092498E+03 -0.45683389587E+02  0.15306118371E+03  0.00000000000E+00 0. -1.
         11    1    1    2    0    0  0.65007431093E+02 -0.12353122391E+03 -0.23812618084E+02  0.14160851019E+03  0.00000000000E+00 0. -1.
        -15    1    1    2    0    0  0.62885101421E+01 -0.34439725986E+01  0.35178284136E+02  0.35945454662E+02  0.17770000000E+01 0. -1.
         15    1    1    2    0    0 -0.74815016046E+00 -0.94572847378E+00  0.34317723535E+02  0.34384851441E+02  0.17770000000E+01 0.  1.
</event>
<event>
 6    1  0.1507019E-006  0.1963247E+03  0.7546771E-02  0.1057954E+00
        -11   -1    0    0    0    0  0.00000000000E+00  0.00000000000E+00  0.18250000000E+03  0.18250000000E+03  0.00000000000E+00 0.  1.
         11   -1    0    0    0    0 -0.00000000000E+00 -0.00000000000E+00 -0.18250000000E+03  0.18250000000E+03  0.00000000000E+00 0. -1.
        -11    1    1    2    0    0  0.32992020571E+02  0.22770161284E+02  0.56287094537E+02  0.69102754487E+02  0.00000000000E+00 0.  1.
         11    1    1    2    0    0 -0.51162466936E+02  0.10103682546E+02 -0.16041095030E+03  0.16867529576E+03  0.00000000000E+00 0. -1.
        -15    1    1    2    0    0 -0.35968984377E+00  0.18329687293E+02  0.22369882972E+02  0.28977166981E+02  0.17770000000E+01 0. -1.
         15    1    1    2    0    0  0.18530136208E+02 -0.51203531123E+02  0.81753972786E+02  0.98244782776E+02  0.17770000000E+01 0.  1.
</event>
<event>
 6    1  0.1507019E-006  0.2021327E+03  0.7546771E-02  0.1053819E+00
        -11   -1    0    0    0    0  0.00000000000E+00  0.00000000000E+00  0.18250000000E+03  0.18250000000E+03  0.00000000000E+00 0.  1.
         11   -1    0    0    0    0 -0.00000000000E+00 -0.00000000000E+00 -0.18250000000E+03  0.18250000000E+03  0.00000000000E+00 0. -1.
        -11    1    1    2    0    0 -0.70621289176E+02 -0.64507454929E+02  0.69274253124E+02  0.11809953587E+03  0.00000000000E+00 0.  1.
         11    1    1    2    0    0  0.11641683266E+03  0.38819333054E+02 -0.10707918625E+03  0.16286734379E+03  0.00000000000E+00 0. -1.
        -15    1    1    2    0    0 -0.50437971703E+02  0.33970925423E+02  0.20470648113E+02  0.64188923708E+02  0.17770000000E+01 0. -1.
         15    1    1    2    0    0  0.46424282227E+01 -0.82828035482E+01  0.17334285010E+02  0.19844196638E+02  0.17770000000E+01 0.  1.
</event>
<event>
 6    1  0.1507019E-006  0.1271613E+03  0.7546771E-02  0.1123712E+00
        -11   -1    0    0    0    0  0.00000000000E+00  0.00000000000E+00  0.18250000000E+03  0.18250000000E+03  0.00000000000E+00 0.  1.
         11   -1    0    0    0    0 -0.00000000000E+00 -0.00000000000E+00 -0.18250000000E+03  0.18250000000E+03  0.00000000000E+00 0. -1.
        -11    1    1    2    0    0  0.37202349595E+02 -0.51979800912E+02  0.15416926067E+03  0.16689540273E+03  0.00000000000E+00 0.  1.
         11    1    1    2    0    0 -0.39784699400E+02  0.67802789404E+02 -0.51624488254E+02  0.94048542492E+02  0.00000000000E+00 0. -1.
        -15    1    1    2    0    0 -0.17431102556E+01 -0.93800806036E+01 -0.57471947228E+02  0.58285562472E+02  0.17770000000E+01 0. -1.
         15    1    1    2    0    0  0.43254600610E+01 -0.64429078883E+01 -0.45072825185E+02  0.45770492306E+02  0.17770000000E+01 0. -1.
</event>
<event>
 6    1  0.1507019E-006  0.1891319E+03  0.7546771E-02  0.1063295E+00
        -11   -1    0    0    0    0  0.00000000000E+00  0.00000000000E+00  0.18250000000E+03  0.18250000000E+03  0.00000000000E+00 0.  1.
         11   -1    0    0    0    0 -0.00000000000E+00 -0.00000000000E+00 -0.18250000000E+03  0.18250000000E+03  0.00000000000E+00 0. -1.
        -11    1    1    2    0    0 -0.56873640411E+02 -0.11083327740E+03  0.12414091216E+03  0.17586811088E+03  0.00000000000E+00 0.  1.
         11    1    1    2    0    0  0.44018843302E+02  0.10485453628E+03 -0.72580887178E+02  0.13490781122E+03  0.00000000000E+00 0. -1.
        -15    1    1    2    0    0  0.11378317325E+01  0.28262598207E+01 -0.21021647670E+02  0.21315482762E+02  0.17770000000E+01 0. -1.
         15    1    1    2    0    0  0.11716965377E+02  0.31524812980E+01 -0.30538377311E+02  0.32908595135E+02  0.17770000000E+01 0.  1.
</event>
<event>
 6    1  0.1507019E-006  0.1901379E+03  0.7546771E-02  0.1062533E+00
        -11   -1    0    0    0    0  0.00000000000E+00  0.00000000000E+00  0.18250000000E+03  0.18250000000E+03  0.00000000000E+00 0.  1.
         11   -1    0    0    0    0 -0.00000000000E+00 -0.00000000000E+00 -0.18250000000E+03  0.18250000000E+03  0.00000000000E+00 0.  1.
        -11    1    1    2    0    0  0.12625740805E+03 -0.53228138901E+02  0.10863974571E+03  0.17486212342E+03  0.00000000000E+00 0.  1.
         11    1    1    2    0    0 -0.12642477952E+03  0.32450069730E+02 -0.92823278860E+02  0.16016364444E+03  0.00000000000E+00 0.  1.
        -15    1    1    2    0    0  0.17757514506E+01  0.11284794463E+02 -0.22485660105E+00  0.11563224844E+02  0.17770000000E+01 0.  1.
         15    1    1    2    0    0 -0.16083799834E+01  0.94932747072E+01 -0.15591610244E+02  0.18411007301E+02  0.17770000000E+01 0. -1.
</event>
<event>
 6    1  0.1507019E-006  0.1850029E+03  0.7546771E-02  0.1066480E+00
        -11   -1    0    0    0    0  0.00000000000E+00  0.00000000000E+00  0.18250000000E+03  0.18250000000E+03  0.00000000000E+00 0.  1.
         11   -1    0    0    0    0 -0.00000000000E+00 -0.00000000000E+00 -0.18250000000E+03  0.18250000000E+03  0.00000000000E+00 0.  1.
        -11    1    1    2    0    0  0.15553756546E+02  0.10554227552E+02  0.16131292434E+03  0.16240434299E+03  0.00000000000E+00 0.  1.
         11    1    1    2    0    0 -0.13134251520E+02 -0.17631482044E+01  0.18305065784E+02  0.22598510746E+02  0.00000000000E+00 0.  1.
        -15    1    1    2    0    0 -0.63236480987E+00 -0.87101842336E+01 -0.15323195015E+03  0.15349089703E+03  0.17770000000E+01 0.  1.
         15    1    1    2    0    0 -0.17871402163E+01 -0.80895114269E-01 -0.26386039974E+02  0.26506249238E+02  0.17770000000E+01 0. -1.
</event>
<event>
 6    1  0.1507019E-006  0.1172899E+03  0.7546771E-02  0.1136880E+00
        -11   -1    0    0    0    0  0.00000000000E+00  0.00000000000E+00  0.18250000000E+03  0.18250000000E+03  0.00000000000E+00 0.  1.
         11   -1    0    0    0    0 -0.00000000000E+00 -0.00000000000E+00 -0.18250000000E+03  0.18250000000E+03  0.00000000000E+00 0.  1.
        -11    1    1    2    0    0 -0.47607851124E+02 -0.40960045759E+02  0.91923594577E+02  0.11132915196E+03  0.00000000000E+00 0.  1.
         11    1    1    2    0    0  0.51949944058E+01  0.12578477229E+03 -0.17745059370E+02  0.12713647800E+03  0.00000000000E+00 0.  1.
        -15    1    1    2    0    0  0.34742930949E+02 -0.79796989704E+02 -0.49484361007E+02  0.10013236505E+03  0.17770000000E+01 0.  1.
         15    1    1    2    0    0  0.76699257693E+01 -0.50277368261E+01 -0.24694174200E+02  0.26402004986E+02  0.17770000000E+01 0. -1.
</event>
<event>
 6    1  0.1507019E-006  0.1942222E+03  0.7546771E-02  0.1059489E+00
        -11   -1    0    0    0    0  0.00000000000E+00  0.00000000000E+00  0.18250000000E+03  0.18250000000E+03  0.00000000000E+00 0.  1.
         11   -1    0    0    0    0 -0.00000000000E+00 -0.00000000000E+00 -0.18250000000E+03  0.18250000000E+03  0.00000000000E+00 0.  1.
        -11    1    1    2    0    0  0.36175536788E+02  0.69536418359E+02  0.15172698144E+03  0.17077780839E+03  0.00000000000E+00 0.  1.
         11    1    1    2    0    0 -0.14785921118E+02 -0.24882686911E+02 -0.12693300246E+03  0.13019123889E+03  0.00000000000E+00 0.  1.
        -15    1    1    2    0    0  0.43737927417E+01  0.90975991129E+00  0.19935969702E+01  0.52047943210E+01  0.17770000000E+01 0.  1.
         15    1    1    2    0    0 -0.25763408412E+02 -0.45563491359E+02 -0.26787575950E+02  0.58826158400E+02  0.17770000000E+01 0. -1.
</event>
<event>
 6    1  0.1507019E-006  0.1872191E+03  0.7546771E-02  0.1064759E+00
        -11   -1    0    0    0    0  0.00000000000E+00  0.00000000000E+00  0.18250000000E+03  0.18250000000E+03  0.00000000000E+00 0.  1.
         11   -1    0    0    0    0 -0.00000000000E+00 -0.00000000000E+00 -0.18250000000E+03  0.18250000000E+03  0.00000000000E+00 0. -1.
        -11    1    1    2    0    0  0.68633558625E+02 -0.41993514716E+02  0.15853086059E+03  0.17778091688E+03  0.00000000000E+00 0.  1.
         11    1    1    2    0    0 -0.70273143584E+02  0.47409489893E+02 -0.11518296157E+03  0.14301429676E+03  0.00000000000E+00 0. -1.
        -15    1    1    2    0    0 -0.18763992821E+01 -0.22295393546E+01 -0.22041440272E+02  0.22304137246E+02  0.17770000000E+01 0.  1.
         15    1    1    2    0    0  0.35159842414E+01 -0.31864358224E+01 -0.21306458746E+02  0.21900649117E+02  0.17770000000E+01 0. -1.
</event>
<event>
 6    1  0.1507019E-006  0.1839881E+03  0.7546771E-02  0.1067276E+00
        -11   -1    0    0    0    0  0.00000000000E+00  0.00000000000E+00  0.18250000000E+03  0.18250000000E+03  0.00000000000E+00 0.  1.
         11   -1    0    0    0    0 -0.00000000000E+00 -0.00000000000E+00 -0.18250000000E+03  0.18250000000E+03  0.00000000000E+00 0. -1.
        -11    1    1    2    0    0  0.31706600382E+02  0.11410221359E+03  0.13689658712E+03  0.18101187591E+03  0.00000000000E+00 0.  1.
         11    1    1    2    0    0 -0.33589860539E+02 -0.11226544430E+03 -0.13168911831E+03  0.17627771441E+03  0.00000000000E+00 0. -1.
        -15    1    1    2    0    0  0.18299407655E+01 -0.26789360663E+01 -0.37011668184E+01  0.52327570620E+01  0.17770000000E+01 0. -1.
         15    1    1    2    0    0  0.53319392129E-01  0.84216677788E+00 -0.15063019886E+01  0.24776526230E+01  0.17770000000E+01 0. -1.
</event>
<event>
 6    1  0.1638641E-006  0.1833602E+03  0.7546771E-02  0.1067772E+00
        -11   -1    0    0    0    0  0.00000000000E+00  0.00000000000E+00  0.18250000000E+03  0.18250000000E+03  0.00000000000E+00 0. -1.
         11   -1    0    0    0    0 -0.00000000000E+00 -0.00000000000E+00 -0.18250000000E+03  0.18250000000E+03  0.00000000000E+00 0.  1.
        -11    1    1    2    0    0 -0.92704052330E+01  0.55223036038E+02  0.12362157437E+03  0.13571226095E+03  0.00000000000E+00 0. -1.
         11    1    1    2    0    0  0.83308214040E+01 -0.62736207387E+02 -0.17025799999E+03  0.18163981079E+03  0.00000000000E+00 0.  1.
        -15    1    1    2    0    0  0.28399826505E+01  0.36166470642E+01  0.28058824849E+02  0.28488612081E+02  0.17770000000E+01 0. -1.
         15    1    1    2    0    0 -0.19003988215E+01  0.38965242849E+01  0.18577600769E+02  0.19159316181E+02  0.17770000000E+01 0. -1.
</event>
<event>
 6    1  0.1507019E-006  0.1835589E+03  0.7546771E-02  0.1067615E+00
        -11   -1    0    0    0    0  0.00000000000E+00  0.00000000000E+00  0.18250000000E+03  0.18250000000E+03  0.00000000000E+00 0. -1.
         11   -1    0    0    0    0 -0.00000000000E+00 -0.00000000000E+00 -0.18250000000E+03  0.18250000000E+03  0.00000000000E+00 0.  1.
        -11    1    1    2    0    0 -0.55141602363E+02 -0.80683614638E+01  0.88258868826E+02  0.10438066245E+03  0.00000000000E+00 0. -1.
         11    1    1    2    0    0  0.76206911061E+02  0.16893009712E+02 -0.16379256081E+03  0.18144109249E+03  0.00000000000E+00 0.  1.
        -15    1    1    2    0    0 -0.36946265201E+01  0.16472508183E+00  0.13548156904E+02  0.14155835686E+02  0.17770000000E+01 0.  1.
         15    1    1    2    0    0 -0.17370682178E+02 -0.89893733299E+01  0.61985535075E+02  0.65022409365E+02  0.17770000000E+01 0. -1.
</event>
<event>
 6    1  0.1507019E-006  0.1834762E+03  0.7546771E-02  0.1067680E+00
        -11   -1    0    0    0    0  0.00000000000E+00  0.00000000000E+00  0.18250000000E+03  0.18250000000E+03  0.00000000000E+00 0.  1.
         11   -1    0    0    0    0 -0.00000000000E+00 -0.00000000000E+00 -0.18250000000E+03  0.18250000000E+03  0.00000000000E+00 0. -1.
        -11    1    1    2    0    0 -0.64695434004E+02  0.25231093101E+02  0.16771634539E+03  0.18152377186E+03  0.00000000000E+00 0.  1.
         11    1    1    2    0    0  0.65270531000E+01 -0.77089263780E+01 -0.12063625864E+02  0.15734072488E+02  0.00000000000E+00 0. -1.
        -15    1    1    2    0    0  0.33428508206E+02 -0.12775448205E+02 -0.10834333419E+03  0.11411447336E+03  0.17770000000E+01 0. -1.
         15    1    1    2    0    0  0.24739872698E+02 -0.47467185177E+01 -0.47309385338E+02  0.53627682291E+02  0.17770000000E+01 0.  1.
</event>
<event>
 6    1  0.1507019E-006  0.1242832E+03  0.7546771E-02  0.1127411E+00
        -11   -1    0    0    0    0  0.00000000000E+00  0.00000000000E+00  0.18250000000E+03  0.18250000000E+03  0.00000000000E+00 0.  1.
         11   -1    0    0    0    0 -0.00000000000E+00 -0.00000000000E+00 -0.18250000000E+03  0.18250000000E+03  0.00000000000E+00 0. -1.
        -11    1    1    2    0    0  0.10105264262E+03 -0.20740726438E+02  0.13359954690E+03  0.16879174519E+03  0.00000000000E+00 0.  1.
         11    1    1    2    0    0 -0.89373343452E+02  0.18028991120E+02 -0.36673654115E+02  0.98273068268E+02  0.00000000000E+00 0. -1.
        -15    1    1    2    0    0 -0.15137820316E+01 -0.41679217458E+00 -0.34773817720E+02  0.34854574730E+02  0.17770000000E+01 0.  1.
         15    1    1    2    0    0 -0.10165517141E+02  0.31285274929E+01 -0.62152075059E+02  0.63080611809E+02  0.17770000000E+01 0. -1.
</event>
<event>
 6    1  0.1507019E-006  0.1893950E+03  0.7546771E-02  0.1063095E+00
        -11   -1    0    0    0    0  0.00000000000E+00  0.00000000000E+00  0.18250000000E+03  0.18250000000E+03  0.00000000000E+00 0.  1.
         11   -1    0    0    0    0 -0.00000000000E+00 -0.00000000000E+00 -0.18250000000E+03  0.18250000000E+03  0.00000000000E+00 0.  1.
        -11    1    1    2    0    0  0.67744479861E+01  0.45333277044E+02  0.68770473103E+02  0.82646095636E+02  0.00000000000E+00 0.  1.
         11    1    1    2    0    0 -0.37254269288E+00 -0.38486514857E+02 -0.17133520208E+03  0.17560496031E+03  0.00000000000E+00 0.  1.
        -15    1    1    2    0    0 -0.52513076509E+01 -0.16903876058E+02  0.47259739234E+02  0.50497108227E+02  0.17770000000E+01 0. -1.
         15    1    1    2    0    0 -0.11505976424E+01  0.10057113872E+02  0.55304989742E+02  0.56251835826E+02  0.17770000000E+01 0.  1.
</event>
<event>
 6    1  0.1507019E-006  0.1361307E+03  0.7546771E-02  0.1112845E+00
        -11   -1    0    0    0    0  0.00000000000E+00  0.00000000000E+00  0.18250000000E+03  0.18250000000E+03  0.00000000000E+00 0. -1.
         11   -1    0    0    0    0 -0.00000000000E+00 -0.00000000000E+00 -0.18250000000E+03  0.18250000000E+03  0.00000000000E+00 0. -1.
        -11    1    1    2    0    0 -0.11445595918E+03  0.21748962831E+02  0.75655418506E+02  0.13891337706E+03  0.00000000000E+00 0. -1.
         11    1    1    2    0    0  0.48094939015E+02 -0.63733124637E+02  0.32087846642E+02  0.86050358727E+02  0.00000000000E+00 0. -1.
        -15    1    1    2    0    0 -0.53316916774E+00 -0.44422540875E+01 -0.18929045910E+02  0.19531625606E+02  0.17770000000E+01 0.  1.
         15    1    1    2    0    0  0.66894189331E+02  0.46426415893E+02 -0.88814219238E+02  0.12050463861E+03  0.17770000000E+01 0. -1.
</event>
<event>
 6    1  0.1507019E-006  0.1293601E+03  0.7546771E-02  0.1120958E+00
        -11   -1    0    0    0    0  0.00000000000E+00  0.00000000000E+00  0.18250000000E+03  0.18250000000E+03  0.00000000000E+00 0.  1.
         11   -1    0    0    0    0 -0.00000000000E+00 -0.00000000000E+00 -0.18250000000E+03  0.18250000000E+03  0.00000000000E+00 0. -1.
        -11    1    1    2    0    0  0.94437438166E+02  0.19339374428E+02  0.50103664471E+02  0.10864077653E+03  0.00000000000E+00 0.  1.
         11    1    1    2    0    0 -0.75720090029E+02  0.60287093406E+02 -0.93889010008E+02  0.13484514031E+03  0.00000000000E+00 0. -1.
        -15    1    1    2    0    0  0.40665734800E+01 -0.70839109931E+02 -0.42198462732E+00  0.70979238625E+02  0.17770000000E+01 0. -1.
         15    1    1    2    0    0 -0.22783921618E+02 -0.87873579027E+01  0.44207330164E+02  0.50534844538E+02  0.17770000000E+01 0.  1.
</event>
<event>
 6    1  0.1507019E-006  0.1838909E+03  0.7546771E-02  0.1067353E+00
        -11   -1    0    0    0    0  0.00000000000E+00  0.00000000000E+00  0.18250000000E+03  0.18250000000E+03  0.00000000000E+00 0.  1.
         11   -1    0    0    0    0 -0.00000000000E+00 -0.00000000000E+00 -0.18250000000E+03  0.18250000000E+03  0.00000000000E+00 0. -1.
        -11    1    1    2    0    0 -0.30833924428E+02 -0.43152989882E+02  0.17316928495E+03  0.18110911816E+03  0.00000000000E+00 0.  1.
         11    1    1    2    0    0  0.18255966746E+02  0.34759750029E+02 -0.12954370338E+03  0.13536281480E+03  0.00000000000E+00 0. -1.
        -15    1    1    2    0    0  0.14438436641E+02  0.84384517868E+01 -0.42524397270E+02  0.45729181202E+02  0.17770000000E+01 0. -1.
         15    1    1    2    0    0 -0.18604789592E+01 -0.45211934257E-01 -0.11011842995E+01  0.27988858387E+01  0.17770000000E+01 0. -1.
</event>
<event>
 6    1  0.1507019E-006  0.1647936E+03  0.7546771E-02  0.1083493E+00
        -11   -1    0    0    0    0  0.00000000000E+00  0.00000000000E+00  0.18250000000E+03  0.18250000000E+03  0.00000000000E+00 0. -1.
         11   -1    0    0    0    0 -0.00000000000E+00 -0.00000000000E+00 -0.18250000000E+03  0.18250000000E+03  0.00000000000E+00 0.  1.
        -11    1    1    2    0    0  0.64758328651E+02 -0.14281801001E+03  0.59326696863E+02  0.16766121219E+03  0.00000000000E+00 0. -1.
         11    1    1    2    0    0 -0.62592292827E+02  0.14861435210E+03 -0.27239561437E+02  0.16354208779E+03  0.00000000000E+00 0.  1.
        -15    1    1    2    0    0 -0.25592847822E+01 -0.64489627328E+01 -0.15241051548E+02  0.16840024947E+02  0.17770000000E+01 0.  1.
         15    1    1    2    0    0  0.39324895825E+00  0.65262064049E+00 -0.16846083878E+02  0.16956675071E+02  0.17770000000E+01 0. -1.
</event>
<event>
 6    1  0.1507019E-006  0.1288167E+03  0.7546771E-02  0.1121633E+00
        -11   -1    0    0    0    0  0.00000000000E+00  0.00000000000E+00  0.18250000000E+03  0.18250000000E+03  0.00000000000E+00 0.  1.
         11   -1    0    0    0    0 -0.00000000000E+00 -0.00000000000E+00 -0.18250000000E+03  0.18250000000E+03  0.00000000000E+00 0.  1.
        -11    1    1    2    0    0 -0.89269285477E+02 -0.25379247867E+02  0.13680210700E+03  0.16531160888E+03  0.00000000000E+00 0.  1.
         11    1    1    2    0    0  0.84787274824E+02 -0.18626599655E+02 -0.61891653341E+02  0.10661336192E+03  0.00000000000E+00 0.  1.
        -15    1    1    2    0    0 -0.11157684019E+01 -0.45270626517E+01 -0.14660842783E+02  0.15486680584E+02  0.17770000000E+01 0. -1.
         15    1    1    2    0    0  0.55977790549E+01  0.48532910173E+02 -0.60249610877E+02  0.77588348610E+02  0.17770000000E+01 0.  1.
</event>
<event>
 6    1  0.1507019E-006  0.1826798E+03  0.7546771E-02  0.1068312E+00
        -11   -1    0    0    0    0  0.00000000000E+00  0.00000000000E+00  0.18250000000E+03  0.18250000000E+03  0.00000000000E+00 0.  1.
         11   -1    0    0    0    0 -0.00000000000E+00 -0.00000000000E+00 -0.18250000000E+03  0.18250000000E+03  0.00000000000E+00 0.  1.
        -11    1    1    2    0    0 -0.24767551255E+02 -0.44779942336E+01  0.18057451358E+03  0.18232015517E+03  0.00000000000E+00 0.  1.
         11    1    1    2    0    0  0.14257207545E+02  0.24965657442E+01 -0.11913983873E+03  0.12001584054E+03  0.00000000000E+00 0.  1.
        -15    1    1    2    0    0  0.36965120675E+01  0.28029754731E+01 -0.18869794552E+02  0.19512758606E+02  0.17770000000E+01 0. -1.
         15    1    1    2    0    0  0.68138316425E+01 -0.82154698361E+00 -0.42564880292E+02  0.43151245687E+02  0.17770000000E+01 0.  1.
</event>
<event>
 6    1  0.1507019E-006  0.1248161E+03  0.7546771E-02  0.1126717E+00
        -11   -1    0    0    0    0  0.00000000000E+00  0.00000000000E+00  0.18250000000E+03  0.18250000000E+03  0.00000000000E+00 0.  1.
         11   -1    0    0    0    0 -0.00000000000E+00 -0.00000000000E+00 -0.18250000000E+03  0.18250000000E+03  0.00000000000E+00 0.  1.
        -11    1    1    2    0    0 -0.55415345343E+02  0.68329234190E+00 -0.81559975891E+02  0.98607084204E+02  0.00000000000E+00 0.  1.
         11    1    1    2    0    0 -0.78680218174E+02  0.62113418978E+00  0.10196109626E+03  0.12879063510E+03  0.00000000000E+00 0.  1.
        -15    1    1    2    0    0  0.13164806368E+03 -0.41477999558E+01 -0.18435446590E+02  0.13300917387E+03  0.17770000000E+01 0.  1.
         15    1    1    2    0    0  0.24474998402E+01  0.28433734241E+01 -0.19656737757E+01  0.45931068232E+01  0.17770000000E+01 0. -1.
</event>
<event>
 6    1  0.1507019E-006  0.1875134E+03  0.7546771E-02  0.1064533E+00
        -11   -1    0    0    0    0  0.00000000000E+00  0.00000000000E+00  0.18250000000E+03  0.18250000000E+03  0.00000000000E+00 0.  1.
         11   -1    0    0    0    0 -0.00000000000E+00 -0.00000000000E+00 -0.18250000000E+03  0.18250000000E+03  0.00000000000E+00 0.  1.
        -11    1    1    2    0    0 -0.58860162939E+02  0.16728354455E+03 -0.72924467798E+01  0.17748657086E+03  0.00000000000E+00 0.  1.
         11    1    1    2    0    0  0.52116675627E+02 -0.16041999898E+03  0.12626403892E+02  0.16914535177E+03  0.00000000000E+00 0.  1.
        -15    1    1    2    0    0 -0.29051754604E+01 -0.92832815169E+00  0.26345690796E+01  0.44046022350E+01  0.17770000000E+01 0.  1.
         15    1    1    2    0    0  0.96486627725E+01 -0.59352174154E+01 -0.79685261915E+01  0.13963475131E+02  0.17770000000E+01 0. -1.
</event>
<event>
 6    1  0.1507019E-006  0.1844811E+03  0.7546771E-02  0.1066889E+00
        -11   -1    0    0    0    0  0.00000000000E+00  0.00000000000E+00  0.18250000000E+03  0.18250000000E+03  0.00000000000E+00 0. -1.
         11   -1    0    0    0    0 -0.00000000000E+00 -0.00000000000E+00 -0.18250000000E+03  0.18250000000E+03  0.00000000000E+00 0.  1.
        -11    1    1    2    0    0 -0.86705643418E+02  0.11059887615E+02  0.14757493461E+03  0.17151836940E+03  0.00000000000E+00 0. -1.
         11    1    1    2    0    0  0.87242645501E+02 -0.50995044300E+01 -0.15795499601E+03  0.18051887686E+03  0.00000000000E+00 0.  1.
        -15    1    1    2    0    0 -0.10156797215E+01 -0.83961326588E+00  0.40543982734E+01  0.46187043738E+01  0.17770000000E+01 0.  1.
         15    1    1    2    0    0  0.47867763866E+00 -0.51207699194E+01  0.63256631242E+01  0.83440493653E+01  0.17770000000E+01 0. -1.
</event>
<event>
 6    1  0.1507019E-006  0.1892151E+03  0.7546771E-02  0.1063232E+00
        -11   -1    0    0    0    0  0.00000000000E+00  0.00000000000E+00  0.18250000000E+03  0.18250000000E+03  0.00000000000E+00 0.  1.
         11   -1    0    0    0    0 -0.00000000000E+00 -0.00000000000E+00 -0.18250000000E+03  0.18250000000E+03  0.00000000000E+00 0.  1.
        -11    1    1    2    0    0 -0.60684662675E+02  0.75539987830E+02  0.14666768859E+03  0.17578489390E+03  0.00000000000E+00 0.  1.
         11    1    1    2    0    0  0.44646741907E+02 -0.81722979191E+02 -0.89467673476E+02  0.12913729704E+03  0.00000000000E+00 0.  1.
        -15    1    1    2    0    0  0.34897964387E+01  0.92086063624E+00 -0.74124580122E+01  0.84337966704E+01  0.17770000000E+01 0.  1.
         15    1    1    2    0    0  0.12548124329E+02  0.52621307245E+01 -0.49787557105E+02  0.51644012387E+02  0.17770000000E+01 0.  1.
</event>
<event>
 6    1  0.1507019E-006  0.1897493E+03  0.7546771E-02  0.1062826E+00
        -11   -1    0    0    0    0  0.00000000000E+00  0.00000000000E+00  0.18250000000E+03  0.18250000000E+03  0.00000000000E+00 0.  1.
         11   -1    0    0    0    0 -0.00000000000E+00 -0.00000000000E+00 -0.18250000000E+03  0.18250000000E+03  0.00000000000E+00 0. -1.
        -11    1    1    2    0    0  0.31271967149E+02 -0.36118229109E+02  0.57317773470E+02  0.74617622308E+02  0.00000000000E+00 0.  1.
         11    1    1    2    0    0 -0.40268390419E+02  0.17214159648E+02 -0.16969073293E+03  0.17525072155E+03  0.00000000000E+00 0. -1.
        -15    1    1    2    0    0  0.43736886520E+01  0.19131048213E+02  0.96922036743E+02  0.98904828465E+02  0.17770000000E+01 0.  1.
         15    1    1    2    0    0  0.46227346179E+01 -0.22697875158E+00  0.15450922719E+02  0.16226827681E+02  0.17770000000E+01 0. -1.
</event>
<event>
 6    1  0.1507019E-006  0.1182563E+03  0.7546771E-02  0.1135528E+00
        -11   -1    0    0    0    0  0.00000000000E+00  0.00000000000E+00  0.18250000000E+03  0.18250000000E+03  0.00000000000E+00 0. -1.
         11   -1    0    0    0    0 -0.00000000000E+00 -0.00000000000E+00 -0.18250000000E+03  0.18250000000E+03  0.00000000000E+00 0. -1.
        -11    1    1    2    0    0 -0.12264727696E+03 -0.22359108628E+02  0.49668671570E+02  0.13419858874E+03  0.00000000000E+00 0. -1.
         11    1    1    2    0    0  0.10008824469E+03  0.57703210012E+02  0.46868304029E+02  0.12467539891E+03  0.00000000000E+00 0. -1.
        -15    1    1    2    0    0  0.24967570048E+01 -0.14737121634E+02 -0.28288477177E+02  0.32043910803E+02  0.17770000000E+01 0.  1.
         15    1    1    2    0    0  0.20062275269E+02 -0.20606979750E+02 -0.68248498422E+02  0.74082101544E+02  0.17770000000E+01 0. -1.
</event>
<event>
 6    1  0.1507019E-006  0.1359980E+03  0.7546771E-02  0.1112999E+00
        -11   -1    0    0    0    0  0.00000000000E+00  0.00000000000E+00  0.18250000000E+03  0.18250000000E+03  0.00000000000E+00 0.  1.
         11   -1    0    0    0    0 -0.00000000000E+00 -0.00000000000E+00 -0.18250000000E+03  0.18250000000E+03  0.00000000000E+00 0. -1.
        -11    1    1    2    0    0  0.48588993152E+02  0.81938725176E+02  0.65196756096E+02  0.11543596469E+03  0.00000000000E+00 0.  1.
         11    1    1    2    0    0 -0.55589940109E+02 -0.68009951025E+02 -0.14312995917E+03  0.16793385630E+03  0.00000000000E+00 0. -1.
        -15    1    1    2    0    0  0.95114197716E+01 -0.15746894374E+01  0.49723678277E+02  0.50680851051E+02  0.17770000000E+01 0.  1.
         15    1    1    2    0    0 -0.25104728139E+01 -0.12354084714E+02  0.28209524795E+02  0.30949327958E+02  0.17770000000E+01 0. -1.
</event>
<event>
 6    1  0.1507019E-006  0.1833352E+03  0.7546771E-02  0.1067792E+00
        -11   -1    0    0    0    0  0.00000000000E+00  0.00000000000E+00  0.18250000000E+03  0.18250000000E+03  0.00000000000E+00 0. -1.
         11   -1    0    0    0    0 -0.00000000000E+00 -0.00000000000E+00 -0.18250000000E+03  0.18250000000E+03  0.00000000000E+00 0. -1.
        -11    1    1    2    0    0  0.40835741444E+02 -0.38918744614E+02  0.13341530780E+03  0.14485120233E+03  0.00000000000E+00 0. -1.
         11    1    1    2    0    0 -0.56692716127E+02  0.41212628027E+02 -0.16759938344E+03  0.18166479599E+03  0.00000000000E+00 0. -1.
        -15    1    1    2    0    0  0.69203418513E+01 -0.17857945597E+01  0.86075224530E+01  0.11328166901E+02  0.17770000000E+01 0. -1.
         15    1    1    2    0    0  0.89366328320E+01 -0.50808885309E+00  0.25576553191E+02  0.27155834783E+02  0.17770000000E+01 0.  1.
</event>
<event>
 6    1  0.1507019E-006  0.1857257E+03  0.7546771E-02  0.1065916E+00
        -11   -1    0    0    0    0  0.00000000000E+00  0.00000000000E+00  0.18250000000E+03  0.18250000000E+03  0.00000000000E+00 0.  1.
         11   -1    0    0    0    0 -0.00000000000E+00 -0.00000000000E+00 -0.18250000000E+03  0.18250000000E+03  0.00000000000E+00 0. -1.
        -11    1    1    2    0    0  0.81408634323E+02  0.29055081329E+01  0.11624566519E+03  0.14194668857E+03  0.00000000000E+00 0.  1.
         11    1    1    2    0    0 -0.81293277428E+02 -0.74670700598E+00 -0.15978153057E+03  0.17927434853E+03  0.00000000000E+00 0. -1.
        -15    1    1    2    0    0 -0.72358437206E+00 -0.18378326848E+01  0.28290383221E+02  0.28414867853E+02  0.17770000000E+01 0.  1.
         15    1    1    2    0    0  0.60822747717E+00 -0.32096844205E+00  0.15245482166E+02  0.15364095056E+02  0.17770000000E+01 0.  1.
</event>
<event>
 6    1  0.1507019E-006  0.1946921E+03  0.7546771E-02  0.1059144E+00
        -11   -1    0    0    0    0  0.00000000000E+00  0.00000000000E+00  0.18250000000E+03  0.18250000000E+03  0.00000000000E+00 0.  1.
         11   -1    0    0    0    0 -0.00000000000E+00 -0.00000000000E+00 -0.18250000000E+03  0.18250000000E+03  0.00000000000E+00 0. -1.
        -11    1    1    2    0    0  0.94059537580E+00  0.61143781900E+02  0.15895068069E+03  0.17030785559E+03  0.00000000000E+00 0.  1.
         11    1    1    2    0    0 -0.22986420326E+02 -0.67128814267E+02 -0.61607881050E+02  0.93969059970E+02  0.00000000000E+00 0. -1.
        -15    1    1    2    0    0  0.12687022849E+02  0.88899873658E+01 -0.51398582689E+02  0.53711865128E+02  0.17770000000E+01 0. -1.
         15    1    1    2    0    0  0.93588021010E+01 -0.29049549984E+01 -0.45944216953E+02  0.47011219307E+02  0.17770000000E+01 0.  1.
</event>
<event>
 6    1  0.1507019E-006  0.1476245E+03  0.7546771E-02  0.1100198E+00
        -11   -1    0    0    0    0  0.00000000000E+00  0.00000000000E+00  0.18250000000E+03  0.18250000000E+03  0.00000000000E+00 0.  1.
         11   -1    0    0    0    0 -0.00000000000E+00 -0.00000000000E+00 -0.18250000000E+03  0.18250000000E+03  0.00000000000E+00 0. -1.
        -11    1    1    2    0    0 -0.51266327130E+01 -0.10482341965E+03  0.83841322040E+02  0.13432646407E+03  0.00000000000E+00 0.  1.
         11    1    1    2    0    0  0.25763326814E+02  0.87640339565E+02 -0.14037931656E+03  0.16748412058E+03  0.00000000000E+00 0. -1.
        -15    1    1    2    0    0 -0.16591978123E+02  0.16893829080E+02  0.48916071706E+02  0.54374948268E+02  0.17770000000E+01 0.  1.
         15    1    1    2    0    0 -0.40447159772E+01  0.28925100190E+00  0.76219228158E+01  0.88144670791E+01  0.17770000000E+01 0.  1.
</event>
<event>
 6    1  0.1717249E-006  0.1845991E+03  0.7546771E-02  0.1066796E+00
        -11   -1    0    0    0    0  0.00000000000E+00  0.00000000000E+00  0.18250000000E+03  0.18250000000E+03  0.00000000000E+00 0. -1.
         11   -1    0    0    0    0 -0.00000000000E+00 -0.00000000000E+00 -0.18250000000E+03  0.18250000000E+03  0.00000000000E+00 0.  1.
        -11    1    1    2    0    0  0.36080561041E+02 -0.40500107897E+02  0.12371485452E+03  0.13508305169E+03  0.00000000000E+00 0. -1.
         11    1    1    2    0    0 -0.29793463613E+02  0.47747474686E+02 -0.17139727716E+03  0.18040093800E+03  0.00000000000E+00 0.  1.
        -15    1    1    2    0    0 -0.70312062295E+01 -0.28279571131E+01  0.20887272992E+02  0.22290605746E+02  0.17770000000E+01 0. -1.
         15    1    1    2    0    0  0.74410880130E+00 -0.44194096753E+01  0.26795149651E+02  0.27225404562E+02  0.17770000000E+01 0.  1.
</event>
<event>
 6    1  0.1507019E-006  0.1879185E+03  0.7546771E-02  0.1064222E+00
        -11   -1    0    0    0    0  0.00000000000E+00  0.00000000000E+00  0.18250000000E+03  0.18250000000E+03  0.00000000000E+00 0. -1.
         11   -1    0    0    0    0 -0.00000000000E+00 -0.00000000000E+00 -0.18250000000E+03  0.18250000000E+03  0.00000000000E+00 0.  1.
        -11    1    1    2    0    0  0.26648750951E+02  0.47204020992E+02  0.16858080826E+03  0.17708151919E+03  0.00000000000E+00 0. -1.
         11    1    1    2    0    0 -0.38198186091E+02 -0.42690884510E+02 -0.83531451862E+02  0.10128729679E+03  0.00000000000E+00 0.  1.
        -15    1    1    2    0    0  0.89081052944E+01 -0.55440093409E+01 -0.37971003287E+02  0.39434061408E+02  0.17770000000E+01 0.  1.
         15    1    1    2    0    0  0.26413298465E+01  0.10308728581E+01 -0.47078353111E+02  0.47197122612E+02  0.17770000000E+01 0. -1.
</event>
<event>
 6    1  0.1507019E-006  0.1886526E+03  0.7546771E-02  0.1063660E+00
        -11   -1    0    0    0    0  0.00000000000E+00  0.00000000000E+00  0.18250000000E+03  0.18250000000E+03  0.00000000000E+00 0. -1.
         11   -1    0    0    0    0 -0.00000000000E+00 -0.00000000000E+00 -0.18250000000E+03  0.18250000000E+03  0.00000000000E+00 0.  1.
        -11    1    1    2    0    0 -0.31986041153E+02  0.11810768026E+03  0.12698767685E+03  0.17634738738E+03  0.00000000000E+00 0. -1.
         11    1    1    2    0    0  0.34952101081E+02 -0.11664343275E+03 -0.12454105964E+03  0.17417753963E+03  0.00000000000E+00 0.  1.
        -15    1    1    2    0    0 -0.22888663947E+01 -0.21365054330E+00 -0.79796616285E+01  0.84921896254E+01  0.17770000000E+01 0.  1.
         15    1    1    2    0    0 -0.67719353286E+00 -0.12505969619E+01  0.55330444147E+01  0.59828833631E+01  0.17770000000E+01 0. -1.
</event>
<event>
 6    1  0.1507019E-006  0.1951577E+03  0.7546771E-02  0.1058803E+00
        -11   -1    0    0    0    0  0.00000000000E+00  0.00000000000E+00  0.18250000000E+03  0.18250000000E+03  0.00000000000E+00 0.  1.
         11   -1    0    0    0    0 -0.00000000000E+00 -0.00000000000E+00 -0.18250000000E+03  0.18250000000E+03  0.00000000000E+00 0.  1.
        -11    1    1    2    0    0  0.33264035700E+02  0.58683980954E+02  0.10394781565E+03  0.12391712582E+03  0.00000000000E+00 0.  1.
         11    1    1    2    0    0 -0.45564843811E+02 -0.30651360309E+02 -0.16071947356E+03  0.16984230940E+03  0.00000000000E+00 0.  1.
        -15    1    1    2    0    0  0.61616570308E+01 -0.31393069881E+02  0.31402712785E+02  0.44864005095E+02  0.17770000000E+01 0.  1.
         15    1    1    2    0    0  0.61391510794E+01  0.33604492347E+01  0.25368945125E+02  0.26376559685E+02  0.17770000000E+01 0. -1.
</event>
<event>
 6    1  0.1507019E-006  0.1908831E+03  0.7546771E-02  0.1061971E+00
        -11   -1    0    0    0    0  0.00000000000E+00  0.00000000000E+00  0.18250000000E+03  0.18250000000E+03  0.00000000000E+00 0. -1.
         11   -1    0    0    0    0 -0.00000000000E+00 -0.00000000000E+00 -0.18250000000E+03  0.18250000000E+03  0.00000000000E+00 0.  1.
        -11    1    1    2    0    0 -0.25765545365E+02 -0.12116184703E+03  0.12236268019E+03  0.17411686308E+03  0.00000000000E+00 0. -1.
         11    1    1    2    0    0  0.25996726505E+02  0.11850933339E+03 -0.78442897817E+02  0.14447691895E+03  0.00000000000E+00 0.  1.
        -15    1    1    2    0    0  0.32050893415E+01 -0.38198823264E+01 -0.72949181078E+01  0.90131935446E+01  0.17770000000E+01 0. -1.
         15    1    1    2    0    0 -0.34362704810E+01  0.64723959639E+01 -0.36624864270E+02  0.37393024432E+02  0.17770000000E+01 0.  1.
</event>
<event>
 6    1  0.1507019E-006  0.1859554E+03  0.7546771E-02  0.1065737E+00
        -11   -1    0    0    0    0  0.00000000000E+00  0.00000000000E+00  0.18250000000E+03  0.18250000000E+03  0.00000000000E+00 0. -1.
         11   -1    0    0    0    0 -0.00000000000E+00 -0.00000000000E+00 -0.18250000000E+03  0.18250000000E+03  0.00000000000E+00 0.  1.
        -11    1    1    2    0    0  0.33548946720E+02  0.43535958748E+02  0.17039972756E+03  0.17904462762E+03  0.00000000000E+00 0. -1.
         11    1    1    2    0    0 -0.36279859014E+02 -0.36964442465E+02 -0.15436039336E+03  0.16281808626E+03  0.00000000000E+00 0.  1.
        -15    1    1    2    0    0  0.44283374258E+01 -0.79097615570E+01 -0.17640917141E+02  0.19913166167E+02  0.17770000000E+01 0.  1.
         15    1    1    2    0    0 -0.16974251316E+01  0.13382452746E+01  0.16015829439E+01  0.32241199448E+01  0.17770000000E+01 0. -1.
</event>
<event>
 6    1  0.1507019E-006  0.1855364E+03  0.7546771E-02  0.1066063E+00
        -11   -1    0    0    0    0  0.00000000000E+00  0.00000000000E+00  0.18250000000E+03  0.18250000000E+03  0.00000000000E+00 0. -1.
         11   -1    0    0    0    0 -0.00000000000E+00 -0.00000000000E+00 -0.18250000000E+03  0.18250000000E+03  0.00000000000E+00 0. -1.
        -11    1    1    2    0    0  0.32463065803E+02 -0.14722708960E+02  0.60846193807E+02  0.70518565650E+02  0.00000000000E+00 0. -1.
         11    1    1    2    0    0 -0.28306970001E+02  0.35440257808E+02 -0.17363724677E+03  0.17946361718E+03  0.00000000000E+00 0. -1.
        -15    1    1    2    0    0 -0.38455477913E+01 -0.20048133197E+02  0.99480515495E+02  0.10156892524E+03  0.17770000000E+01 0. -1.
         15    1    1    2    0    0 -0.31054801087E+00 -0.66941565218E+00  0.13310537470E+02  0.13448891930E+02  0.17770000000E+01 0.  1.
</event>
<event>
 6    1  0.1507019E-006  0.1865598E+03  0.7546771E-02  0.1065268E+00
        -11   -1    0    0    0    0  0.00000000000E+00  0.00000000000E+00  0.18250000000E+03  0.18250000000E+03  0.00000000000E+00 0. -1.
         11   -1    0    0    0    0 -0.00000000000E+00 -0.00000000000E+00 -0.18250000000E+03  0.18250000000E+03  0.00000000000E+00 0. -1.
        -11    1    1    2    0    0  0.11507350065E+03  0.59578831619E+01  0.13624790889E+03  0.17844018494E+03  0.00000000000E+00 0. -1.
         11    1    1    2    0    0 -0.11633806440E+03 -0.59924556431E+01 -0.11230376992E+03  0.16181035657E+03  0.00000000000E+00 0. -1.
        -15    1    1    2    0    0 -0.18551964112E+01  0.56940319324E+00 -0.98631152105E+01  0.10208072510E+02  0.17770000000E+01 0. -1.
         15    1    1    2    0    0  0.31197601643E+01 -0.53483071211E+00 -0.14081023758E+02  0.14541385988E+02  0.17770000000E+01 0.  1.
</event>
<event>
 6    1  0.1507019E-006  0.1683642E+03  0.7546771E-02  0.1080299E+00
        -11   -1    0    0    0    0  0.00000000000E+00  0.00000000000E+00  0.18250000000E+03  0.18250000000E+03  0.00000000000E+00 0. -1.
         11   -1    0    0    0    0 -0.00000000000E+00 -0.00000000000E+00 -0.18250000000E+03  0.18250000000E+03  0.00000000000E+00 0.  1.
        -11    1    1    2    0    0  0.47968823096E+02  0.14399998695E+03  0.84735201750E+02  0.17383054578E+03  0.00000000000E+00 0. -1.
         11    1    1    2    0    0 -0.51473004869E+02 -0.14391618840E+03 -0.59141480780E+02  0.16388732185E+03  0.00000000000E+00 0.  1.
        -15    1    1    2    0    0  0.31374923214E+01  0.25751786735E+01 -0.61855910937E+01  0.76088546737E+01  0.17770000000E+01 0. -1.
         15    1    1    2    0    0  0.36668945140E+00 -0.26589772269E+01 -0.19408129876E+02  0.19673277696E+02  0.17770000000E+01 0.  1.
</event>
<event>
 6    1  0.1507019E-006  0.1282497E+03  0.7546771E-02  0.1122341E+00
        -11   -1    0    0    0    0  0.00000000000E+00  0.00000000000E+00  0.18250000000E+03  0.18250000000E+03  0.00000000000E+00 0. -1.
         11   -1    0    0    0    0 -0.00000000000E+00 -0.00000000000E+00 -0.18250000000E+03  0.18250000000E+03  0.00000000000E+00 0.  1.
        -11    1    1    2    0    0  0.20169822837E+02  0.20891479474E+02  0.15040955905E+03  0.15318717675E+03  0.00000000000E+00 0. -1.
         11    1    1    2    0    0 -0.14826000395E+02  0.12198633625E+02  0.61378202842E+01  0.20156631362E+02  0.00000000000E+00 0.  1.
        -15    1    1    2    0    0 -0.45189260784E+02 -0.38115175457E+02 -0.48879073205E+02  0.76727813840E+02  0.17770000000E+01 0. -1.
         15    1    1    2    0    0  0.39845438341E+02  0.50250623584E+01 -0.10766830612E+03  0.11492837805E+03  0.17770000000E+01 0.  1.
</event>
<event>
 6    1  0.1507019E-006  0.1241770E+03  0.7546771E-02  0.1127549E+00
        -11   -1    0    0    0    0  0.00000000000E+00  0.00000000000E+00  0.18250000000E+03  0.18250000000E+03  0.00000000000E+00 0.  1.
         11   -1    0    0    0    0 -0.00000000000E+00 -0.00000000000E+00 -0.18250000000E+03  0.18250000000E+03  0.00000000000E+00 0. -1.
        -11    1    1    2    0    0 -0.54468488771E+02  0.11018558448E+02  0.11966195169E+03  0.13193637702E+03  0.00000000000E+00 0.  1.
         11    1    1    2    0    0  0.82898081736E+02 -0.52661549174E+02  0.48130240684E+01  0.98328510197E+02  0.00000000000E+00 0. -1.
        -15    1    1    2    0    0 -0.22061277574E+02  0.38085534825E+02 -0.10739973060E+03  0.11608215967E+03  0.17770000000E+01 0. -1.
         15    1    1    2    0    0 -0.63683153907E+01  0.35574559008E+01 -0.17075245160E+02  0.18652953109E+02  0.17770000000E+01 0.  1.
</event>
<event>
 6    1  0.2246317E-006  0.1870396E+03  0.7546771E-02  0.1064898E+00
        -11   -1    0    0    0    0  0.00000000000E+00  0.00000000000E+00  0.18250000000E+03  0.18250000000E+03  0.00000000000E+00 0.  1.
         11   -1    0    0    0    0 -0.00000000000E+00 -0.00000000000E+00 -0.18250000000E+03  0.18250000000E+03  0.00000000000E+00 0. -1.
        -11    1    1    2    0    0  0.19905098452E+01  0.21574697695E+02  0.16832324405E+02  0.27436414761E+02  0.00000000000E+00 0.  1.
         11    1    1    2    0    0  0.35640437025E+01 -0.24477010373E+02 -0.17623302864E+03  0.17796040804E+03  0.00000000000E+00 0. -1.
        -15    1    1    2    0    0 -0.27252738341E+01 -0.47193092686E+00  0.66321826908E+02  0.66403255114E+02  0.17770000000E+01 0. -1.
         15    1    1    2    0    0 -0.28292797136E+01  0.33742436055E+01  0.93078877328E+02  0.93199922088E+02  0.17770000000E+01 0.  1.
</event>
<event>
 6    1  0.1507019E-006  0.1839714E+03  0.7546771E-02  0.1067290E+00
        -11   -1    0    0    0    0  0.00000000000E+00  0.00000000000E+00  0.18250000000E+03  0.18250000000E+03  0.00000000000E+00 0.  1.
         11   -1    0    0    0    0 -0.00000000000E+00 -0.00000000000E+00 -0.18250000000E+03  0.18250000000E+03  0.00000000000E+00 0. -1.
        -11    1    1    2    0    0 -0.34592151011E+01  0.91667563309E+01  0.13840186021E+03  0.13874822702E+03  0.00000000000E+00 0.  1.
         11    1    1    2    0    0 -0.64924564399E+01 -0.61285846904E+00 -0.18091111704E+03  0.18102861612E+03  0.00000000000E+00 0. -1.
        -15    1    1    2    0    0  0.37456066300E+00 -0.13947245355E+01  0.15016827069E+02  0.15190404090E+02  0.17770000000E+01 0. -1.
         15    1    1    2    0    0  0.95771108780E+01 -0.71591733264E+01  0.27492429763E+02  0.30032752767E+02  0.17770000000E+01 0.  1.
</event>
<event>
 6    1  0.1507019E-006  0.1439923E+03  0.7546771E-02  0.1104053E+00
        -11   -1    0    0    0    0  0.00000000000E+00  0.00000000000E+00  0.18250000000E+03  0.18250000000E+03  0.00000000000E+00 0.  1.
         11   -1    0    0    0    0 -0.00000000000E+00 -0.00000000000E+00 -0.18250000000E+03  0.18250000000E+03  0.00000000000E+00 0. -1.
        -11    1    1    2    0    0  0.13366893703E+02 -0.81949931042E+02  0.12550738195E+03  0.15048776684E+03  0.00000000000E+00 0.  1.
         11    1    1    2    0    0 -0.51700691575E+02  0.36998260189E+02 -0.12866064622E+03  0.14351095656E+03  0.00000000000E+00 0. -1.
        -15    1    1    2    0    0  0.37871317571E+02  0.47562775784E+02 -0.61796649319E+01  0.61137552474E+02  0.17770000000E+01 0.  1.
         15    1    1    2    0    0  0.46248030065E+00 -0.26111049313E+01  0.93329292091E+01  0.98637241249E+01  0.17770000000E+01 0. -1.
</event>
<event>
 6    1  0.1507019E-006  0.1859928E+03  0.7546771E-02  0.1065708E+00
        -11   -1    0    0    0    0  0.00000000000E+00  0.00000000000E+00  0.18250000000E+03  0.18250000000E+03  0.00000000000E+00 0.  1.
         11   -1    0    0    0    0 -0.00000000000E+00 -0.00000000000E+00 -0.18250000000E+03  0.18250000000E+03  0.00000000000E+00 0.  1.
        -11    1    1    2    0    0 -0.76562115035E+02 -0.17131998417E+02  0.16089849600E+03  0.17900723126E+03  0.00000000000E+00 0.  1.
         11    1    1    2    0    0  0.56920834949E+02 -0.42983190766E+01 -0.98321187763E+02  0.11369042599E+03  0.00000000000E+00 0.  1.
        -15    1    1    2    0    0  0.19141579050E+02  0.14440785417E+02 -0.27681153090E+02  0.36665246452E+02  0.17770000000E+01 0. -1.
         15    1    1    2    0    0  0.49970103544E+00  0.69895320771E+01 -0.34896155146E+02  0.35637096301E+02  0.17770000000E+01 0.  1.
</event>
<event>
 6    1  0.1507019E-006  0.1842321E+03  0.7546771E-02  0.1067084E+00
        -11   -1    0    0    0    0  0.00000000000E+00  0.00000000000E+00  0.18250000000E+03  0.18250000000E+03  0.00000000000E+00 0.  1.
         11   -1    0    0    0    0 -0.00000000000E+00 -0.00000000000E+00 -0.18250000000E+03  0.18250000000E+03  0.00000000000E+00 0. -1.
        -11    1    1    2    0    0 -0.54478628076E+02 -0.38496149269E+02  0.16800936247E+03  0.18076786302E+03  0.00000000000E+00 0.  1.
         11    1    1    2    0    0  0.48466672591E+02  0.37433903478E+02 -0.11305137012E+03  0.12857265560E+03  0.00000000000E+00 0. -1.
        -15    1    1    2    0    0  0.58599642577E+01  0.19074577441E+00 -0.29796405461E+02  0.30419715193E+02  0.17770000000E+01 0.  1.
         15    1    1    2    0    0  0.15199122735E+00  0.87150001645E+00 -0.25161586884E+02  0.25239766186E+02  0.17770000000E+01 0. -1.
</event>
<event>
 6    1  0.1507019E-006  0.1832725E+03  0.7546771E-02  0.1067842E+00
        -11   -1    0    0    0    0  0.00000000000E+00  0.00000000000E+00  0.18250000000E+03  0.18250000000E+03  0.00000000000E+00 0.  1.
         11   -1    0    0    0    0 -0.00000000000E+00 -0.00000000000E+00 -0.18250000000E+03  0.18250000000E+03  0.00000000000E+00 0.  1.
        -11    1    1    2    0    0 -0.29208942768E+02  0.60424835185E+01  0.17926296530E+03  0.18172750114E+03  0.00000000000E+00 0.  1.
         11    1    1    2    0    0  0.20714840179E+02 -0.26301422873E+01 -0.82060822772E+02  0.84675857752E+02  0.00000000000E+00 0.  1.
        -15    1    1    2    0    0  0.94297017211E+01 -0.33657472663E+01 -0.95264323470E+02  0.95805514374E+02  0.17770000000E+01 0.  1.
         15    1    1    2    0    0 -0.93559913242E+00 -0.46593964904E-01 -0.19378190555E+01  0.27911267306E+01  0.17770000000E+01 0. -1.
</event>
<event>
 6    1  0.1507019E-006  0.1897710E+03  0.7546771E-02  0.1062810E+00
        -11   -1    0    0    0    0  0.00000000000E+00  0.00000000000E+00  0.18250000000E+03  0.18250000000E+03  0.00000000000E+00 0.  1.
         11   -1    0    0    0    0 -0.00000000000E+00 -0.00000000000E+00 -0.18250000000E+03  0.18250000000E+03  0.00000000000E+00 0. -1.
        -11    1    1    2    0    0 -0.75297606509E+02  0.68707923250E+02  0.14252956602E+03  0.17522895153E+03  0.00000000000E+00 0.  1.
         11    1    1    2    0    0  0.66033303668E+02 -0.35024440987E+02 -0.99393606770E+02  0.12436316869E+03  0.00000000000E+00 0. -1.
        -15    1    1    2    0    0  0.16441707271E+02 -0.30267294270E+02 -0.45342052471E+02  0.56969274979E+02  0.17770000000E+01 0. -1.
         15    1    1    2    0    0 -0.71774044300E+01 -0.34161879934E+01  0.22060932227E+01  0.84386048057E+01  0.17770000000E+01 0.  1.
</event>
<event>
 6    1  0.1507019E-006  0.1593630E+03  0.7546771E-02  0.1088526E+00
        -11   -1    0    0    0    0  0.00000000000E+00  0.00000000000E+00  0.18250000000E+03  0.18250000000E+03  0.00000000000E+00 0. -1.
         11   -1    0    0    0    0 -0.00000000000E+00 -0.00000000000E+00 -0.18250000000E+03  0.18250000000E+03  0.00000000000E+00 0.  1.
        -11    1    1    2    0    0  0.16577066995E+02  0.49532382716E+02  0.16261715980E+03  0.17079987338E+03  0.00000000000E+00 0. -1.
         11    1    1    2    0    0  0.31332930819E+01 -0.70630965789E+02 -0.13297429985E+03  0.15060117952E+03  0.00000000000E+00 0.  1.
        -15    1    1    2    0    0 -0.97718444562E+00 -0.11352578558E+01 -0.46423745612E+00  0.23700095476E+01  0.17770000000E+01 0.  1.
         15    1    1    2    0    0 -0.18733175631E+02  0.22233840929E+02 -0.29178622493E+02  0.41228937547E+02  0.17770000000E+01 0.  1.
</event>
<event>
 6    1  0.1507019E-006  0.1279918E+03  0.7546771E-02  0.1122665E+00
        -11   -1    0    0    0    0  0.00000000000E+00  0.00000000000E+00  0.18250000000E+03  0.18250000000E+03  0.00000000000E+00 0.  1.
         11   -1    0    0    0    0 -0.00000000000E+00 -0.00000000000E+00 -0.18250000000E+03  0.18250000000E+03  0.00000000000E+00 0.  1.
        -11    1    1    2    0    0 -0.95260035786E+02 -0.28694082787E+01  0.70540424913E+02  0.11856921805E+03  0.00000000000E+00 0.  1.
         11    1    1    2    0    0  0.46541966073E+02  0.32904230647E+02 -0.14242332306E+03  0.15340549518E+03  0.00000000000E+00 0.  1.
        -15    1    1    2    0    0  0.60263899583E+00 -0.64125137814E+00  0.58517578588E+01  0.61786063257E+01  0.17770000000E+01 0. -1.
         15    1    1    2    0    0  0.48115430718E+02 -0.29393570991E+02  0.66031140284E+02  0.86846680448E+02  0.17770000000E+01 0.  1.
</event>
<event>
 6    1  0.1507019E-006  0.1880011E+03  0.7546771E-02  0.1064158E+00
        -11   -1    0    0    0    0  0.00000000000E+00  0.00000000000E+00  0.18250000000E+03  0.18250000000E+03  0.00000000000E+00 0. -1.
         11   -1    0    0    0    0 -0.00000000000E+00 -0.00000000000E+00 -0.18250000000E+03  0.18250000000E+03  0.00000000000E+00 0.  1.
        -11    1    1    2    0    0 -0.30233637602E+02 -0.85159676829E+01  0.17418959893E+03  0.17699890091E+03  0.00000000000E+00 0. -1.
         11    1    1    2    0    0 -0.11481748142E+02  0.11256669397E+02 -0.54742220085E+02  0.57054831576E+02  0.00000000000E+00 0.  1.
        -15    1    1    2    0    0  0.76778553854E+01  0.10903402859E+02 -0.14582444901E+02  0.19840339854E+02  0.17770000000E+01 0. -1.
         15    1    1    2    0    0  0.34037530359E+02 -0.13644104573E+02 -0.10486493394E+03  0.11110592766E+03  0.17770000000E+01 0.  1.
</event>
<event>
 6    1  0.1507019E-006  0.1655598E+03  0.7546771E-02  0.1082801E+00
        -11   -1    0    0    0    0  0.00000000000E+00  0.00000000000E+00  0.18250000000E+03  0.18250000000E+03  0.00000000000E+00 0. -1.
         11   -1    0    0    0    0 -0.00000000000E+00 -0.00000000000E+00 -0.18250000000E+03  0.18250000000E+03  0.00000000000E+00 0.  1.
        -11    1    1    2    0    0 -0.74785244686E+02  0.13366455100E+03  0.68541935627E+02  0.16780060178E+03  0.00000000000E+00 0. -1.
         11    1    1    2    0    0  0.82619240338E+02 -0.13657661700E+03 -0.40287264846E+02  0.16462738197E+03  0.00000000000E+00 0.  1.
        -15    1    1    2    0    0 -0.10078596303E+02  0.34136267816E+01 -0.12326410658E+02  0.16380753339E+02  0.17770000000E+01 0.  1.
         15    1    1    2    0    0  0.22446006508E+01 -0.50156078185E+00 -0.15928260124E+02  0.16191262918E+02  0.17770000000E+01 0. -1.
</event>
<event>
 6    1  0.1507019E-006  0.1852003E+03  0.7546771E-02  0.1066325E+00
        -11   -1    0    0    0    0  0.00000000000E+00  0.00000000000E+00  0.18250000000E+03  0.18250000000E+03  0.00000000000E+00 0. -1.
         11   -1    0    0    0    0 -0.00000000000E+00 -0.00000000000E+00 -0.18250000000E+03  0.18250000000E+03  0.00000000000E+00 0.  1.
        -11    1    1    2    0    0 -0.64616611631E+02  0.84719800463E+02  0.12632819343E+03  0.16526210559E+03  0.00000000000E+00 0. -1.
         11    1    1    2    0    0  0.61949065806E+02 -0.89443264899E+02 -0.14314378453E+03  0.17979968698E+03  0.00000000000E+00 0.  1.
        -15    1    1    2    0    0  0.24362749616E+00  0.67624982706E+01  0.12215576122E+02  0.14077242848E+02  0.17770000000E+01 0. -1.
         15    1    1    2    0    0  0.24239183291E+01 -0.20390338347E+01  0.46000149696E+01  0.58609645764E+01  0.17770000000E+01 0.  1.
</event>
<event>
 6    1  0.1507019E-006  0.1677038E+03  0.7546771E-02  0.1080883E+00
        -11   -1    0    0    0    0  0.00000000000E+00  0.00000000000E+00  0.18250000000E+03  0.18250000000E+03  0.00000000000E+00 0.  1.
         11   -1    0    0    0    0 -0.00000000000E+00 -0.00000000000E+00 -0.18250000000E+03  0.18250000000E+03  0.00000000000E+00 0.  1.
        -11    1    1    2    0    0 -0.89087803745E+02 -0.19089343189E+02  0.13917570516E+03  0.16634577454E+03  0.00000000000E+00 0.  1.
         11    1    1    2    0    0  0.10237882788E+03  0.20440461355E+02 -0.13337767056E+03  0.16937780216E+03  0.00000000000E+00 0.  1.
        -15    1    1    2    0    0  0.15703480817E+01  0.22025738442E+01  0.79885624738E+01  0.86192913882E+01  0.17770000000E+01 0. -1.
         15    1    1    2    0    0 -0.14861372221E+02 -0.35536920100E+01 -0.13786597071E+02  0.20657131916E+02  0.17770000000E+01 0.  1.
</event>
<event>
 6    1  0.1507019E-006  0.1504797E+03  0.7546771E-02  0.1097252E+00
        -11   -1    0    0    0    0  0.00000000000E+00  0.00000000000E+00  0.18250000000E+03  0.18250000000E+03  0.00000000000E+00 0.  1.
         11   -1    0    0    0    0 -0.00000000000E+00 -0.00000000000E+00 -0.18250000000E+03  0.18250000000E+03  0.00000000000E+00 0. -1.
        -11    1    1    2    0    0  0.63762310098E+02  0.31125552651E+02  0.15423543000E+03  0.16977337861E+03  0.00000000000E+00 0.  1.
         11    1    1    2    0    0 -0.47136038511E+02 -0.29474188018E+02 -0.20048033921E+02  0.59097018114E+02  0.00000000000E+00 0. -1.
        -15    1    1    2    0    0 -0.13521092338E+02 -0.78642087415E+01 -0.91499778682E+02  0.92844132528E+02  0.17770000000E+01 0. -1.
         15    1    1    2    0    0 -0.31051792489E+01  0.62128441083E+01 -0.42687617397E+02  0.43285470751E+02  0.17770000000E+01 0.  1.
</event>
<event>
 6    1  0.1507019E-006  0.1887120E+03  0.7546771E-02  0.1063615E+00
        -11   -1    0    0    0    0  0.00000000000E+00  0.00000000000E+00  0.18250000000E+03  0.18250000000E+03  0.00000000000E+00 0.  1.
         11   -1    0    0    0    0 -0.00000000000E+00 -0.00000000000E+00 -0.18250000000E+03  0.18250000000E+03  0.00000000000E+00 0. -1.
        -11    1    1    2    0    0 -0.47608327451E+02  0.22975086076E+02  0.16817566478E+03  0.17628800767E+03  0.00000000000E+00 0.  1.
         11    1    1    2    0    0  0.23177588109E+02  0.43704559126E+01 -0.11689855870E+03  0.11925424312E+03  0.00000000000E+00 0. -1.
        -15    1    1    2    0    0  0.30604870929E+02 -0.20363856006E+02 -0.44756247526E+02  0.57945009946E+02  0.17770000000E+01 0.  1.
         15    1    1    2    0    0 -0.61741315878E+01 -0.69816859828E+01 -0.65208585532E+01  0.11512739261E+02  0.17770000000E+01 0. -1.
</event>
<event>
 6    1  0.1507019E-006  0.1828128E+03  0.7546771E-02  0.1068206E+00
        -11   -1    0    0    0    0  0.00000000000E+00  0.00000000000E+00  0.18250000000E+03  0.18250000000E+03  0.00000000000E+00 0.  1.
         11   -1    0    0    0    0 -0.00000000000E+00 -0.00000000000E+00 -0.18250000000E+03  0.18250000000E+03  0.00000000000E+00 0.  1.
        -11    1    1    2    0    0 -0.19669492157E+02 -0.19058355873E+02  0.10005591957E+03  0.10373667091E+03  0.00000000000E+00 0.  1.
         11    1    1    2    0    0  0.27833310353E+02  0.27911975453E+02 -0.17787187886E+03  0.18218720271E+03  0.00000000000E+00 0.  1.
        -15    1    1    2    0    0 -0.42764074321E+01 -0.59793350713E+00  0.30523950629E+02  0.30879029713E+02  0.17770000000E+01 0.  1.
         15    1    1    2    0    0 -0.38874107636E+01 -0.82556860721E+01  0.47292008662E+02  0.48197096668E+02  0.17770000000E+01 0. -1.
</event>
<event>
 6    1  0.1507019E-006  0.1764121E+03  0.7546771E-02  0.1073407E+00
        -11   -1    0    0    0    0  0.00000000000E+00  0.00000000000E+00  0.18250000000E+03  0.18250000000E+03  0.00000000000E+00 0.  1.
         11   -1    0    0    0    0 -0.00000000000E+00 -0.00000000000E+00 -0.18250000000E+03  0.18250000000E+03  0.00000000000E+00 0. -1.
        -11    1    1    2    0    0  0.15474360830E+02  0.86277843545E+02  0.15372761277E+03  0.17696186329E+03  0.00000000000E+00 0.  1.
         11    1    1    2    0    0 -0.21132086458E+02 -0.84241274957E+02 -0.15297933580E+03  0.17591428215E+03  0.00000000000E+00 0. -1.
        -15    1    1    2    0    0  0.69083770099E+01 -0.17232488039E+01 -0.38785906258E+01  0.83003887616E+01  0.17770000000E+01 0.  1.
         15    1    1    2    0    0 -0.12506513816E+01 -0.31331978478E+00  0.31303136501E+01  0.38234657987E+01  0.17770000000E+01 0. -1.
</event>
<event>
 6    1  0.1507019E-006  0.1952680E+03  0.7546771E-02  0.1058723E+00
        -11   -1    0    0    0    0  0.00000000000E+00  0.00000000000E+00  0.18250000000E+03  0.18250000000E+03  0.00000000000E+00 0. -1.
         11   -1    0    0    0    0 -0.00000000000E+00 -0.00000000000E+00 -0.18250000000E+03  0.18250000000E+03  0.00000000000E+00 0. -1.
        -11    1    1    2    0    0  0.14815297359E+03 -0.23781231328E+02 -0.79335302131E+02  0.16973196727E+03  0.00000000000E+00 0. -1.
         11    1    1    2    0    0 -0.12446632946E+03  0.16287451965E+02  0.82370550706E+02  0.15014012083E+03  0.00000000000E+00 0. -1.
        -15    1    1    2    0    0 -0.19529491945E+02 -0.70242859660E+01  0.11752765980E+02  0.23917083563E+02  0.17770000000E+01 0.  1.
         15    1    1    2    0    0 -0.41571521900E+01  0.14518065329E+02 -0.14788014554E+02  0.21210828336E+02  0.17770000000E+01 0. -1.
</event>
<event>
 6    1  0.1507019E-006  0.1834848E+03  0.7546771E-02  0.1067674E+00
        -11   -1    0    0    0    0  0.00000000000E+00  0.00000000000E+00  0.18250000000E+03  0.18250000000E+03  0.00000000000E+00 0.  1.
         11   -1    0    0    0    0 -0.00000000000E+00 -0.00000000000E+00 -0.18250000000E+03  0.18250000000E+03  0.00000000000E+00 0.  1.
        -11    1    1    2    0    0  0.20781508317E+02 -0.54437572738E+02  0.17190827259E+03  0.18151521864E+03  0.00000000000E+00 0.  1.
         11    1    1    2    0    0 -0.12531767989E+02  0.40002298058E+02 -0.91491961033E+02  0.10063800471E+03  0.00000000000E+00 0.  1.
        -15    1    1    2    0    0  0.22665723622E+01  0.39931221716E+01 -0.17079682462E+02  0.17775141545E+02  0.17770000000E+01 0. -1.
         15    1    1    2    0    0 -0.10516312690E+02  0.10442152509E+02 -0.63336629091E+02  0.65071635105E+02  0.17770000000E+01 0.  1.
</event>
<event>
 6    1  0.1507019E-006  0.1187628E+03  0.7546771E-02  0.1134825E+00
        -11   -1    0    0    0    0  0.00000000000E+00  0.00000000000E+00  0.18250000000E+03  0.18250000000E+03  0.00000000000E+00 0.  1.
         11   -1    0    0    0    0 -0.00000000000E+00 -0.00000000000E+00 -0.18250000000E+03  0.18250000000E+03  0.00000000000E+00 0.  1.
        -11    1    1    2    0    0  0.13257931097E+03 -0.20546521768E+02  0.42106060693E+02  0.14061420128E+03  0.00000000000E+00 0.  1.
         11    1    1    2    0    0 -0.10152260396E+03  0.22337551319E+02  0.57784250659E+02  0.11893201813E+03  0.00000000000E+00 0.  1.
        -15    1    1    2    0    0 -0.16504098365E+02 -0.59361230978E+01 -0.65671888678E+02  0.67996893398E+02  0.17770000000E+01 0. -1.
         15    1    1    2    0    0 -0.14552608647E+02  0.41450935465E+01 -0.34218422674E+02  0.37456887193E+02  0.17770000000E+01 0.  1.
</event>
<event>
 6    1  0.1507019E-006  0.1432263E+03  0.7546771E-02  0.1104883E+00
        -11   -1    0    0    0    0  0.00000000000E+00  0.00000000000E+00  0.18250000000E+03  0.18250000000E+03  0.00000000000E+00 0. -1.
         11   -1    0    0    0    0 -0.00000000000E+00 -0.00000000000E+00 -0.18250000000E+03  0.18250000000E+03  0.00000000000E+00 0.  1.
        -11    1    1    2    0    0  0.93737124501E+01 -0.70852272062E+02  0.12587824986E+03  0.14475235656E+03  0.00000000000E+00 0. -1.
         11    1    1    2    0    0 -0.56112836896E+02  0.10627866315E+03 -0.89569085511E+02  0.14988804417E+03  0.00000000000E+00 0.  1.
        -15    1    1    2    0    0  0.20093783647E+02 -0.18578736494E+02 -0.97693329159E+01  0.29112320169E+02  0.17770000000E+01 0.  1.
         15    1    1    2    0    0  0.26645340799E+02 -0.16847654597E+02 -0.26539831435E+02  0.41247279102E+02  0.17770000000E+01 0. -1.
</event>
<event>
 6    1  0.1507019E-006  0.1852440E+03  0.7546771E-02  0.1066291E+00
        -11   -1    0    0    0    0  0.00000000000E+00  0.00000000000E+00  0.18250000000E+03  0.18250000000E+03  0.00000000000E+00 0. -1.
         11   -1    0    0    0    0 -0.00000000000E+00 -0.00000000000E+00 -0.18250000000E+03  0.18250000000E+03  0.00000000000E+00 0. -1.
        -11    1    1    2    0    0 -0.37362372758E+02 -0.66900246570E+02  0.14436892916E+03  0.16344411153E+03  0.00000000000E+00 0. -1.
         11    1    1    2    0    0  0.38707480644E+02  0.62443943799E+02 -0.16405704381E+03  0.17975602576E+03  0.00000000000E+00 0. -1.
        -15    1    1    2    0    0 -0.84240841552E+00  0.47968080218E+01  0.57751550923E+01  0.77607450980E+01  0.17770000000E+01 0.  1.
         15    1    1    2    0    0 -0.50269947103E+00 -0.34050525070E+00  0.13912959557E+02  0.14039117608E+02  0.17770000000E+01 0. -1.
</event>
<event>
 6    1  0.1507019E-006  0.1832912E+03  0.7546771E-02  0.1067827E+00
        -11   -1    0    0    0    0  0.00000000000E+00  0.00000000000E+00  0.18250000000E+03  0.18250000000E+03  0.00000000000E+00 0. -1.
         11   -1    0    0    0    0 -0.00000000000E+00 -0.00000000000E+00 -0.18250000000E+03  0.18250000000E+03  0.00000000000E+00 0.  1.
        -11    1    1    2    0    0  0.26229665767E+02  0.39500918105E+02  0.10576587046E+03  0.11590831399E+03  0.00000000000E+00 0. -1.
         11    1    1    2    0    0 -0.44984280907E+02 -0.48491126794E+02 -0.16924272048E+03  0.18170875967E+03  0.00000000000E+00 0.  1.
        -15    1    1    2    0    0  0.13094144898E+02  0.27571452783E+01  0.31543973918E+02  0.34310909347E+02  0.17770000000E+01 0.  1.
         15    1    1    2    0    0  0.56604702418E+01  0.62330634106E+01  0.31932876100E+02  0.33072016991E+02  0.17770000000E+01 0. -1.
</event>
<event>
 6    1  0.1507019E-006  0.1862235E+03  0.7546771E-02  0.1065529E+00
        -11   -1    0    0    0    0  0.00000000000E+00  0.00000000000E+00  0.18250000000E+03  0.18250000000E+03  0.00000000000E+00 0. -1.
         11   -1    0    0    0    0 -0.00000000000E+00 -0.00000000000E+00 -0.18250000000E+03  0.18250000000E+03  0.00000000000E+00 0.  1.
        -11    1    1    2    0    0 -0.88423194249E+01 -0.23548150410E+01  0.14682368608E+03  0.14710855366E+03  0.00000000000E+00 0. -1.
         11    1    1    2    0    0  0.68263935977E+01 -0.12201322723E+02 -0.17822898220E+03  0.17877651418E+03  0.00000000000E+00 0.  1.
        -15    1    1    2    0    0 -0.16737994315E+01  0.39959961129E+01  0.26260593551E+02  0.26674821314E+02  0.17770000000E+01 0. -1.
         15    1    1    2    0    0  0.36897252587E+01  0.10560141651E+02  0.51447025763E+01  0.12440110843E+02  0.17770000000E+01 0.  1.
</event>
<event>
 6    1  0.1507019E-006  0.1910661E+03  0.7546771E-02  0.1061834E+00
        -11   -1    0    0    0    0  0.00000000000E+00  0.00000000000E+00  0.18250000000E+03  0.18250000000E+03  0.00000000000E+00 0. -1.
         11   -1    0    0    0    0 -0.00000000000E+00 -0.00000000000E+00 -0.18250000000E+03  0.18250000000E+03  0.00000000000E+00 0.  1.
        -11    1    1    2    0    0 -0.95816844686E+01  0.16205619365E+02  0.17291200085E+03  0.17393386908E+03  0.00000000000E+00 0. -1.
         11    1    1    2    0    0  0.14083245297E+02  0.19512367547E+02 -0.12735975130E+03  0.12961318041E+03  0.00000000000E+00 0.  1.
        -15    1    1    2    0    0 -0.99077564611E+01 -0.77619175986E+01 -0.13472086248E+02  0.18522036599E+02  0.17770000000E+01 0. -1.
         15    1    1    2    0    0  0.54061956330E+01 -0.27956069313E+02 -0.32080163300E+02  0.42930913908E+02  0.17770000000E+01 0.  1.
</event>
<event>
 6    1  0.1507019E-006  0.1828659E+03  0.7546771E-02  0.1068164E+00
        -11   -1    0    0    0    0  0.00000000000E+00  0.00000000000E+00  0.18250000000E+03  0.18250000000E+03  0.00000000000E+00 0.  1.
         11   -1    0    0    0    0 -0.00000000000E+00 -0.00000000000E+00 -0.18250000000E+03  0.18250000000E+03  0.00000000000E+00 0.  1.
        -11    1    1    2    0    0 -0.22016269153E+02 -0.10296000053E+02  0.86306629988E+02  0.89663582933E+02  0.00000000000E+00 0.  1.
         11    1    1    2    0    0  0.36725429855E+02  0.27712229674E+02 -0.17622746778E+03  0.18213414088E+03  0.00000000000E+00 0.  1.
        -15    1    1    2    0    0 -0.23859058653E+01 -0.29869766709E+01  0.74704924508E+01  0.85779113360E+01  0.17770000000E+01 0. -1.
         15    1    1    2    0    0 -0.12323254837E+02 -0.14429252949E+02  0.82450345345E+02  0.84624364854E+02  0.17770000000E+01 0.  1.
</event>
<event>
 6    1  0.1507019E-006  0.1855628E+03  0.7546771E-02  0.1066043E+00
        -11   -1    0    0    0    0  0.00000000000E+00  0.00000000000E+00  0.18250000000E+03  0.18250000000E+03  0.00000000000E+00 0.  1.
         11   -1    0    0    0    0 -0.00000000000E+00 -0.00000000000E+00 -0.18250000000E+03  0.18250000000E+03  0.00000000000E+00 0.  1.
        -11    1    1    2    0    0 -0.22272338187E+02 -0.32690168251E+02  0.69252009521E+02  0.79753024841E+02  0.00000000000E+00 0.  1.
         11    1    1    2    0    0  0.30215330902E+02  0.29301173514E+02 -0.17443104163E+03  0.17943721262E+03  0.00000000000E+00 0.  1.
        -15    1    1    2    0    0 -0.49796043762E+01 -0.99210181456E+00  0.35206057265E+02  0.35614672860E+02  0.17770000000E+01 0.  1.
         15    1    1    2    0    0 -0.29633883387E+01  0.43810965513E+01  0.69972974841E+02  0.70195089676E+02  0.17770000000E+01 0.  1.
</event>
<event>
 6    1  0.1887027E-006  0.1912444E+03  0.7546771E-02  0.1061700E+00
        -11   -1    0    0    0    0  0.00000000000E+00  0.00000000000E+00  0.18250000000E+03  0.18250000000E+03  0.00000000000E+00 0.  1.
         11   -1    0    0    0    0 -0.00000000000E+00 -0.00000000000E+00 -0.18250000000E+03  0.18250000000E+03  0.00000000000E+00 0.  1.
        -11    1    1    2    0    0 -0.65688257193E+02  0.28331338375E+02  0.15834582588E+03  0.17375561125E+03  0.00000000000E+00 0.  1.
         11    1    1    2    0    0  0.67711780669E+02 -0.25191733679E+02 -0.66491793222E+02  0.98186899600E+02  0.00000000000E+00 0.  1.
        -15    1    1    2    0    0  0.20708813233E+01 -0.74079414271E+01 -0.66271981874E+02  0.66740538327E+02  0.17770000000E+01 0.  1.
         15    1    1    2    0    0 -0.40944047994E+01  0.42683367308E+01 -0.25582050786E+02  0.26316950821E+02  0.17770000000E+01 0. -1.
</event>
<event>
 6    1  0.1507019E-006  0.1876280E+03  0.7546771E-02  0.1064445E+00
        -11   -1    0    0    0    0  0.00000000000E+00  0.00000000000E+00  0.18250000000E+03  0.18250000000E+03  0.00000000000E+00 0. -1.
         11   -1    0    0    0    0 -0.00000000000E+00 -0.00000000000E+00 -0.18250000000E+03  0.18250000000E+03  0.00000000000E+00 0. -1.
        -11    1    1    2    0    0  0.27590670150E+02 -0.87362548820E+02  0.15187949792E+03  0.17737204375E+03  0.00000000000E+00 0. -1.
         11    1    1    2    0    0 -0.24651331552E+02  0.87045646546E+02 -0.99174872120E+02  0.13423966623E+03  0.00000000000E+00 0. -1.
        -15    1    1    2    0    0 -0.14995383940E+00 -0.30320728174E+01 -0.15935191687E+02  0.16318823941E+02  0.17770000000E+01 0.  1.
         15    1    1    2    0    0 -0.27893847578E+01  0.33489750918E+01 -0.36769434111E+02  0.37069466079E+02  0.17770000000E+01 0. -1.
</event>
<event>
 6    1  0.1507019E-006  0.1907739E+03  0.7546771E-02  0.1062053E+00
        -11   -1    0    0    0    0  0.00000000000E+00  0.00000000000E+00  0.18250000000E+03  0.18250000000E+03  0.00000000000E+00 0.  1.
         11   -1    0    0    0    0 -0.00000000000E+00 -0.00000000000E+00 -0.18250000000E+03  0.18250000000E+03  0.00000000000E+00 0. -1.
        -11    1    1    2    0    0 -0.60050814548E+02  0.81060322767E+02  0.11124513740E+03  0.15017442142E+03  0.00000000000E+00 0.  1.
         11    1    1    2    0    0  0.95568825679E+02 -0.74236096730E+02 -0.12534082382E+03  0.17422606181E+03  0.00000000000E+00 0. -1.
        -15    1    1    2    0    0 -0.98342073863E+01 -0.54621785709E+00  0.93142994675E+01  0.13672011280E+02  0.17770000000E+01 0.  1.
         15    1    1    2    0    0 -0.25683803745E+02 -0.62780081804E+01  0.47813869490E+01  0.26927505485E+02  0.17770000000E+01 0. -1.
</event>
<event>
 6    1  0.1507019E-006  0.1865965E+03  0.7546771E-02  0.1065240E+00
        -11   -1    0    0    0    0  0.00000000000E+00  0.00000000000E+00  0.18250000000E+03  0.18250000000E+03  0.00000000000E+00 0.  1.
         11   -1    0    0    0    0 -0.00000000000E+00 -0.00000000000E+00 -0.18250000000E+03  0.18250000000E+03  0.00000000000E+00 0.  1.
        -11    1    1    2    0    0  0.40492206672E+01 -0.33888563566E+02  0.17510847257E+03  0.17840349799E+03  0.00000000000E+00 0.  1.
         11    1    1    2    0    0 -0.26864229353E+02  0.21998435148E+02 -0.96777392604E+02  0.10281771096E+03  0.00000000000E+00 0.  1.
        -15    1    1    2    0    0  0.14936685734E+02  0.11262657993E+02 -0.35281137862E+02  0.39973346915E+02  0.17770000000E+01 0.  1.
         15    1    1    2    0    0  0.78783229523E+01  0.62747042466E+00 -0.43049942105E+02  0.43805444136E+02  0.17770000000E+01 0. -1.
</event>
<event>
 6    1  0.1507019E-006  0.1592873E+03  0.7546771E-02  0.1088598E+00
        -11   -1    0    0    0    0  0.00000000000E+00  0.00000000000E+00  0.18250000000E+03  0.18250000000E+03  0.00000000000E+00 0.  1.
         11   -1    0    0    0    0 -0.00000000000E+00 -0.00000000000E+00 -0.18250000000E+03  0.18250000000E+03  0.00000000000E+00 0. -1.
        -11    1    1    2    0    0  0.55589071967E+00 -0.10269796129E+03  0.12906185544E+03  0.16493678425E+03  0.00000000000E+00 0.  1.
         11    1    1    2    0    0 -0.39473661151E+02  0.86533172827E+02 -0.12421869975E+03  0.15644949757E+03  0.00000000000E+00 0. -1.
        -15    1    1    2    0    0  0.18456140267E+02  0.45700771703E+01  0.16020525628E+01  0.19163481425E+02  0.17770000000E+01 0.  1.
         15    1    1    2    0    0  0.20461630164E+02  0.11594711292E+02 -0.64452082559E+01  0.24450236755E+02  0.17770000000E+01 0. -1.
</event>
<event>
 6    1  0.1507019E-006  0.1285211E+03  0.7546771E-02  0.1122002E+00
        -11   -1    0    0    0    0  0.00000000000E+00  0.00000000000E+00  0.18250000000E+03  0.18250000000E+03  0.00000000000E+00 0. -1.
         11   -1    0    0    0    0 -0.00000000000E+00 -0.00000000000E+00 -0.18250000000E+03  0.18250000000E+03  0.00000000000E+00 0.  1.
        -11    1    1    2    0    0 -0.39329006957E+02  0.11522311683E+03  0.11436619996E+03  0.16704120789E+03  0.00000000000E+00 0. -1.
         11    1    1    2    0    0  0.36894062175E+02 -0.94612886576E+02 -0.27268103152E+02  0.10514903509E+03  0.00000000000E+00 0.  1.
        -15    1    1    2    0    0  0.13168247421E+02 -0.96043160531E+01 -0.49767984510E+02  0.52399004171E+02  0.17770000000E+01 0.  1.
         15    1    1    2    0    0 -0.10733302639E+02 -0.11005914199E+02 -0.37330112299E+02  0.40410752853E+02  0.17770000000E+01 0. -1.
</event>
<event>
 6    1  0.1507019E-006  0.1849329E+03  0.7546771E-02  0.1066535E+00
        -11   -1    0    0    0    0  0.00000000000E+00  0.00000000000E+00  0.18250000000E+03  0.18250000000E+03  0.00000000000E+00 0.  1.
         11   -1    0    0    0    0 -0.00000000000E+00 -0.00000000000E+00 -0.18250000000E+03  0.18250000000E+03  0.00000000000E+00 0. -1.
        -11    1    1    2    0    0  0.38136896980E+02 -0.24750104853E+02  0.17423306201E+03  0.18006707222E+03  0.00000000000E+00 0.  1.
         11    1    1    2    0    0 -0.29276111002E+02  0.16317093453E+02 -0.86454012710E+02  0.92723430306E+02  0.00000000000E+00 0. -1.
        -15    1    1    2    0    0 -0.33828648225E+01  0.29020789085E+01 -0.82495494354E+02  0.82634920912E+02  0.17770000000E+01 0. -1.
         15    1    1    2    0    0 -0.54779211553E+01  0.55309324911E+01 -0.52835549460E+01  0.95745765584E+01  0.17770000000E+01 0.  1.
</event>
<event>
 6    1  0.1507019E-006  0.1854430E+03  0.7546771E-02  0.1066136E+00
        -11   -1    0    0    0    0  0.00000000000E+00  0.00000000000E+00  0.18250000000E+03  0.18250000000E+03  0.00000000000E+00 0. -1.
         11   -1    0    0    0    0 -0.00000000000E+00 -0.00000000000E+00 -0.18250000000E+03  0.18250000000E+03  0.00000000000E+00 0. -1.
        -11    1    1    2    0    0 -0.59934694767E+02 -0.35061496416E+01  0.13061160873E+03  0.14374927150E+03  0.00000000000E+00 0. -1.
         11    1    1    2    0    0  0.60712499097E+02  0.39389629360E+01 -0.16893549201E+03  0.17955702002E+03  0.00000000000E+00 0. -1.
        -15    1    1    2    0    0 -0.58446668892E+00  0.60575639836E+01  0.61840718362E+01  0.88564189265E+01  0.17770000000E+01 0. -1.
         15    1    1    2    0    0 -0.19333764023E+00 -0.64903772780E+01  0.32139811444E+02  0.32837289555E+02  0.17770000000E+01 0.  1.
</event>
<event>
 6    1  0.1507019E-006  0.1920126E+03  0.7546771E-02  0.1061125E+00
        -11   -1    0    0    0    0  0.00000000000E+00  0.00000000000E+00  0.18250000000E+03  0.18250000000E+03  0.00000000000E+00 0.  1.
         11   -1    0    0    0    0 -0.00000000000E+00 -0.00000000000E+00 -0.18250000000E+03  0.18250000000E+03  0.00000000000E+00 0. -1.
        -11    1    1    2    0    0 -0.76756772683E+02 -0.55249592377E+02  0.14484654321E+03  0.17298740038E+03  0.00000000000E+00 0.  1.
         11    1    1    2    0    0  0.90423911728E+02  0.28641416131E+02 -0.10780281433E+03  0.14359060313E+03  0.00000000000E+00 0. -1.
        -15    1    1    2    0    0 -0.16606702693E+01  0.96149117960E+00 -0.48427225571E+01  0.55038152037E+01  0.17770000000E+01 0. -1.
         15    1    1    2    0    0 -0.12006468775E+02  0.25646685066E+02 -0.32201006320E+02  0.42918181279E+02  0.17770000000E+01 0. -1.
</event>
<event>
 6    1  0.1507019E-006  0.1881043E+03  0.7546771E-02  0.1064079E+00
        -11   -1    0    0    0    0  0.00000000000E+00  0.00000000000E+00  0.18250000000E+03  0.18250000000E+03  0.00000000000E+00 0.  1.
         11   -1    0    0    0    0 -0.00000000000E+00 -0.00000000000E+00 -0.18250000000E+03  0.18250000000E+03  0.00000000000E+00 0.  1.
        -11    1    1    2    0    0 -0.58573157308E+02  0.99954051622E+02  0.72984343929E+02  0.13692458381E+03  0.00000000000E+00 0.  1.
         11    1    1    2    0    0  0.67271985364E+02 -0.10863052838E+03 -0.12233558165E+03  0.17689574967E+03  0.00000000000E+00 0.  1.
        -15    1    1    2    0    0 -0.42420113992E+01  0.56867734449E+01  0.34981286862E+02  0.35737686165E+02  0.17770000000E+01 0.  1.
         15    1    1    2    0    0 -0.44568166563E+01  0.29897033121E+01  0.14369950864E+02  0.15441980360E+02  0.17770000000E+01 0. -1.
</event>
<event>
 6    1  0.1507019E-006  0.1531202E+03  0.7546771E-02  0.1094590E+00
        -11   -1    0    0    0    0  0.00000000000E+00  0.00000000000E+00  0.18250000000E+03  0.18250000000E+03  0.00000000000E+00 0. -1.
         11   -1    0    0    0    0 -0.00000000000E+00 -0.00000000000E+00 -0.18250000000E+03  0.18250000000E+03  0.00000000000E+00 0.  1.
        -11    1    1    2    0    0 -0.55457288637E+02 -0.37663785968E+02  0.12538682563E+03  0.14218272637E+03  0.00000000000E+00 0. -1.
         11    1    1    2    0    0  0.79672467009E+02  0.29853142513E+01 -0.14760600158E+03  0.16776217036E+03  0.00000000000E+00 0.  1.
        -15    1    1    2    0    0 -0.73591890194E+00 -0.60475371551E+00  0.10992647737E+02  0.11176016149E+02  0.17770000000E+01 0.  1.
         15    1    1    2    0    0 -0.23479259470E+02  0.35283225433E+02  0.11226528220E+02  0.43879087126E+02  0.17770000000E+01 0. -1.
</event>
<event>
 6    1  0.1507019E-006  0.1897227E+03  0.7546771E-02  0.1062847E+00
        -11   -1    0    0    0    0  0.00000000000E+00  0.00000000000E+00  0.18250000000E+03  0.18250000000E+03  0.00000000000E+00 0. -1.
         11   -1    0    0    0    0 -0.00000000000E+00 -0.00000000000E+00 -0.18250000000E+03  0.18250000000E+03  0.00000000000E+00 0.  1.
        -11    1    1    2    0    0  0.11381093182E+02  0.43747027916E+02  0.61420202424E+02  0.76261215564E+02  0.00000000000E+00 0. -1.
         11    1    1    2    0    0 -0.22596852613E+01 -0.38181907564E+02 -0.17105309993E+03  0.17527728672E+03  0.00000000000E+00 0.  1.
        -15    1    1    2    0    0 -0.66113618625E+01 -0.10932094440E+02  0.21222097233E+02  0.24834571357E+02  0.17770000000E+01 0.  1.
         15    1    1    2    0    0 -0.25100460577E+01  0.53669740877E+01  0.88410800274E+02  0.88626926361E+02  0.17770000000E+01 0. -1.
</event>
<event>
 6    1  0.1507019E-006  0.1710153E+03  0.7546771E-02  0.1077983E+00
        -11   -1    0    0    0    0  0.00000000000E+00  0.00000000000E+00  0.18250000000E+03  0.18250000000E+03  0.00000000000E+00 0. -1.
         11   -1    0    0    0    0 -0.00000000000E+00 -0.00000000000E+00 -0.18250000000E+03  0.18250000000E+03  0.00000000000E+00 0. -1.
        -11    1    1    2    0    0 -0.14210958599E+03 -0.92517589718E+02 -0.16458183329E+02  0.17036874900E+03  0.00000000000E+00 0. -1.
         11    1    1    2    0    0  0.13202098839E+03  0.10740455273E+03  0.26810084819E+02  0.17229062648E+03  0.00000000000E+00 0. -1.
        -15    1    1    2    0    0 -0.22055089946E+00 -0.44841031894E+01 -0.40331465907E+01  0.62912498388E+01  0.17770000000E+01 0. -1.
         15    1    1    2    0    0  0.10309148499E+02 -0.10402859821E+02 -0.63187548991E+01  0.16049374682E+02  0.17770000000E+01 0.  1.
</event>
<event>
 6    1  0.1507019E-006  0.1708709E+03  0.7546771E-02  0.1078108E+00
        -11   -1    0    0    0    0  0.00000000000E+00  0.00000000000E+00  0.18250000000E+03  0.18250000000E+03  0.00000000000E+00 0.  1.
         11   -1    0    0    0    0 -0.00000000000E+00 -0.00000000000E+00 -0.18250000000E+03  0.18250000000E+03  0.00000000000E+00 0. -1.
        -11    1    1    2    0    0  0.56820294385E+02 -0.31635448986E+02  0.14382109931E+03  0.15784123698E+03  0.00000000000E+00 0.  1.
         11    1    1    2    0    0 -0.39602092650E+02  0.13922431184E+02 -0.34390022240E+01  0.42118719931E+02  0.00000000000E+00 0. -1.
        -15    1    1    2    0    0 -0.58622437949E+01  0.47125653575E+02 -0.48580698399E+02  0.67959069395E+02  0.17770000000E+01 0. -1.
         15    1    1    2    0    0 -0.11355957939E+02 -0.29412635774E+02 -0.91801398683E+02  0.97080973692E+02  0.17770000000E+01 0.  1.
</event>
<event>
 6    1  0.1507019E-006  0.1915690E+03  0.7546771E-02  0.1061457E+00
        -11   -1    0    0    0    0  0.00000000000E+00  0.00000000000E+00  0.18250000000E+03  0.18250000000E+03  0.00000000000E+00 0. -1.
         11   -1    0    0    0    0 -0.00000000000E+00 -0.00000000000E+00 -0.18250000000E+03  0.18250000000E+03  0.00000000000E+00 0.  1.
        -11    1    1    2    0    0  0.88837495782E+02  0.19665494562E+02  0.37722474090E+02  0.98497803959E+02  0.00000000000E+00 0. -1.
         11    1    1    2    0    0 -0.12190264842E+03 -0.32496176841E+02 -0.11900440785E+03  0.17343098422E+03  0.00000000000E+00 0.  1.
        -15    1    1    2    0    0  0.30121658197E+02  0.15897100348E+02  0.44826788168E+02  0.56326110805E+02  0.17770000000E+01 0. -1.
         15    1    1    2    0    0  0.29434944389E+01 -0.30664180680E+01  0.36455145593E+02  0.36745101013E+02  0.17770000000E+01 0.  1.
</event>
<event>
 6    1  0.1507019E-006  0.1874863E+03  0.7546771E-02  0.1064554E+00
        -11   -1    0    0    0    0  0.00000000000E+00  0.00000000000E+00  0.18250000000E+03  0.18250000000E+03  0.00000000000E+00 0.  1.
         11   -1    0    0    0    0 -0.00000000000E+00 -0.00000000000E+00 -0.18250000000E+03  0.18250000000E+03  0.00000000000E+00 0.  1.
        -11    1    1    2    0    0  0.16083163136E+02  0.95480643239E+02  0.77329979518E+02  0.12391588721E+03  0.00000000000E+00 0.  1.
         11    1    1    2    0    0 -0.31774177077E+02 -0.12641679281E+03 -0.12050029670E+03  0.17751373282E+03  0.00000000000E+00 0.  1.
        -15    1    1    2    0    0  0.82876604577E+01  0.26033228730E+02  0.99378091629E+01  0.29126141075E+02  0.17770000000E+01 0.  1.
         15    1    1    2    0    0  0.74033534833E+01  0.49029208428E+01  0.33232508017E+02  0.34444238904E+02  0.17770000000E+01 0. -1.
</event>
<event>
 6    1  0.1507019E-006  0.1486274E+03  0.7546771E-02  0.1099155E+00
        -11   -1    0    0    0    0  0.00000000000E+00  0.00000000000E+00  0.18250000000E+03  0.18250000000E+03  0.00000000000E+00 0.  1.
         11   -1    0    0    0    0 -0.00000000000E+00 -0.00000000000E+00 -0.18250000000E+03  0.18250000000E+03  0.00000000000E+00 0.  1.
        -11    1    1    2    0    0 -0.94281876858E+02  0.97753410879E+02  0.91176726594E+02  0.16357871840E+03  0.00000000000E+00 0.  1.
         11    1    1    2    0    0  0.99699983483E+02 -0.92453230131E+02 -0.31810468844E+02  0.13964094097E+03  0.00000000000E+00 0.  1.
        -15    1    1    2    0    0 -0.77293370825E+00 -0.52357720437E+01 -0.54622296618E+02  0.54906864345E+02  0.17770000000E+01 0. -1.
         15    1    1    2    0    0 -0.46451729166E+01 -0.64408704994E-01 -0.47439611323E+01  0.68734762771E+01  0.17770000000E+01 0.  1.
</event>
<event>
 6    1  0.1507019E-006  0.1838154E+03  0.7546771E-02  0.1067413E+00
        -11   -1    0    0    0    0  0.00000000000E+00  0.00000000000E+00  0.18250000000E+03  0.18250000000E+03  0.00000000000E+00 0. -1.
         11   -1    0    0    0    0 -0.00000000000E+00 -0.00000000000E+00 -0.18250000000E+03  0.18250000000E+03  0.00000000000E+00 0.  1.
        -11    1    1    2    0    0 -0.18323492758E+02 -0.78523776174E+02  0.16225323166E+03  0.18118456059E+03  0.00000000000E+00 0. -1.
         11    1    1    2    0    0  0.22964939049E+02  0.74715249847E+02 -0.14388251670E+03  0.16374350551E+03  0.00000000000E+00 0.  1.
        -15    1    1    2    0    0 -0.38657644343E+01  0.42699354009E+01 -0.12620522212E+02  0.13986128588E+02  0.17770000000E+01 0.  1.
         15    1    1    2    0    0 -0.77568185711E+00 -0.46140907435E+00 -0.57501927445E+01  0.60858053104E+01  0.17770000000E+01 0.  1.
</event>
<event>
 6    1  0.1507019E-006  0.1472915E+03  0.7546771E-02  0.1100546E+00
        -11   -1    0    0    0    0  0.00000000000E+00  0.00000000000E+00  0.18250000000E+03  0.18250000000E+03  0.00000000000E+00 0.  1.
         11   -1    0    0    0    0 -0.00000000000E+00 -0.00000000000E+00 -0.18250000000E+03  0.18250000000E+03  0.00000000000E+00 0.  1.
        -11    1    1    2    0    0  0.59641214156E+02 -0.18510590086E+02  0.13266631170E+02  0.63841364912E+02  0.00000000000E+00 0.  1.
         11    1    1    2    0    0 -0.58565245857E+02  0.22678844660E+02 -0.15075610250E+03  0.16331448331E+03  0.00000000000E+00 0.  1.
        -15    1    1    2    0    0 -0.38928614319E+01 -0.35286017585E+01  0.53611141726E+02  0.53897287934E+02  0.17770000000E+01 0.  1.
         15    1    1    2    0    0  0.28168931329E+01 -0.63965281552E+00  0.83878329606E+02  0.83946863844E+02  0.17770000000E+01 0. -1.
</event>
<event>
 6    1  0.1507019E-006  0.1880369E+03  0.7546771E-02  0.1064131E+00
        -11   -1    0    0    0    0  0.00000000000E+00  0.00000000000E+00  0.18250000000E+03  0.18250000000E+03  0.00000000000E+00 0.  1.
         11   -1    0    0    0    0 -0.00000000000E+00 -0.00000000000E+00 -0.18250000000E+03  0.18250000000E+03  0.00000000000E+00 0. -1.
        -11    1    1    2    0    0  0.27906321723E+02  0.48171310038E+02  0.16797824369E+03  0.17696307032E+03  0.00000000000E+00 0.  1.
         11    1    1    2    0    0 -0.79700143145E+01 -0.38221601802E+02 -0.38398220143E+02  0.54761622352E+02  0.00000000000E+00 0. -1.
        -15    1    1    2    0    0 -0.18306564049E+02 -0.15120817045E+00 -0.54497206166E+02  0.57517443963E+02  0.17770000000E+01 0. -1.
         15    1    1    2    0    0 -0.16297433589E+01 -0.97985000652E+01 -0.75082817382E+02  0.75757863367E+02  0.17770000000E+01 0.  1.
</event>
<event>
 6    1  0.1507019E-006  0.1566460E+03  0.7546771E-02  0.1091127E+00
        -11   -1    0    0    0    0  0.00000000000E+00  0.00000000000E+00  0.18250000000E+03  0.18250000000E+03  0.00000000000E+00 0.  1.
         11   -1    0    0    0    0 -0.00000000000E+00 -0.00000000000E+00 -0.18250000000E+03  0.18250000000E+03  0.00000000000E+00 0. -1.
        -11    1    1    2    0    0 -0.66220315391E+02 -0.59056775091E+02  0.13759192172E+03  0.16372040122E+03  0.00000000000E+00 0.  1.
         11    1    1    2    0    0  0.60236157743E+01  0.48342797117E+02  0.12653976014E+01  0.48733060761E+02  0.00000000000E+00 0. -1.
        -15    1    1    2    0    0  0.14916498789E+01  0.18314981778E+01 -0.13613309035E+02  0.13930517464E+02  0.17770000000E+01 0.  1.
         15    1    1    2    0    0  0.58705049737E+02  0.88824797964E+01 -0.12524401029E+03  0.13861602055E+03  0.17770000000E+01 0. -1.
</event>
<event>
 6    1  0.1507019E-006  0.1919883E+03  0.7546771E-02  0.1061143E+00
        -11   -1    0    0    0    0  0.00000000000E+00  0.00000000000E+00  0.18250000000E+03  0.18250000000E+03  0.00000000000E+00 0.  1.
         11   -1    0    0    0    0 -0.00000000000E+00 -0.00000000000E+00 -0.18250000000E+03  0.18250000000E+03  0.00000000000E+00 0. -1.
        -11    1    1    2    0    0  0.13371496848E+02 -0.57884097451E+02  0.13835025745E+03  0.15056612966E+03  0.00000000000E+00 0.  1.
         11    1    1    2    0    0 -0.46632209007E+02  0.66122854530E+02 -0.15292564176E+03  0.17301169532E+03  0.00000000000E+00 0. -1.
        -15    1    1    2    0    0  0.12982620005E+02 -0.81677500209E+01 -0.14589316144E+01  0.15509570369E+02  0.17770000000E+01 0. -1.
         15    1    1    2    0    0  0.20278092155E+02 -0.71007057391E-01  0.16034315932E+02  0.25912604652E+02  0.17770000000E+01 0.  1.
</event>
<event>
 6    1  0.1507019E-006  0.1842856E+03  0.7546771E-02  0.1067042E+00
        -11   -1    0    0    0    0  0.00000000000E+00  0.00000000000E+00  0.18250000000E+03  0.18250000000E+03  0.00000000000E+00 0. -1.
         11   -1    0    0    0    0 -0.00000000000E+00 -0.00000000000E+00 -0.18250000000E+03  0.18250000000E+03  0.00000000000E+00 0.  1.
        -11    1    1    2    0    0 -0.63297696525E+02 -0.10093647843E+02  0.16896516619E+03  0.18071443633E+03  0.00000000000E+00 0. -1.
         11    1    1    2    0    0  0.44647119763E+02 -0.91242017695E+01 -0.10484394814E+03  0.11431915772E+03  0.00000000000E+00 0.  1.
        -15    1    1    2    0    0  0.16461860316E+02  0.17159990753E+02 -0.60005401904E+02  0.64569839045E+02  0.17770000000E+01 0. -1.
         15    1    1    2    0    0  0.21887164458E+01  0.20578588598E+01 -0.41158161486E+01  0.53965669028E+01  0.17770000000E+01 0. -1.
</event>
<event>
 6    1  0.1507019E-006  0.1911401E+03  0.7546771E-02  0.1061778E+00
        -11   -1    0    0    0    0  0.00000000000E+00  0.00000000000E+00  0.18250000000E+03  0.18250000000E+03  0.00000000000E+00 0. -1.
         11   -1    0    0    0    0 -0.00000000000E+00 -0.00000000000E+00 -0.18250000000E+03  0.18250000000E+03  0.00000000000E+00 0. -1.
        -11    1    1    2    0    0  0.82525030989E+02  0.10957787370E+03  0.10681561610E+03  0.17385990621E+03  0.00000000000E+00 0. -1.
         11    1    1    2    0    0 -0.76028825083E+02 -0.10735679939E+03 -0.62277178014E+02  0.14554831336E+03  0.00000000000E+00 0. -1.
        -15    1    1    2    0    0 -0.17741200883E+01  0.19096286886E+01 -0.12101261308E+02  0.12505696225E+02  0.17770000000E+01 0.  1.
         15    1    1    2    0    0 -0.47220858183E+01 -0.41307030007E+01 -0.32437176780E+02  0.33086084207E+02  0.17770000000E+01 0. -1.
</event>
<event>
 6    1  0.1507019E-006  0.1851097E+03  0.7546771E-02  0.1066396E+00
        -11   -1    0    0    0    0  0.00000000000E+00  0.00000000000E+00  0.18250000000E+03  0.18250000000E+03  0.00000000000E+00 0.  1.
         11   -1    0    0    0    0 -0.00000000000E+00 -0.00000000000E+00 -0.18250000000E+03  0.18250000000E+03  0.00000000000E+00 0. -1.
        -11    1    1    2    0    0 -0.14150929467E+02  0.47158087900E+02  0.10287125964E+03  0.11404661380E+03  0.00000000000E+00 0.  1.
         11    1    1    2    0    0  0.37836425618E+01 -0.49481262974E+02 -0.17290977625E+03  0.17989025004E+03  0.00000000000E+00 0. -1.
        -15    1    1    2    0    0  0.16947700672E+01 -0.62954948525E+00  0.10763160665E+02  0.11057664068E+02  0.17770000000E+01 0. -1.
         15    1    1    2    0    0  0.86725168377E+01  0.29527245589E+01  0.59275355946E+02  0.60005472101E+02  0.17770000000E+01 0. -1.
</event>
<event>
 6    1  0.1507019E-006  0.1874583E+03  0.7546771E-02  0.1064575E+00
        -11   -1    0    0    0    0  0.00000000000E+00  0.00000000000E+00  0.18250000000E+03  0.18250000000E+03  0.00000000000E+00 0.  1.
         11   -1    0    0    0    0 -0.00000000000E+00 -0.00000000000E+00 -0.18250000000E+03  0.18250000000E+03  0.00000000000E+00 0. -1.
        -11    1    1    2    0    0 -0.45926366215E+02 -0.23632499825E+01  0.17148244295E+03  0.17754166920E+03  0.00000000000E+00 0.  1.
         11    1    1    2    0    0  0.43045824128E+02  0.21926999236E+01 -0.16225504919E+03  0.16788225605E+03  0.00000000000E+00 0. -1.
        -15    1    1    2    0    0 -0.18935646933E+01  0.76362071777E+01 -0.30237950870E+01  0.86138442658E+01  0.17770000000E+01 0. -1.
         15    1    1    2    0    0  0.47741067806E+01 -0.74656571188E+01 -0.62035986644E+01  0.10962230483E+02  0.17770000000E+01 0.  1.
</event>
<event>
 6    1  0.1507019E-006  0.1765046E+03  0.7546771E-02  0.1073330E+00
        -11   -1    0    0    0    0  0.00000000000E+00  0.00000000000E+00  0.18250000000E+03  0.18250000000E+03  0.00000000000E+00 0. -1.
         11   -1    0    0    0    0 -0.00000000000E+00 -0.00000000000E+00 -0.18250000000E+03  0.18250000000E+03  0.00000000000E+00 0. -1.
        -11    1    1    2    0    0  0.66612299689E+02 -0.25867091526E+02 -0.16197449731E+03  0.17703683988E+03  0.00000000000E+00 0. -1.
         11    1    1    2    0    0 -0.60247325409E+02  0.19192809144E+02  0.16435757532E+03  0.17610087083E+03  0.00000000000E+00 0. -1.
        -15    1    1    2    0    0 -0.53016059080E+01  0.41067703722E+01  0.11460471603E+01  0.70316243633E+01  0.17770000000E+01 0. -1.
         15    1    1    2    0    0 -0.10633683720E+01  0.25675120099E+01 -0.35291251663E+01  0.48306649288E+01  0.17770000000E+01 0.  1.
</event>
<event>
 6    1  0.1507019E-006  0.1236360E+03  0.7546771E-02  0.1128258E+00
        -11   -1    0    0    0    0  0.00000000000E+00  0.00000000000E+00  0.18250000000E+03  0.18250000000E+03  0.00000000000E+00 0. -1.
         11   -1    0    0    0    0 -0.00000000000E+00 -0.00000000000E+00 -0.18250000000E+03  0.18250000000E+03  0.00000000000E+00 0. -1.
        -11    1    1    2    0    0  0.66233045524E+02 -0.85445620732E+02  0.12277272173E+03  0.16358762674E+03  0.00000000000E+00 0. -1.
         11    1    1    2    0    0 -0.43183759786E+02  0.87949525030E+02 -0.28530242261E+02  0.10204866871E+03  0.00000000000E+00 0. -1.
        -15    1    1    2    0    0 -0.13918672426E+02 -0.10953985969E+02 -0.41724961581E+02  0.45363524981E+02  0.17770000000E+01 0. -1.
         15    1    1    2    0    0 -0.91306133122E+01  0.84500816704E+01 -0.52517517885E+02  0.54000179569E+02  0.17770000000E+01 0.  1.
</event>
<event>
 6    1  0.1507019E-006  0.1383348E+03  0.7546771E-02  0.1110315E+00
        -11   -1    0    0    0    0  0.00000000000E+00  0.00000000000E+00  0.18250000000E+03  0.18250000000E+03  0.00000000000E+00 0.  1.
         11   -1    0    0    0    0 -0.00000000000E+00 -0.00000000000E+00 -0.18250000000E+03  0.18250000000E+03  0.00000000000E+00 0.  1.
        -11    1    1    2    0    0  0.35770738279E+02  0.53907464359E+02  0.11299679075E+03  0.13020689364E+03  0.00000000000E+00 0.  1.
         11    1    1    2    0    0 -0.19985739304E+02 -0.61629882595E+02  0.42959898081E+02  0.77738182686E+02  0.00000000000E+00 0.  1.
        -15    1    1    2    0    0 -0.71748927948E+01  0.53871393149E+01 -0.92204603605E+02  0.92657147655E+02  0.17770000000E+01 0.  1.
         15    1    1    2    0    0 -0.86101061800E+01  0.23352789211E+01 -0.63752085230E+02  0.64397776019E+02  0.17770000000E+01 0.  1.
</event>
<event>
 6    1  0.1507019E-006  0.1898215E+03  0.7546771E-02  0.1062772E+00
        -11   -1    0    0    0    0  0.00000000000E+00  0.00000000000E+00  0.18250000000E+03  0.18250000000E+03  0.00000000000E+00 0. -1.
         11   -1    0    0    0    0 -0.00000000000E+00 -0.00000000000E+00 -0.18250000000E+03  0.18250000000E+03  0.00000000000E+00 0. -1.
        -11    1    1    2    0    0 -0.11431728861E+02 -0.11065540543E+02  0.14087988132E+03  0.14177542655E+03  0.00000000000E+00 0. -1.
         11    1    1    2    0    0  0.11148165583E+02 -0.21671201906E+02 -0.17347506982E+03  0.17517854445E+03  0.00000000000E+00 0. -1.
        -15    1    1    2    0    0  0.70689162157E+00  0.25407009811E+02  0.16747825071E+02  0.30490379087E+02  0.17770000000E+01 0. -1.
         15    1    1    2    0    0 -0.42332834383E+00  0.73297326383E+01  0.15847363425E+02  0.17555649915E+02  0.17770000000E+01 0.  1.
</event>
<event>
 6    1  0.1507019E-006  0.1886614E+03  0.7546771E-02  0.1063653E+00
        -11   -1    0    0    0    0  0.00000000000E+00  0.00000000000E+00  0.18250000000E+03  0.18250000000E+03  0.00000000000E+00 0. -1.
         11   -1    0    0    0    0 -0.00000000000E+00 -0.00000000000E+00 -0.18250000000E+03  0.18250000000E+03  0.00000000000E+00 0.  1.
        -11    1    1    2    0    0 -0.69873234211E+02  0.11120599228E+03 -0.11767010215E+03  0.17633857921E+03  0.00000000000E+00 0.  1.
         11    1    1    2    0    0  0.49435860214E+02 -0.10965847107E+03  0.10852278215E+03  0.16200641592E+03  0.00000000000E+00 0. -1.
        -15    1    1    2    0    0  0.10851212447E+01  0.40921256993E+01  0.30829012657E+01  0.55303697949E+01  0.17770000000E+01 0. -1.
         15    1    1    2    0    0  0.19352252752E+02 -0.56396469019E+01  0.60644187279E+01  0.21124635080E+02  0.17770000000E+01 0.  1.
</event>
<event>
 6    1  0.1507019E-006  0.1832718E+03  0.7546771E-02  0.1067842E+00
        -11   -1    0    0    0    0  0.00000000000E+00  0.00000000000E+00  0.18250000000E+03  0.18250000000E+03  0.00000000000E+00 0.  1.
         11   -1    0    0    0    0 -0.00000000000E+00 -0.00000000000E+00 -0.18250000000E+03  0.18250000000E+03  0.00000000000E+00 0.  1.
        -11    1    1    2    0    0  0.62894625073E+02  0.28911564568E+01  0.17047298879E+03  0.18172818317E+03  0.00000000000E+00 0.  1.
         11    1    1    2    0    0 -0.49928592526E+02 -0.26825891575E+01 -0.10665234193E+03  0.11779126740E+03  0.00000000000E+00 0.  1.
        -15    1    1    2    0    0 -0.86158777931E+01  0.26014805841E+01 -0.40361968349E+02  0.41391391247E+02  0.17770000000E+01 0. -1.
         15    1    1    2    0    0 -0.43501547534E+01 -0.28100478833E+01 -0.23458678516E+02  0.24089158188E+02  0.17770000000E+01 0.  1.
</event>
<event>
 6    1  0.1507019E-006  0.1264256E+03  0.7546771E-02  0.1124647E+00
        -11   -1    0    0    0    0  0.00000000000E+00  0.00000000000E+00  0.18250000000E+03  0.18250000000E+03  0.00000000000E+00 0.  1.
         11   -1    0    0    0    0 -0.00000000000E+00 -0.00000000000E+00 -0.18250000000E+03  0.18250000000E+03  0.00000000000E+00 0.  1.
        -11    1    1    2    0    0  0.62350070231E+02 -0.60766160817E+02  0.50391231893E+02  0.10059489952E+03  0.00000000000E+00 0.  1.
         11    1    1    2    0    0 -0.34452633438E+02  0.15062106035E+03 -0.39553354237E+02  0.15949343435E+03  0.00000000000E+00 0.  1.
        -15    1    1    2    0    0 -0.23137029844E+02 -0.28607208090E+02 -0.21328344839E+02  0.42564662894E+02  0.17770000000E+01 0. -1.
         15    1    1    2    0    0 -0.47604069486E+01 -0.61247691440E+02  0.10490467183E+02  0.62347003230E+02  0.17770000000E+01 0.  1.
</event>
<event>
 6    1  0.1507019E-006  0.1435475E+03  0.7546771E-02  0.1104534E+00
        -11   -1    0    0    0    0  0.00000000000E+00  0.00000000000E+00  0.18250000000E+03  0.18250000000E+03  0.00000000000E+00 0.  1.
         11   -1    0    0    0    0 -0.00000000000E+00 -0.00000000000E+00 -0.18250000000E+03  0.18250000000E+03  0.00000000000E+00 0.  1.
        -11    1    1    2    0    0  0.13101998700E+03 -0.88629154419E+01  0.11812484971E+01  0.13132472582E+03  0.00000000000E+00 0.  1.
         11    1    1    2    0    0 -0.15128632566E+03 -0.26369699283E+01  0.62261298065E+02  0.16361838277E+03  0.00000000000E+00 0.  1.
        -15    1    1    2    0    0  0.14064597155E+02 -0.18728849984E+01 -0.24330546834E+02  0.28221513595E+02  0.17770000000E+01 0.  1.
         15    1    1    2    0    0  0.62017415072E+01  0.13372770369E+02 -0.39111999729E+02  0.41835377814E+02  0.17770000000E+01 0. -1.
</event>
<event>
 6    1  0.1507019E-006  0.1550843E+03  0.7546771E-02  0.1092649E+00
        -11   -1    0    0    0    0  0.00000000000E+00  0.00000000000E+00  0.18250000000E+03  0.18250000000E+03  0.00000000000E+00 0.  1.
         11   -1    0    0    0    0 -0.00000000000E+00 -0.00000000000E+00 -0.18250000000E+03  0.18250000000E+03  0.00000000000E+00 0. -1.
        -11    1    1    2    0    0  0.48646420604E+02  0.15570155200E+03  0.51456577498E+02  0.17104744050E+03  0.00000000000E+00 0.  1.
         11    1    1    2    0    0 -0.45831690047E+02 -0.13545293375E+03 -0.58809337542E+01  0.14311752672E+03  0.00000000000E+00 0. -1.
        -15    1    1    2    0    0  0.62218387206E+00 -0.14374016094E+01 -0.16277405279E+01  0.28741093201E+01  0.17770000000E+01 0. -1.
         15    1    1    2    0    0 -0.34369144294E+01 -0.18811216646E+02 -0.43947903216E+02  0.47960923454E+02  0.17770000000E+01 0. -1.
</event>
<event>
 6    1  0.1507019E-006  0.1877137E+03  0.7546771E-02  0.1064379E+00
        -11   -1    0    0    0    0  0.00000000000E+00  0.00000000000E+00  0.18250000000E+03  0.18250000000E+03  0.00000000000E+00 0.  1.
         11   -1    0    0    0    0 -0.00000000000E+00 -0.00000000000E+00 -0.18250000000E+03  0.18250000000E+03  0.00000000000E+00 0.  1.
        -11    1    1    2    0    0  0.32848493103E+01 -0.65538883912E+02  0.75588651634E+02  0.10009885012E+03  0.00000000000E+00 0.  1.
         11    1    1    2    0    0 -0.39455070244E+01  0.70806667328E+02 -0.16248467364E+03  0.17728626662E+03  0.00000000000E+00 0.  1.
        -15    1    1    2    0    0 -0.29060355658E+01  0.89002147755E+00  0.39254104156E+02  0.39411668361E+02  0.17770000000E+01 0. -1.
         15    1    1    2    0    0  0.35666932799E+01 -0.61578048940E+01  0.47641917846E+02  0.48203214905E+02  0.17770000000E+01 0.  1.
</event>
<event>
 6    1  0.1507019E-006  0.1328439E+03  0.7546771E-02  0.1116717E+00
        -11   -1    0    0    0    0  0.00000000000E+00  0.00000000000E+00  0.18250000000E+03  0.18250000000E+03  0.00000000000E+00 0.  1.
         11   -1    0    0    0    0 -0.00000000000E+00 -0.00000000000E+00 -0.18250000000E+03  0.18250000000E+03  0.00000000000E+00 0.  1.
        -11    1    1    2    0    0  0.39382084937E+02  0.77572239521E+02  0.11310252827E+03  0.14269051426E+03  0.00000000000E+00 0.  1.
         11    1    1    2    0    0 -0.80496504139E+02 -0.36176496879E+02  0.36502291381E+01  0.88327517104E+02  0.00000000000E+00 0.  1.
        -15    1    1    2    0    0  0.33514181285E+02 -0.19177674880E+02 -0.92132286787E+02  0.99912459476E+02  0.17770000000E+01 0.  1.
         15    1    1    2    0    0  0.76002379172E+01 -0.22218067762E+02 -0.24620470625E+02  0.34069509158E+02  0.17770000000E+01 0. -1.
</event>
<event>
 6    1  0.1507019E-006  0.1910021E+03  0.7546771E-02  0.1061882E+00
        -11   -1    0    0    0    0  0.00000000000E+00  0.00000000000E+00  0.18250000000E+03  0.18250000000E+03  0.00000000000E+00 0.  1.
         11   -1    0    0    0    0 -0.00000000000E+00 -0.00000000000E+00 -0.18250000000E+03  0.18250000000E+03  0.00000000000E+00 0.  1.
        -11    1    1    2    0    0  0.34629240139E+01  0.13157401200E+03  0.11380496039E+03  0.17399793529E+03  0.00000000000E+00 0.  1.
         11    1    1    2    0    0  0.19071169791E+02 -0.11887490362E+03 -0.76769814281E+02  0.14278850308E+03  0.00000000000E+00 0.  1.
        -15    1    1    2    0    0 -0.13914583513E+02 -0.14115503933E+02 -0.32752240830E+02  0.38324014586E+02  0.17770000000E+01 0.  1.
         15    1    1    2    0    0 -0.86195102919E+01  0.14163955514E+01 -0.42829052772E+01  0.98895470394E+01  0.17770000000E+01 0.  1.
</event>
<event>
 6    1  0.1507019E-006  0.1490128E+03  0.7546771E-02  0.1098756E+00
        -11   -1    0    0    0    0  0.00000000000E+00  0.00000000000E+00  0.18250000000E+03  0.18250000000E+03  0.00000000000E+00 0.  1.
         11   -1    0    0    0    0 -0.00000000000E+00 -0.00000000000E+00 -0.18250000000E+03  0.18250000000E+03  0.00000000000E+00 0.  1.
        -11    1    1    2    0    0 -0.76043953846E+02 -0.56473664223E+01  0.13246014265E+03  0.15284065249E+03  0.00000000000E+00 0.  1.
         11    1    1    2    0    0  0.50095365266E+02 -0.40784603066E+02 -0.13527492657E+03  0.14990742218E+03  0.00000000000E+00 0.  1.
        -15    1    1    2    0    0  0.22241201441E+02  0.94284550039E+01  0.57811555242E+01  0.24902736667E+02  0.17770000000E+01 0. -1.
         15    1    1    2    0    0  0.37073871393E+01  0.37003514485E+02 -0.29663716074E+01  0.37349188654E+02  0.17770000000E+01 0.  1.
</event>
<event>
 6    1  0.1507019E-006  0.1856183E+03  0.7546771E-02  0.1065999E+00
        -11   -1    0    0    0    0  0.00000000000E+00  0.00000000000E+00  0.18250000000E+03  0.18250000000E+03  0.00000000000E+00 0. -1.
         11   -1    0    0    0    0 -0.00000000000E+00 -0.00000000000E+00 -0.18250000000E+03  0.18250000000E+03  0.00000000000E+00 0.  1.
        -11    1    1    2    0    0 -0.70555674979E+02  0.84903892471E+02  0.10642752312E+03  0.15334142267E+03  0.00000000000E+00 0. -1.
         11    1    1    2    0    0  0.88570006730E+02 -0.93349204327E+02 -0.12497626608E+03  0.17938168001E+03  0.00000000000E+00 0.  1.
        -15    1    1    2    0    0 -0.20658361475E+02  0.73278113564E+01  0.18743396123E+02  0.28895282407E+02  0.17770000000E+01 0. -1.
         15    1    1    2    0    0  0.26440297241E+01  0.11175005001E+01 -0.19465316996E+00  0.33816149110E+01  0.17770000000E+01 0.  1.
</event>
<event>
 6    1  0.1507019E-006  0.1870753E+03  0.7546771E-02  0.1064870E+00
        -11   -1    0    0    0    0  0.00000000000E+00  0.00000000000E+00  0.18250000000E+03  0.18250000000E+03  0.00000000000E+00 0. -1.
         11   -1    0    0    0    0 -0.00000000000E+00 -0.00000000000E+00 -0.18250000000E+03  0.18250000000E+03  0.00000000000E+00 0. -1.
        -11    1    1    2    0    0 -0.11932021316E+03  0.82983831683E+02  0.10263323799E+03  0.17792473445E+03  0.00000000000E+00 0. -1.
         11    1    1    2    0    0  0.11519115587E+03 -0.85898172516E+02 -0.89034504707E+02  0.16904035454E+03  0.00000000000E+00 0. -1.
        -15    1    1    2    0    0 -0.41626998471E+00 -0.31728024646E+01 -0.66326057421E+01  0.75755622966E+01  0.17770000000E+01 0.  1.
         15    1    1    2    0    0  0.45453272733E+01  0.60871432975E+01 -0.69661275431E+01  0.10459348713E+02  0.17770000000E+01 0. -1.
</event>
<event>
 6    1  0.1507019E-006  0.1834796E+03  0.7546771E-02  0.1067678E+00
        -11   -1    0    0    0    0  0.00000000000E+00  0.00000000000E+00  0.18250000000E+03  0.18250000000E+03  0.00000000000E+00 0.  1.
         11   -1    0    0    0    0 -0.00000000000E+00 -0.00000000000E+00 -0.18250000000E+03  0.18250000000E+03  0.00000000000E+00 0.  1.
        -11    1    1    2    0    0 -0.29463300978E+02 -0.48506695850E+02  0.11735206411E+03  0.13035525535E+03  0.00000000000E+00 0.  1.
         11    1    1    2    0    0  0.47033075052E+02  0.65238214540E+02 -0.16273148501E+03  0.18152044237E+03  0.00000000000E+00 0.  1.
        -15    1    1    2    0    0 -0.84456021791E+01 -0.40375711650E+01  0.28493688352E+02  0.30044603209E+02  0.17770000000E+01 0.  1.
         15    1    1    2    0    0 -0.91241718945E+01 -0.12693947525E+02  0.16885732550E+02  0.23079699073E+02  0.17770000000E+01 0. -1.
</event>
<event>
 6    1  0.1507019E-006  0.1847774E+03  0.7546771E-02  0.1066656E+00
        -11   -1    0    0    0    0  0.00000000000E+00  0.00000000000E+00  0.18250000000E+03  0.18250000000E+03  0.00000000000E+00 0. -1.
         11   -1    0    0    0    0 -0.00000000000E+00 -0.00000000000E+00 -0.18250000000E+03  0.18250000000E+03  0.00000000000E+00 0.  1.
        -11    1    1    2    0    0 -0.15709233493E+03 -0.45738882141E+01  0.88211500816E+02  0.18022261518E+03  0.00000000000E+00 0. -1.
         11    1    1    2    0    0  0.14721473189E+03 -0.50054178370E+01 -0.79445483213E+02  0.16735834696E+03  0.00000000000E+00 0.  1.
        -15    1    1    2    0    0  0.86638953897E+01  0.86384042865E+01 -0.86090765519E+01  0.15065159807E+02  0.17770000000E+01 0. -1.
         15    1    1    2    0    0  0.12137076486E+01  0.94090176456E+00 -0.15694105100E+00  0.23538780513E+01  0.17770000000E+01 0. -1.
</event>
<event>
 6    1  0.1507019E-006  0.1999820E+03  0.7546771E-02  0.1055332E+00
        -11   -1    0    0    0    0  0.00000000000E+00  0.00000000000E+00  0.18250000000E+03  0.18250000000E+03  0.00000000000E+00 0. -1.
         11   -1    0    0    0    0 -0.00000000000E+00 -0.00000000000E+00 -0.18250000000E+03  0.18250000000E+03  0.00000000000E+00 0.  1.
        -11    1    1    2    0    0 -0.51398063210E+02  0.40034000296E+02 -0.15161283283E+03  0.16501797830E+03  0.00000000000E+00 0.  1.
         11    1    1    2    0    0 -0.10665519675E+02 -0.42978910328E+02  0.51709098922E+02  0.68079152126E+02  0.00000000000E+00 0. -1.
        -15    1    1    2    0    0  0.64804945414E+02 -0.13141919905E+02  0.62277279464E+02  0.90851572773E+02  0.17770000000E+01 0.  1.
         15    1    1    2    0    0 -0.27413625285E+01  0.16086829936E+02  0.37626454448E+02  0.41051296804E+02  0.17770000000E+01 0. -1.
</event>
<event>
 6    1  0.1507019E-006  0.1440190E+03  0.7546771E-02  0.1104025E+00
        -11   -1    0    0    0    0  0.00000000000E+00  0.00000000000E+00  0.18250000000E+03  0.18250000000E+03  0.00000000000E+00 0.  1.
         11   -1    0    0    0    0 -0.00000000000E+00 -0.00000000000E+00 -0.18250000000E+03  0.18250000000E+03  0.00000000000E+00 0.  1.
        -11    1    1    2    0    0  0.47264574863E+02 -0.10447269866E+03  0.12353527588E+03  0.16855102844E+03  0.00000000000E+00 0.  1.
         11    1    1    2    0    0 -0.44106035933E+02  0.10630944213E+03 -0.54983288858E+02  0.12755470178E+03  0.00000000000E+00 0.  1.
        -15    1    1    2    0    0 -0.25480355125E+01 -0.28459140575E+01 -0.31436027719E+02  0.31717081826E+02  0.17770000000E+01 0. -1.
         15    1    1    2    0    0 -0.61050341718E+00  0.10091705851E+01 -0.37115959306E+02  0.37177187950E+02  0.17770000000E+01 0.  1.
</event>
<event>
 6    1  0.1507019E-006  0.1490233E+03  0.7546771E-02  0.1098745E+00
        -11   -1    0    0    0    0  0.00000000000E+00  0.00000000000E+00  0.18250000000E+03  0.18250000000E+03  0.00000000000E+00 0. -1.
         11   -1    0    0    0    0 -0.00000000000E+00 -0.00000000000E+00 -0.18250000000E+03  0.18250000000E+03  0.00000000000E+00 0. -1.
        -11    1    1    2    0    0  0.10237269051E+03  0.76593143467E+02  0.10973082726E+03  0.16848599894E+03  0.00000000000E+00 0. -1.
         11    1    1    2    0    0 -0.96311532724E+02 -0.80705340746E+02 -0.50594997491E+02  0.13545891308E+03  0.00000000000E+00 0. -1.
        -15    1    1    2    0    0 -0.34803616775E+01 -0.34855109291E+01 -0.10538498194E+02  0.11767726077E+02  0.17770000000E+01 0.  1.
         15    1    1    2    0    0 -0.25807961068E+01  0.75977082083E+01 -0.48597331574E+02  0.49287361907E+02  0.17770000000E+01 0. -1.
</event>
<event>
 6    1  0.1507019E-006  0.1874588E+03  0.7546771E-02  0.1064575E+00
        -11   -1    0    0    0    0  0.00000000000E+00  0.00000000000E+00  0.18250000000E+03  0.18250000000E+03  0.00000000000E+00 0. -1.
         11   -1    0    0    0    0 -0.00000000000E+00 -0.00000000000E+00 -0.18250000000E+03  0.18250000000E+03  0.00000000000E+00 0.  1.
        -11    1    1    2    0    0 -0.50030910931E+02  0.93455073540E+02  0.87846041478E+02  0.13767305409E+03  0.00000000000E+00 0. -1.
         11    1    1    2    0    0  0.69379760343E+02 -0.95585020388E+02 -0.13255496805E+03  0.17754116937E+03  0.00000000000E+00 0.  1.
        -15    1    1    2    0    0 -0.67356751443E+01 -0.36931881266E+01  0.15299915439E+02  0.17212033570E+02  0.17770000000E+01 0. -1.
         15    1    1    2    0    0 -0.12613174268E+02  0.58231349750E+01  0.29409011134E+02  0.32573742967E+02  0.17770000000E+01 0. -1.
</event>
<event>
 6    1  0.1507019E-006  0.1494469E+03  0.7546771E-02  0.1098309E+00
        -11   -1    0    0    0    0  0.00000000000E+00  0.00000000000E+00  0.18250000000E+03  0.18250000000E+03  0.00000000000E+00 0. -1.
         11   -1    0    0    0    0 -0.00000000000E+00 -0.00000000000E+00 -0.18250000000E+03  0.18250000000E+03  0.00000000000E+00 0. -1.
        -11    1    1    2    0    0  0.35405214536E+02 -0.18485387564E+02  0.15195899357E+03  0.15712025489E+03  0.00000000000E+00 0. -1.
         11    1    1    2    0    0 -0.97695376436E+01 -0.13512086163E+02 -0.14372107780E+03  0.14468506675E+03  0.00000000000E+00 0. -1.
        -15    1    1    2    0    0 -0.32126571430E+01  0.71069261013E+01  0.18590399031E+02  0.20238335644E+02  0.17770000000E+01 0.  1.
         15    1    1    2    0    0 -0.22423019749E+02  0.24890547625E+02 -0.26828314801E+02  0.42956342719E+02  0.17770000000E+01 0. -1.
</event>
<event>
 6    1  0.1507019E-006  0.1605135E+03  0.7546771E-02  0.1087442E+00
        -11   -1    0    0    0    0  0.00000000000E+00  0.00000000000E+00  0.18250000000E+03  0.18250000000E+03  0.00000000000E+00 0.  1.
         11   -1    0    0    0    0 -0.00000000000E+00 -0.00000000000E+00 -0.18250000000E+03  0.18250000000E+03  0.00000000000E+00 0.  1.
        -11    1    1    2    0    0  0.15644284079E+03 -0.93732487679E+00  0.35376823158E+02  0.16039563781E+03  0.00000000000E+00 0.  1.
         11    1    1    2    0    0 -0.14594481533E+03 -0.39729222021E+01 -0.72407220338E+02  0.16296772315E+03  0.00000000000E+00 0.  1.
        -15    1    1    2    0    0 -0.51299478246E+01 -0.42987681064E+01  0.22413087938E+02  0.23458474201E+02  0.17770000000E+01 0. -1.
         15    1    1    2    0    0 -0.53680776389E+01  0.92090151853E+01  0.14617309243E+02  0.18178164833E+02  0.17770000000E+01 0.  1.
</event>
<event>
 6    1  0.1507019E-006  0.1453005E+03  0.7546771E-02  0.1102650E+00
        -11   -1    0    0    0    0  0.00000000000E+00  0.00000000000E+00  0.18250000000E+03  0.18250000000E+03  0.00000000000E+00 0.  1.
         11   -1    0    0    0    0 -0.00000000000E+00 -0.00000000000E+00 -0.18250000000E+03  0.18250000000E+03  0.00000000000E+00 0. -1.
        -11    1    1    2    0    0  0.13698666882E+03  0.11877834578E+02  0.90622843168E+02  0.16467826236E+03  0.00000000000E+00 0.  1.
         11    1    1    2    0    0 -0.12883675324E+03 -0.15294099186E+02 -0.27991661851E+02  0.13272660468E+03  0.00000000000E+00 0. -1.
        -15    1    1    2    0    0 -0.15033152802E+02  0.39933334239E+01 -0.54846424119E+02  0.57037096372E+02  0.17770000000E+01 0. -1.
         15    1    1    2    0    0  0.68832372204E+01 -0.57706881513E+00 -0.77847571990E+01  0.10558036593E+02  0.17770000000E+01 0.  1.
</event>
<event>
 6    1  0.1507019E-006  0.1856905E+03  0.7546771E-02  0.1065943E+00
        -11   -1    0    0    0    0  0.00000000000E+00  0.00000000000E+00  0.18250000000E+03  0.18250000000E+03  0.00000000000E+00 0.  1.
         11   -1    0    0    0    0 -0.00000000000E+00 -0.00000000000E+00 -0.18250000000E+03  0.18250000000E+03  0.00000000000E+00 0. -1.
        -11    1    1    2    0    0  0.41013118573E+02  0.52562125370E+02  0.10127445967E+03  0.12124920247E+03  0.00000000000E+00 0.  1.
         11    1    1    2    0    0 -0.31759835589E+02 -0.67679266803E+02 -0.16298070858E+03  0.17930945786E+03  0.00000000000E+00 0. -1.
        -15    1    1    2    0    0 -0.72396100195E+01  0.13122212914E+02  0.53251524158E+02  0.55348775769E+02  0.17770000000E+01 0. -1.
         15    1    1    2    0    0 -0.20136729651E+01  0.19949285188E+01  0.84547247529E+01  0.90925638987E+01  0.17770000000E+01 0. -1.
</event>
<event>
 6    1  0.1507019E-006  0.1285650E+03  0.7546771E-02  0.1121947E+00
        -11   -1    0    0    0    0  0.00000000000E+00  0.00000000000E+00  0.18250000000E+03  0.18250000000E+03  0.00000000000E+00 0.  1.
         11   -1    0    0    0    0 -0.00000000000E+00 -0.00000000000E+00 -0.18250000000E+03  0.18250000000E+03  0.00000000000E+00 0. -1.
        -11    1    1    2    0    0 -0.27992975733E+02 -0.34699813565E+02  0.14199847241E+03  0.14883295979E+03  0.00000000000E+00 0.  1.
         11    1    1    2    0    0 -0.15978386633E+02 -0.38802032085E+02 -0.11607177465E+03  0.12342432258E+03  0.00000000000E+00 0. -1.
        -15    1    1    2    0    0  0.19214895756E+02  0.28389706895E+02 -0.22697209812E+02  0.41152262863E+02  0.17770000000E+01 0.  1.
         15    1    1    2    0    0  0.24756466611E+02  0.45112138755E+02 -0.32294879472E+01  0.51590454772E+02  0.17770000000E+01 0. -1.
</event>
<event>
 6    1  0.1507019E-006  0.1861721E+03  0.7546771E-02  0.1065569E+00
        -11   -1    0    0    0    0  0.00000000000E+00  0.00000000000E+00  0.18250000000E+03  0.18250000000E+03  0.00000000000E+00 0. -1.
         11   -1    0    0    0    0 -0.00000000000E+00 -0.00000000000E+00 -0.18250000000E+03  0.18250000000E+03  0.00000000000E+00 0. -1.
        -11    1    1    2    0    0  0.60365054581E+01 -0.12538141993E+03  0.12736756023E+03  0.17882794877E+03  0.00000000000E+00 0. -1.
         11    1    1    2    0    0 -0.21071086021E+02  0.97363313033E+02 -0.82605013583E+02  0.12941094876E+03  0.00000000000E+00 0. -1.
        -15    1    1    2    0    0  0.67253655910E+01  0.26970031505E+01 -0.15121493582E+02  0.16861840513E+02  0.17770000000E+01 0.  1.
         15    1    1    2    0    0  0.83092149721E+01  0.25321103748E+02 -0.29641053066E+02  0.39899261953E+02  0.17770000000E+01 0.  1.
</event>
<event>
 6    1  0.1507019E-006  0.1401558E+03  0.7546771E-02  0.1108264E+00
        -11   -1    0    0    0    0  0.00000000000E+00  0.00000000000E+00  0.18250000000E+03  0.18250000000E+03  0.00000000000E+00 0.  1.
         11   -1    0    0    0    0 -0.00000000000E+00 -0.00000000000E+00 -0.18250000000E+03  0.18250000000E+03  0.00000000000E+00 0. -1.
        -11    1    1    2    0    0 -0.64646319620E+02 -0.32188659101E+01  0.15525772660E+03  0.16820959963E+03  0.00000000000E+00 0.  1.
         11    1    1    2    0    0  0.54799628657E+02 -0.32549034922E+02 -0.39682714204E+02  0.75081001471E+02  0.00000000000E+00 0. -1.
        -15    1    1    2    0    0  0.81900159524E+01  0.15789219205E+02 -0.59790084360E+02  0.62405029615E+02  0.17770000000E+01 0. -1.
         15    1    1    2    0    0  0.16566750107E+01  0.19978681627E+02 -0.55784928035E+02  0.59304369287E+02  0.17770000000E+01 0.  1.
</event>
<event>
 6    1  0.1925983E-006  0.1400083E+03  0.7546771E-02  0.1108429E+00
        -11   -1    0    0    0    0  0.00000000000E+00  0.00000000000E+00  0.18250000000E+03  0.18250000000E+03  0.00000000000E+00 0.  1.
         11   -1    0    0    0    0 -0.00000000000E+00 -0.00000000000E+00 -0.18250000000E+03  0.18250000000E+03  0.00000000000E+00 0. -1.
        -11    1    1    2    0    0 -0.51538832549E+02 -0.90967015158E+02  0.59275536027E+02  0.12018668095E+03  0.00000000000E+00 0.  1.
         11    1    1    2    0    0  0.52972856986E+02  0.89327206621E+02 -0.13419534106E+03  0.16968754516E+03  0.00000000000E+00 0. -1.
        -15    1    1    2    0    0  0.35633694377E+00 -0.47172963270E+00  0.42070499541E+02  0.42112161729E+02  0.17770000000E+01 0. -1.
         15    1    1    2    0    0 -0.17903613805E+01  0.21115381695E+01  0.32849305492E+02  0.33013612157E+02  0.17770000000E+01 0.  1.
</event>
<event>
 6    1  0.1507019E-006  0.1457117E+03  0.7546771E-02  0.1102213E+00
        -11   -1    0    0    0    0  0.00000000000E+00  0.00000000000E+00  0.18250000000E+03  0.18250000000E+03  0.00000000000E+00 0.  1.
         11   -1    0    0    0    0 -0.00000000000E+00 -0.00000000000E+00 -0.18250000000E+03  0.18250000000E+03  0.00000000000E+00 0. -1.
        -11    1    1    2    0    0 -0.26950310387E+02 -0.84706199676E+02  0.10729642255E+03  0.13933406542E+03  0.00000000000E+00 0.  1.
         11    1    1    2    0    0  0.72006491406E+02  0.85362205145E+02 -0.10828426536E+03  0.15555424454E+03  0.00000000000E+00 0. -1.
        -15    1    1    2    0    0 -0.28627611637E+02  0.80533450233E+01  0.25554453214E+02  0.39250277988E+02  0.17770000000E+01 0.  1.
         15    1    1    2    0    0 -0.16428569382E+02 -0.87093504927E+01 -0.24566610407E+02  0.30861412052E+02  0.17770000000E+01 0. -1.
</event>
<event>
 6    1  0.1507019E-006  0.1920495E+03  0.7546771E-02  0.1061098E+00
        -11   -1    0    0    0    0  0.00000000000E+00  0.00000000000E+00  0.18250000000E+03  0.18250000000E+03  0.00000000000E+00 0.  1.
         11   -1    0    0    0    0 -0.00000000000E+00 -0.00000000000E+00 -0.18250000000E+03  0.18250000000E+03  0.00000000000E+00 0.  1.
        -11    1    1    2    0    0  0.75972431240E+02  0.15448444230E+03  0.16571569081E+02  0.17295048460E+03  0.00000000000E+00 0.  1.
         11    1    1    2    0    0 -0.78044898741E+02 -0.98679617279E+02  0.53249031056E+01  0.12592469051E+03  0.00000000000E+00 0.  1.
        -15    1    1    2    0    0 -0.80063902681E+00 -0.20242899725E+02 -0.22590845172E+02  0.30396052815E+02  0.17770000000E+01 0. -1.
         15    1    1    2    0    0  0.28731065278E+01 -0.35561925293E+02  0.69437298613E+00  0.35728772083E+02  0.17770000000E+01 0.  1.
</event>
<event>
 6    1  0.1507019E-006  0.1920542E+03  0.7546771E-02  0.1061094E+00
        -11   -1    0    0    0    0  0.00000000000E+00  0.00000000000E+00  0.18250000000E+03  0.18250000000E+03  0.00000000000E+00 0. -1.
         11   -1    0    0    0    0 -0.00000000000E+00 -0.00000000000E+00 -0.18250000000E+03  0.18250000000E+03  0.00000000000E+00 0.  1.
        -11    1    1    2    0    0  0.29312930008E+02 -0.39455371912E+02  0.16581399736E+03  0.17294581798E+03  0.00000000000E+00 0. -1.
         11    1    1    2    0    0 -0.48019922927E+02  0.36620547221E+02 -0.11921490642E+03  0.13363821081E+03  0.00000000000E+00 0.  1.
        -15    1    1    2    0    0  0.10504960626E+02 -0.46518373941E+01 -0.45675461358E+02  0.47131722737E+02  0.17770000000E+01 0. -1.
         15    1    1    2    0    0  0.82020322929E+01  0.74866620857E+01 -0.92362957865E+00  0.11284248469E+02  0.17770000000E+01 0. -1.
</event>
<event>
 6    1  0.1507019E-006  0.1943850E+03  0.7546771E-02  0.1059369E+00
        -11   -1    0    0    0    0  0.00000000000E+00  0.00000000000E+00  0.18250000000E+03  0.18250000000E+03  0.00000000000E+00 0. -1.
         11   -1    0    0    0    0 -0.00000000000E+00 -0.00000000000E+00 -0.18250000000E+03  0.18250000000E+03  0.00000000000E+00 0.  1.
        -11    1    1    2    0    0  0.24005237138E+02 -0.48495917479E+01  0.13683896497E+03  0.13901320903E+03  0.00000000000E+00 0. -1.
         11    1    1    2    0    0 -0.36695734077E+02  0.30982531939E+02 -0.16371618394E+03  0.17061501420E+03  0.00000000000E+00 0.  1.
        -15    1    1    2    0    0  0.17455661293E+02  0.96205262328E+00  0.20639602925E+02  0.27106762889E+02  0.17770000000E+01 0. -1.
         15    1    1    2    0    0 -0.47651643531E+01 -0.27094992814E+02  0.62376160468E+01  0.28265013884E+02  0.17770000000E+01 0.  1.
</event>
<event>
 6    1  0.1507019E-006  0.1875852E+03  0.7546771E-02  0.1064478E+00
        -11   -1    0    0    0    0  0.00000000000E+00  0.00000000000E+00  0.18250000000E+03  0.18250000000E+03  0.00000000000E+00 0.  1.
         11   -1    0    0    0    0 -0.00000000000E+00 -0.00000000000E+00 -0.18250000000E+03  0.18250000000E+03  0.00000000000E+00 0.  1.
        -11    1    1    2    0    0  0.50449000267E+02  0.20401299007E+01  0.58452347909E+02  0.77239502419E+02  0.00000000000E+00 0.  1.
         11    1    1    2    0    0 -0.58198688555E+02  0.62239693238E+01 -0.16748185080E+03  0.17741475556E+03  0.00000000000E+00 0.  1.
        -15    1    1    2    0    0  0.10429622821E+02 -0.71941312923E+01  0.69235858627E+02  0.70408056400E+02  0.17770000000E+01 0.  1.
         15    1    1    2    0    0 -0.26799345334E+01 -0.10699679322E+01  0.39793644260E+02  0.39937685623E+02  0.17770000000E+01 0.  1.
</event>
<event>
 6    1  0.1507019E-006  0.1750952E+03  0.7546771E-02  0.1074507E+00
        -11   -1    0    0    0    0  0.00000000000E+00  0.00000000000E+00  0.18250000000E+03  0.18250000000E+03  0.00000000000E+00 0. -1.
         11   -1    0    0    0    0 -0.00000000000E+00 -0.00000000000E+00 -0.18250000000E+03  0.18250000000E+03  0.00000000000E+00 0. -1.
        -11    1    1    2    0    0 -0.33953674069E+01  0.76051429464E+02  0.16111111593E+03  0.17819130203E+03  0.00000000000E+00 0. -1.
         11    1    1    2    0    0  0.30203122684E+01 -0.83775134097E+02 -0.15047028856E+03  0.17224605400E+03  0.00000000000E+00 0. -1.
        -15    1    1    2    0    0  0.50256475476E+00  0.37769848169E+01 -0.15279991610E+01  0.44733316528E+01  0.17770000000E+01 0. -1.
         15    1    1    2    0    0 -0.12750961623E+00  0.39467198161E+01 -0.91128282059E+01  0.10089312312E+02  0.17770000000E+01 0. -1.
</event>
<event>
 6    1  0.1507019E-006  0.1889741E+03  0.7546771E-02  0.1063415E+00
        -11   -1    0    0    0    0  0.00000000000E+00  0.00000000000E+00  0.18250000000E+03  0.18250000000E+03  0.00000000000E+00 0.  1.
         11   -1    0    0    0    0 -0.00000000000E+00 -0.00000000000E+00 -0.18250000000E+03  0.18250000000E+03  0.00000000000E+00 0. -1.
        -11    1    1    2    0    0  0.62787125780E+02  0.43863852492E+02  0.51038476721E+02  0.92039050545E+02  0.00000000000E+00 0.  1.
         11    1    1    2    0    0 -0.87679214836E+02 -0.57291829651E+02 -0.14147482293E+03  0.17602591849E+03  0.00000000000E+00 0. -1.
        -15    1    1    2    0    0  0.22083951738E+02  0.12434182937E+01  0.54519863308E+02  0.58862723668E+02  0.17770000000E+01 0.  1.
         15    1    1    2    0    0  0.28081373183E+01  0.12184558865E+02  0.35916482898E+02  0.38072307294E+02  0.17770000000E+01 0. -1.
</event>
<event>
 6    1  0.1507019E-006  0.1844733E+03  0.7546771E-02  0.1066895E+00
        -11   -1    0    0    0    0  0.00000000000E+00  0.00000000000E+00  0.18250000000E+03  0.18250000000E+03  0.00000000000E+00 0.  1.
         11   -1    0    0    0    0 -0.00000000000E+00 -0.00000000000E+00 -0.18250000000E+03  0.18250000000E+03  0.00000000000E+00 0.  1.
        -11    1    1    2    0    0  0.29089149903E+02  0.67511606636E+02  0.14023341503E+03  0.15833321308E+03  0.00000000000E+00 0.  1.
         11    1    1    2    0    0 -0.27203864354E+02 -0.65734964100E+02 -0.16591792672E+03  0.18052671311E+03  0.00000000000E+00 0.  1.
        -15    1    1    2    0    0 -0.14640579657E+01 -0.14928735167E+01  0.10882585306E+02  0.11223213844E+02  0.17770000000E+01 0. -1.
         15    1    1    2    0    0 -0.42122758386E+00 -0.28376901969E+00  0.14801926383E+02  0.14916859964E+02  0.17770000000E+01 0.  1.
</event>
<event>
 6    1  0.1507019E-006  0.1535357E+03  0.7546771E-02  0.1094177E+00
        -11   -1    0    0    0    0  0.00000000000E+00  0.00000000000E+00  0.18250000000E+03  0.18250000000E+03  0.00000000000E+00 0. -1.
         11   -1    0    0    0    0 -0.00000000000E+00 -0.00000000000E+00 -0.18250000000E+03  0.18250000000E+03  0.00000000000E+00 0.  1.
        -11    1    1    2    0    0 -0.13254399160E+02  0.38699908037E+02  0.15721712912E+03  0.16245180106E+03  0.00000000000E+00 0. -1.
         11    1    1    2    0    0 -0.35142418185E+02  0.12577979604E+02 -0.49751256510E+02  0.62196323454E+02  0.00000000000E+00 0.  1.
        -15    1    1    2    0    0  0.41092077881E+02 -0.40276570608E+02 -0.36537790153E+02  0.68183053927E+02  0.17770000000E+01 0.  1.
         15    1    1    2    0    0  0.73047394642E+01 -0.11001317033E+02 -0.70928082457E+02  0.72168821559E+02  0.17770000000E+01 0. -1.
</event>
<event>
 6    1  0.1507019E-006  0.1732777E+03  0.7546771E-02  0.1076042E+00
        -11   -1    0    0    0    0  0.00000000000E+00  0.00000000000E+00  0.18250000000E+03  0.18250000000E+03  0.00000000000E+00 0. -1.
         11   -1    0    0    0    0 -0.00000000000E+00 -0.00000000000E+00 -0.18250000000E+03  0.18250000000E+03  0.00000000000E+00 0.  1.
        -11    1    1    2    0    0  0.79091418829E+02  0.32563184783E+02  0.15465014977E+03  0.17672714098E+03  0.00000000000E+00 0. -1.
         11    1    1    2    0    0 -0.63297218689E+02 -0.38473746367E+02 -0.15328165102E+03  0.17024109843E+03  0.00000000000E+00 0.  1.
        -15    1    1    2    0    0 -0.95306833346E+01  0.48992145812E+01  0.12655137830E+01  0.10935971949E+02  0.17770000000E+01 0. -1.
         15    1    1    2    0    0 -0.62635168050E+01  0.10113470026E+01 -0.26340125271E+01  0.70957886467E+01  0.17770000000E+01 0. -1.
</event>
<event>
 6    1  0.1507019E-006  0.1845379E+03  0.7546771E-02  0.1066844E+00
        -11   -1    0    0    0    0  0.00000000000E+00  0.00000000000E+00  0.18250000000E+03  0.18250000000E+03  0.00000000000E+00 0. -1.
         11   -1    0    0    0    0 -0.00000000000E+00 -0.00000000000E+00 -0.18250000000E+03  0.18250000000E+03  0.00000000000E+00 0. -1.
        -11    1    1    2    0    0 -0.26501930211E+01  0.40727753356E+02  0.12421042114E+03  0.13074403289E+03  0.00000000000E+00 0. -1.
         11    1    1    2    0    0 -0.20899315702E+01 -0.83865621911E+01  0.53094941044E+02  0.53793819383E+02  0.00000000000E+00 0. -1.
        -15    1    1    2    0    0 -0.11551856376E+01 -0.33835750513E+01 -0.19762327995E+02  0.20161606353E+02  0.17770000000E+01 0. -1.
         15    1    1    2    0    0  0.58953102289E+01 -0.28957616113E+02 -0.15754303419E+03  0.16030054137E+03  0.17770000000E+01 0. -1.
</event>
