<event>
 6    1  0.5115519E-002  0.1834796E+03  0.7546771E-02  0.1067678E+00
        -11   -1    0    0    0    0  0.00000000000E+00  0.00000000000E+00  0.18250000000E+03  0.18250000000E+03  0.00000000000E+00 0.  1.
         11   -1    0    0    0    0 -0.00000000000E+00 -0.00000000000E+00 -0.18250000000E+03  0.18250000000E+03  0.00000000000E+00 0. -1.
        -11    1    1    2    0    0 -0.14721710908E+01  0.15284743383E+01  0.15382652591E+03  0.15384116353E+03  0.00000000000E+00 0.  1.
         11    1    1    2    0    0 -0.52188123902E+01 -0.70126426697E+01 -0.18130976228E+03  0.18152036541E+03  0.00000000000E+00 0. -1.
        -15    1    1    2    0    0  0.31427311883E+01  0.40544350703E+01  0.77680314213E+01  0.94770904936E+01  0.17770000000E+01 0. -1.
         15    1    1    2    0    0  0.35482522928E+01  0.14297332611E+01  0.19715204944E+02  0.20161380571E+02  0.17770000000E+01 0.  1.
</event>
<event>
 6    1  0.5115519E-002  0.1839757E+03  0.7546771E-02  0.1067286E+00
        -11   -1    0    0    0    0  0.00000000000E+00  0.00000000000E+00  0.18250000000E+03  0.18250000000E+03  0.00000000000E+00 0.  1.
         11   -1    0    0    0    0 -0.00000000000E+00 -0.00000000000E+00 -0.18250000000E+03  0.18250000000E+03  0.00000000000E+00 0. -1.
        -11    1    1    2    0    0 -0.26993588634E+01 -0.66839368143E+00  0.15500637745E+03  0.15503132051E+03  0.00000000000E+00 0.  1.
         11    1    1    2    0    0  0.70461255703E+00 -0.88149090169E+01 -0.18080818841E+03  0.18102430803E+03  0.00000000000E+00 0. -1.
        -15    1    1    2    0    0 -0.65176391109E+00 -0.67430580681E+00  0.75675727705E+01  0.78297746554E+01  0.17770000000E+01 0.  1.
         15    1    1    2    0    0  0.26465102174E+01  0.10157608505E+02  0.18234238195E+02  0.21114596809E+02  0.17770000000E+01 0.  1.
</event>
<event>
 6    1  0.5115519E-002  0.1832810E+03  0.7546771E-02  0.1067835E+00
        -11   -1    0    0    0    0  0.00000000000E+00  0.00000000000E+00  0.18250000000E+03  0.18250000000E+03  0.00000000000E+00 0. -1.
         11   -1    0    0    0    0 -0.00000000000E+00 -0.00000000000E+00 -0.18250000000E+03  0.18250000000E+03  0.00000000000E+00 0.  1.
        -11    1    1    2    0    0 -0.69163080819E-01 -0.36176614720E+01  0.14399704223E+03  0.14404249522E+03  0.00000000000E+00 0. -1.
         11    1    1    2    0    0 -0.91511295896E+01  0.14230458775E+01 -0.18148285120E+03  0.18171899602E+03  0.00000000000E+00 0.  1.
        -15    1    1    2    0    0  0.45227677870E+01  0.38637691002E+01  0.17704390797E+02  0.18761325183E+02  0.17770000000E+01 0. -1.
         15    1    1    2    0    0  0.46975248834E+01 -0.16691535057E+01  0.19781418175E+02  0.20477183583E+02  0.17770000000E+01 0.  1.
</event>
<event>
 6    1  0.5115519E-002  0.1721430E+03  0.7546771E-02  0.1077011E+00
        -11   -1    0    0    0    0  0.00000000000E+00  0.00000000000E+00  0.18250000000E+03  0.18250000000E+03  0.00000000000E+00 0. -1.
         11   -1    0    0    0    0 -0.00000000000E+00 -0.00000000000E+00 -0.18250000000E+03  0.18250000000E+03  0.00000000000E+00 0.  1.
        -11    1    1    2    0    0  0.35502361968E+01  0.12004210485E+01  0.16948373241E+03  0.16952516255E+03  0.00000000000E+00 0. -1.
         11    1    1    2    0    0  0.48936278240E+01 -0.17771582550E+02 -0.17432504736E+03  0.17529688781E+03  0.00000000000E+00 0.  1.
        -15    1    1    2    0    0 -0.25023927869E+01  0.99130321254E+01  0.36546702886E+01  0.11002023427E+02  0.17770000000E+01 0.  1.
         15    1    1    2    0    0 -0.59414712338E+01  0.66581293763E+01  0.11866446602E+01  0.91759262074E+01  0.17770000000E+01 0. -1.
</event>
<event>
 6    1  0.5115519E-002  0.1747979E+03  0.7546771E-02  0.1074756E+00
        -11   -1    0    0    0    0  0.00000000000E+00  0.00000000000E+00  0.18250000000E+03  0.18250000000E+03  0.00000000000E+00 0.  1.
         11   -1    0    0    0    0 -0.00000000000E+00 -0.00000000000E+00 -0.18250000000E+03  0.18250000000E+03  0.00000000000E+00 0.  1.
        -11    1    1    2    0    0  0.18836368130E+01  0.64070969881E+01  0.17689754159E+03  0.17702355549E+03  0.00000000000E+00 0.  1.
         11    1    1    2    0    0  0.86498934657E+01  0.58365078564E+00 -0.17260950188E+03  0.17282708539E+03  0.00000000000E+00 0.  1.
        -15    1    1    2    0    0 -0.10683140527E+01 -0.38792341419E+01 -0.10356436683E+01  0.45188537540E+01  0.17770000000E+01 0. -1.
         15    1    1    2    0    0 -0.94652162260E+01 -0.31115136319E+01 -0.32523960343E+01  0.10630505362E+02  0.17770000000E+01 0.  1.
</event>
<event>
 6    1  0.5115519E-002  0.1828924E+03  0.7546771E-02  0.1068143E+00
        -11   -1    0    0    0    0  0.00000000000E+00  0.00000000000E+00  0.18250000000E+03  0.18250000000E+03  0.00000000000E+00 0. -1.
         11   -1    0    0    0    0 -0.00000000000E+00 -0.00000000000E+00 -0.18250000000E+03  0.18250000000E+03  0.00000000000E+00 0.  1.
        -11    1    1    2    0    0  0.18172280930E+01 -0.19718638808E+01  0.18208781966E+03  0.18210756336E+03  0.00000000000E+00 0. -1.
         11    1    1    2    0    0  0.16920426565E+01  0.19578700679E+01 -0.15585026187E+03  0.15587174339E+03  0.00000000000E+00 0.  1.
        -15    1    1    2    0    0 -0.24133589593E+01  0.16469454691E+01 -0.19166677460E+02  0.19469360151E+02  0.17770000000E+01 0. -1.
         15    1    1    2    0    0 -0.10959117902E+01 -0.16329516561E+01 -0.70708803348E+01  0.75513330924E+01  0.17770000000E+01 0. -1.
</event>
<event>
 6    1  0.5115519E-002  0.1833225E+03  0.7546771E-02  0.1067802E+00
        -11   -1    0    0    0    0  0.00000000000E+00  0.00000000000E+00  0.18250000000E+03  0.18250000000E+03  0.00000000000E+00 0.  1.
         11   -1    0    0    0    0 -0.00000000000E+00 -0.00000000000E+00 -0.18250000000E+03  0.18250000000E+03  0.00000000000E+00 0. -1.
        -11    1    1    2    0    0 -0.32635025135E+01 -0.36235130621E+01  0.18161205739E+03  0.18167751563E+03  0.00000000000E+00 0.  1.
         11    1    1    2    0    0  0.41632366331E+01  0.12912332422E+01 -0.16419700309E+03  0.16425484968E+03  0.00000000000E+00 0. -1.
        -15    1    1    2    0    0 -0.11697593354E+00  0.27453110407E+01 -0.16603599037E+02  0.16922991640E+02  0.17770000000E+01 0.  1.
         15    1    1    2    0    0 -0.78275818613E+00 -0.41303122087E+00 -0.81145526441E+00  0.21446430504E+01  0.17770000000E+01 0. -1.
</event>
<event>
 6    1  0.5115519E-002  0.1838190E+03  0.7546771E-02  0.1067410E+00
        -11   -1    0    0    0    0  0.00000000000E+00  0.00000000000E+00  0.18250000000E+03  0.18250000000E+03  0.00000000000E+00 0.  1.
         11   -1    0    0    0    0 -0.00000000000E+00 -0.00000000000E+00 -0.18250000000E+03  0.18250000000E+03  0.00000000000E+00 0.  1.
        -11    1    1    2    0    0  0.29655029689E+01 -0.36603430494E+01  0.15951491356E+03  0.15958446029E+03  0.00000000000E+00 0.  1.
         11    1    1    2    0    0 -0.57679137325E+01 -0.43031439603E+01 -0.18103800150E+03  0.18118096993E+03  0.00000000000E+00 0.  1.
        -15    1    1    2    0    0  0.26008092051E+01  0.56859025277E+01  0.75412366706E+01  0.99559869224E+01  0.17770000000E+01 0. -1.
         15    1    1    2    0    0  0.20160155856E+00  0.22775844820E+01  0.13981851276E+02  0.14278582856E+02  0.17770000000E+01 0. -1.
</event>
<event>
 6    1  0.5115519E-002  0.1827747E+03  0.7546771E-02  0.1068236E+00
        -11   -1    0    0    0    0  0.00000000000E+00  0.00000000000E+00  0.18250000000E+03  0.18250000000E+03  0.00000000000E+00 0. -1.
         11   -1    0    0    0    0 -0.00000000000E+00 -0.00000000000E+00 -0.18250000000E+03  0.18250000000E+03  0.00000000000E+00 0. -1.
        -11    1    1    2    0    0 -0.45567412713E+01 -0.29231792028E+01  0.18214489488E+03  0.18222533193E+03  0.00000000000E+00 0. -1.
         11    1    1    2    0    0  0.47361942847E+01 -0.17271875030E+01 -0.62437113372E+02  0.62640305229E+02  0.00000000000E+00 0. -1.
        -15    1    1    2    0    0 -0.41204949900E+01  0.21365173517E+01 -0.49572493507E+02  0.49821009894E+02  0.17770000000E+01 0.  1.
         15    1    1    2    0    0  0.39410419766E+01  0.25138493541E+01 -0.70135287999E+02  0.70313352944E+02  0.17770000000E+01 0. -1.
</event>
<event>
 6    1  0.5115519E-002  0.1826973E+03  0.7546771E-02  0.1068298E+00
        -11   -1    0    0    0    0  0.00000000000E+00  0.00000000000E+00  0.18250000000E+03  0.18250000000E+03  0.00000000000E+00 0.  1.
         11   -1    0    0    0    0 -0.00000000000E+00 -0.00000000000E+00 -0.18250000000E+03  0.18250000000E+03  0.00000000000E+00 0. -1.
        -11    1    1    2    0    0  0.17697034315E+01  0.36653586281E+01  0.18225730389E+03  0.18230274690E+03  0.00000000000E+00 0.  1.
         11    1    1    2    0    0 -0.50936064677E+01  0.91210247749E+00 -0.64980750145E+02  0.65186460612E+02  0.00000000000E+00 0. -1.
        -15    1    1    2    0    0  0.19897183251E+01 -0.38379022546E+01 -0.94153587791E+02  0.94269530049E+02  0.17770000000E+01 0. -1.
         15    1    1    2    0    0  0.13341847111E+01 -0.73955885101E+00 -0.23122965958E+02  0.23241262441E+02  0.17770000000E+01 0. -1.
</event>
<event>
 6    1  0.5115519E-002  0.1837796E+03  0.7546771E-02  0.1067441E+00
        -11   -1    0    0    0    0  0.00000000000E+00  0.00000000000E+00  0.18250000000E+03  0.18250000000E+03  0.00000000000E+00 0. -1.
         11   -1    0    0    0    0 -0.00000000000E+00 -0.00000000000E+00 -0.18250000000E+03  0.18250000000E+03  0.00000000000E+00 0. -1.
        -11    1    1    2    0    0 -0.31984433014E+01  0.26140676497E+01  0.18117334205E+03  0.18122042726E+03  0.00000000000E+00 0. -1.
         11    1    1    2    0    0  0.13651999536E+01  0.59797309410E+01 -0.16337299321E+03  0.16348809089E+03  0.00000000000E+00 0. -1.
        -15    1    1    2    0    0  0.94868428513E+00 -0.34315379440E+01 -0.53459471001E+01  0.66642579431E+01  0.17770000000E+01 0. -1.
         15    1    1    2    0    0  0.88455906275E+00 -0.51622606466E+01 -0.12454401738E+02  0.13627223905E+02  0.17770000000E+01 0.  1.
</event>
<event>
 6    1  0.5115519E-002  0.1826443E+03  0.7546771E-02  0.1068340E+00
        -11   -1    0    0    0    0  0.00000000000E+00  0.00000000000E+00  0.18250000000E+03  0.18250000000E+03  0.00000000000E+00 0.  1.
         11   -1    0    0    0    0 -0.00000000000E+00 -0.00000000000E+00 -0.18250000000E+03  0.18250000000E+03  0.00000000000E+00 0. -1.
        -11    1    1    2    0    0  0.28578805515E+01  0.98318665012E+01  0.18206804612E+03  0.18235571419E+03  0.00000000000E+00 0.  1.
         11    1    1    2    0    0 -0.38471884222E+01 -0.12050275356E+01 -0.68489402001E+02  0.68607952429E+02  0.00000000000E+00 0. -1.
        -15    1    1    2    0    0  0.96821189295E+00 -0.20318681449E+01 -0.19457752369E+02  0.19667937835E+02  0.17770000000E+01 0. -1.
         15    1    1    2    0    0  0.21095977701E-01 -0.65949708206E+01 -0.94120891750E+02  0.94368395546E+02  0.17770000000E+01 0.  1.
</event>
<event>
 6    1  0.5215377E-002  0.1841350E+03  0.7546771E-02  0.1067161E+00
        -11   -1    0    0    0    0  0.00000000000E+00  0.00000000000E+00  0.18250000000E+03  0.18250000000E+03  0.00000000000E+00 0. -1.
         11   -1    0    0    0    0 -0.00000000000E+00 -0.00000000000E+00 -0.18250000000E+03  0.18250000000E+03  0.00000000000E+00 0. -1.
        -11    1    1    2    0    0 -0.18349421689E+01 -0.64270906176E+00  0.61721165190E+02  0.61751779895E+02  0.00000000000E+00 0. -1.
         11    1    1    2    0    0 -0.24443002716E+02 -0.14516195768E+02 -0.17861686380E+03  0.18086504460E+03  0.00000000000E+00 0. -1.
        -15    1    1    2    0    0  0.35329735612E+00  0.29781122263E+01  0.42520011552E+02  0.42662666148E+02  0.17770000000E+01 0. -1.
         15    1    1    2    0    0  0.25924647529E+02  0.12180792603E+02  0.74375687062E+02  0.79720509361E+02  0.17770000000E+01 0. -1.
</event>
<event>
 6    1  0.5115519E-002  0.1865719E+03  0.7546771E-02  0.1065259E+00
        -11   -1    0    0    0    0  0.00000000000E+00  0.00000000000E+00  0.18250000000E+03  0.18250000000E+03  0.00000000000E+00 0.  1.
         11   -1    0    0    0    0 -0.00000000000E+00 -0.00000000000E+00 -0.18250000000E+03  0.18250000000E+03  0.00000000000E+00 0. -1.
        -11    1    1    2    0    0  0.42810090841E+01 -0.87399799191E+01  0.16441194897E+03  0.16469973665E+03  0.00000000000E+00 0.  1.
         11    1    1    2    0    0 -0.15430287888E+02 -0.31689242344E+01 -0.17773141135E+03  0.17842811002E+03  0.00000000000E+00 0. -1.
        -15    1    1    2    0    0  0.42194552995E+01  0.17022682744E+01  0.37173769647E+01  0.61382522594E+01  0.17770000000E+01 0. -1.
         15    1    1    2    0    0  0.69298235046E+01  0.10206635879E+02  0.96020854100E+01  0.15733901074E+02  0.17770000000E+01 0.  1.
</event>
<event>
 6    1  0.5115519E-002  0.1969961E+03  0.7546771E-02  0.1057468E+00
        -11   -1    0    0    0    0  0.00000000000E+00  0.00000000000E+00  0.18250000000E+03  0.18250000000E+03  0.00000000000E+00 0. -1.
         11   -1    0    0    0    0 -0.00000000000E+00 -0.00000000000E+00 -0.18250000000E+03  0.18250000000E+03  0.00000000000E+00 0. -1.
        -11    1    1    2    0    0 -0.37590856224E+01  0.77735290371E+00  0.12038745919E+03  0.12044864188E+03  0.00000000000E+00 0. -1.
         11    1    1    2    0    0 -0.92297612435E+01 -0.37868614777E+02 -0.16341999520E+03  0.16800391457E+03  0.00000000000E+00 0. -1.
        -15    1    1    2    0    0  0.10236398089E+02  0.46351286496E+02  0.20060681145E+02  0.51563691321E+02  0.17770000000E+01 0. -1.
         15    1    1    2    0    0  0.27524487766E+01 -0.92600246221E+01  0.22971854872E+02  0.24983752231E+02  0.17770000000E+01 0.  1.
</event>
<event>
 6    1  0.5115519E-002  0.1892118E+03  0.7546771E-02  0.1063234E+00
        -11   -1    0    0    0    0  0.00000000000E+00  0.00000000000E+00  0.18250000000E+03  0.18250000000E+03  0.00000000000E+00 0.  1.
         11   -1    0    0    0    0 -0.00000000000E+00 -0.00000000000E+00 -0.18250000000E+03  0.18250000000E+03  0.00000000000E+00 0. -1.
        -11    1    1    2    0    0 -0.51498715281E-01  0.36194121116E+01  0.17575090436E+03  0.17578817702E+03  0.00000000000E+00 0.  1.
         11    1    1    2    0    0  0.21533592458E+02  0.17890190810E+02 -0.12528013599E+03  0.12837003936E+03  0.00000000000E+00 0. -1.
        -15    1    1    2    0    0 -0.23485052831E+01 -0.26137955478E+01 -0.37317767169E+00  0.39552995848E+01  0.17770000000E+01 0. -1.
         15    1    1    2    0    0 -0.19133588459E+02 -0.18895807373E+02 -0.50097590697E+02  0.56886484039E+02  0.17770000000E+01 0.  1.
</event>
<event>
 6    1  0.5115519E-002  0.1841855E+03  0.7546771E-02  0.1067121E+00
        -11   -1    0    0    0    0  0.00000000000E+00  0.00000000000E+00  0.18250000000E+03  0.18250000000E+03  0.00000000000E+00 0. -1.
         11   -1    0    0    0    0 -0.00000000000E+00 -0.00000000000E+00 -0.18250000000E+03  0.18250000000E+03  0.00000000000E+00 0.  1.
        -11    1    1    2    0    0  0.37716654094E+01  0.62079810136E+01  0.18066854942E+03  0.18081451611E+03  0.00000000000E+00 0. -1.
         11    1    1    2    0    0 -0.78526832972E+01  0.33283865033E+01 -0.10177512247E+02  0.13278725361E+02  0.00000000000E+00 0.  1.
        -15    1    1    2    0    0  0.24851504444E+01 -0.18978350787E+01 -0.72635843767E+02  0.72724832619E+02  0.17770000000E+01 0. -1.
         15    1    1    2    0    0  0.15958674435E+01 -0.76385324382E+01 -0.97855193402E+02  0.98181925910E+02  0.17770000000E+01 0.  1.
</event>
<event>
 6    1  0.5115519E-002  0.1890699E+03  0.7546771E-02  0.1063342E+00
        -11   -1    0    0    0    0  0.00000000000E+00  0.00000000000E+00  0.18250000000E+03  0.18250000000E+03  0.00000000000E+00 0.  1.
         11   -1    0    0    0    0 -0.00000000000E+00 -0.00000000000E+00 -0.18250000000E+03  0.18250000000E+03  0.00000000000E+00 0.  1.
        -11    1    1    2    0    0 -0.19484560238E+01 -0.15548763495E+01  0.14706484836E+03  0.14708597399E+03  0.00000000000E+00 0.  1.
         11    1    1    2    0    0 -0.74821212999E+01  0.22577793737E+02 -0.17431486473E+03  0.17593013095E+03  0.00000000000E+00 0.  1.
        -15    1    1    2    0    0  0.80802405640E+01 -0.21045365454E+02  0.10232346020E+02  0.24820482041E+02  0.17770000000E+01 0.  1.
         15    1    1    2    0    0  0.13503367597E+01  0.22448066636E-01  0.17017670356E+02  0.17163413024E+02  0.17770000000E+01 0.  1.
</event>
<event>
 6    1  0.5115519E-002  0.1831313E+03  0.7546771E-02  0.1067953E+00
        -11   -1    0    0    0    0  0.00000000000E+00  0.00000000000E+00  0.18250000000E+03  0.18250000000E+03  0.00000000000E+00 0.  1.
         11   -1    0    0    0    0 -0.00000000000E+00 -0.00000000000E+00 -0.18250000000E+03  0.18250000000E+03  0.00000000000E+00 0. -1.
        -11    1    1    2    0    0 -0.19436887899E+01 -0.12113632941E+01  0.15027874086E+03  0.15029619184E+03  0.00000000000E+00 0.  1.
         11    1    1    2    0    0 -0.25277703741E+01  0.76599461440E+00 -0.18184952716E+03  0.18186870786E+03  0.00000000000E+00 0. -1.
        -15    1    1    2    0    0  0.24942402740E+01 -0.48442257836E-01  0.28804390314E+02  0.28966777722E+02  0.17770000000E+01 0.  1.
         15    1    1    2    0    0  0.19772188900E+01  0.49381093758E+00  0.27663959914E+01  0.38683225774E+01  0.17770000000E+01 0. -1.
</event>
<event>
 6    1  0.5115519E-002  0.1765181E+03  0.7546771E-02  0.1073319E+00
        -11   -1    0    0    0    0  0.00000000000E+00  0.00000000000E+00  0.18250000000E+03  0.18250000000E+03  0.00000000000E+00 0.  1.
         11   -1    0    0    0    0 -0.00000000000E+00 -0.00000000000E+00 -0.18250000000E+03  0.18250000000E+03  0.00000000000E+00 0.  1.
        -11    1    1    2    0    0  0.57858512840E+00  0.26266264179E+01  0.17598512294E+03  0.17600567441E+03  0.00000000000E+00 0.  1.
         11    1    1    2    0    0 -0.85207741383E+01  0.43097614463E+01 -0.17693168286E+03  0.17718915891E+03  0.00000000000E+00 0.  1.
        -15    1    1    2    0    0  0.35363898129E+01 -0.39461489927E+01  0.22791404926E+01  0.60357563873E+01  0.17770000000E+01 0.  1.
         15    1    1    2    0    0  0.44057991970E+01 -0.29902388715E+01 -0.13325805732E+01  0.57694102868E+01  0.17770000000E+01 0. -1.
</event>
<event>
 6    1  0.5115519E-002  0.1844671E+03  0.7546771E-02  0.1066900E+00
        -11   -1    0    0    0    0  0.00000000000E+00  0.00000000000E+00  0.18250000000E+03  0.18250000000E+03  0.00000000000E+00 0.  1.
         11   -1    0    0    0    0 -0.00000000000E+00 -0.00000000000E+00 -0.18250000000E+03  0.18250000000E+03  0.00000000000E+00 0. -1.
        -11    1    1    2    0    0  0.33351899169E+01  0.39158937938E+00  0.18050169953E+03  0.18053293430E+03  0.00000000000E+00 0.  1.
         11    1    1    2    0    0  0.59705920207E+01  0.33482535888E+01 -0.16596652635E+03  0.16610763571E+03  0.00000000000E+00 0. -1.
        -15    1    1    2    0    0 -0.48068197591E+01 -0.27460485218E+00 -0.81521297869E+01  0.96330614595E+01  0.17770000000E+01 0.  1.
         15    1    1    2    0    0 -0.44989621785E+01 -0.34652381160E+01 -0.63830433912E+01  0.87263685355E+01  0.17770000000E+01 0. -1.
</event>
<event>
 6    1  0.5115519E-002  0.1848348E+03  0.7546771E-02  0.1066611E+00
        -11   -1    0    0    0    0  0.00000000000E+00  0.00000000000E+00  0.18250000000E+03  0.18250000000E+03  0.00000000000E+00 0.  1.
         11   -1    0    0    0    0 -0.00000000000E+00 -0.00000000000E+00 -0.18250000000E+03  0.18250000000E+03  0.00000000000E+00 0.  1.
        -11    1    1    2    0    0 -0.40433515606E+01  0.14867550205E+01  0.17570552014E+03  0.17575832538E+03  0.00000000000E+00 0.  1.
         11    1    1    2    0    0 -0.76133614332E+00  0.25122096961E+01 -0.18014606957E+03  0.18016519423E+03  0.00000000000E+00 0.  1.
        -15    1    1    2    0    0  0.81772507690E+00 -0.83340940103E+00  0.26442385587E+01  0.33930770823E+01  0.17770000000E+01 0.  1.
         15    1    1    2    0    0  0.39869626270E+01 -0.31655553156E+01  0.17963108629E+01  0.56834033080E+01  0.17770000000E+01 0. -1.
</event>
<event>
 6    1  0.5115519E-002  0.1837948E+03  0.7546771E-02  0.1067429E+00
        -11   -1    0    0    0    0  0.00000000000E+00  0.00000000000E+00  0.18250000000E+03  0.18250000000E+03  0.00000000000E+00 0. -1.
         11   -1    0    0    0    0 -0.00000000000E+00 -0.00000000000E+00 -0.18250000000E+03  0.18250000000E+03  0.00000000000E+00 0. -1.
        -11    1    1    2    0    0  0.21422211534E+01  0.16700887748E+01  0.18118484769E+03  0.18120520781E+03  0.00000000000E+00 0. -1.
         11    1    1    2    0    0 -0.87068718546E+01  0.96429977802E+00 -0.15241939234E+03  0.15267092275E+03  0.00000000000E+00 0. -1.
        -15    1    1    2    0    0 -0.18715867265E+01 -0.17079950797E+01 -0.57635353682E+01  0.65418768720E+01  0.17770000000E+01 0. -1.
         15    1    1    2    0    0  0.84362374277E+01 -0.92639347313E+00 -0.23001919978E+02  0.24581992566E+02  0.17770000000E+01 0.  1.
</event>
<event>
 6    1  0.5115519E-002  0.1834563E+03  0.7546771E-02  0.1067696E+00
        -11   -1    0    0    0    0  0.00000000000E+00  0.00000000000E+00  0.18250000000E+03  0.18250000000E+03  0.00000000000E+00 0. -1.
         11   -1    0    0    0    0 -0.00000000000E+00 -0.00000000000E+00 -0.18250000000E+03  0.18250000000E+03  0.00000000000E+00 0. -1.
        -11    1    1    2    0    0 -0.55478342162E+01 -0.21749201656E+01  0.18144585036E+03  0.18154367341E+03  0.00000000000E+00 0. -1.
         11    1    1    2    0    0  0.99192582087E+01 -0.72992475613E+00 -0.15447974349E+03  0.15479959827E+03  0.00000000000E+00 0. -1.
        -15    1    1    2    0    0 -0.60564533043E+01  0.61668899302E+00 -0.18027260151E+02  0.19110226830E+02  0.17770000000E+01 0. -1.
         15    1    1    2    0    0  0.16850293117E+01  0.22881559287E+01 -0.89388467104E+01  0.95465014978E+01  0.17770000000E+01 0.  1.
</event>
<event>
 6    1  0.5115519E-002  0.1833334E+03  0.7546771E-02  0.1067793E+00
        -11   -1    0    0    0    0  0.00000000000E+00  0.00000000000E+00  0.18250000000E+03  0.18250000000E+03  0.00000000000E+00 0.  1.
         11   -1    0    0    0    0 -0.00000000000E+00 -0.00000000000E+00 -0.18250000000E+03  0.18250000000E+03  0.00000000000E+00 0. -1.
        -11    1    1    2    0    0  0.18887638918E+01 -0.30211074163E+01  0.13570695084E+03  0.13575371460E+03  0.00000000000E+00 0.  1.
         11    1    1    2    0    0 -0.52091783729E+01 -0.57566653945E+01 -0.18150064616E+03  0.18166661579E+03  0.00000000000E+00 0. -1.
        -15    1    1    2    0    0  0.15656194235E+01  0.71463820713E+01  0.16522784465E+02  0.18157149456E+02  0.17770000000E+01 0.  1.
         15    1    1    2    0    0  0.17547950575E+01  0.16313907395E+01  0.29270910851E+02  0.29422520159E+02  0.17770000000E+01 0. -1.
</event>
<event>
 6    1  0.5115519E-002  0.1833948E+03  0.7546771E-02  0.1067745E+00
        -11   -1    0    0    0    0  0.00000000000E+00  0.00000000000E+00  0.18250000000E+03  0.18250000000E+03  0.00000000000E+00 0.  1.
         11   -1    0    0    0    0 -0.00000000000E+00 -0.00000000000E+00 -0.18250000000E+03  0.18250000000E+03  0.00000000000E+00 0. -1.
        -11    1    1    2    0    0 -0.27283519024E+01 -0.13475635419E+01  0.18157971396E+03  0.18160521015E+03  0.00000000000E+00 0.  1.
         11    1    1    2    0    0  0.16534204362E+01  0.65260134111E+01 -0.16731412327E+03  0.16744951028E+03  0.00000000000E+00 0. -1.
        -15    1    1    2    0    0 -0.84476146857E+00 -0.21023402584E+01 -0.41277229774E+01  0.50328205292E+01  0.17770000000E+01 0. -1.
         15    1    1    2    0    0  0.19196929347E+01 -0.30761096108E+01 -0.10137867719E+02  0.10912459035E+02  0.17770000000E+01 0. -1.
</event>
<event>
 6    1  0.5115519E-002  0.1848014E+03  0.7546771E-02  0.1066637E+00
        -11   -1    0    0    0    0  0.00000000000E+00  0.00000000000E+00  0.18250000000E+03  0.18250000000E+03  0.00000000000E+00 0.  1.
         11   -1    0    0    0    0 -0.00000000000E+00 -0.00000000000E+00 -0.18250000000E+03  0.18250000000E+03  0.00000000000E+00 0. -1.
        -11    1    1    2    0    0 -0.14913961286E+02 -0.38246783353E+00  0.17957993609E+03  0.18019857372E+03  0.00000000000E+00 0.  1.
         11    1    1    2    0    0 -0.10530186640E+02  0.51821447401E+01 -0.54500813713E+02  0.55750140360E+02  0.00000000000E+00 0. -1.
        -15    1    1    2    0    0  0.25192139557E+02 -0.58835561968E+01 -0.83832007398E+02  0.87750916362E+02  0.17770000000E+01 0. -1.
         15    1    1    2    0    0  0.25200836878E+00  0.10838792902E+01 -0.41247114981E+02  0.41300369560E+02  0.17770000000E+01 0.  1.
</event>
<event>
 6    1  0.5115519E-002  0.1883149E+03  0.7546771E-02  0.1063918E+00
        -11   -1    0    0    0    0  0.00000000000E+00  0.00000000000E+00  0.18250000000E+03  0.18250000000E+03  0.00000000000E+00 0.  1.
         11   -1    0    0    0    0 -0.00000000000E+00 -0.00000000000E+00 -0.18250000000E+03  0.18250000000E+03  0.00000000000E+00 0.  1.
        -11    1    1    2    0    0 -0.21369042879E+00 -0.10245431708E+02  0.12851659412E+03  0.12892451085E+03  0.00000000000E+00 0.  1.
         11    1    1    2    0    0 -0.33863276662E+01 -0.15120111251E+02 -0.17600435529E+03  0.17668508160E+03  0.00000000000E+00 0.  1.
        -15    1    1    2    0    0  0.15469698908E+01  0.16619464216E+02  0.75310633037E+01  0.18397672411E+02  0.17770000000E+01 0.  1.
         15    1    1    2    0    0  0.20530482042E+01  0.87460787426E+01  0.39956697870E+02  0.40992735137E+02  0.17770000000E+01 0.  1.
</event>
<event>
 6    1  0.5115519E-002  0.1827630E+03  0.7546771E-02  0.1068246E+00
        -11   -1    0    0    0    0  0.00000000000E+00  0.00000000000E+00  0.18250000000E+03  0.18250000000E+03  0.00000000000E+00 0.  1.
         11   -1    0    0    0    0 -0.00000000000E+00 -0.00000000000E+00 -0.18250000000E+03  0.18250000000E+03  0.00000000000E+00 0. -1.
        -11    1    1    2    0    0 -0.24374621387E+01  0.10487762258E+02  0.18191867244E+03  0.18223703729E+03  0.00000000000E+00 0.  1.
         11    1    1    2    0    0  0.52134043519E+01 -0.86129288676E+01 -0.76440015718E+02  0.77100182435E+02  0.00000000000E+00 0. -1.
        -15    1    1    2    0    0 -0.22410388673E+01 -0.26907381788E+01 -0.83020016129E+02  0.83112833751E+02  0.17770000000E+01 0. -1.
         15    1    1    2    0    0 -0.53490334592E+00  0.81590478834E+00 -0.22458640588E+02  0.22549946525E+02  0.17770000000E+01 0.  1.
</event>
<event>
 6    1  0.5115519E-002  0.1829582E+03  0.7546771E-02  0.1068091E+00
        -11   -1    0    0    0    0  0.00000000000E+00  0.00000000000E+00  0.18250000000E+03  0.18250000000E+03  0.00000000000E+00 0. -1.
         11   -1    0    0    0    0 -0.00000000000E+00 -0.00000000000E+00 -0.18250000000E+03  0.18250000000E+03  0.00000000000E+00 0.  1.
        -11    1    1    2    0    0 -0.14371477877E+01 -0.22884813331E+01  0.18202172094E+03  0.18204177936E+03  0.00000000000E+00 0. -1.
         11    1    1    2    0    0  0.35721931028E+01  0.12023573844E+01 -0.13255704562E+03  0.13261062012E+03  0.00000000000E+00 0.  1.
        -15    1    1    2    0    0  0.19594687804E+01  0.14291060566E+01 -0.36657211289E+02  0.36780303568E+02  0.17770000000E+01 0.  1.
         15    1    1    2    0    0 -0.40945140955E+01 -0.34298210790E+00 -0.12807464035E+02  0.13567296946E+02  0.17770000000E+01 0. -1.
</event>
<event>
 6    1  0.5115519E-002  0.1825920E+03  0.7546771E-02  0.1068382E+00
        -11   -1    0    0    0    0  0.00000000000E+00  0.00000000000E+00  0.18250000000E+03  0.18250000000E+03  0.00000000000E+00 0. -1.
         11   -1    0    0    0    0 -0.00000000000E+00 -0.00000000000E+00 -0.18250000000E+03  0.18250000000E+03  0.00000000000E+00 0.  1.
        -11    1    1    2    0    0  0.30731315947E+01 -0.14395174447E+01  0.18237642132E+03  0.18240799161E+03  0.00000000000E+00 0. -1.
         11    1    1    2    0    0  0.16843987627E+01  0.71386604087E+00 -0.34054377459E+02  0.34103481172E+02  0.00000000000E+00 0.  1.
        -15    1    1    2    0    0 -0.12661285221E+01  0.66937685116E-01 -0.92299307304E+02  0.92325118033E+02  0.17770000000E+01 0.  1.
         15    1    1    2    0    0 -0.34914018354E+01  0.65871371876E+00 -0.56022736561E+02  0.56163409186E+02  0.17770000000E+01 0. -1.
</event>
<event>
 6    1  0.5115519E-002  0.1830936E+03  0.7546771E-02  0.1067983E+00
        -11   -1    0    0    0    0  0.00000000000E+00  0.00000000000E+00  0.18250000000E+03  0.18250000000E+03  0.00000000000E+00 0.  1.
         11   -1    0    0    0    0 -0.00000000000E+00 -0.00000000000E+00 -0.18250000000E+03  0.18250000000E+03  0.00000000000E+00 0.  1.
        -11    1    1    2    0    0 -0.19145483187E+01  0.11200620223E+01  0.14357107457E+03  0.14358820804E+03  0.00000000000E+00 0.  1.
         11    1    1    2    0    0  0.58647182511E+00  0.12443773590E+01  0.38293443811E+02  0.38318145351E+02  0.00000000000E+00 0.  1.
        -15    1    1    2    0    0  0.30536192175E+01  0.23897804729E+01 -0.73587813725E+01  0.85055883584E+01  0.17770000000E+01 0.  1.
         15    1    1    2    0    0 -0.17255427240E+01 -0.47542198542E+01 -0.17450573701E+03  0.17458805825E+03  0.17770000000E+01 0.  1.
</event>
<event>
 6    1  0.5115519E-002  0.1912763E+03  0.7546771E-02  0.1061676E+00
        -11   -1    0    0    0    0  0.00000000000E+00  0.00000000000E+00  0.18250000000E+03  0.18250000000E+03  0.00000000000E+00 0. -1.
         11   -1    0    0    0    0 -0.00000000000E+00 -0.00000000000E+00 -0.18250000000E+03  0.18250000000E+03  0.00000000000E+00 0.  1.
        -11    1    1    2    0    0  0.57327944833E+00  0.56287424128E+01  0.16450344465E+03  0.16460071291E+03  0.00000000000E+00 0. -1.
         11    1    1    2    0    0  0.88533963211E+01 -0.11104054903E+02 -0.17314228224E+03  0.17372372481E+03  0.00000000000E+00 0.  1.
        -15    1    1    2    0    0 -0.70060616565E+01  0.13669773161E+02  0.17593568449E+01  0.15562797426E+02  0.17770000000E+01 0. -1.
         15    1    1    2    0    0 -0.24206141129E+01 -0.81944606703E+01  0.68794807461E+01  0.11112764854E+02  0.17770000000E+01 0.  1.
</event>
<event>
 6    1  0.5115519E-002  0.1837586E+03  0.7546771E-02  0.1067457E+00
        -11   -1    0    0    0    0  0.00000000000E+00  0.00000000000E+00  0.18250000000E+03  0.18250000000E+03  0.00000000000E+00 0. -1.
         11   -1    0    0    0    0 -0.00000000000E+00 -0.00000000000E+00 -0.18250000000E+03  0.18250000000E+03  0.00000000000E+00 0. -1.
        -11    1    1    2    0    0 -0.48194119534E+01 -0.35296878260E+01  0.14255707859E+03  0.14268218559E+03  0.00000000000E+00 0. -1.
         11    1    1    2    0    0  0.54263893615E+01 -0.89097153179E+01 -0.18094088821E+03  0.18124136877E+03  0.00000000000E+00 0. -1.
        -15    1    1    2    0    0  0.67318088714E+00  0.12164857980E+02  0.34151259539E+02  0.36302936511E+02  0.17770000000E+01 0.  1.
         15    1    1    2    0    0 -0.12801582953E+01  0.27454516356E+00  0.42325500736E+01  0.47735091320E+01  0.17770000000E+01 0. -1.
</event>
<event>
 6    1  0.5115519E-002  0.1828301E+03  0.7546771E-02  0.1068192E+00
        -11   -1    0    0    0    0  0.00000000000E+00  0.00000000000E+00  0.18250000000E+03  0.18250000000E+03  0.00000000000E+00 0. -1.
         11   -1    0    0    0    0 -0.00000000000E+00 -0.00000000000E+00 -0.18250000000E+03  0.18250000000E+03  0.00000000000E+00 0. -1.
        -11    1    1    2    0    0 -0.33136052085E+01 -0.34205638015E+01  0.18210760442E+03  0.18216986530E+03  0.00000000000E+00 0. -1.
         11    1    1    2    0    0  0.49356965335E+01 -0.12414802797E+01 -0.89884919797E+02  0.90028890810E+02  0.00000000000E+00 0. -1.
        -15    1    1    2    0    0 -0.48926987102E+01  0.24920373609E+01 -0.42100655414E+02  0.42494372170E+02  0.17770000000E+01 0. -1.
         15    1    1    2    0    0  0.32706073852E+01  0.21700067203E+01 -0.50122029205E+02  0.50306871722E+02  0.17770000000E+01 0.  1.
</event>
<event>
 6    1  0.5198032E-002  0.1844074E+03  0.7546771E-02  0.1066947E+00
        -11   -1    0    0    0    0  0.00000000000E+00  0.00000000000E+00  0.18250000000E+03  0.18250000000E+03  0.00000000000E+00 0.  1.
         11   -1    0    0    0    0 -0.00000000000E+00 -0.00000000000E+00 -0.18250000000E+03  0.18250000000E+03  0.00000000000E+00 0. -1.
        -11    1    1    2    0    0  0.39675360408E+01 -0.15984124694E+01  0.16112703664E+03  0.16118380254E+03  0.00000000000E+00 0.  1.
         11    1    1    2    0    0 -0.51353970117E+00 -0.61633884843E+01 -0.18048661808E+03  0.18059255352E+03  0.00000000000E+00 0. -1.
        -15    1    1    2    0    0  0.27555702081E+01  0.23234725573E+01  0.90187417883E+01  0.98735568232E+01  0.17770000000E+01 0. -1.
         15    1    1    2    0    0 -0.62095665477E+01  0.54383283963E+01  0.10340839647E+02  0.13350087118E+02  0.17770000000E+01 0.  1.
</event>
<event>
 6    1  0.5115519E-002  0.1835534E+03  0.7546771E-02  0.1067619E+00
        -11   -1    0    0    0    0  0.00000000000E+00  0.00000000000E+00  0.18250000000E+03  0.18250000000E+03  0.00000000000E+00 0.  1.
         11   -1    0    0    0    0 -0.00000000000E+00 -0.00000000000E+00 -0.18250000000E+03  0.18250000000E+03  0.00000000000E+00 0. -1.
        -11    1    1    2    0    0 -0.52694279606E+00 -0.43717188351E+01  0.18139319848E+03  0.18144663692E+03  0.00000000000E+00 0.  1.
         11    1    1    2    0    0  0.86886196347E+00 -0.53431380034E+01 -0.15109484309E+03  0.15119178435E+03  0.00000000000E+00 0. -1.
        -15    1    1    2    0    0  0.15945792356E+01  0.18192665655E+01 -0.93889402911E+01  0.98570960513E+01  0.17770000000E+01 0.  1.
         15    1    1    2    0    0 -0.19364984030E+01  0.78955902730E+01 -0.20909415102E+02  0.22504482681E+02  0.17770000000E+01 0. -1.
</event>
<event>
 6    1  0.5115519E-002  0.1846128E+03  0.7546771E-02  0.1066785E+00
        -11   -1    0    0    0    0  0.00000000000E+00  0.00000000000E+00  0.18250000000E+03  0.18250000000E+03  0.00000000000E+00 0.  1.
         11   -1    0    0    0    0 -0.00000000000E+00 -0.00000000000E+00 -0.18250000000E+03  0.18250000000E+03  0.00000000000E+00 0.  1.
        -11    1    1    2    0    0  0.35953445435E+01 -0.45479250980E+01  0.16511436106E+03  0.16521610803E+03  0.00000000000E+00 0.  1.
         11    1    1    2    0    0 -0.13233460255E+02 -0.27871765782E+01  0.13904690307E+02  0.19396732615E+02  0.00000000000E+00 0.  1.
        -15    1    1    2    0    0 -0.44226673537E+01  0.35309130430E+01 -0.26095972120E+02  0.26761629683E+02  0.17770000000E+01 0. -1.
         15    1    1    2    0    0  0.14060783065E+02  0.38041886332E+01 -0.15292307925E+03  0.15362552967E+03  0.17770000000E+01 0.  1.
</event>
<event>
 6    1  0.5115519E-002  0.1828980E+03  0.7546771E-02  0.1068138E+00
        -11   -1    0    0    0    0  0.00000000000E+00  0.00000000000E+00  0.18250000000E+03  0.18250000000E+03  0.00000000000E+00 0. -1.
         11   -1    0    0    0    0 -0.00000000000E+00 -0.00000000000E+00 -0.18250000000E+03  0.18250000000E+03  0.00000000000E+00 0.  1.
        -11    1    1    2    0    0  0.28957090744E+01  0.97874703012E-01  0.18207893081E+03  0.18210198175E+03  0.00000000000E+00 0. -1.
         11    1    1    2    0    0 -0.65092806289E+01  0.47942034063E+01 -0.70211446806E+02  0.70675330797E+02  0.00000000000E+00 0.  1.
        -15    1    1    2    0    0  0.33212293652E+01 -0.42495031119E+01 -0.49295680798E+02  0.49621675864E+02  0.17770000000E+01 0. -1.
         15    1    1    2    0    0  0.29234218936E+00 -0.64257499736E+00 -0.62571803208E+02  0.62601011592E+02  0.17770000000E+01 0.  1.
</event>
<event>
 6    1  0.5115519E-002  0.1855935E+03  0.7546771E-02  0.1066019E+00
        -11   -1    0    0    0    0  0.00000000000E+00  0.00000000000E+00  0.18250000000E+03  0.18250000000E+03  0.00000000000E+00 0. -1.
         11   -1    0    0    0    0 -0.00000000000E+00 -0.00000000000E+00 -0.18250000000E+03  0.18250000000E+03  0.00000000000E+00 0.  1.
        -11    1    1    2    0    0  0.34354135994E+01  0.41769115326E+01  0.14469973951E+03  0.14480077096E+03  0.00000000000E+00 0. -1.
         11    1    1    2    0    0  0.11022765651E+02  0.54751840367E+01 -0.17898382588E+03  0.17940649076E+03  0.00000000000E+00 0.  1.
        -15    1    1    2    0    0 -0.15482861607E+02 -0.46067615883E+01  0.21963652445E+02  0.27322170733E+02  0.17770000000E+01 0.  1.
         15    1    1    2    0    0  0.10246823563E+01 -0.50453339810E+01  0.12320433926E+02  0.13470567547E+02  0.17770000000E+01 0. -1.
</event>
