<event>
 6    1  0.3463103E-002  0.4904755E+03  0.7546771E-02  0.9421377E-01
        -11   -1    0    0    0    0  0.00000000000E+00  0.00000000000E+00  0.50000000000E+03  0.50000000000E+03  0.00000000000E+00 0.  1.
         11   -1    0    0    0    0 -0.00000000000E+00 -0.00000000000E+00 -0.50000000000E+03  0.50000000000E+03  0.00000000000E+00 0. -1.
        -11    1    1    2    0    0  0.41846093795E+01 -0.67786503375E+01  0.49130914015E+03  0.49137371954E+03  0.00000000000E+00 0.  1.
         11    1    1    2    0    0  0.11126510164E+02  0.71135620163E+01 -0.48952028709E+03  0.48969839031E+03  0.00000000000E+00 0. -1.
        -15    1    1    2    0    0 -0.29656020103E+01  0.29768674423E+01  0.26558279683E+01  0.52789853428E+01  0.17770000000E+01 0.  1.
         15    1    1    2    0    0 -0.12345517534E+02 -0.33117791211E+01 -0.44446810270E+01  0.13648904812E+02  0.17770000000E+01 0. -1.
</event>
<event>
 6    1  0.3463103E-002  0.5033377E+03  0.7546771E-02  0.9392372E-01
        -11   -1    0    0    0    0  0.00000000000E+00  0.00000000000E+00  0.50000000000E+03  0.50000000000E+03  0.00000000000E+00 0.  1.
         11   -1    0    0    0    0 -0.00000000000E+00 -0.00000000000E+00 -0.50000000000E+03  0.50000000000E+03  0.00000000000E+00 0.  1.
        -11    1    1    2    0    0  0.65646645175E+01 -0.61991181404E+00  0.48629221094E+03  0.48633691360E+03  0.00000000000E+00 0.  1.
         11    1    1    2    0    0 -0.98071208187E+01 -0.61901435486E+01 -0.49652683736E+03  0.49666225719E+03  0.00000000000E+00 0.  1.
        -15    1    1    2    0    0  0.68581357775E+01  0.38014172641E+01  0.84538052762E+01  0.11666591285E+02  0.17770000000E+01 0. -1.
         15    1    1    2    0    0 -0.36156794763E+01  0.30086380986E+01  0.17808211443E+01  0.53342379242E+01  0.17770000000E+01 0.  1.
</event>
<event>
 6    1  0.3463103E-002  0.5007370E+03  0.7546771E-02  0.9398162E-01
        -11   -1    0    0    0    0  0.00000000000E+00  0.00000000000E+00  0.50000000000E+03  0.50000000000E+03  0.00000000000E+00 0.  1.
         11   -1    0    0    0    0 -0.00000000000E+00 -0.00000000000E+00 -0.50000000000E+03  0.50000000000E+03  0.00000000000E+00 0.  1.
        -11    1    1    2    0    0 -0.44808563124E+01  0.82430519233E+01  0.49917485165E+03  0.49926301535E+03  0.00000000000E+00 0.  1.
         11    1    1    2    0    0 -0.81412940380E+00 -0.17451560909E+02 -0.11227642213E+03  0.11362752638E+03  0.00000000000E+00 0.  1.
        -15    1    1    2    0    0  0.57330915032E+01  0.41413868136E+01 -0.24601835413E+03  0.24612640598E+03  0.17770000000E+01 0. -1.
         15    1    1    2    0    0 -0.43810578703E+00  0.50671221724E+01 -0.14088007539E+03  0.14098305230E+03  0.17770000000E+01 0.  1.
</event>
<event>
 6    1  0.3463103E-002  0.5044353E+03  0.7546771E-02  0.9389940E-01
        -11   -1    0    0    0    0  0.00000000000E+00  0.00000000000E+00  0.50000000000E+03  0.50000000000E+03  0.00000000000E+00 0. -1.
         11   -1    0    0    0    0 -0.00000000000E+00 -0.00000000000E+00 -0.50000000000E+03  0.50000000000E+03  0.00000000000E+00 0.  1.
        -11    1    1    2    0    0 -0.80550154775E+01  0.49388232784E+01  0.26706304064E+03  0.26723013102E+03  0.00000000000E+00 0. -1.
         11    1    1    2    0    0 -0.24760264330E+02  0.53013095051E+02 -0.49209845429E+03  0.49556467555E+03  0.00000000000E+00 0.  1.
        -15    1    1    2    0    0  0.18381017249E+02 -0.52393566500E+01  0.42051402556E+02  0.46225434981E+02  0.17770000000E+01 0.  1.
         15    1    1    2    0    0  0.14434262558E+02 -0.52712561680E+02  0.18298401109E+03  0.19097975846E+03  0.17770000000E+01 0. -1.
</event>
<event>
 6    1  0.3463103E-002  0.5034055E+03  0.7546771E-02  0.9392222E-01
        -11   -1    0    0    0    0  0.00000000000E+00  0.00000000000E+00  0.50000000000E+03  0.50000000000E+03  0.00000000000E+00 0.  1.
         11   -1    0    0    0    0 -0.00000000000E+00 -0.00000000000E+00 -0.50000000000E+03  0.50000000000E+03  0.00000000000E+00 0.  1.
        -11    1    1    2    0    0  0.10133445269E+02  0.11990646974E+01  0.45634548532E+03  0.45645955619E+03  0.00000000000E+00 0.  1.
         11    1    1    2    0    0 -0.19375404795E+02  0.30465698949E+01 -0.49620698191E+03  0.49659445909E+03  0.00000000000E+00 0.  1.
        -15    1    1    2    0    0 -0.40295293711E+01 -0.94553257179E+01  0.16925933820E+02  0.19881782014E+02  0.17770000000E+01 0. -1.
         15    1    1    2    0    0  0.13271488897E+02  0.52096911255E+01  0.22935562775E+02  0.27064202703E+02  0.17770000000E+01 0.  1.
</event>
<event>
 6    1  0.3463103E-002  0.5016372E+03  0.7546771E-02  0.9396154E-01
        -11   -1    0    0    0    0  0.00000000000E+00  0.00000000000E+00  0.50000000000E+03  0.50000000000E+03  0.00000000000E+00 0.  1.
         11   -1    0    0    0    0 -0.00000000000E+00 -0.00000000000E+00 -0.50000000000E+03  0.50000000000E+03  0.00000000000E+00 0. -1.
        -11    1    1    2    0    0 -0.72364267648E+01  0.44302509841E+00  0.48405777705E+03  0.48411206726E+03  0.00000000000E+00 0.  1.
         11    1    1    2    0    0  0.66733564003E+01  0.37918315817E+01 -0.49830364379E+03  0.49836275251E+03  0.00000000000E+00 0. -1.
        -15    1    1    2    0    0 -0.30242015173E+01 -0.20525182137E+01  0.21482756059E+01  0.45968949209E+01  0.17770000000E+01 0. -1.
         15    1    1    2    0    0  0.35872718819E+01 -0.21823384665E+01  0.12097591138E+02  0.12928285311E+02  0.17770000000E+01 0.  1.
</event>
<event>
 6    1  0.3463103E-002  0.5020480E+03  0.7546771E-02  0.9395239E-01
        -11   -1    0    0    0    0  0.00000000000E+00  0.00000000000E+00  0.50000000000E+03  0.50000000000E+03  0.00000000000E+00 0.  1.
         11   -1    0    0    0    0 -0.00000000000E+00 -0.00000000000E+00 -0.50000000000E+03  0.50000000000E+03  0.00000000000E+00 0. -1.
        -11    1    1    2    0    0  0.55595013771E+01  0.82504462293E+01  0.49785260953E+03  0.49795200445E+03  0.00000000000E+00 0.  1.
         11    1    1    2    0    0  0.20170786344E+02 -0.91403650258E+01 -0.31054349290E+03  0.31133208616E+03  0.00000000000E+00 0. -1.
        -15    1    1    2    0    0 -0.76291908499E+01  0.51937483742E+01 -0.17350091583E+02  0.19732282740E+02  0.17770000000E+01 0.  1.
         15    1    1    2    0    0 -0.18101096871E+02 -0.43038295778E+01 -0.16995902505E+03  0.17098362665E+03  0.17770000000E+01 0. -1.
</event>
<event>
 6    1  0.3463103E-002  0.5062228E+03  0.7546771E-02  0.9385992E-01
        -11   -1    0    0    0    0  0.00000000000E+00  0.00000000000E+00  0.50000000000E+03  0.50000000000E+03  0.00000000000E+00 0.  1.
         11   -1    0    0    0    0 -0.00000000000E+00 -0.00000000000E+00 -0.50000000000E+03  0.50000000000E+03  0.00000000000E+00 0. -1.
        -11    1    1    2    0    0 -0.52306900443E+01 -0.90430985741E+01  0.49366668973E+03  0.49377721525E+03  0.00000000000E+00 0.  1.
         11    1    1    2    0    0  0.83664322079E+01 -0.11840201817E+02 -0.47889152368E+03  0.47911092559E+03  0.00000000000E+00 0. -1.
        -15    1    1    2    0    0 -0.32485643213E+01  0.13881087858E+02 -0.55666632527E+01  0.15407246316E+02  0.17770000000E+01 0.  1.
         15    1    1    2    0    0  0.11282215774E+00  0.70022125333E+01 -0.92085027971E+01  0.11704612850E+02  0.17770000000E+01 0. -1.
</event>
<event>
 6    1  0.3463103E-002  0.5014436E+03  0.7546771E-02  0.9396585E-01
        -11   -1    0    0    0    0  0.00000000000E+00  0.00000000000E+00  0.50000000000E+03  0.50000000000E+03  0.00000000000E+00 0. -1.
         11   -1    0    0    0    0 -0.00000000000E+00 -0.00000000000E+00 -0.50000000000E+03  0.50000000000E+03  0.00000000000E+00 0.  1.
        -11    1    1    2    0    0  0.12272344232E+02 -0.26482884784E+01  0.49839827868E+03  0.49855638403E+03  0.00000000000E+00 0. -1.
         11    1    1    2    0    0 -0.27930483777E+01 -0.10031006843E+02 -0.43427134363E+03  0.43439615803E+03  0.00000000000E+00 0.  1.
        -15    1    1    2    0    0  0.22977042069E+01  0.17591009216E+01 -0.10076927362E+02  0.10633723465E+02  0.17770000000E+01 0.  1.
         15    1    1    2    0    0 -0.11777000062E+02  0.10920194400E+02 -0.54050007694E+02  0.56413734471E+02  0.17770000000E+01 0.  1.
</event>
<event>
 6    1  0.3463103E-002  0.5061856E+03  0.7546771E-02  0.9386074E-01
        -11   -1    0    0    0    0  0.00000000000E+00  0.00000000000E+00  0.50000000000E+03  0.50000000000E+03  0.00000000000E+00 0. -1.
         11   -1    0    0    0    0 -0.00000000000E+00 -0.00000000000E+00 -0.50000000000E+03  0.50000000000E+03  0.00000000000E+00 0. -1.
        -11    1    1    2    0    0 -0.37313872354E+01 -0.72741963182E+01  0.27895726857E+03  0.27907704110E+03  0.00000000000E+00 0. -1.
         11    1    1    2    0    0 -0.39771782928E+01  0.60926653949E+02 -0.49002531697E+03  0.49381442504E+03  0.00000000000E+00 0. -1.
        -15    1    1    2    0    0  0.54717245782E+01 -0.56237862845E+02  0.92016059594E+02  0.10799421253E+03  0.17770000000E+01 0.  1.
         15    1    1    2    0    0  0.22368409500E+01  0.25854052141E+01  0.11905198881E+03  0.11911432133E+03  0.17770000000E+01 0. -1.
</event>
<event>
 6    1  0.3463103E-002  0.5052650E+03  0.7546771E-02  0.9388105E-01
        -11   -1    0    0    0    0  0.00000000000E+00  0.00000000000E+00  0.50000000000E+03  0.50000000000E+03  0.00000000000E+00 0. -1.
         11   -1    0    0    0    0 -0.00000000000E+00 -0.00000000000E+00 -0.50000000000E+03  0.50000000000E+03  0.00000000000E+00 0. -1.
        -11    1    1    2    0    0  0.98220485214E+01  0.24448940399E+01  0.30091550847E+03  0.30108569109E+03  0.00000000000E+00 0. -1.
         11    1    1    2    0    0  0.94013546843E+01 -0.67650266497E+02 -0.48999775129E+03  0.49473502028E+03  0.00000000000E+00 0. -1.
        -15    1    1    2    0    0 -0.41317314715E+01 -0.98238348444E+00  0.41121985830E+02  0.41378880240E+02  0.17770000000E+01 0. -1.
         15    1    1    2    0    0 -0.15091671734E+02  0.66187755941E+02  0.14796025699E+03  0.16280040839E+03  0.17770000000E+01 0.  1.
</event>
<event>
 6    1  0.3463103E-002  0.5039667E+03  0.7546771E-02  0.9390977E-01
        -11   -1    0    0    0    0  0.00000000000E+00  0.00000000000E+00  0.50000000000E+03  0.50000000000E+03  0.00000000000E+00 0.  1.
         11   -1    0    0    0    0 -0.00000000000E+00 -0.00000000000E+00 -0.50000000000E+03  0.50000000000E+03  0.00000000000E+00 0.  1.
        -11    1    1    2    0    0 -0.81740992155E+01  0.36743623056E+01  0.48253060448E+03  0.48261382191E+03  0.00000000000E+00 0.  1.
         11    1    1    2    0    0  0.75702546275E+01  0.20498584216E+01 -0.49597125238E+03  0.49603325882E+03  0.00000000000E+00 0.  1.
        -15    1    1    2    0    0 -0.31861201830E+01  0.25916172763E+01  0.10777433596E+02  0.11669560653E+02  0.17770000000E+01 0.  1.
         15    1    1    2    0    0  0.37899647711E+01 -0.83158380036E+01  0.26632143022E+01  0.96833586160E+01  0.17770000000E+01 0. -1.
</event>
<event>
 6    1  0.3463103E-002  0.4957681E+03  0.7546771E-02  0.9409329E-01
        -11   -1    0    0    0    0  0.00000000000E+00  0.00000000000E+00  0.50000000000E+03  0.50000000000E+03  0.00000000000E+00 0. -1.
         11   -1    0    0    0    0 -0.00000000000E+00 -0.00000000000E+00 -0.50000000000E+03  0.50000000000E+03  0.00000000000E+00 0. -1.
        -11    1    1    2    0    0 -0.60442901756E+01 -0.42623748819E+01  0.49544358760E+03  0.49549878887E+03  0.00000000000E+00 0. -1.
         11    1    1    2    0    0  0.49273602135E+01  0.97318949264E+01 -0.49593325152E+03  0.49605320140E+03  0.00000000000E+00 0. -1.
        -15    1    1    2    0    0  0.43204248522E+00 -0.52253778970E+00 -0.18504187195E+01  0.26535796367E+01  0.17770000000E+01 0.  1.
         15    1    1    2    0    0  0.68488747688E+00 -0.49469822549E+01  0.23400826428E+01  0.57944300894E+01  0.17770000000E+01 0. -1.
</event>
<event>
 6    1  0.3463103E-002  0.5018801E+03  0.7546771E-02  0.9395613E-01
        -11   -1    0    0    0    0  0.00000000000E+00  0.00000000000E+00  0.50000000000E+03  0.50000000000E+03  0.00000000000E+00 0. -1.
         11   -1    0    0    0    0 -0.00000000000E+00 -0.00000000000E+00 -0.50000000000E+03  0.50000000000E+03  0.00000000000E+00 0.  1.
        -11    1    1    2    0    0 -0.62362972773E+01  0.16752872103E+01  0.46545538845E+03  0.46550017898E+03  0.00000000000E+00 0. -1.
         11    1    1    2    0    0 -0.35007251409E+01  0.88986946350E+01 -0.49802809540E+03  0.49811989084E+03  0.00000000000E+00 0.  1.
        -15    1    1    2    0    0  0.22438119550E+01 -0.48825644034E+01  0.65787690911E+01  0.86782520704E+01  0.17770000000E+01 0. -1.
         15    1    1    2    0    0  0.74932104632E+01 -0.56914174419E+01  0.25993937862E+02  0.27701678110E+02  0.17770000000E+01 0.  1.
</event>
<event>
 6    1  0.3463103E-002  0.5039547E+03  0.7546771E-02  0.9391004E-01
        -11   -1    0    0    0    0  0.00000000000E+00  0.00000000000E+00  0.50000000000E+03  0.50000000000E+03  0.00000000000E+00 0.  1.
         11   -1    0    0    0    0 -0.00000000000E+00 -0.00000000000E+00 -0.50000000000E+03  0.50000000000E+03  0.00000000000E+00 0.  1.
        -11    1    1    2    0    0  0.10322893046E+02 -0.62472271438E+01  0.49589853102E+03  0.49604530341E+03  0.00000000000E+00 0.  1.
         11    1    1    2    0    0 -0.26604789725E+02 -0.79313377354E+00 -0.42713768052E+02  0.50328022797E+02  0.00000000000E+00 0.  1.
        -15    1    1    2    0    0  0.16409351741E+02  0.49779336059E+01 -0.40183359356E+03  0.40220323382E+03  0.17770000000E+01 0.  1.
         15    1    1    2    0    0 -0.12745506153E+00  0.20624273115E+01 -0.51351169401E+02  0.51423439977E+02  0.17770000000E+01 0.  1.
</event>
<event>
 6    1  0.3463103E-002  0.5008644E+03  0.7546771E-02  0.9397878E-01
        -11   -1    0    0    0    0  0.00000000000E+00  0.00000000000E+00  0.50000000000E+03  0.50000000000E+03  0.00000000000E+00 0.  1.
         11   -1    0    0    0    0 -0.00000000000E+00 -0.00000000000E+00 -0.50000000000E+03  0.50000000000E+03  0.00000000000E+00 0.  1.
        -11    1    1    2    0    0 -0.77106441153E+01 -0.10148077971E+00  0.26391470968E+03  0.26402734388E+03  0.00000000000E+00 0.  1.
         11    1    1    2    0    0 -0.73542481845E+01 -0.22009758271E+01 -0.49907661356E+03  0.49913564836E+03  0.00000000000E+00 0.  1.
        -15    1    1    2    0    0  0.37097130750E+01  0.25220964998E+01  0.77134378722E+01  0.90982303038E+01  0.17770000000E+01 0. -1.
         15    1    1    2    0    0  0.11355179225E+02 -0.21963989300E+00  0.22744846601E+03  0.22773877746E+03  0.17770000000E+01 0.  1.
</event>
<event>
 6    1  0.3463103E-002  0.5014630E+03  0.7546771E-02  0.9396542E-01
        -11   -1    0    0    0    0  0.00000000000E+00  0.00000000000E+00  0.50000000000E+03  0.50000000000E+03  0.00000000000E+00 0. -1.
         11   -1    0    0    0    0 -0.00000000000E+00 -0.00000000000E+00 -0.50000000000E+03  0.50000000000E+03  0.00000000000E+00 0. -1.
        -11    1    1    2    0    0  0.12337172742E+02  0.12471805307E+01  0.49838272906E+03  0.49853696545E+03  0.00000000000E+00 0. -1.
         11    1    1    2    0    0 -0.29512091718E+02  0.78606367839E+01 -0.23912986375E+03  0.24107228150E+03  0.00000000000E+00 0. -1.
        -15    1    1    2    0    0  0.12534233181E+02 -0.68174095643E+01 -0.98412028613E+02  0.99456870951E+02  0.17770000000E+01 0. -1.
         15    1    1    2    0    0  0.46406857959E+01 -0.22904077503E+01 -0.16084083669E+03  0.16093388211E+03  0.17770000000E+01 0.  1.
</event>
<event>
 6    1  0.3463103E-002  0.5008345E+03  0.7546771E-02  0.9397944E-01
        -11   -1    0    0    0    0  0.00000000000E+00  0.00000000000E+00  0.50000000000E+03  0.50000000000E+03  0.00000000000E+00 0. -1.
         11   -1    0    0    0    0 -0.00000000000E+00 -0.00000000000E+00 -0.50000000000E+03  0.50000000000E+03  0.00000000000E+00 0. -1.
        -11    1    1    2    0    0  0.81793447052E+01  0.15570436487E+02  0.49885554831E+03  0.49916550187E+03  0.00000000000E+00 0. -1.
         11    1    1    2    0    0 -0.60679016111E+01 -0.12188924641E+01 -0.11442095996E+02  0.13008715908E+02  0.00000000000E+00 0. -1.
        -15    1    1    2    0    0  0.34203188927E+01  0.13265711089E+00 -0.57515767202E+02  0.57644925059E+02  0.17770000000E+01 0.  1.
         15    1    1    2    0    0 -0.55317619868E+01 -0.14484201134E+02 -0.42989768512E+03  0.43018085716E+03  0.17770000000E+01 0. -1.
</event>
