<event>
 6    1  0.1059789E-002  0.1825850E+03  0.7546771E-02  0.1068387E+00
        -11   -1    0    0    0    0  0.00000000000E+00  0.00000000000E+00  0.18250000000E+03  0.18250000000E+03  0.00000000000E+00 0.  1.
         11   -1    0    0    0    0 -0.00000000000E+00 -0.00000000000E+00 -0.18250000000E+03  0.18250000000E+03  0.00000000000E+00 0.  1.
        -11    1    1    2    0    0 -0.23813829505E+01 -0.40294126675E+01  0.18235494634E+03  0.18241500379E+03  0.00000000000E+00 0.  1.
         11    1    1    2    0    0  0.87274031875E+00  0.12928706615E+01 -0.61240273251E+02  0.61260135962E+02  0.00000000000E+00 0.  1.
        -15    1    1    2    0    0  0.32818432405E+01  0.26642166811E+01 -0.71791181488E+02  0.71937472947E+02  0.17770000000E+01 0.  1.
         15    1    1    2    0    0 -0.17732006087E+01  0.72325324922E-01 -0.49323491606E+02  0.49387387302E+02  0.17770000000E+01 0.  1.
</event>
<event>
 6    1  0.1059789E-002  0.1827758E+03  0.7546771E-02  0.1068235E+00
        -11   -1    0    0    0    0  0.00000000000E+00  0.00000000000E+00  0.18250000000E+03  0.18250000000E+03  0.00000000000E+00 0. -1.
         11   -1    0    0    0    0 -0.00000000000E+00 -0.00000000000E+00 -0.18250000000E+03  0.18250000000E+03  0.00000000000E+00 0. -1.
        -11    1    1    2    0    0 -0.15391005670E+01  0.39033279013E+01  0.50928251499E+02  0.51100798429E+02  0.00000000000E+00 0. -1.
         11    1    1    2    0    0  0.23460510711E+01 -0.13159062037E+01 -0.18220432128E+03  0.18222417583E+03  0.00000000000E+00 0. -1.
        -15    1    1    2    0    0  0.15111959528E+01  0.12434348279E+01  0.99569150806E+02  0.99604233668E+02  0.17770000000E+01 0. -1.
         15    1    1    2    0    0 -0.23181464569E+01 -0.38308565255E+01  0.31706918971E+02  0.32070792075E+02  0.17770000000E+01 0.  1.
</event>
<event>
 6    1  0.1059789E-002  0.1834655E+03  0.7546771E-02  0.1067689E+00
        -11   -1    0    0    0    0  0.00000000000E+00  0.00000000000E+00  0.18250000000E+03  0.18250000000E+03  0.00000000000E+00 0.  1.
         11   -1    0    0    0    0 -0.00000000000E+00 -0.00000000000E+00 -0.18250000000E+03  0.18250000000E+03  0.00000000000E+00 0.  1.
        -11    1    1    2    0    0  0.19342020433E+01 -0.16100939653E+01  0.18151706593E+03  0.18153451122E+03  0.00000000000E+00 0.  1.
         11    1    1    2    0    0  0.16654445025E+01  0.27615013604E+01 -0.10337459308E+03  0.10342488139E+03  0.00000000000E+00 0.  1.
        -15    1    1    2    0    0 -0.54540056924E+00  0.56685628552E+01 -0.60566094466E+02  0.60859178392E+02  0.17770000000E+01 0.  1.
         15    1    1    2    0    0 -0.30542459766E+01 -0.68199702502E+01 -0.17576378377E+02  0.19181429001E+02  0.17770000000E+01 0. -1.
</event>
<event>
 6    1  0.1059789E-002  0.2119803E+03  0.7546771E-02  0.1047144E+00
        -11   -1    0    0    0    0  0.00000000000E+00  0.00000000000E+00  0.18250000000E+03  0.18250000000E+03  0.00000000000E+00 0.  1.
         11   -1    0    0    0    0 -0.00000000000E+00 -0.00000000000E+00 -0.18250000000E+03  0.18250000000E+03  0.00000000000E+00 0.  1.
        -11    1    1    2    0    0  0.22710742629E+01  0.55717441035E+00  0.14490157659E+03  0.14492044411E+03  0.00000000000E+00 0.  1.
         11    1    1    2    0    0  0.31161552509E+01 -0.36053141196E+01 -0.15294550493E+03  0.15301972485E+03  0.00000000000E+00 0.  1.
        -15    1    1    2    0    0  0.75415355549E+01  0.13910906001E+02 -0.25154756212E+02  0.29770917913E+02  0.17770000000E+01 0. -1.
         15    1    1    2    0    0 -0.12928765069E+02 -0.10862766292E+02  0.33198684553E+02  0.37288913135E+02  0.17770000000E+01 0.  1.
</event>
<event>
 6    1  0.1059789E-002  0.1826503E+03  0.7546771E-02  0.1068335E+00
        -11   -1    0    0    0    0  0.00000000000E+00  0.00000000000E+00  0.18250000000E+03  0.18250000000E+03  0.00000000000E+00 0. -1.
         11   -1    0    0    0    0 -0.00000000000E+00 -0.00000000000E+00 -0.18250000000E+03  0.18250000000E+03  0.00000000000E+00 0. -1.
        -11    1    1    2    0    0  0.31860175562E+01 -0.30873448225E+01  0.64860638177E+02  0.65012189554E+02  0.00000000000E+00 0. -1.
         11    1    1    2    0    0 -0.51059650179E+01 -0.13478934439E+01 -0.18227325556E+03  0.18234973920E+03  0.00000000000E+00 0. -1.
        -15    1    1    2    0    0 -0.19581672589E+00  0.60856997227E+00  0.60704989983E+02  0.60734357982E+02  0.17770000000E+01 0.  1.
         15    1    1    2    0    0  0.21157641876E+01  0.38266682941E+01  0.56707627401E+02  0.56903713260E+02  0.17770000000E+01 0. -1.
</event>
<event>
 6    1  0.1059789E-002  0.1919881E+03  0.7546771E-02  0.1061143E+00
        -11   -1    0    0    0    0  0.00000000000E+00  0.00000000000E+00  0.18250000000E+03  0.18250000000E+03  0.00000000000E+00 0. -1.
         11   -1    0    0    0    0 -0.00000000000E+00 -0.00000000000E+00 -0.18250000000E+03  0.18250000000E+03  0.00000000000E+00 0. -1.
        -11    1    1    2    0    0 -0.11077120264E+02 -0.25873235190E+01  0.17263754154E+03  0.17301190012E+03  0.00000000000E+00 0. -1.
         11    1    1    2    0    0  0.72320708988E+00 -0.81956808146E+01 -0.15402429473E+03  0.15424388344E+03  0.00000000000E+00 0. -1.
        -15    1    1    2    0    0  0.43488197840E+01  0.13043312636E+02 -0.24956287628E+02  0.28548454585E+02  0.17770000000E+01 0. -1.
         15    1    1    2    0    0  0.60050933900E+01 -0.22603083027E+01  0.63430408186E+01  0.91957618538E+01  0.17770000000E+01 0.  1.
</event>
<event>
 6    1  0.1059789E-002  0.1968403E+03  0.7546771E-02  0.1057580E+00
        -11   -1    0    0    0    0  0.00000000000E+00  0.00000000000E+00  0.18250000000E+03  0.18250000000E+03  0.00000000000E+00 0. -1.
         11   -1    0    0    0    0 -0.00000000000E+00 -0.00000000000E+00 -0.18250000000E+03  0.18250000000E+03  0.00000000000E+00 0. -1.
        -11    1    1    2    0    0  0.24454221065E+02  0.38088353803E+02  0.16195359874E+03  0.16815974479E+03  0.00000000000E+00 0. -1.
         11    1    1    2    0    0 -0.59236766925E+00 -0.21334078202E+01 -0.11373605589E+03  0.11375760519E+03  0.00000000000E+00 0. -1.
        -15    1    1    2    0    0  0.16198103533E+02 -0.10404099722E+02 -0.84612570141E+01  0.21103896521E+02  0.17770000000E+01 0. -1.
         15    1    1    2    0    0 -0.40059956929E+02 -0.25550846261E+02 -0.39756285831E+02  0.61978753504E+02  0.17770000000E+01 0.  1.
</event>
<event>
 6    1  0.1059789E-002  0.1839296E+03  0.7546771E-02  0.1067322E+00
        -11   -1    0    0    0    0  0.00000000000E+00  0.00000000000E+00  0.18250000000E+03  0.18250000000E+03  0.00000000000E+00 0. -1.
         11   -1    0    0    0    0 -0.00000000000E+00 -0.00000000000E+00 -0.18250000000E+03  0.18250000000E+03  0.00000000000E+00 0. -1.
        -11    1    1    2    0    0 -0.10058531073E+01  0.25802374494E+01  0.85125704308E+02  0.85170739692E+02  0.00000000000E+00 0. -1.
         11    1    1    2    0    0  0.16199513758E+01  0.38106663876E+01 -0.18102300682E+03  0.18107035765E+03  0.00000000000E+00 0. -1.
        -15    1    1    2    0    0 -0.13338376146E+01 -0.71575174052E+00  0.90977070005E+02  0.91007013021E+02  0.17770000000E+01 0. -1.
         15    1    1    2    0    0  0.71973934611E+00 -0.56751520965E+01  0.49202325069E+01  0.77518896384E+01  0.17770000000E+01 0.  1.
</event>
<event>
 6    1  0.1059789E-002  0.1826926E+03  0.7546771E-02  0.1068302E+00
        -11   -1    0    0    0    0  0.00000000000E+00  0.00000000000E+00  0.18250000000E+03  0.18250000000E+03  0.00000000000E+00 0. -1.
         11   -1    0    0    0    0 -0.00000000000E+00 -0.00000000000E+00 -0.18250000000E+03  0.18250000000E+03  0.00000000000E+00 0.  1.
        -11    1    1    2    0    0 -0.56185482154E+01 -0.34624503496E+01  0.18218787847E+03  0.18230737700E+03  0.00000000000E+00 0. -1.
         11    1    1    2    0    0  0.10667368249E+00 -0.14761963996E+01 -0.76521039938E+02  0.76535351886E+02  0.00000000000E+00 0.  1.
        -15    1    1    2    0    0  0.12764817471E+01 -0.57866456239E+00 -0.46737802049E+02  0.46792564876E+02  0.17770000000E+01 0. -1.
         15    1    1    2    0    0  0.42353927858E+01  0.55173113116E+01 -0.58929036487E+02  0.59364706236E+02  0.17770000000E+01 0.  1.
</event>
<event>
 6    1  0.1059789E-002  0.1834590E+03  0.7546771E-02  0.1067694E+00
        -11   -1    0    0    0    0  0.00000000000E+00  0.00000000000E+00  0.18250000000E+03  0.18250000000E+03  0.00000000000E+00 0. -1.
         11   -1    0    0    0    0 -0.00000000000E+00 -0.00000000000E+00 -0.18250000000E+03  0.18250000000E+03  0.00000000000E+00 0. -1.
        -11    1    1    2    0    0  0.12843926094E+01  0.47133860285E+01  0.18147524373E+03  0.18154098645E+03  0.00000000000E+00 0. -1.
         11    1    1    2    0    0 -0.22981768027E+01  0.27148490721E-01 -0.15710056605E+03  0.15711737716E+03  0.00000000000E+00 0. -1.
        -15    1    1    2    0    0  0.23631260760E+00 -0.50644297240E+01 -0.68425609923E+01  0.86995782663E+01  0.17770000000E+01 0. -1.
         15    1    1    2    0    0  0.77747158574E+00  0.32389520486E+00 -0.17532116691E+02  0.17642058123E+02  0.17770000000E+01 0.  1.
</event>
<event>
 6    1  0.1059789E-002  0.1835499E+03  0.7546771E-02  0.1067622E+00
        -11   -1    0    0    0    0  0.00000000000E+00  0.00000000000E+00  0.18250000000E+03  0.18250000000E+03  0.00000000000E+00 0.  1.
         11   -1    0    0    0    0 -0.00000000000E+00 -0.00000000000E+00 -0.18250000000E+03  0.18250000000E+03  0.00000000000E+00 0.  1.
        -11    1    1    2    0    0 -0.62054701238E+01  0.13952691489E+01  0.10185754129E+03  0.10205593248E+03  0.00000000000E+00 0.  1.
         11    1    1    2    0    0  0.31526839766E+01  0.22879539446E+00 -0.18142257323E+03  0.18145010841E+03  0.00000000000E+00 0.  1.
        -15    1    1    2    0    0  0.73526197187E+01  0.10291849683E+01  0.70882277028E+02  0.71292181648E+02  0.17770000000E+01 0.  1.
         15    1    1    2    0    0 -0.42998335714E+01 -0.26532495117E+01  0.86827549081E+01  0.10201777468E+02  0.17770000000E+01 0. -1.
</event>
<event>
 6    1  0.1059789E-002  0.1826673E+03  0.7546771E-02  0.1068322E+00
        -11   -1    0    0    0    0  0.00000000000E+00  0.00000000000E+00  0.18250000000E+03  0.18250000000E+03  0.00000000000E+00 0. -1.
         11   -1    0    0    0    0 -0.00000000000E+00 -0.00000000000E+00 -0.18250000000E+03  0.18250000000E+03  0.00000000000E+00 0. -1.
        -11    1    1    2    0    0  0.24526020169E+01 -0.26622554781E+00  0.18231605908E+03  0.18233274948E+03  0.00000000000E+00 0. -1.
         11    1    1    2    0    0  0.75006450824E+00 -0.35647687619E+00 -0.58167257952E+02  0.58173186007E+02  0.00000000000E+00 0. -1.
        -15    1    1    2    0    0 -0.25999419566E+01  0.14606046358E+00 -0.14982001114E+02  0.15310098570E+02  0.17770000000E+01 0. -1.
         15    1    1    2    0    0 -0.60272456853E+00  0.47664196043E+00 -0.10916680002E+03  0.10918396594E+03  0.17770000000E+01 0. -1.
</event>
<event>
 6    1  0.1059789E-002  0.1841864E+03  0.7546771E-02  0.1067120E+00
        -11   -1    0    0    0    0  0.00000000000E+00  0.00000000000E+00  0.18250000000E+03  0.18250000000E+03  0.00000000000E+00 0. -1.
         11   -1    0    0    0    0 -0.00000000000E+00 -0.00000000000E+00 -0.18250000000E+03  0.18250000000E+03  0.00000000000E+00 0. -1.
        -11    1    1    2    0    0 -0.25490048421E+01 -0.24597136616E+01  0.12348125901E+03  0.12353205634E+03  0.00000000000E+00 0. -1.
         11    1    1    2    0    0 -0.35713976787E+01 -0.61924423398E+01 -0.18067223360E+03  0.18081359799E+03  0.00000000000E+00 0. -1.
        -15    1    1    2    0    0 -0.19330497976E+01 -0.11853100106E+01  0.34209575640E+02  0.34330663201E+02  0.17770000000E+01 0. -1.
         15    1    1    2    0    0  0.80534523185E+01  0.98374660120E+01  0.22981398949E+02  0.26323682464E+02  0.17770000000E+01 0.  1.
</event>
<event>
 6    1  0.1059789E-002  0.1885070E+03  0.7546771E-02  0.1063771E+00
        -11   -1    0    0    0    0  0.00000000000E+00  0.00000000000E+00  0.18250000000E+03  0.18250000000E+03  0.00000000000E+00 0. -1.
         11   -1    0    0    0    0 -0.00000000000E+00 -0.00000000000E+00 -0.18250000000E+03  0.18250000000E+03  0.00000000000E+00 0.  1.
        -11    1    1    2    0    0 -0.38245717515E+01  0.76338103477E+01  0.17628635455E+03  0.17649300612E+03  0.00000000000E+00 0. -1.
         11    1    1    2    0    0  0.30029602171E+01  0.41114156704E+00 -0.92813188496E+02  0.92862666160E+02  0.00000000000E+00 0.  1.
        -15    1    1    2    0    0 -0.23672579621E+01 -0.30975379662E+01 -0.87940173671E+02  0.88044480384E+02  0.17770000000E+01 0.  1.
         15    1    1    2    0    0  0.31888694965E+01 -0.49474139485E+01  0.44670076175E+01  0.75998473339E+01  0.17770000000E+01 0. -1.
</event>
<event>
 6    1  0.1059789E-002  0.1835888E+03  0.7546771E-02  0.1067591E+00
        -11   -1    0    0    0    0  0.00000000000E+00  0.00000000000E+00  0.18250000000E+03  0.18250000000E+03  0.00000000000E+00 0. -1.
         11   -1    0    0    0    0 -0.00000000000E+00 -0.00000000000E+00 -0.18250000000E+03  0.18250000000E+03  0.00000000000E+00 0. -1.
        -11    1    1    2    0    0 -0.24835113058E+00 -0.57946003451E+01  0.18131850689E+03  0.18141124555E+03  0.00000000000E+00 0. -1.
         11    1    1    2    0    0  0.27762891264E+01 -0.22816471498E+01 -0.13009192995E+03  0.13014155345E+03  0.00000000000E+00 0. -1.
        -15    1    1    2    0    0  0.19033983954E+01  0.15311703639E+01 -0.36619901808E+02  0.36744283168E+02  0.17770000000E+01 0.  1.
         15    1    1    2    0    0 -0.44313363911E+01  0.65450771310E+01 -0.14606675128E+02  0.16702917834E+02  0.17770000000E+01 0. -1.
</event>
<event>
 6    1  0.1059789E-002  0.1830628E+03  0.7546771E-02  0.1068008E+00
        -11   -1    0    0    0    0  0.00000000000E+00  0.00000000000E+00  0.18250000000E+03  0.18250000000E+03  0.00000000000E+00 0. -1.
         11   -1    0    0    0    0 -0.00000000000E+00 -0.00000000000E+00 -0.18250000000E+03  0.18250000000E+03  0.00000000000E+00 0. -1.
        -11    1    1    2    0    0 -0.24398913214E+01 -0.94705503068E+00  0.18191840209E+03  0.18193722819E+03  0.00000000000E+00 0. -1.
         11    1    1    2    0    0  0.23676798410E+01 -0.61162436782E+00 -0.16088268834E+03  0.16090127221E+03  0.00000000000E+00 0. -1.
        -15    1    1    2    0    0 -0.14587768539E+01  0.30453409799E+01 -0.15570324801E+02  0.16031059697E+02  0.17770000000E+01 0.  1.
         15    1    1    2    0    0  0.15309883343E+01 -0.14866615814E+01 -0.54653889547E+01  0.61304398997E+01  0.17770000000E+01 0. -1.
</event>
<event>
 6    1  0.1059789E-002  0.1827442E+03  0.7546771E-02  0.1068261E+00
        -11   -1    0    0    0    0  0.00000000000E+00  0.00000000000E+00  0.18250000000E+03  0.18250000000E+03  0.00000000000E+00 0. -1.
         11   -1    0    0    0    0 -0.00000000000E+00 -0.00000000000E+00 -0.18250000000E+03  0.18250000000E+03  0.00000000000E+00 0.  1.
        -11    1    1    2    0    0 -0.10473825491E+01  0.11533355207E+01  0.11180259907E+03  0.11181345336E+03  0.00000000000E+00 0. -1.
         11    1    1    2    0    0  0.30014184522E+01 -0.80979890157E+00 -0.18222931088E+03  0.18225582578E+03  0.00000000000E+00 0.  1.
        -15    1    1    2    0    0  0.13236942252E+01 -0.89535151083E+00  0.54940298519E+02  0.54992253555E+02  0.17770000000E+01 0. -1.
         15    1    1    2    0    0 -0.32777301282E+01  0.55181489169E+00  0.15486413293E+02  0.15938467309E+02  0.17770000000E+01 0. -1.
</event>
<event>
 6    1  0.1059789E-002  0.1705701E+03  0.7546771E-02  0.1078369E+00
        -11   -1    0    0    0    0  0.00000000000E+00  0.00000000000E+00  0.18250000000E+03  0.18250000000E+03  0.00000000000E+00 0.  1.
         11   -1    0    0    0    0 -0.00000000000E+00 -0.00000000000E+00 -0.18250000000E+03  0.18250000000E+03  0.00000000000E+00 0.  1.
        -11    1    1    2    0    0  0.14586314578E+02  0.12427822832E+02  0.16980006133E+03  0.17087794527E+03  0.00000000000E+00 0.  1.
         11    1    1    2    0    0 -0.20287045970E+02  0.82089350229E+00 -0.16935449280E+03  0.17056723699E+03  0.00000000000E+00 0.  1.
        -15    1    1    2    0    0 -0.50807288538E+01 -0.72049607282E+01  0.45823322014E+01  0.10093600061E+02  0.17770000000E+01 0.  1.
         15    1    1    2    0    0  0.10781460245E+02 -0.60437556062E+01 -0.50279007228E+01  0.13461217684E+02  0.17770000000E+01 0. -1.
</event>
<event>
 6    1  0.1059789E-002  0.1834175E+03  0.7546771E-02  0.1067727E+00
        -11   -1    0    0    0    0  0.00000000000E+00  0.00000000000E+00  0.18250000000E+03  0.18250000000E+03  0.00000000000E+00 0.  1.
         11   -1    0    0    0    0 -0.00000000000E+00 -0.00000000000E+00 -0.18250000000E+03  0.18250000000E+03  0.00000000000E+00 0.  1.
        -11    1    1    2    0    0 -0.49363020176E+01 -0.54241038570E+00  0.16704788739E+03  0.16712168611E+03  0.00000000000E+00 0.  1.
         11    1    1    2    0    0  0.26077136591E+01  0.16464596843E+01 -0.18155634211E+03  0.18158253319E+03  0.00000000000E+00 0.  1.
        -15    1    1    2    0    0 -0.16003450151E+01 -0.18012675682E+01  0.69208748187E+01  0.75406834090E+01  0.17770000000E+01 0.  1.
         15    1    1    2    0    0  0.39289333737E+01  0.69721826961E+00  0.75875799047E+01  0.87550972913E+01  0.17770000000E+01 0. -1.
</event>
<event>
 6    1  0.1059789E-002  0.1848463E+03  0.7546771E-02  0.1066602E+00
        -11   -1    0    0    0    0  0.00000000000E+00  0.00000000000E+00  0.18250000000E+03  0.18250000000E+03  0.00000000000E+00 0. -1.
         11   -1    0    0    0    0 -0.00000000000E+00 -0.00000000000E+00 -0.18250000000E+03  0.18250000000E+03  0.00000000000E+00 0. -1.
        -11    1    1    2    0    0  0.77790806580E+00 -0.40352826933E+01  0.18010683092E+03  0.18015370990E+03  0.00000000000E+00 0. -1.
         11    1    1    2    0    0  0.28946991580E+01 -0.88353351420E+00 -0.13342583944E+03  0.13346016089E+03  0.00000000000E+00 0. -1.
        -15    1    1    2    0    0  0.13897705690E+01  0.48514550210E+01 -0.10645266433E+01  0.54551832260E+01  0.17770000000E+01 0. -1.
         15    1    1    2    0    0 -0.50623777928E+01  0.67361186513E-01 -0.45616464830E+02  0.45930945985E+02  0.17770000000E+01 0. -1.
</event>
<event>
 6    1  0.1059789E-002  0.1838368E+03  0.7546771E-02  0.1067396E+00
        -11   -1    0    0    0    0  0.00000000000E+00  0.00000000000E+00  0.18250000000E+03  0.18250000000E+03  0.00000000000E+00 0. -1.
         11   -1    0    0    0    0 -0.00000000000E+00 -0.00000000000E+00 -0.18250000000E+03  0.18250000000E+03  0.00000000000E+00 0.  1.
        -11    1    1    2    0    0 -0.28956977836E+00  0.35251563013E+01  0.12541340529E+03  0.12546327273E+03  0.00000000000E+00 0. -1.
         11    1    1    2    0    0 -0.55428372073E+01 -0.74316550767E+00 -0.18107686529E+03  0.18116320399E+03  0.00000000000E+00 0.  1.
        -15    1    1    2    0    0  0.41915123751E+01  0.94219829638E+00  0.30217368032E+01  0.55448296572E+01  0.17770000000E+01 0. -1.
         15    1    1    2    0    0  0.16408946106E+01 -0.37241890900E+01  0.52641723194E+02  0.52828693617E+02  0.17770000000E+01 0.  1.
</event>
<event>
 6    1  0.1059789E-002  0.1845720E+03  0.7546771E-02  0.1066817E+00
        -11   -1    0    0    0    0  0.00000000000E+00  0.00000000000E+00  0.18250000000E+03  0.18250000000E+03  0.00000000000E+00 0.  1.
         11   -1    0    0    0    0 -0.00000000000E+00 -0.00000000000E+00 -0.18250000000E+03  0.18250000000E+03  0.00000000000E+00 0. -1.
        -11    1    1    2    0    0 -0.54059788199E+01  0.19649888471E+01  0.18033633615E+03  0.18042804639E+03  0.00000000000E+00 0.  1.
         11    1    1    2    0    0 -0.29975550216E+01 -0.47369471344E+01 -0.15852100437E+03  0.15862008962E+03  0.00000000000E+00 0. -1.
        -15    1    1    2    0    0 -0.16355512157E+01  0.25695343530E+01 -0.33819810793E+01  0.48860065075E+01  0.17770000000E+01 0.  1.
         15    1    1    2    0    0  0.10039085057E+02  0.20242393435E+00 -0.18433350698E+02  0.21065857476E+02  0.17770000000E+01 0. -1.
</event>
<event>
 6    1  0.1059789E-002  0.1848633E+03  0.7546771E-02  0.1066589E+00
        -11   -1    0    0    0    0  0.00000000000E+00  0.00000000000E+00  0.18250000000E+03  0.18250000000E+03  0.00000000000E+00 0. -1.
         11   -1    0    0    0    0 -0.00000000000E+00 -0.00000000000E+00 -0.18250000000E+03  0.18250000000E+03  0.00000000000E+00 0.  1.
        -11    1    1    2    0    0  0.26286385469E+01  0.76458900727E+01  0.17995518863E+03  0.18013672388E+03  0.00000000000E+00 0. -1.
         11    1    1    2    0    0  0.18488922047E+01  0.16450491959E+01 -0.15603935238E+03  0.15605897628E+03  0.00000000000E+00 0.  1.
        -15    1    1    2    0    0 -0.15906673206E+00 -0.61188643751E+01 -0.28261635758E+01  0.69721397736E+01  0.17770000000E+01 0. -1.
         15    1    1    2    0    0 -0.43184640195E+01 -0.31720748935E+01 -0.21089672675E+02  0.21832160066E+02  0.17770000000E+01 0.  1.
</event>
<event>
 6    1  0.1059789E-002  0.2009681E+03  0.7546771E-02  0.1054636E+00
        -11   -1    0    0    0    0  0.00000000000E+00  0.00000000000E+00  0.18250000000E+03  0.18250000000E+03  0.00000000000E+00 0.  1.
         11   -1    0    0    0    0 -0.00000000000E+00 -0.00000000000E+00 -0.18250000000E+03  0.18250000000E+03  0.00000000000E+00 0. -1.
        -11    1    1    2    0    0  0.10166149874E+02  0.53550678987E+01  0.16362899560E+03  0.16403193456E+03  0.00000000000E+00 0.  1.
         11    1    1    2    0    0 -0.16551097094E+01 -0.10590690353E+02 -0.14559824640E+03  0.14599229933E+03  0.00000000000E+00 0. -1.
        -15    1    1    2    0    0  0.43215388805E+00  0.15198319306E+02 -0.32044732488E+02  0.35513353488E+02  0.17770000000E+01 0. -1.
         15    1    1    2    0    0 -0.89431940523E+01 -0.99626968517E+01  0.14013983283E+02  0.19462412617E+02  0.17770000000E+01 0.  1.
</event>
<event>
 6    1  0.1059789E-002  0.1830164E+03  0.7546771E-02  0.1068045E+00
        -11   -1    0    0    0    0  0.00000000000E+00  0.00000000000E+00  0.18250000000E+03  0.18250000000E+03  0.00000000000E+00 0. -1.
         11   -1    0    0    0    0 -0.00000000000E+00 -0.00000000000E+00 -0.18250000000E+03  0.18250000000E+03  0.00000000000E+00 0. -1.
        -11    1    1    2    0    0  0.28284479981E+01  0.27920280216E+01  0.12190899831E+03  0.12197376525E+03  0.00000000000E+00 0. -1.
         11    1    1    2    0    0 -0.12886525765E+00  0.27750245410E+01 -0.18196242435E+03  0.18198362905E+03  0.00000000000E+00 0. -1.
        -15    1    1    2    0    0  0.61530389571E-01 -0.23366322189E+01  0.48726936562E+02  0.48815322511E+02  0.17770000000E+01 0.  1.
         15    1    1    2    0    0 -0.27611131300E+01 -0.32304203437E+01  0.11326489478E+02  0.12227283190E+02  0.17770000000E+01 0. -1.
</event>
<event>
 6    1  0.1059789E-002  0.1876389E+03  0.7546771E-02  0.1064436E+00
        -11   -1    0    0    0    0  0.00000000000E+00  0.00000000000E+00  0.18250000000E+03  0.18250000000E+03  0.00000000000E+00 0. -1.
         11   -1    0    0    0    0 -0.00000000000E+00 -0.00000000000E+00 -0.18250000000E+03  0.18250000000E+03  0.00000000000E+00 0.  1.
        -11    1    1    2    0    0 -0.16828967681E+01  0.35151736614E+01  0.17410973239E+03  0.17415334479E+03  0.00000000000E+00 0. -1.
         11    1    1    2    0    0  0.25130572236E+01  0.72939162754E+00 -0.17734180366E+03  0.17736110846E+03  0.00000000000E+00 0.  1.
        -15    1    1    2    0    0 -0.27252105858E+00  0.41221256074E+01  0.72681011394E+00  0.45554548831E+01  0.17770000000E+01 0. -1.
         15    1    1    2    0    0 -0.55763939686E+00 -0.83666908963E+01  0.25052611610E+01  0.89300918661E+01  0.17770000000E+01 0.  1.
</event>
<event>
 6    1  0.1059789E-002  0.1911987E+03  0.7546771E-02  0.1061734E+00
        -11   -1    0    0    0    0  0.00000000000E+00  0.00000000000E+00  0.18250000000E+03  0.18250000000E+03  0.00000000000E+00 0.  1.
         11   -1    0    0    0    0 -0.00000000000E+00 -0.00000000000E+00 -0.18250000000E+03  0.18250000000E+03  0.00000000000E+00 0. -1.
        -11    1    1    2    0    0  0.39659534869E+01  0.62290835904E+01  0.16515142322E+03  0.16531643252E+03  0.00000000000E+00 0.  1.
         11    1    1    2    0    0 -0.63651257307E-01  0.42374820310E+01 -0.17374965172E+03  0.17380132847E+03  0.00000000000E+00 0. -1.
        -15    1    1    2    0    0 -0.39219511426E+01 -0.30800705766E+01 -0.68557167680E+01  0.86618194927E+01  0.17770000000E+01 0.  1.
         15    1    1    2    0    0  0.19648913046E-01 -0.73864950447E+01  0.15453945269E+02  0.17220419522E+02  0.17770000000E+01 0. -1.
</event>
<event>
 6    1  0.1059789E-002  0.1839470E+03  0.7546771E-02  0.1067309E+00
        -11   -1    0    0    0    0  0.00000000000E+00  0.00000000000E+00  0.18250000000E+03  0.18250000000E+03  0.00000000000E+00 0. -1.
         11   -1    0    0    0    0 -0.00000000000E+00 -0.00000000000E+00 -0.18250000000E+03  0.18250000000E+03  0.00000000000E+00 0. -1.
        -11    1    1    2    0    0 -0.28094612766E-01 -0.34869571989E+01  0.15981853360E+03  0.15985657115E+03  0.00000000000E+00 0. -1.
         11    1    1    2    0    0 -0.18761611265E+01 -0.22280092790E+01 -0.18102951938E+03  0.18105295052E+03  0.00000000000E+00 0. -1.
        -15    1    1    2    0    0  0.25217448458E+01  0.48824123824E+01  0.46842654663E+01  0.74362100359E+01  0.17770000000E+01 0.  1.
         15    1    1    2    0    0 -0.61748910644E+00  0.83255409554E+00  0.16526720313E+02  0.16654268294E+02  0.17770000000E+01 0.  1.
</event>
<event>
 6    1  0.1059789E-002  0.1828287E+03  0.7546771E-02  0.1068193E+00
        -11   -1    0    0    0    0  0.00000000000E+00  0.00000000000E+00  0.18250000000E+03  0.18250000000E+03  0.00000000000E+00 0.  1.
         11   -1    0    0    0    0 -0.00000000000E+00 -0.00000000000E+00 -0.18250000000E+03  0.18250000000E+03  0.00000000000E+00 0. -1.
        -11    1    1    2    0    0  0.24617175967E+01  0.13276896917E+01  0.13653934505E+03  0.13656798879E+03  0.00000000000E+00 0.  1.
         11    1    1    2    0    0  0.52035309019E+00 -0.42115811672E+01 -0.18212184357E+03  0.18217127679E+03  0.00000000000E+00 0. -1.
        -15    1    1    2    0    0 -0.12456037321E+01  0.31781230546E+01  0.39453570592E+02  0.39640811751E+02  0.17770000000E+01 0. -1.
         15    1    1    2    0    0 -0.17364669548E+01 -0.29423157908E+00  0.61289279214E+01  0.66199226713E+01  0.17770000000E+01 0.  1.
</event>
<event>
 6    1  0.1059789E-002  0.1842891E+03  0.7546771E-02  0.1067040E+00
        -11   -1    0    0    0    0  0.00000000000E+00  0.00000000000E+00  0.18250000000E+03  0.18250000000E+03  0.00000000000E+00 0. -1.
         11   -1    0    0    0    0 -0.00000000000E+00 -0.00000000000E+00 -0.18250000000E+03  0.18250000000E+03  0.00000000000E+00 0. -1.
        -11    1    1    2    0    0 -0.15134989396E+01  0.30204730891E+01  0.18067934949E+03  0.18071093290E+03  0.00000000000E+00 0. -1.
         11    1    1    2    0    0  0.33654496605E+01  0.28221576735E+01 -0.10548113618E+03  0.10557253864E+03  0.00000000000E+00 0. -1.
        -15    1    1    2    0    0  0.13625651714E+01 -0.17157718372E+01  0.45878341953E+00  0.28580881844E+01  0.17770000000E+01 0. -1.
         15    1    1    2    0    0 -0.32145158923E+01 -0.41268589254E+01 -0.75656996734E+02  0.75858440274E+02  0.17770000000E+01 0. -1.
</event>
<event>
 6    1  0.1059789E-002  0.1508832E+03  0.7546771E-02  0.1096841E+00
        -11   -1    0    0    0    0  0.00000000000E+00  0.00000000000E+00  0.18250000000E+03  0.18250000000E+03  0.00000000000E+00 0. -1.
         11   -1    0    0    0    0 -0.00000000000E+00 -0.00000000000E+00 -0.18250000000E+03  0.18250000000E+03  0.00000000000E+00 0.  1.
        -11    1    1    2    0    0  0.30113792401E+02  0.45872159423E+01  0.14313077669E+03  0.14633626440E+03  0.00000000000E+00 0. -1.
         11    1    1    2    0    0 -0.98992537177E+00 -0.20989067837E+01 -0.15714931802E+03  0.15716645163E+03  0.00000000000E+00 0.  1.
        -15    1    1    2    0    0 -0.29680199364E+02  0.15553689698E+02 -0.64272728997E+01  0.34165758640E+02  0.17770000000E+01 0.  1.
         15    1    1    2    0    0  0.55633233485E+00 -0.18041998857E+02  0.20445814230E+02  0.27331525331E+02  0.17770000000E+01 0. -1.
</event>
<event>
 6    1  0.1059789E-002  0.1830460E+03  0.7546771E-02  0.1068021E+00
        -11   -1    0    0    0    0  0.00000000000E+00  0.00000000000E+00  0.18250000000E+03  0.18250000000E+03  0.00000000000E+00 0. -1.
         11   -1    0    0    0    0 -0.00000000000E+00 -0.00000000000E+00 -0.18250000000E+03  0.18250000000E+03  0.00000000000E+00 0.  1.
        -11    1    1    2    0    0  0.25275851110E+01  0.42630889233E+00  0.18193591756E+03  0.18195397365E+03  0.00000000000E+00 0. -1.
         11    1    1    2    0    0  0.24563319571E+01 -0.11096336893E+01 -0.15846115718E+03  0.15848407866E+03  0.00000000000E+00 0.  1.
        -15    1    1    2    0    0 -0.42017835797E+01 -0.39082255057E-01 -0.10877851224E+02  0.11795842018E+02  0.17770000000E+01 0.  1.
         15    1    1    2    0    0 -0.78213348834E+00  0.72240705203E+00 -0.12596909160E+02  0.12766105676E+02  0.17770000000E+01 0. -1.
</event>
<event>
 6    1  0.1059789E-002  0.1914239E+03  0.7546771E-02  0.1061565E+00
        -11   -1    0    0    0    0  0.00000000000E+00  0.00000000000E+00  0.18250000000E+03  0.18250000000E+03  0.00000000000E+00 0.  1.
         11   -1    0    0    0    0 -0.00000000000E+00 -0.00000000000E+00 -0.18250000000E+03  0.18250000000E+03  0.00000000000E+00 0.  1.
        -11    1    1    2    0    0  0.33877882951E+01 -0.37706762364E+01  0.16382413257E+03  0.16390253665E+03  0.00000000000E+00 0.  1.
         11    1    1    2    0    0  0.58065337970E+01 -0.70519162726E+00 -0.17347752030E+03  0.17357610198E+03  0.00000000000E+00 0.  1.
        -15    1    1    2    0    0 -0.50703542933E+01 -0.72887487448E+01 -0.31268575107E+01  0.95796303591E+01  0.17770000000E+01 0. -1.
         15    1    1    2    0    0 -0.41239677988E+01  0.11764616608E+02  0.12780245241E+02  0.17941731014E+02  0.17770000000E+01 0.  1.
</event>
<event>
 6    1  0.1059789E-002  0.1348358E+03  0.7546771E-02  0.1114356E+00
        -11   -1    0    0    0    0  0.00000000000E+00  0.00000000000E+00  0.18250000000E+03  0.18250000000E+03  0.00000000000E+00 0. -1.
         11   -1    0    0    0    0 -0.00000000000E+00 -0.00000000000E+00 -0.18250000000E+03  0.18250000000E+03  0.00000000000E+00 0. -1.
        -11    1    1    2    0    0  0.27698638991E+02  0.19936432768E+02  0.14473971140E+03  0.14870864134E+03  0.00000000000E+00 0. -1.
         11    1    1    2    0    0  0.12458156779E+02  0.24681121219E+01 -0.12492791415E+03  0.12557181603E+03  0.00000000000E+00 0. -1.
        -15    1    1    2    0    0 -0.16642503247E+02 -0.99693678556E+01 -0.48071845287E+02  0.51869270750E+02  0.17770000000E+01 0. -1.
         15    1    1    2    0    0 -0.23514292523E+02 -0.12435177034E+02  0.28260048038E+02  0.38850271876E+02  0.17770000000E+01 0.  1.
</event>
<event>
 6    1  0.1059789E-002  0.1831641E+03  0.7546771E-02  0.1067927E+00
        -11   -1    0    0    0    0  0.00000000000E+00  0.00000000000E+00  0.18250000000E+03  0.18250000000E+03  0.00000000000E+00 0.  1.
         11   -1    0    0    0    0 -0.00000000000E+00 -0.00000000000E+00 -0.18250000000E+03  0.18250000000E+03  0.00000000000E+00 0. -1.
        -11    1    1    2    0    0 -0.46195356039E+01  0.75130102675E+00  0.18177567996E+03  0.18183592161E+03  0.00000000000E+00 0.  1.
         11    1    1    2    0    0 -0.15919764394E+01  0.55776348048E+00 -0.11823822612E+03  0.11825025837E+03  0.00000000000E+00 0. -1.
        -15    1    1    2    0    0  0.37869821859E+01  0.69009919651E+00 -0.64891458533E+01  0.77514007691E+01  0.17770000000E+01 0.  1.
         15    1    1    2    0    0  0.24245298574E+01 -0.19991637037E+01 -0.57048307994E+02  0.57162419250E+02  0.17770000000E+01 0. -1.
</event>
<event>
 6    1  0.1059789E-002  0.1842506E+03  0.7546771E-02  0.1067070E+00
        -11   -1    0    0    0    0  0.00000000000E+00  0.00000000000E+00  0.18250000000E+03  0.18250000000E+03  0.00000000000E+00 0.  1.
         11   -1    0    0    0    0 -0.00000000000E+00 -0.00000000000E+00 -0.18250000000E+03  0.18250000000E+03  0.00000000000E+00 0.  1.
        -11    1    1    2    0    0  0.19703929681E+01  0.32634341766E+01  0.16789541801E+03  0.16793869072E+03  0.00000000000E+00 0.  1.
         11    1    1    2    0    0 -0.21502609729E+01  0.31177850049E+01 -0.18070975151E+03  0.18074943567E+03  0.00000000000E+00 0.  1.
        -15    1    1    2    0    0 -0.18361606712E+00 -0.21074398191E+01  0.10976107629E+02  0.11318466554E+02  0.17770000000E+01 0. -1.
         15    1    1    2    0    0  0.36348407194E+00 -0.42737793623E+01  0.18382258653E+01  0.49934070574E+01  0.17770000000E+01 0.  1.
</event>
<event>
 6    1  0.1059789E-002  0.1922259E+03  0.7546771E-02  0.1060966E+00
        -11   -1    0    0    0    0  0.00000000000E+00  0.00000000000E+00  0.18250000000E+03  0.18250000000E+03  0.00000000000E+00 0. -1.
         11   -1    0    0    0    0 -0.00000000000E+00 -0.00000000000E+00 -0.18250000000E+03  0.18250000000E+03  0.00000000000E+00 0. -1.
        -11    1    1    2    0    0  0.30076505612E+01 -0.54915960553E+01  0.17266064821E+03  0.17277413878E+03  0.00000000000E+00 0. -1.
         11    1    1    2    0    0 -0.47712777142E+01  0.47836922869E+00 -0.16633758355E+03  0.16640668745E+03  0.00000000000E+00 0. -1.
        -15    1    1    2    0    0  0.57169218101E+01 -0.47186076790E+01 -0.11639069891E+02  0.13913092048E+02  0.17770000000E+01 0. -1.
         15    1    1    2    0    0 -0.39532946572E+01  0.97318345056E+01  0.53160052223E+01  0.11906081724E+02  0.17770000000E+01 0.  1.
</event>
<event>
 6    1  0.1059789E-002  0.1825588E+03  0.7546771E-02  0.1068408E+00
        -11   -1    0    0    0    0  0.00000000000E+00  0.00000000000E+00  0.18250000000E+03  0.18250000000E+03  0.00000000000E+00 0. -1.
         11   -1    0    0    0    0 -0.00000000000E+00 -0.00000000000E+00 -0.18250000000E+03  0.18250000000E+03  0.00000000000E+00 0.  1.
        -11    1    1    2    0    0  0.72548084314E+00  0.48093035789E+00  0.33974104927E+02  0.33985253008E+02  0.00000000000E+00 0. -1.
         11    1    1    2    0    0 -0.35144405674E+01 -0.25855454727E+01 -0.18238907121E+03  0.18244124981E+03  0.00000000000E+00 0.  1.
        -15    1    1    2    0    0  0.27892797075E+01  0.14916916308E+00  0.43708379193E+02  0.43833577009E+02  0.17770000000E+01 0. -1.
         15    1    1    2    0    0 -0.31998324543E-03  0.19554459518E+01  0.10470658709E+03  0.10473992017E+03  0.17770000000E+01 0. -1.
</event>
<event>
 6    1  0.1059789E-002  0.1848396E+03  0.7546771E-02  0.1066608E+00
        -11   -1    0    0    0    0  0.00000000000E+00  0.00000000000E+00  0.18250000000E+03  0.18250000000E+03  0.00000000000E+00 0.  1.
         11   -1    0    0    0    0 -0.00000000000E+00 -0.00000000000E+00 -0.18250000000E+03  0.18250000000E+03  0.00000000000E+00 0. -1.
        -11    1    1    2    0    0  0.46583232551E+01 -0.10279546391E+02  0.93312374909E+02  0.93992384589E+02  0.00000000000E+00 0.  1.
         11    1    1    2    0    0  0.42233374075E+01 -0.20384894791E+01 -0.18009932916E+03  0.18016037406E+03  0.00000000000E+00 0. -1.
        -15    1    1    2    0    0 -0.63003252138E+01  0.14464223637E+02  0.85305337625E+02  0.86770191999E+02  0.17770000000E+01 0.  1.
         15    1    1    2    0    0 -0.25813354489E+01 -0.21461877672E+01  0.14816166213E+01  0.40770493551E+01  0.17770000000E+01 0. -1.
</event>
<event>
 6    1  0.1059789E-002  0.1874905E+03  0.7546771E-02  0.1064550E+00
        -11   -1    0    0    0    0  0.00000000000E+00  0.00000000000E+00  0.18250000000E+03  0.18250000000E+03  0.00000000000E+00 0. -1.
         11   -1    0    0    0    0 -0.00000000000E+00 -0.00000000000E+00 -0.18250000000E+03  0.18250000000E+03  0.00000000000E+00 0. -1.
        -11    1    1    2    0    0 -0.54463624137E+01  0.28283795166E+01  0.15897417517E+03  0.15909258614E+03  0.00000000000E+00 0. -1.
         11    1    1    2    0    0  0.18445453869E+01  0.29551342723E+01 -0.17747529631E+03  0.17750948134E+03  0.00000000000E+00 0. -1.
        -15    1    1    2    0    0 -0.52507860234E+01 -0.33155109141E+01 -0.12151720108E+01  0.65724986497E+01  0.17770000000E+01 0.  1.
         15    1    1    2    0    0  0.88526030502E+01 -0.24680028749E+01  0.19716293148E+02  0.21825433866E+02  0.17770000000E+01 0.  1.
</event>
<event>
 6    1  0.1059789E-002  0.1840424E+03  0.7546771E-02  0.1067234E+00
        -11   -1    0    0    0    0  0.00000000000E+00  0.00000000000E+00  0.18250000000E+03  0.18250000000E+03  0.00000000000E+00 0. -1.
         11   -1    0    0    0    0 -0.00000000000E+00 -0.00000000000E+00 -0.18250000000E+03  0.18250000000E+03  0.00000000000E+00 0.  1.
        -11    1    1    2    0    0  0.75694921197E+00  0.59170795326E+01  0.11469188281E+03  0.11484691021E+03  0.00000000000E+00 0. -1.
         11    1    1    2    0    0  0.63049078313E+01  0.54169004207E+01 -0.18076656720E+03  0.18095758202E+03  0.00000000000E+00 0.  1.
        -15    1    1    2    0    0 -0.26067673314E+01 -0.14054751288E+02  0.39245381859E+02  0.41805370420E+02  0.17770000000E+01 0.  1.
         15    1    1    2    0    0 -0.44550897119E+01  0.27207713347E+01  0.26829302533E+02  0.27390137356E+02  0.17770000000E+01 0. -1.
</event>
<event>
 6    1  0.1059789E-002  0.1829921E+03  0.7546771E-02  0.1068064E+00
        -11   -1    0    0    0    0  0.00000000000E+00  0.00000000000E+00  0.18250000000E+03  0.18250000000E+03  0.00000000000E+00 0. -1.
         11   -1    0    0    0    0 -0.00000000000E+00 -0.00000000000E+00 -0.18250000000E+03  0.18250000000E+03  0.00000000000E+00 0.  1.
        -11    1    1    2    0    0 -0.10280988589E+00 -0.20397146881E+01  0.12968816451E+03  0.12970424441E+03  0.00000000000E+00 0. -1.
         11    1    1    2    0    0  0.66369565581E+01  0.38893868220E+00 -0.18188642373E+03  0.18200788885E+03  0.00000000000E+00 0.  1.
        -15    1    1    2    0    0 -0.52231860242E+01  0.15380569096E-01  0.14902387347E+02  0.15890902632E+02  0.17770000000E+01 0. -1.
         15    1    1    2    0    0 -0.13109606480E+01  0.16353954368E+01  0.37295871879E+02  0.37396964105E+02  0.17770000000E+01 0.  1.
</event>
<event>
 6    1  0.1059789E-002  0.1843408E+03  0.7546771E-02  0.1066999E+00
        -11   -1    0    0    0    0  0.00000000000E+00  0.00000000000E+00  0.18250000000E+03  0.18250000000E+03  0.00000000000E+00 0. -1.
         11   -1    0    0    0    0 -0.00000000000E+00 -0.00000000000E+00 -0.18250000000E+03  0.18250000000E+03  0.00000000000E+00 0.  1.
        -11    1    1    2    0    0  0.31724037231E+01  0.16981454446E+01  0.17296512221E+03  0.17300254722E+03  0.00000000000E+00 0. -1.
         11    1    1    2    0    0  0.80159612746E+00 -0.26021453098E+01 -0.18063868252E+03  0.18065920220E+03  0.00000000000E+00 0.  1.
        -15    1    1    2    0    0 -0.40704370614E+01  0.14976153803E+01  0.15546532686E+01  0.49382168324E+01  0.17770000000E+01 0.  1.
         15    1    1    2    0    0  0.96437210863E-01 -0.59361551511E+00  0.61189070404E+01  0.64000337409E+01  0.17770000000E+01 0. -1.
</event>
<event>
 6    1  0.1059789E-002  0.1846659E+03  0.7546771E-02  0.1066744E+00
        -11   -1    0    0    0    0  0.00000000000E+00  0.00000000000E+00  0.18250000000E+03  0.18250000000E+03  0.00000000000E+00 0.  1.
         11   -1    0    0    0    0 -0.00000000000E+00 -0.00000000000E+00 -0.18250000000E+03  0.18250000000E+03  0.00000000000E+00 0. -1.
        -11    1    1    2    0    0 -0.20403606638E+01  0.35287674969E+01  0.18028803263E+03  0.18033410654E+03  0.00000000000E+00 0.  1.
         11    1    1    2    0    0 -0.23098824590E+01 -0.85721849141E+00 -0.17152337373E+03  0.17154106831E+03  0.00000000000E+00 0. -1.
        -15    1    1    2    0    0 -0.14616192304E+01 -0.11005777981E+01 -0.54702457848E+01  0.60356375148E+01  0.17770000000E+01 0. -1.
         15    1    1    2    0    0  0.58118623532E+01 -0.15709712074E+01 -0.32944131125E+01  0.70891876335E+01  0.17770000000E+01 0.  1.
</event>
<event>
 6    1  0.1059789E-002  0.1719503E+03  0.7546771E-02  0.1077177E+00
        -11   -1    0    0    0    0  0.00000000000E+00  0.00000000000E+00  0.18250000000E+03  0.18250000000E+03  0.00000000000E+00 0.  1.
         11   -1    0    0    0    0 -0.00000000000E+00 -0.00000000000E+00 -0.18250000000E+03  0.18250000000E+03  0.00000000000E+00 0. -1.
        -11    1    1    2    0    0  0.82004767674E+01  0.41082406013E+01  0.17628483575E+03  0.17652328111E+03  0.00000000000E+00 0.  1.
         11    1    1    2    0    0  0.34946141551E+01  0.35225769386E+01 -0.16769448647E+03  0.16776788032E+03  0.00000000000E+00 0. -1.
        -15    1    1    2    0    0  0.47375517896E+00 -0.35674113363E+01 -0.64274659139E+01  0.75776589186E+01  0.17770000000E+01 0. -1.
         15    1    1    2    0    0 -0.12168846101E+02 -0.40634062036E+01 -0.21628833636E+01  0.13131179645E+02  0.17770000000E+01 0.  1.
</event>
<event>
 6    1  0.1059789E-002  0.1841185E+03  0.7546771E-02  0.1067174E+00
        -11   -1    0    0    0    0  0.00000000000E+00  0.00000000000E+00  0.18250000000E+03  0.18250000000E+03  0.00000000000E+00 0.  1.
         11   -1    0    0    0    0 -0.00000000000E+00 -0.00000000000E+00 -0.18250000000E+03  0.18250000000E+03  0.00000000000E+00 0.  1.
        -11    1    1    2    0    0  0.29352362239E+01  0.49877445838E+01  0.10825222862E+03  0.10840681809E+03  0.00000000000E+00 0.  1.
         11    1    1    2    0    0 -0.35879208398E+01  0.23855055696E+01 -0.18083019322E+03  0.18088151534E+03  0.00000000000E+00 0.  1.
        -15    1    1    2    0    0  0.83099237730E+00 -0.11894285759E+01 -0.50232253639E+00  0.23484772937E+01  0.17770000000E+01 0. -1.
         15    1    1    2    0    0 -0.17830776145E+00 -0.61838215774E+01  0.73080287135E+02  0.73363189269E+02  0.17770000000E+01 0.  1.
</event>
<event>
 6    1  0.1059789E-002  0.1857866E+03  0.7546771E-02  0.1065868E+00
        -11   -1    0    0    0    0  0.00000000000E+00  0.00000000000E+00  0.18250000000E+03  0.18250000000E+03  0.00000000000E+00 0.  1.
         11   -1    0    0    0    0 -0.00000000000E+00 -0.00000000000E+00 -0.18250000000E+03  0.18250000000E+03  0.00000000000E+00 0. -1.
        -11    1    1    2    0    0  0.47805394533E+01  0.13639149413E+00  0.17914956785E+03  0.17921339186E+03  0.00000000000E+00 0.  1.
         11    1    1    2    0    0  0.54441082962E+01 -0.70545334400E+00 -0.16809350288E+03  0.16818311951E+03  0.00000000000E+00 0. -1.
        -15    1    1    2    0    0 -0.75942841075E+01 -0.23477393140E+01 -0.10451227292E+02  0.13250317427E+02  0.17770000000E+01 0. -1.
         15    1    1    2    0    0 -0.26303636420E+01  0.29168011639E+01 -0.60483767839E+00  0.43531712045E+01  0.17770000000E+01 0.  1.
</event>
<event>
 6    1  0.1059789E-002  0.1896065E+03  0.7546771E-02  0.1062935E+00
        -11   -1    0    0    0    0  0.00000000000E+00  0.00000000000E+00  0.18250000000E+03  0.18250000000E+03  0.00000000000E+00 0.  1.
         11   -1    0    0    0    0 -0.00000000000E+00 -0.00000000000E+00 -0.18250000000E+03  0.18250000000E+03  0.00000000000E+00 0.  1.
        -11    1    1    2    0    0 -0.29574663101E+01  0.60238484313E+01  0.17526510031E+03  0.17539352537E+03  0.00000000000E+00 0.  1.
         11    1    1    2    0    0  0.21802978998E+01 -0.34838943459E+01 -0.16425174457E+03  0.16430315522E+03  0.00000000000E+00 0.  1.
        -15    1    1    2    0    0  0.52689244316E+01 -0.74565504080E+01 -0.14769005953E+02  0.17454024593E+02  0.17770000000E+01 0. -1.
         15    1    1    2    0    0 -0.44917560213E+01  0.49165963226E+01  0.37556502202E+01  0.78492948174E+01  0.17770000000E+01 0.  1.
</event>
<event>
 6    1  0.1059789E-002  0.1891944E+03  0.7546771E-02  0.1063248E+00
        -11   -1    0    0    0    0  0.00000000000E+00  0.00000000000E+00  0.18250000000E+03  0.18250000000E+03  0.00000000000E+00 0. -1.
         11   -1    0    0    0    0 -0.00000000000E+00 -0.00000000000E+00 -0.18250000000E+03  0.18250000000E+03  0.00000000000E+00 0.  1.
        -11    1    1    2    0    0  0.49543352637E+00 -0.26965476530E+01  0.17578422141E+03  0.17580560093E+03  0.00000000000E+00 0. -1.
         11    1    1    2    0    0  0.11650428760E+02 -0.55710465786E+00 -0.16223647936E+03  0.16265521231E+03  0.00000000000E+00 0.  1.
        -15    1    1    2    0    0 -0.25791604428E+01  0.43042706867E+01  0.38555221944E+01  0.65727920343E+01  0.17770000000E+01 0.  1.
         15    1    1    2    0    0 -0.95667018436E+01 -0.10506183759E+01 -0.17403264241E+02  0.19966394727E+02  0.17770000000E+01 0. -1.
</event>
<event>
 6    1  0.1059789E-002  0.1863747E+03  0.7546771E-02  0.1065412E+00
        -11   -1    0    0    0    0  0.00000000000E+00  0.00000000000E+00  0.18250000000E+03  0.18250000000E+03  0.00000000000E+00 0.  1.
         11   -1    0    0    0    0 -0.00000000000E+00 -0.00000000000E+00 -0.18250000000E+03  0.18250000000E+03  0.00000000000E+00 0.  1.
        -11    1    1    2    0    0  0.26806642426E+01  0.66592438245E+00  0.17860394001E+03  0.17862529721E+03  0.00000000000E+00 0.  1.
         11    1    1    2    0    0 -0.14069356318E+01  0.50814752952E+01 -0.17424757227E+03  0.17432732804E+03  0.00000000000E+00 0.  1.
        -15    1    1    2    0    0  0.94240915985E-01 -0.70763291822E+00  0.25622945256E+01  0.31988604116E+01  0.17770000000E+01 0. -1.
         15    1    1    2    0    0 -0.13679695268E+01 -0.50397667594E+01 -0.69186622650E+01  0.88485143472E+01  0.17770000000E+01 0.  1.
</event>
<event>
 6    1  0.1059789E-002  0.1897413E+03  0.7546771E-02  0.1062833E+00
        -11   -1    0    0    0    0  0.00000000000E+00  0.00000000000E+00  0.18250000000E+03  0.18250000000E+03  0.00000000000E+00 0. -1.
         11   -1    0    0    0    0 -0.00000000000E+00 -0.00000000000E+00 -0.18250000000E+03  0.18250000000E+03  0.00000000000E+00 0. -1.
        -11    1    1    2    0    0 -0.39682130706E+00 -0.21163861352E+01  0.15015239133E+03  0.15016783004E+03  0.00000000000E+00 0. -1.
         11    1    1    2    0    0  0.17882173060E+02  0.95968624484E+01 -0.17407966253E+03  0.17525866823E+03  0.00000000000E+00 0. -1.
        -15    1    1    2    0    0 -0.10562892196E+02 -0.97923570142E+01  0.27621966882E+02  0.31202495587E+02  0.17770000000E+01 0.  1.
         15    1    1    2    0    0 -0.69224595567E+01  0.23118807010E+01 -0.36946956756E+01  0.83710061417E+01  0.17770000000E+01 0. -1.
</event>
<event>
 6    1  0.1059789E-002  0.1826950E+03  0.7546771E-02  0.1068300E+00
        -11   -1    0    0    0    0  0.00000000000E+00  0.00000000000E+00  0.18250000000E+03  0.18250000000E+03  0.00000000000E+00 0.  1.
         11   -1    0    0    0    0 -0.00000000000E+00 -0.00000000000E+00 -0.18250000000E+03  0.18250000000E+03  0.00000000000E+00 0. -1.
        -11    1    1    2    0    0  0.19565265691E+00 -0.29760963559E+01  0.18228062480E+03  0.18230502354E+03  0.00000000000E+00 0.  1.
         11    1    1    2    0    0 -0.23819173941E+01  0.15646663754E+01 -0.12815094264E+03  0.12818262679E+03  0.00000000000E+00 0. -1.
        -15    1    1    2    0    0  0.29009853943E+01 -0.23614274209E+00 -0.41015388312E+02  0.41156910562E+02  0.17770000000E+01 0.  1.
         15    1    1    2    0    0 -0.71472065712E+00  0.16475727226E+01 -0.13114293851E+02  0.13355439106E+02  0.17770000000E+01 0. -1.
</event>
<event>
 6    1  0.1059789E-002  0.1848917E+03  0.7546771E-02  0.1066567E+00
        -11   -1    0    0    0    0  0.00000000000E+00  0.00000000000E+00  0.18250000000E+03  0.18250000000E+03  0.00000000000E+00 0.  1.
         11   -1    0    0    0    0 -0.00000000000E+00 -0.00000000000E+00 -0.18250000000E+03  0.18250000000E+03  0.00000000000E+00 0.  1.
        -11    1    1    2    0    0 -0.28141884236E+01 -0.19288778230E+00  0.18008618023E+03  0.18010827070E+03  0.00000000000E+00 0.  1.
         11    1    1    2    0    0 -0.20047667957E+01  0.64840089350E+01 -0.16851727568E+03  0.16865388719E+03  0.00000000000E+00 0.  1.
        -15    1    1    2    0    0  0.31864443333E+01 -0.74331294016E+01 -0.10475768388E+02  0.13353063039E+02  0.17770000000E+01 0. -1.
         15    1    1    2    0    0  0.16325108859E+01  0.11420082488E+01 -0.10931361671E+01  0.28847790752E+01  0.17770000000E+01 0.  1.
</event>
<event>
 6    1  0.1059789E-002  0.1833020E+03  0.7546771E-02  0.1067818E+00
        -11   -1    0    0    0    0  0.00000000000E+00  0.00000000000E+00  0.18250000000E+03  0.18250000000E+03  0.00000000000E+00 0.  1.
         11   -1    0    0    0    0 -0.00000000000E+00 -0.00000000000E+00 -0.18250000000E+03  0.18250000000E+03  0.00000000000E+00 0. -1.
        -11    1    1    2    0    0  0.18669387873E+01  0.76782309789E+00  0.13866570213E+03  0.13868039501E+03  0.00000000000E+00 0.  1.
         11    1    1    2    0    0 -0.28241224079E+00  0.38188973559E+01 -0.18165762252E+03  0.18169797895E+03  0.00000000000E+00 0. -1.
        -15    1    1    2    0    0 -0.55360987671E+01 -0.69662518249E+00  0.16833668799E+02  0.17823125721E+02  0.17770000000E+01 0. -1.
         15    1    1    2    0    0  0.39515722205E+01 -0.38900952713E+01  0.26158251588E+02  0.26798500319E+02  0.17770000000E+01 0.  1.
</event>
<event>
 6    1  0.1059789E-002  0.1832771E+03  0.7546771E-02  0.1067838E+00
        -11   -1    0    0    0    0  0.00000000000E+00  0.00000000000E+00  0.18250000000E+03  0.18250000000E+03  0.00000000000E+00 0.  1.
         11   -1    0    0    0    0 -0.00000000000E+00 -0.00000000000E+00 -0.18250000000E+03  0.18250000000E+03  0.00000000000E+00 0. -1.
        -11    1    1    2    0    0  0.13767398187E+01  0.22202710738E+01  0.15954014493E+03  0.15956153315E+03  0.00000000000E+00 0.  1.
         11    1    1    2    0    0 -0.24343178151E+01  0.29658689181E+01 -0.18168239240E+03  0.18172290442E+03  0.00000000000E+00 0. -1.
        -15    1    1    2    0    0 -0.21902913718E+01 -0.28549053543E+01  0.12469537717E+02  0.13099425970E+02  0.17770000000E+01 0.  1.
         15    1    1    2    0    0  0.32478693682E+01 -0.23312346375E+01  0.96727097576E+01  0.10616136464E+02  0.17770000000E+01 0. -1.
</event>
<event>
 6    1  0.1059789E-002  0.1899842E+03  0.7546771E-02  0.1062649E+00
        -11   -1    0    0    0    0  0.00000000000E+00  0.00000000000E+00  0.18250000000E+03  0.18250000000E+03  0.00000000000E+00 0. -1.
         11   -1    0    0    0    0 -0.00000000000E+00 -0.00000000000E+00 -0.18250000000E+03  0.18250000000E+03  0.00000000000E+00 0. -1.
        -11    1    1    2    0    0 -0.72230305010E+00 -0.68397910013E+01  0.16938040284E+03  0.16951998504E+03  0.00000000000E+00 0. -1.
         11    1    1    2    0    0  0.31995014991E+01  0.26766079744E+01 -0.17496608473E+03  0.17501580456E+03  0.00000000000E+00 0. -1.
        -15    1    1    2    0    0  0.35762429336E+01  0.24008334308E+01 -0.57323958055E+01  0.73872596647E+01  0.17770000000E+01 0. -1.
         15    1    1    2    0    0 -0.60534413826E+01  0.17623495961E+01  0.11318077699E+02  0.13076950733E+02  0.17770000000E+01 0.  1.
</event>
<event>
 6    1  0.1059789E-002  0.1889412E+03  0.7546771E-02  0.1063440E+00
        -11   -1    0    0    0    0  0.00000000000E+00  0.00000000000E+00  0.18250000000E+03  0.18250000000E+03  0.00000000000E+00 0. -1.
         11   -1    0    0    0    0 -0.00000000000E+00 -0.00000000000E+00 -0.18250000000E+03  0.18250000000E+03  0.00000000000E+00 0.  1.
        -11    1    1    2    0    0 -0.28943985632E+01 -0.60352870019E+00  0.17603399265E+03  0.17605882074E+03  0.00000000000E+00 0. -1.
         11    1    1    2    0    0  0.80184430199E+01 -0.67603945441E+00 -0.16947909488E+03  0.16967002109E+03  0.00000000000E+00 0.  1.
        -15    1    1    2    0    0  0.43598159822E+01 -0.38486513462E+01 -0.56601868036E+01  0.83075601855E+01  0.17770000000E+01 0.  1.
         15    1    1    2    0    0 -0.94838604390E+01  0.51282195008E+01 -0.89471097351E+00  0.10963597986E+02  0.17770000000E+01 0. -1.
</event>
<event>
 6    1  0.1059789E-002  0.2084670E+03  0.7546771E-02  0.1049480E+00
        -11   -1    0    0    0    0  0.00000000000E+00  0.00000000000E+00  0.18250000000E+03  0.18250000000E+03  0.00000000000E+00 0.  1.
         11   -1    0    0    0    0 -0.00000000000E+00 -0.00000000000E+00 -0.18250000000E+03  0.18250000000E+03  0.00000000000E+00 0.  1.
        -11    1    1    2    0    0  0.11279398048E+01 -0.12568749863E+02  0.15602349747E+03  0.15653299168E+03  0.00000000000E+00 0.  1.
         11    1    1    2    0    0 -0.61461183195E+01 -0.29214639873E+01 -0.13536958729E+03  0.13554052858E+03  0.00000000000E+00 0.  1.
        -15    1    1    2    0    0  0.17105209998E+02  0.27828104058E+02 -0.36784726069E+02  0.49226673516E+02  0.17770000000E+01 0.  1.
         15    1    1    2    0    0 -0.12087031483E+02 -0.12337890208E+02  0.16130815889E+02  0.23699806225E+02  0.17770000000E+01 0. -1.
</event>
<event>
 6    1  0.1059789E-002  0.1914272E+03  0.7546771E-02  0.1061563E+00
        -11   -1    0    0    0    0  0.00000000000E+00  0.00000000000E+00  0.18250000000E+03  0.18250000000E+03  0.00000000000E+00 0. -1.
         11   -1    0    0    0    0 -0.00000000000E+00 -0.00000000000E+00 -0.18250000000E+03  0.18250000000E+03  0.00000000000E+00 0. -1.
        -11    1    1    2    0    0 -0.34500628886E+01  0.48439203883E+01  0.15760658729E+03  0.15771874605E+03  0.00000000000E+00 0. -1.
         11    1    1    2    0    0 -0.41960732280E+01  0.10899483507E+02 -0.17317946499E+03  0.17357284599E+03  0.00000000000E+00 0. -1.
        -15    1    1    2    0    0  0.13973481819E+02 -0.11048338983E+02  0.21334947087E+01  0.18028685951E+02  0.17770000000E+01 0.  1.
         15    1    1    2    0    0 -0.63273457027E+01 -0.46950649120E+01  0.13439382992E+02  0.15679722012E+02  0.17770000000E+01 0. -1.
</event>
<event>
 6    1  0.1059789E-002  0.1837760E+03  0.7546771E-02  0.1067444E+00
        -11   -1    0    0    0    0  0.00000000000E+00  0.00000000000E+00  0.18250000000E+03  0.18250000000E+03  0.00000000000E+00 0. -1.
         11   -1    0    0    0    0 -0.00000000000E+00 -0.00000000000E+00 -0.18250000000E+03  0.18250000000E+03  0.00000000000E+00 0. -1.
        -11    1    1    2    0    0  0.58028973947E+01  0.16884267716E+02  0.18034236941E+03  0.18122395625E+03  0.00000000000E+00 0. -1.
         11    1    1    2    0    0 -0.35611769404E+01 -0.72331009802E+01 -0.13638375959E+03  0.13662184895E+03  0.00000000000E+00 0. -1.
        -15    1    1    2    0    0  0.28660534633E+01 -0.12897094550E+00 -0.25263840631E+02  0.25488237844E+02  0.17770000000E+01 0. -1.
         15    1    1    2    0    0 -0.51077739176E+01 -0.95221957906E+01 -0.18694769189E+02  0.21665956963E+02  0.17770000000E+01 0.  1.
</event>
<event>
 6    1  0.1059789E-002  0.1855520E+03  0.7546771E-02  0.1066051E+00
        -11   -1    0    0    0    0  0.00000000000E+00  0.00000000000E+00  0.18250000000E+03  0.18250000000E+03  0.00000000000E+00 0. -1.
         11   -1    0    0    0    0 -0.00000000000E+00 -0.00000000000E+00 -0.18250000000E+03  0.18250000000E+03  0.00000000000E+00 0.  1.
        -11    1    1    2    0    0 -0.60178082433E+01 -0.34149297036E+01  0.17931455421E+03  0.17944800114E+03  0.00000000000E+00 0. -1.
         11    1    1    2    0    0  0.16024424094E+01 -0.33153625046E+01 -0.13033613852E+03  0.13038814538E+03  0.00000000000E+00 0.  1.
        -15    1    1    2    0    0  0.27330494086E+01  0.87464064779E+01 -0.50702694829E+02  0.51554729921E+02  0.17770000000E+01 0.  1.
         15    1    1    2    0    0  0.16823164254E+01 -0.20161142698E+01  0.17242791375E+01  0.36091235567E+01  0.17770000000E+01 0. -1.
</event>
<event>
 6    1  0.1059789E-002  0.1862875E+03  0.7546771E-02  0.1065479E+00
        -11   -1    0    0    0    0  0.00000000000E+00  0.00000000000E+00  0.18250000000E+03  0.18250000000E+03  0.00000000000E+00 0. -1.
         11   -1    0    0    0    0 -0.00000000000E+00 -0.00000000000E+00 -0.18250000000E+03  0.18250000000E+03  0.00000000000E+00 0.  1.
        -11    1    1    2    0    0 -0.60777120222E+01 -0.64835579324E+01  0.17849142618E+03  0.17871251867E+03  0.00000000000E+00 0. -1.
         11    1    1    2    0    0  0.34914457445E+01  0.17433888843E+01 -0.10168835468E+03  0.10176321081E+03  0.00000000000E+00 0.  1.
        -15    1    1    2    0    0 -0.15674810016E+02  0.55172804073E+01 -0.31934525210E+02  0.36043191889E+02  0.17770000000E+01 0. -1.
         15    1    1    2    0    0  0.18261076293E+02 -0.77711135923E+00 -0.44868546297E+02  0.48481078631E+02  0.17770000000E+01 0.  1.
</event>
<event>
 6    1  0.1059789E-002  0.1835640E+03  0.7546771E-02  0.1067611E+00
        -11   -1    0    0    0    0  0.00000000000E+00  0.00000000000E+00  0.18250000000E+03  0.18250000000E+03  0.00000000000E+00 0.  1.
         11   -1    0    0    0    0 -0.00000000000E+00 -0.00000000000E+00 -0.18250000000E+03  0.18250000000E+03  0.00000000000E+00 0. -1.
        -11    1    1    2    0    0  0.27838421206E+01 -0.95163541113E+00  0.18141215470E+03  0.18143600872E+03  0.00000000000E+00 0.  1.
         11    1    1    2    0    0  0.37808460415E+01  0.11259598331E+01 -0.16243035218E+03  0.16247825052E+03  0.00000000000E+00 0. -1.
        -15    1    1    2    0    0 -0.39859874755E+01  0.75163141697E+00 -0.47915145058E+01  0.65245219136E+01  0.17770000000E+01 0.  1.
         15    1    1    2    0    0 -0.25787006867E+01 -0.92595583890E+00 -0.14190288010E+02  0.14561218845E+02  0.17770000000E+01 0. -1.
</event>
<event>
 6    1  0.1059789E-002  0.1758978E+03  0.7546771E-02  0.1073835E+00
        -11   -1    0    0    0    0  0.00000000000E+00  0.00000000000E+00  0.18250000000E+03  0.18250000000E+03  0.00000000000E+00 0. -1.
         11   -1    0    0    0    0 -0.00000000000E+00 -0.00000000000E+00 -0.18250000000E+03  0.18250000000E+03  0.00000000000E+00 0. -1.
        -11    1    1    2    0    0 -0.10104622615E+01  0.61778832677E+01  0.17654695019E+03  0.17665789792E+03  0.00000000000E+00 0. -1.
         11    1    1    2    0    0  0.29772980508E+01 -0.90490309561E-01 -0.17517331369E+03  0.17519863675E+03  0.00000000000E+00 0. -1.
        -15    1    1    2    0    0  0.16523203549E+01 -0.41625088250E+01  0.39236473186E+01  0.62136446273E+01  0.17770000000E+01 0. -1.
         15    1    1    2    0    0 -0.36191561443E+01 -0.19248841331E+01 -0.52972838172E+01  0.69298207020E+01  0.17770000000E+01 0.  1.
</event>
<event>
 6    1  0.1059789E-002  0.1875839E+03  0.7546771E-02  0.1064479E+00
        -11   -1    0    0    0    0  0.00000000000E+00  0.00000000000E+00  0.18250000000E+03  0.18250000000E+03  0.00000000000E+00 0.  1.
         11   -1    0    0    0    0 -0.00000000000E+00 -0.00000000000E+00 -0.18250000000E+03  0.18250000000E+03  0.00000000000E+00 0.  1.
        -11    1    1    2    0    0 -0.60283139435E+00 -0.31965149478E+01  0.28088876017E+02  0.28276599325E+02  0.00000000000E+00 0.  1.
         11    1    1    2    0    0 -0.33239147790E+01 -0.55304826233E+01 -0.17729873964E+03  0.17741611461E+03  0.00000000000E+00 0.  1.
        -15    1    1    2    0    0 -0.34083014078E+01  0.67934887709E+01 -0.18702438027E+01  0.80264281625E+01  0.17770000000E+01 0. -1.
         15    1    1    2    0    0  0.73350475811E+01  0.19335088001E+01  0.15108010742E+03  0.15128085790E+03  0.17770000000E+01 0.  1.
</event>
<event>
 6    1  0.1059789E-002  0.1829817E+03  0.7546771E-02  0.1068072E+00
        -11   -1    0    0    0    0  0.00000000000E+00  0.00000000000E+00  0.18250000000E+03  0.18250000000E+03  0.00000000000E+00 0. -1.
         11   -1    0    0    0    0 -0.00000000000E+00 -0.00000000000E+00 -0.18250000000E+03  0.18250000000E+03  0.00000000000E+00 0. -1.
        -11    1    1    2    0    0  0.56184675877E+01  0.11675059747E+01  0.95722798934E+02  0.95894653052E+02  0.00000000000E+00 0. -1.
         11    1    1    2    0    0 -0.35638349954E+01  0.44846476968E+01 -0.18192811478E+03  0.18201827362E+03  0.00000000000E+00 0. -1.
        -15    1    1    2    0    0 -0.25428766111E+01 -0.20792691379E+01  0.85778146165E+01  0.93555445701E+01  0.17770000000E+01 0.  1.
         15    1    1    2    0    0  0.48824401882E+00 -0.35728845335E+01  0.77627501231E+02  0.77731528754E+02  0.17770000000E+01 0. -1.
</event>
<event>
 6    1  0.1059789E-002  0.1830261E+03  0.7546771E-02  0.1068037E+00
        -11   -1    0    0    0    0  0.00000000000E+00  0.00000000000E+00  0.18250000000E+03  0.18250000000E+03  0.00000000000E+00 0.  1.
         11   -1    0    0    0    0 -0.00000000000E+00 -0.00000000000E+00 -0.18250000000E+03  0.18250000000E+03  0.00000000000E+00 0.  1.
        -11    1    1    2    0    0 -0.50422705704E+01  0.77506194620E+00  0.18190240067E+03  0.18197392281E+03  0.00000000000E+00 0.  1.
         11    1    1    2    0    0 -0.28100600216E+01 -0.91384006254E+00 -0.92206020260E+02  0.92253356108E+02  0.00000000000E+00 0.  1.
        -15    1    1    2    0    0  0.58126068848E+01 -0.13674476657E+01 -0.18732847058E+02  0.19741671657E+02  0.17770000000E+01 0. -1.
         15    1    1    2    0    0  0.20397237073E+01  0.15062257821E+01 -0.70963533347E+02  0.71031049429E+02  0.17770000000E+01 0. -1.
</event>
<event>
 6    1  0.1059789E-002  0.1853121E+03  0.7546771E-02  0.1066238E+00
        -11   -1    0    0    0    0  0.00000000000E+00  0.00000000000E+00  0.18250000000E+03  0.18250000000E+03  0.00000000000E+00 0.  1.
         11   -1    0    0    0    0 -0.00000000000E+00 -0.00000000000E+00 -0.18250000000E+03  0.18250000000E+03  0.00000000000E+00 0. -1.
        -11    1    1    2    0    0 -0.68439332906E+00  0.81300188433E+00  0.45180015689E+02  0.45192512477E+02  0.00000000000E+00 0.  1.
         11    1    1    2    0    0  0.50586813964E+00  0.13919527583E+02 -0.17914728305E+03  0.17968794666E+03  0.00000000000E+00 0. -1.
        -15    1    1    2    0    0 -0.14018342151E+01 -0.11452307425E+02  0.81505705878E+01  0.14237626714E+02  0.17770000000E+01 0. -1.
         15    1    1    2    0    0  0.15803594045E+01 -0.32802220426E+01  0.12581669678E+03  0.12588191415E+03  0.17770000000E+01 0.  1.
</event>
<event>
 6    1  0.1059789E-002  0.1944206E+03  0.7546771E-02  0.1059343E+00
        -11   -1    0    0    0    0  0.00000000000E+00  0.00000000000E+00  0.18250000000E+03  0.18250000000E+03  0.00000000000E+00 0. -1.
         11   -1    0    0    0    0 -0.00000000000E+00 -0.00000000000E+00 -0.18250000000E+03  0.18250000000E+03  0.00000000000E+00 0. -1.
        -11    1    1    2    0    0  0.16676343351E+02 -0.94351172122E+01  0.16949983480E+03  0.17057935356E+03  0.00000000000E+00 0. -1.
         11    1    1    2    0    0 -0.10117278274E+01  0.23836093166E+01 -0.15525178495E+03  0.15527337801E+03  0.00000000000E+00 0. -1.
        -15    1    1    2    0    0  0.94046418415E+01  0.70361263092E+00 -0.79739354106E+01  0.12477328794E+02  0.17770000000E+01 0. -1.
         15    1    1    2    0    0 -0.25069257365E+02  0.63478952647E+01 -0.62741144381E+01  0.26669939634E+02  0.17770000000E+01 0.  1.
</event>
<event>
 6    1  0.1059789E-002  0.1924403E+03  0.7546771E-02  0.1060807E+00
        -11   -1    0    0    0    0  0.00000000000E+00  0.00000000000E+00  0.18250000000E+03  0.18250000000E+03  0.00000000000E+00 0. -1.
         11   -1    0    0    0    0 -0.00000000000E+00 -0.00000000000E+00 -0.18250000000E+03  0.18250000000E+03  0.00000000000E+00 0.  1.
        -11    1    1    2    0    0  0.84584287639E+01  0.11084639282E+02  0.17199543232E+03  0.17255967948E+03  0.00000000000E+00 0. -1.
         11    1    1    2    0    0  0.60209815801E+00  0.30121686932E+01 -0.15648239786E+03  0.15651254430E+03  0.00000000000E+00 0.  1.
        -15    1    1    2    0    0 -0.35678174407E+01 -0.13274297444E+01 -0.20596453395E+02  0.21020537873E+02  0.17770000000E+01 0. -1.
         15    1    1    2    0    0 -0.54927094812E+01 -0.12769378231E+02  0.50834189410E+01  0.14907238342E+02  0.17770000000E+01 0.  1.
</event>
<event>
 6    1  0.1059789E-002  0.1857139E+03  0.7546771E-02  0.1065925E+00
        -11   -1    0    0    0    0  0.00000000000E+00  0.00000000000E+00  0.18250000000E+03  0.18250000000E+03  0.00000000000E+00 0. -1.
         11   -1    0    0    0    0 -0.00000000000E+00 -0.00000000000E+00 -0.18250000000E+03  0.18250000000E+03  0.00000000000E+00 0. -1.
        -11    1    1    2    0    0  0.30254555193E+00  0.36641004237E+01  0.17924840233E+03  0.17928610349E+03  0.00000000000E+00 0. -1.
         11    1    1    2    0    0  0.40983924578E+01 -0.48759363700E+01 -0.15014672408E+03  0.15028176978E+03  0.00000000000E+00 0. -1.
        -15    1    1    2    0    0 -0.37337086709E+01 -0.18136861181E+01 -0.31041170917E+02  0.31367850718E+02  0.17770000000E+01 0. -1.
         15    1    1    2    0    0 -0.66722933888E+00  0.30255220644E+01  0.19394926638E+01  0.40642760174E+01  0.17770000000E+01 0.  1.
</event>
<event>
 6    1  0.1059789E-002  0.1833587E+03  0.7546771E-02  0.1067773E+00
        -11   -1    0    0    0    0  0.00000000000E+00  0.00000000000E+00  0.18250000000E+03  0.18250000000E+03  0.00000000000E+00 0.  1.
         11   -1    0    0    0    0 -0.00000000000E+00 -0.00000000000E+00 -0.18250000000E+03  0.18250000000E+03  0.00000000000E+00 0. -1.
        -11    1    1    2    0    0 -0.15815533707E+01 -0.25097932950E+01  0.16194719117E+03  0.16197435940E+03  0.00000000000E+00 0.  1.
         11    1    1    2    0    0 -0.47102578195E+01 -0.42101345579E+00 -0.18157977447E+03  0.18164134517E+03  0.00000000000E+00 0. -1.
        -15    1    1    2    0    0  0.18510738211E+01 -0.33452589422E+00  0.76446799519E+01  0.80707646745E+01  0.17770000000E+01 0. -1.
         15    1    1    2    0    0  0.44407373691E+01  0.32653326450E+01  0.11987903339E+02  0.13313530753E+02  0.17770000000E+01 0.  1.
</event>
<event>
 6    1  0.1059789E-002  0.1840941E+03  0.7546771E-02  0.1067193E+00
        -11   -1    0    0    0    0  0.00000000000E+00  0.00000000000E+00  0.18250000000E+03  0.18250000000E+03  0.00000000000E+00 0.  1.
         11   -1    0    0    0    0 -0.00000000000E+00 -0.00000000000E+00 -0.18250000000E+03  0.18250000000E+03  0.00000000000E+00 0.  1.
        -11    1    1    2    0    0  0.38334790467E+01  0.54115081303E-01  0.18086528961E+03  0.18090591886E+03  0.00000000000E+00 0.  1.
         11    1    1    2    0    0  0.78510360818E+00  0.26122686478E+01 -0.17512860000E+03  0.17514984121E+03  0.00000000000E+00 0.  1.
        -15    1    1    2    0    0 -0.17757617035E+01 -0.23748993724E+01 -0.33885734652E+01  0.48408300720E+01  0.17770000000E+01 0.  1.
         15    1    1    2    0    0 -0.28428209514E+01 -0.29148435678E+00 -0.23481161439E+01  0.41034098646E+01  0.17770000000E+01 0.  1.
</event>
<event>
 6    1  0.1059789E-002  0.1831368E+03  0.7546771E-02  0.1067949E+00
        -11   -1    0    0    0    0  0.00000000000E+00  0.00000000000E+00  0.18250000000E+03  0.18250000000E+03  0.00000000000E+00 0. -1.
         11   -1    0    0    0    0 -0.00000000000E+00 -0.00000000000E+00 -0.18250000000E+03  0.18250000000E+03  0.00000000000E+00 0. -1.
        -11    1    1    2    0    0  0.19362954402E+01 -0.72966702237E+00  0.14916588775E+03  0.14918023905E+03  0.00000000000E+00 0. -1.
         11    1    1    2    0    0  0.33635384868E+01  0.18959279258E+01 -0.18182224482E+03  0.18186323610E+03  0.00000000000E+00 0. -1.
        -15    1    1    2    0    0 -0.10769804785E+01  0.19640430675E+01  0.50975744663E+01  0.58446853261E+01  0.17770000000E+01 0. -1.
         15    1    1    2    0    0 -0.42228534485E+01 -0.31303039710E+01  0.27558782598E+02  0.28111839525E+02  0.17770000000E+01 0.  1.
</event>
<event>
 6    1  0.1059789E-002  0.1830424E+03  0.7546771E-02  0.1068024E+00
        -11   -1    0    0    0    0  0.00000000000E+00  0.00000000000E+00  0.18250000000E+03  0.18250000000E+03  0.00000000000E+00 0.  1.
         11   -1    0    0    0    0 -0.00000000000E+00 -0.00000000000E+00 -0.18250000000E+03  0.18250000000E+03  0.00000000000E+00 0.  1.
        -11    1    1    2    0    0 -0.13926959523E+02  0.56893040651E+01  0.18133456054E+03  0.18195755337E+03  0.00000000000E+00 0.  1.
         11    1    1    2    0    0  0.25139151148E+01 -0.11891241662E+01 -0.10413542890E+03  0.10417255559E+03  0.00000000000E+00 0.  1.
        -15    1    1    2    0    0  0.99500429798E+00  0.19125786177E+01 -0.61703936920E+01  0.67734391439E+01  0.17770000000E+01 0.  1.
         15    1    1    2    0    0  0.10418040110E+02 -0.64127585166E+01 -0.71028737954E+02  0.72096451895E+02  0.17770000000E+01 0. -1.
</event>
<event>
 6    1  0.1059789E-002  0.1853571E+03  0.7546771E-02  0.1066203E+00
        -11   -1    0    0    0    0  0.00000000000E+00  0.00000000000E+00  0.18250000000E+03  0.18250000000E+03  0.00000000000E+00 0. -1.
         11   -1    0    0    0    0 -0.00000000000E+00 -0.00000000000E+00 -0.18250000000E+03  0.18250000000E+03  0.00000000000E+00 0.  1.
        -11    1    1    2    0    0 -0.11076718892E+01  0.56647335584E+01  0.16733047261E+03  0.16742999494E+03  0.00000000000E+00 0. -1.
         11    1    1    2    0    0 -0.48652100902E+01  0.22080604889E+01 -0.17956338498E+03  0.17964285409E+03  0.00000000000E+00 0.  1.
        -15    1    1    2    0    0  0.36880218160E+01 -0.83629447882E+01  0.11684318153E+02  0.14940594705E+02  0.17770000000E+01 0. -1.
         15    1    1    2    0    0  0.22848601634E+01  0.49015074086E+00  0.54859421646E+00  0.29865562659E+01  0.17770000000E+01 0.  1.
</event>
<event>
 6    1  0.1059789E-002  0.1831046E+03  0.7546771E-02  0.1067975E+00
        -11   -1    0    0    0    0  0.00000000000E+00  0.00000000000E+00  0.18250000000E+03  0.18250000000E+03  0.00000000000E+00 0.  1.
         11   -1    0    0    0    0 -0.00000000000E+00 -0.00000000000E+00 -0.18250000000E+03  0.18250000000E+03  0.00000000000E+00 0. -1.
        -11    1    1    2    0    0 -0.23065473607E+01  0.41068611340E+00  0.15868912640E+03  0.15870641972E+03  0.00000000000E+00 0.  1.
         11    1    1    2    0    0  0.34328143994E+01  0.17572390214E+01 -0.18185455110E+03  0.18189543661E+03  0.00000000000E+00 0. -1.
        -15    1    1    2    0    0  0.72382638945E+00 -0.60475729032E+00  0.14598197699E+01  0.24856505754E+01  0.17770000000E+01 0.  1.
         15    1    1    2    0    0 -0.18500934282E+01 -0.15631678445E+01  0.21705604930E+02  0.21912493099E+02  0.17770000000E+01 0.  1.
</event>
<event>
 6    1  0.1059789E-002  0.1827116E+03  0.7546771E-02  0.1068286E+00
        -11   -1    0    0    0    0  0.00000000000E+00  0.00000000000E+00  0.18250000000E+03  0.18250000000E+03  0.00000000000E+00 0.  1.
         11   -1    0    0    0    0 -0.00000000000E+00 -0.00000000000E+00 -0.18250000000E+03  0.18250000000E+03  0.00000000000E+00 0. -1.
        -11    1    1    2    0    0  0.24327497985E+01  0.62248041691E+00  0.15390642858E+03  0.15392691289E+03  0.00000000000E+00 0.  1.
         11    1    1    2    0    0 -0.22707785682E-01 -0.25041053121E+01 -0.18227115879E+03  0.18228836053E+03  0.00000000000E+00 0. -1.
        -15    1    1    2    0    0 -0.16349768866E+01  0.77438669485E+00  0.11739668249E+02  0.12010427293E+02  0.17770000000E+01 0. -1.
         15    1    1    2    0    0 -0.77506512617E+00  0.11072382004E+01  0.16625061959E+02  0.16774299285E+02  0.17770000000E+01 0.  1.
</event>
<event>
 6    1  0.1059789E-002  0.1843130E+03  0.7546771E-02  0.1067021E+00
        -11   -1    0    0    0    0  0.00000000000E+00  0.00000000000E+00  0.18250000000E+03  0.18250000000E+03  0.00000000000E+00 0.  1.
         11   -1    0    0    0    0 -0.00000000000E+00 -0.00000000000E+00 -0.18250000000E+03  0.18250000000E+03  0.00000000000E+00 0.  1.
        -11    1    1    2    0    0  0.27337012618E+01  0.21454984332E+01  0.15099621099E+03  0.15103619440E+03  0.00000000000E+00 0.  1.
         11    1    1    2    0    0 -0.15338760725E+01  0.68554276530E+01 -0.18055037711E+03  0.18068698995E+03  0.00000000000E+00 0.  1.
        -15    1    1    2    0    0  0.15117210820E+01 -0.74855075392E+00  0.30306213396E-01  0.24503624890E+01  0.17770000000E+01 0. -1.
         15    1    1    2    0    0 -0.27115462713E+01 -0.82523753323E+01  0.29523859905E+02  0.30826453162E+02  0.17770000000E+01 0.  1.
</event>
<event>
 6    1  0.1059789E-002  0.1828946E+03  0.7546771E-02  0.1068141E+00
        -11   -1    0    0    0    0  0.00000000000E+00  0.00000000000E+00  0.18250000000E+03  0.18250000000E+03  0.00000000000E+00 0. -1.
         11   -1    0    0    0    0 -0.00000000000E+00 -0.00000000000E+00 -0.18250000000E+03  0.18250000000E+03  0.00000000000E+00 0. -1.
        -11    1    1    2    0    0 -0.19644551996E+01 -0.41950361166E+01  0.18204643606E+03  0.18210536042E+03  0.00000000000E+00 0. -1.
         11    1    1    2    0    0 -0.41909099380E+01  0.92504967378E+00 -0.12475731149E+03  0.12483111076E+03  0.00000000000E+00 0. -1.
        -15    1    1    2    0    0  0.21610141482E+01  0.86006002677E+00 -0.38865652530E+02  0.38975715015E+02  0.17770000000E+01 0. -1.
         15    1    1    2    0    0  0.39943509895E+01  0.24099264161E+01 -0.18423472036E+02  0.19087813810E+02  0.17770000000E+01 0.  1.
</event>
<event>
 6    1  0.1059789E-002  0.1831021E+03  0.7546771E-02  0.1067977E+00
        -11   -1    0    0    0    0  0.00000000000E+00  0.00000000000E+00  0.18250000000E+03  0.18250000000E+03  0.00000000000E+00 0. -1.
         11   -1    0    0    0    0 -0.00000000000E+00 -0.00000000000E+00 -0.18250000000E+03  0.18250000000E+03  0.00000000000E+00 0. -1.
        -11    1    1    2    0    0  0.23809486007E+01  0.38742697898E+01  0.18184108764E+03  0.18189793852E+03  0.00000000000E+00 0. -1.
         11    1    1    2    0    0 -0.10397532373E+01 -0.10327416385E+01 -0.17812269326E+02  0.17872453123E+02  0.00000000000E+00 0. -1.
        -15    1    1    2    0    0  0.43593539385E+01 -0.68598138681E+00 -0.10040929829E+02  0.11110919767E+02  0.17770000000E+01 0.  1.
         15    1    1    2    0    0 -0.57005493019E+01 -0.21555467645E+01 -0.15398788849E+03  0.15411868859E+03  0.17770000000E+01 0. -1.
</event>
<event>
 6    1  0.1059789E-002  0.1879322E+03  0.7546771E-02  0.1064211E+00
        -11   -1    0    0    0    0  0.00000000000E+00  0.00000000000E+00  0.18250000000E+03  0.18250000000E+03  0.00000000000E+00 0.  1.
         11   -1    0    0    0    0 -0.00000000000E+00 -0.00000000000E+00 -0.18250000000E+03  0.18250000000E+03  0.00000000000E+00 0.  1.
        -11    1    1    2    0    0  0.17717551345E+01 -0.17394376450E+01  0.17705037274E+03  0.17706778151E+03  0.00000000000E+00 0.  1.
         11    1    1    2    0    0  0.25224789683E+01 -0.38768190430E+01 -0.17002693486E+03  0.17008983274E+03  0.00000000000E+00 0.  1.
        -15    1    1    2    0    0 -0.54860802387E+00  0.33171565131E+01 -0.11010051637E+02  0.11648324521E+02  0.17770000000E+01 0.  1.
         15    1    1    2    0    0 -0.37456260789E+01  0.22991001748E+01  0.39866137494E+01  0.61940612302E+01  0.17770000000E+01 0. -1.
</event>
<event>
 6    1  0.1059789E-002  0.1876250E+03  0.7546771E-02  0.1064447E+00
        -11   -1    0    0    0    0  0.00000000000E+00  0.00000000000E+00  0.18250000000E+03  0.18250000000E+03  0.00000000000E+00 0.  1.
         11   -1    0    0    0    0 -0.00000000000E+00 -0.00000000000E+00 -0.18250000000E+03  0.18250000000E+03  0.00000000000E+00 0. -1.
        -11    1    1    2    0    0 -0.16624633206E+01 -0.63432536186E+01  0.16288826508E+03  0.16302020596E+03  0.00000000000E+00 0.  1.
         11    1    1    2    0    0  0.12893453383E+02  0.11767029536E+02 -0.17651400105E+03  0.17737501710E+03  0.00000000000E+00 0. -1.
        -15    1    1    2    0    0 -0.22684443329E+01  0.41245639521E+01  0.95168313629E+01  0.10765020932E+02  0.17770000000E+01 0. -1.
         15    1    1    2    0    0 -0.89625457296E+01 -0.95483398694E+01  0.41089046114E+01  0.13839756007E+02  0.17770000000E+01 0. -1.
</event>
<event>
 6    1  0.1059789E-002  0.1874904E+03  0.7546771E-02  0.1064550E+00
        -11   -1    0    0    0    0  0.00000000000E+00  0.00000000000E+00  0.18250000000E+03  0.18250000000E+03  0.00000000000E+00 0.  1.
         11   -1    0    0    0    0 -0.00000000000E+00 -0.00000000000E+00 -0.18250000000E+03  0.18250000000E+03  0.00000000000E+00 0.  1.
        -11    1    1    2    0    0 -0.14048246677E+01  0.16228770988E+01  0.13973997243E+03  0.13975645658E+03  0.00000000000E+00 0.  1.
         11    1    1    2    0    0  0.14879193297E+01 -0.62858510057E+01 -0.17739198080E+03  0.17750955095E+03  0.00000000000E+00 0.  1.
        -15    1    1    2    0    0  0.99735407047E+01 -0.64905593819E+01  0.80002972359E+01  0.14448576405E+02  0.17770000000E+01 0.  1.
         15    1    1    2    0    0 -0.10056635367E+02  0.11153533289E+02  0.29651711138E+02  0.33285416058E+02  0.17770000000E+01 0. -1.
</event>
<event>
 6    1  0.1059789E-002  0.1833138E+03  0.7546771E-02  0.1067809E+00
        -11   -1    0    0    0    0  0.00000000000E+00  0.00000000000E+00  0.18250000000E+03  0.18250000000E+03  0.00000000000E+00 0. -1.
         11   -1    0    0    0    0 -0.00000000000E+00 -0.00000000000E+00 -0.18250000000E+03  0.18250000000E+03  0.00000000000E+00 0.  1.
        -11    1    1    2    0    0 -0.66407343215E-01 -0.88015836612E+00  0.16904977420E+02  0.16928004911E+02  0.00000000000E+00 0. -1.
         11    1    1    2    0    0 -0.32462202287E+01  0.18998931746E+02 -0.18066095426E+03  0.18168620682E+03  0.00000000000E+00 0.  1.
        -15    1    1    2    0    0  0.34632486102E+01 -0.23470809503E+02  0.12917165902E+03  0.13134438782E+03  0.17770000000E+01 0. -1.
         15    1    1    2    0    0 -0.15062103828E+00  0.53520361232E+01  0.34584317822E+02  0.35041400451E+02  0.17770000000E+01 0. -1.
</event>
<event>
 6    1  0.1059789E-002  0.1848946E+03  0.7546771E-02  0.1066565E+00
        -11   -1    0    0    0    0  0.00000000000E+00  0.00000000000E+00  0.18250000000E+03  0.18250000000E+03  0.00000000000E+00 0.  1.
         11   -1    0    0    0    0 -0.00000000000E+00 -0.00000000000E+00 -0.18250000000E+03  0.18250000000E+03  0.00000000000E+00 0. -1.
        -11    1    1    2    0    0  0.12761190119E+01 -0.21046044330E+01  0.11266875795E+02  0.11532576890E+02  0.00000000000E+00 0.  1.
         11    1    1    2    0    0 -0.47656154159E+01  0.46688199846E+01 -0.17998182333E+03  0.18010542940E+03  0.00000000000E+00 0. -1.
        -15    1    1    2    0    0  0.23042694604E+01  0.37279715652E+01  0.21813628473E+00  0.47342097732E+01  0.17770000000E+01 0. -1.
         15    1    1    2    0    0  0.11852269436E+01 -0.62921871168E+01  0.16849681125E+03  0.16862778393E+03  0.17770000000E+01 0.  1.
</event>
<event>
 6    1  0.1059789E-002  0.1905728E+03  0.7546771E-02  0.1062205E+00
        -11   -1    0    0    0    0  0.00000000000E+00  0.00000000000E+00  0.18250000000E+03  0.18250000000E+03  0.00000000000E+00 0. -1.
         11   -1    0    0    0    0 -0.00000000000E+00 -0.00000000000E+00 -0.18250000000E+03  0.18250000000E+03  0.00000000000E+00 0. -1.
        -11    1    1    2    0    0 -0.18939515234E+01  0.10217943746E+01  0.15927592096E+03  0.15929045833E+03  0.00000000000E+00 0. -1.
         11    1    1    2    0    0  0.33649953334E+00 -0.28358283170E+01 -0.17440387002E+03  0.17442724853E+03  0.00000000000E+00 0. -1.
        -15    1    1    2    0    0 -0.69662349793E+00  0.23354698963E+01 -0.76994928265E+01  0.82691972234E+01  0.17770000000E+01 0.  1.
         15    1    1    2    0    0  0.22540754880E+01 -0.52143595389E+00  0.22827441878E+02  0.23013095912E+02  0.17770000000E+01 0.  1.
</event>
<event>
 6    1  0.1059789E-002  0.1834525E+03  0.7546771E-02  0.1067699E+00
        -11   -1    0    0    0    0  0.00000000000E+00  0.00000000000E+00  0.18250000000E+03  0.18250000000E+03  0.00000000000E+00 0.  1.
         11   -1    0    0    0    0 -0.00000000000E+00 -0.00000000000E+00 -0.18250000000E+03  0.18250000000E+03  0.00000000000E+00 0. -1.
        -11    1    1    2    0    0 -0.13741582827E+01  0.40069462733E-01  0.91623406282E+02  0.91633719205E+02  0.00000000000E+00 0.  1.
         11    1    1    2    0    0 -0.32395537252E+01  0.40078824088E+01 -0.18147434234E+03  0.18154750001E+03  0.00000000000E+00 0. -1.
        -15    1    1    2    0    0  0.36889140333E+01 -0.39317196290E+01  0.73187235473E+01  0.92621784343E+01  0.17770000000E+01 0.  1.
         15    1    1    2    0    0  0.92479797452E+00 -0.11623224246E+00  0.82532212512E+02  0.82556602355E+02  0.17770000000E+01 0.  1.
</event>
<event>
 6    1  0.1059789E-002  0.1750120E+03  0.7546771E-02  0.1074577E+00
        -11   -1    0    0    0    0  0.00000000000E+00  0.00000000000E+00  0.18250000000E+03  0.18250000000E+03  0.00000000000E+00 0.  1.
         11   -1    0    0    0    0 -0.00000000000E+00 -0.00000000000E+00 -0.18250000000E+03  0.18250000000E+03  0.00000000000E+00 0. -1.
        -11    1    1    2    0    0 -0.25306528746E+01  0.10540342520E+01  0.17654708314E+03  0.17656836568E+03  0.00000000000E+00 0.  1.
         11    1    1    2    0    0  0.35535486810E+01 -0.68557177771E+01 -0.17334794044E+03  0.17351984621E+03  0.00000000000E+00 0. -1.
        -15    1    1    2    0    0 -0.25477500933E+01  0.78299659332E+01 -0.63074421991E+01  0.10523352752E+02  0.17770000000E+01 0. -1.
         15    1    1    2    0    0  0.15248542869E+01 -0.20282824081E+01  0.31082994974E+01  0.43884353577E+01  0.17770000000E+01 0.  1.
</event>
<event>
 6    1  0.1059789E-002  0.1856519E+03  0.7546771E-02  0.1065973E+00
        -11   -1    0    0    0    0  0.00000000000E+00  0.00000000000E+00  0.18250000000E+03  0.18250000000E+03  0.00000000000E+00 0.  1.
         11   -1    0    0    0    0 -0.00000000000E+00 -0.00000000000E+00 -0.18250000000E+03  0.18250000000E+03  0.00000000000E+00 0. -1.
        -11    1    1    2    0    0  0.37236680669E+01  0.25271964636E+01  0.17780273247E+03  0.17785967530E+03  0.00000000000E+00 0.  1.
         11    1    1    2    0    0 -0.14688670367E+01 -0.20353517470E+01 -0.17933052717E+03  0.17934809227E+03  0.00000000000E+00 0. -1.
        -15    1    1    2    0    0 -0.47561809812E+00  0.25711308376E+01 -0.71130247838E+00  0.32404639444E+01  0.17770000000E+01 0.  1.
         15    1    1    2    0    0 -0.17791829320E+01 -0.30629755542E+01  0.22390971804E+01  0.45517684843E+01  0.17770000000E+01 0. -1.
</event>
<event>
 6    1  0.1059789E-002  0.1830229E+03  0.7546771E-02  0.1068039E+00
        -11   -1    0    0    0    0  0.00000000000E+00  0.00000000000E+00  0.18250000000E+03  0.18250000000E+03  0.00000000000E+00 0. -1.
         11   -1    0    0    0    0 -0.00000000000E+00 -0.00000000000E+00 -0.18250000000E+03  0.18250000000E+03  0.00000000000E+00 0.  1.
        -11    1    1    2    0    0  0.24101364994E+01 -0.27876306859E+01  0.18193978670E+03  0.18197710193E+03  0.00000000000E+00 0. -1.
         11    1    1    2    0    0  0.24949590709E+01  0.51382662197E+01 -0.14869293123E+03  0.14880260212E+03  0.00000000000E+00 0.  1.
        -15    1    1    2    0    0 -0.11810735968E+01 -0.20626750702E+01 -0.22669752529E+02  0.22863179395E+02  0.17770000000E+01 0.  1.
         15    1    1    2    0    0 -0.37240219735E+01 -0.28796046369E+00 -0.10577102937E+02  0.11357116554E+02  0.17770000000E+01 0. -1.
</event>
<event>
 6    1  0.1059789E-002  0.1859318E+03  0.7546771E-02  0.1065755E+00
        -11   -1    0    0    0    0  0.00000000000E+00  0.00000000000E+00  0.18250000000E+03  0.18250000000E+03  0.00000000000E+00 0. -1.
         11   -1    0    0    0    0 -0.00000000000E+00 -0.00000000000E+00 -0.18250000000E+03  0.18250000000E+03  0.00000000000E+00 0. -1.
        -11    1    1    2    0    0 -0.99401694496E+00  0.22451356077E+01  0.17905135582E+03  0.17906819015E+03  0.00000000000E+00 0. -1.
         11    1    1    2    0    0 -0.14501448052E+01 -0.58368882007E+01 -0.17618968008E+03  0.17629230145E+03  0.00000000000E+00 0. -1.
        -15    1    1    2    0    0 -0.15482162974E+00 -0.83837849584E+00  0.16543205049E+01  0.25731990930E+01  0.17770000000E+01 0.  1.
         15    1    1    2    0    0  0.25989833799E+01  0.44301310888E+01 -0.45159962434E+01  0.70663093014E+01  0.17770000000E+01 0.  1.
</event>
<event>
 6    1  0.1059789E-002  0.1850271E+03  0.7546771E-02  0.1066461E+00
        -11   -1    0    0    0    0  0.00000000000E+00  0.00000000000E+00  0.18250000000E+03  0.18250000000E+03  0.00000000000E+00 0. -1.
         11   -1    0    0    0    0 -0.00000000000E+00 -0.00000000000E+00 -0.18250000000E+03  0.18250000000E+03  0.00000000000E+00 0.  1.
        -11    1    1    2    0    0  0.92849018334E+00  0.38983278672E+01  0.17992829021E+03  0.17997291094E+03  0.00000000000E+00 0. -1.
         11    1    1    2    0    0 -0.33845948923E+00  0.25475413462E+01 -0.17034005915E+03  0.17035944433E+03  0.00000000000E+00 0.  1.
        -15    1    1    2    0    0 -0.30808224560E+01 -0.27339466214E+01 -0.86822225309E+01  0.97726479630E+01  0.17770000000E+01 0.  1.
         15    1    1    2    0    0  0.24907917619E+01 -0.37119225920E+01 -0.90600853184E+00  0.48949967711E+01  0.17770000000E+01 0. -1.
</event>
<event>
 6    1  0.1059789E-002  0.1861018E+03  0.7546771E-02  0.1065623E+00
        -11   -1    0    0    0    0  0.00000000000E+00  0.00000000000E+00  0.18250000000E+03  0.18250000000E+03  0.00000000000E+00 0. -1.
         11   -1    0    0    0    0 -0.00000000000E+00 -0.00000000000E+00 -0.18250000000E+03  0.18250000000E+03  0.00000000000E+00 0. -1.
        -11    1    1    2    0    0  0.35539141239E+01  0.26684696965E+01  0.17884296584E+03  0.17889817625E+03  0.00000000000E+00 0. -1.
         11    1    1    2    0    0 -0.39864841521E+01  0.80861666254E+00 -0.16521224932E+03  0.16526231646E+03  0.00000000000E+00 0. -1.
        -15    1    1    2    0    0 -0.24221722887E+01 -0.81597817583E+00  0.25974791054E+01  0.40543021203E+01  0.17770000000E+01 0.  1.
         15    1    1    2    0    0  0.28547423169E+01 -0.26611081832E+01 -0.16228195619E+02  0.16785205168E+02  0.17770000000E+01 0. -1.
</event>
<event>
 6    1  0.1059789E-002  0.1844397E+03  0.7546771E-02  0.1066921E+00
        -11   -1    0    0    0    0  0.00000000000E+00  0.00000000000E+00  0.18250000000E+03  0.18250000000E+03  0.00000000000E+00 0. -1.
         11   -1    0    0    0    0 -0.00000000000E+00 -0.00000000000E+00 -0.18250000000E+03  0.18250000000E+03  0.00000000000E+00 0.  1.
        -11    1    1    2    0    0 -0.31269857967E+01 -0.27788735570E+01  0.14606354439E+03  0.14612343815E+03  0.00000000000E+00 0. -1.
         11    1    1    2    0    0  0.17735190581E+00 -0.28628103516E+01 -0.18053751654E+03  0.18056030022E+03  0.00000000000E+00 0.  1.
        -15    1    1    2    0    0  0.45210024507E+01  0.38190181525E+01  0.34765710692E+02  0.35310575352E+02  0.17770000000E+01 0. -1.
         15    1    1    2    0    0 -0.15713685598E+01  0.18226657560E+01 -0.29173853618E+00  0.30056862748E+01  0.17770000000E+01 0.  1.
</event>
<event>
 6    1  0.1059789E-002  0.1865401E+03  0.7546771E-02  0.1065284E+00
        -11   -1    0    0    0    0  0.00000000000E+00  0.00000000000E+00  0.18250000000E+03  0.18250000000E+03  0.00000000000E+00 0. -1.
         11   -1    0    0    0    0 -0.00000000000E+00 -0.00000000000E+00 -0.18250000000E+03  0.18250000000E+03  0.00000000000E+00 0. -1.
        -11    1    1    2    0    0  0.72629191659E+01  0.84838286951E+01  0.17811008642E+03  0.17845987848E+03  0.00000000000E+00 0. -1.
         11    1    1    2    0    0  0.56120049609E+01  0.80158192818E+01 -0.10782778091E+03  0.10827085616E+03  0.00000000000E+00 0. -1.
        -15    1    1    2    0    0 -0.65638375650E+01 -0.23729839719E+02 -0.50394704797E+02  0.56115713104E+02  0.17770000000E+01 0. -1.
         15    1    1    2    0    0 -0.63110865618E+01  0.72301917416E+01 -0.19887600710E+02  0.22153552248E+02  0.17770000000E+01 0.  1.
</event>
<event>
 6    1  0.1059789E-002  0.1990630E+03  0.7546771E-02  0.1055985E+00
        -11   -1    0    0    0    0  0.00000000000E+00  0.00000000000E+00  0.18250000000E+03  0.18250000000E+03  0.00000000000E+00 0.  1.
         11   -1    0    0    0    0 -0.00000000000E+00 -0.00000000000E+00 -0.18250000000E+03  0.18250000000E+03  0.00000000000E+00 0.  1.
        -11    1    1    2    0    0 -0.26153126208E+01  0.21130689117E+01  0.11382801962E+03  0.11387766669E+03  0.00000000000E+00 0.  1.
         11    1    1    2    0    0  0.49573320210E+01 -0.61434291409E+01 -0.16574907737E+03  0.16593695644E+03  0.00000000000E+00 0.  1.
        -15    1    1    2    0    0 -0.28746385261E+02 -0.15729691547E+01  0.50426668289E+02  0.58093334396E+02  0.17770000000E+01 0.  1.
         15    1    1    2    0    0  0.26404365861E+02  0.56033293839E+01  0.14943894623E+01  0.27092042477E+02  0.17770000000E+01 0. -1.
</event>
<event>
 6    1  0.1059789E-002  0.1835731E+03  0.7546771E-02  0.1067604E+00
        -11   -1    0    0    0    0  0.00000000000E+00  0.00000000000E+00  0.18250000000E+03  0.18250000000E+03  0.00000000000E+00 0.  1.
         11   -1    0    0    0    0 -0.00000000000E+00 -0.00000000000E+00 -0.18250000000E+03  0.18250000000E+03  0.00000000000E+00 0. -1.
        -11    1    1    2    0    0 -0.44136835375E+01  0.13208537240E+01  0.17195349706E+03  0.17201520400E+03  0.00000000000E+00 0.  1.
         11    1    1    2    0    0  0.28777874204E+00 -0.24857696667E+01 -0.18140962528E+03  0.18142688337E+03  0.00000000000E+00 0. -1.
        -15    1    1    2    0    0  0.34923888972E+01 -0.54765656989E+00  0.68673850084E+01  0.79256175647E+01  0.17770000000E+01 0. -1.
         15    1    1    2    0    0  0.63351589819E+00  0.17125725126E+01  0.25887432085E+01  0.36322950601E+01  0.17770000000E+01 0. -1.
</event>
<event>
 6    1  0.1059789E-002  0.1850777E+03  0.7546771E-02  0.1066421E+00
        -11   -1    0    0    0    0  0.00000000000E+00  0.00000000000E+00  0.18250000000E+03  0.18250000000E+03  0.00000000000E+00 0. -1.
         11   -1    0    0    0    0 -0.00000000000E+00 -0.00000000000E+00 -0.18250000000E+03  0.18250000000E+03  0.00000000000E+00 0.  1.
        -11    1    1    2    0    0 -0.62080591897E+00 -0.77563059261E+00  0.16580682314E+02  0.16610419284E+02  0.00000000000E+00 0. -1.
         11    1    1    2    0    0 -0.76393387347E+01 -0.72668628360E+01 -0.17961306528E+03  0.17992226102E+03  0.00000000000E+00 0.  1.
        -15    1    1    2    0    0 -0.12309245775E+02  0.25685533491E+01  0.18958778754E+02  0.22819027558E+02  0.17770000000E+01 0.  1.
         15    1    1    2    0    0  0.20569390429E+02  0.54739400795E+01  0.14407360421E+03  0.14564829214E+03  0.17770000000E+01 0. -1.
</event>
<event>
 6    1  0.1059789E-002  0.1902274E+03  0.7546771E-02  0.1062465E+00
        -11   -1    0    0    0    0  0.00000000000E+00  0.00000000000E+00  0.18250000000E+03  0.18250000000E+03  0.00000000000E+00 0. -1.
         11   -1    0    0    0    0 -0.00000000000E+00 -0.00000000000E+00 -0.18250000000E+03  0.18250000000E+03  0.00000000000E+00 0. -1.
        -11    1    1    2    0    0  0.80626329050E+01 -0.81499550463E+00  0.17458467364E+03  0.17477264814E+03  0.00000000000E+00 0. -1.
         11    1    1    2    0    0 -0.28061314520E+00 -0.27169076103E+01 -0.16718755004E+03  0.16720985982E+03  0.00000000000E+00 0. -1.
        -15    1    1    2    0    0 -0.10949313759E+02 -0.45118445386E-01 -0.11862411725E+02  0.16240814278E+02  0.17770000000E+01 0. -1.
         15    1    1    2    0    0  0.31672939996E+01  0.35770215604E+01  0.44652881213E+01  0.67766777649E+01  0.17770000000E+01 0.  1.
</event>
<event>
 6    1  0.1059789E-002  0.1895013E+03  0.7546771E-02  0.1063014E+00
        -11   -1    0    0    0    0  0.00000000000E+00  0.00000000000E+00  0.18250000000E+03  0.18250000000E+03  0.00000000000E+00 0.  1.
         11   -1    0    0    0    0 -0.00000000000E+00 -0.00000000000E+00 -0.18250000000E+03  0.18250000000E+03  0.00000000000E+00 0. -1.
        -11    1    1    2    0    0 -0.10264796189E+01 -0.23108760269E+01  0.17548049715E+03  0.17549871421E+03  0.00000000000E+00 0.  1.
         11    1    1    2    0    0 -0.35118151228E+01  0.62868933731E+01 -0.17035560256E+03  0.17050773940E+03  0.00000000000E+00 0. -1.
        -15    1    1    2    0    0  0.25707565297E+01 -0.93550558091E+01  0.15900371406E+01  0.99905858405E+01  0.17770000000E+01 0. -1.
         15    1    1    2    0    0  0.19675382120E+01  0.53790384629E+01 -0.67149317336E+01  0.90029605458E+01  0.17770000000E+01 0.  1.
</event>
<event>
 6    1  0.1059789E-002  0.1832412E+03  0.7546771E-02  0.1067866E+00
        -11   -1    0    0    0    0  0.00000000000E+00  0.00000000000E+00  0.18250000000E+03  0.18250000000E+03  0.00000000000E+00 0.  1.
         11   -1    0    0    0    0 -0.00000000000E+00 -0.00000000000E+00 -0.18250000000E+03  0.18250000000E+03  0.00000000000E+00 0. -1.
        -11    1    1    2    0    0  0.95661137324E+00  0.25907131839E+01  0.18173785005E+03  0.18175883209E+03  0.00000000000E+00 0.  1.
         11    1    1    2    0    0  0.48978976387E+01 -0.96901265955E+00 -0.15887040135E+03  0.15894883709E+03  0.00000000000E+00 0. -1.
        -15    1    1    2    0    0 -0.48725283501E+01 -0.16360563567E+01 -0.20317817649E+02  0.21033061022E+02  0.17770000000E+01 0. -1.
         15    1    1    2    0    0 -0.98198066185E+00  0.14355832320E-01 -0.25496310559E+01  0.32592698003E+01  0.17770000000E+01 0. -1.
</event>
<event>
 6    1  0.1059789E-002  0.1829965E+03  0.7546771E-02  0.1068060E+00
        -11   -1    0    0    0    0  0.00000000000E+00  0.00000000000E+00  0.18250000000E+03  0.18250000000E+03  0.00000000000E+00 0. -1.
         11   -1    0    0    0    0 -0.00000000000E+00 -0.00000000000E+00 -0.18250000000E+03  0.18250000000E+03  0.00000000000E+00 0. -1.
        -11    1    1    2    0    0 -0.19375107123E+00  0.35438145536E+01  0.13177646477E+03  0.13182424977E+03  0.00000000000E+00 0. -1.
         11    1    1    2    0    0  0.24603032267E+01  0.19104135086E+00 -0.18198677724E+03  0.18200350732E+03  0.00000000000E+00 0. -1.
        -15    1    1    2    0    0  0.12433879903E+01 -0.80611873443E+00  0.37140184720E+02  0.37212187401E+02  0.17770000000E+01 0. -1.
         15    1    1    2    0    0 -0.35099401457E+01 -0.29287371700E+01  0.13070127750E+02  0.13960055503E+02  0.17770000000E+01 0.  1.
</event>
<event>
 6    1  0.1059789E-002  0.1861955E+03  0.7546771E-02  0.1065551E+00
        -11   -1    0    0    0    0  0.00000000000E+00  0.00000000000E+00  0.18250000000E+03  0.18250000000E+03  0.00000000000E+00 0. -1.
         11   -1    0    0    0    0 -0.00000000000E+00 -0.00000000000E+00 -0.18250000000E+03  0.18250000000E+03  0.00000000000E+00 0. -1.
        -11    1    1    2    0    0  0.18369358600E+01  0.31185084050E+01  0.17876785476E+03  0.17880448910E+03  0.00000000000E+00 0. -1.
         11    1    1    2    0    0  0.22975072034E+01  0.20175021630E+01 -0.17320641532E+03  0.17323340082E+03  0.00000000000E+00 0. -1.
        -15    1    1    2    0    0  0.52721958316E+00 -0.16108613344E+01  0.20525391915E+01  0.32005438382E+01  0.17770000000E+01 0.  1.
         15    1    1    2    0    0 -0.46616626466E+01 -0.35251492335E+01 -0.76139786333E+01  0.97615662359E+01  0.17770000000E+01 0. -1.
</event>
<event>
 6    1  0.1059789E-002  0.1829153E+03  0.7546771E-02  0.1068125E+00
        -11   -1    0    0    0    0  0.00000000000E+00  0.00000000000E+00  0.18250000000E+03  0.18250000000E+03  0.00000000000E+00 0.  1.
         11   -1    0    0    0    0 -0.00000000000E+00 -0.00000000000E+00 -0.18250000000E+03  0.18250000000E+03  0.00000000000E+00 0. -1.
        -11    1    1    2    0    0 -0.30952369424E+01 -0.65228402654E+01  0.18194151066E+03  0.18208470897E+03  0.00000000000E+00 0.  1.
         11    1    1    2    0    0 -0.14313675045E+01 -0.96915080128E+00 -0.55666377459E+02  0.55693210049E+02  0.00000000000E+00 0. -1.
        -15    1    1    2    0    0  0.12830043187E+01 -0.27396505429E+00 -0.86468095261E+02  0.86496302718E+02  0.17770000000E+01 0. -1.
         15    1    1    2    0    0  0.32436001282E+01  0.77659561209E+01 -0.39807037945E+02  0.40725778265E+02  0.17770000000E+01 0. -1.
</event>
<event>
 6    1  0.1059789E-002  0.1103090E+03  0.7546771E-02  0.1147092E+00
        -11   -1    0    0    0    0  0.00000000000E+00  0.00000000000E+00  0.18250000000E+03  0.18250000000E+03  0.00000000000E+00 0.  1.
         11   -1    0    0    0    0 -0.00000000000E+00 -0.00000000000E+00 -0.18250000000E+03  0.18250000000E+03  0.00000000000E+00 0. -1.
        -11    1    1    2    0    0  0.54867871778E+00 -0.32794125054E+00  0.44374717045E+02  0.44379320710E+02  0.00000000000E+00 0.  1.
         11    1    1    2    0    0 -0.11654318644E+01 -0.55957126258E+01 -0.15159950520E+03  0.15170721870E+03  0.00000000000E+00 0. -1.
        -15    1    1    2    0    0  0.28843752434E+02  0.61239658321E+02  0.64459309916E+02  0.93490203602E+02  0.17770000000E+01 0. -1.
         15    1    1    2    0    0 -0.28226999287E+02 -0.55316004444E+02  0.42765478234E+02  0.75423256984E+02  0.17770000000E+01 0.  1.
</event>
<event>
 6    1  0.1059789E-002  0.2082224E+03  0.7546771E-02  0.1049644E+00
        -11   -1    0    0    0    0  0.00000000000E+00  0.00000000000E+00  0.18250000000E+03  0.18250000000E+03  0.00000000000E+00 0.  1.
         11   -1    0    0    0    0 -0.00000000000E+00 -0.00000000000E+00 -0.18250000000E+03  0.18250000000E+03  0.00000000000E+00 0.  1.
        -11    1    1    2    0    0  0.42054299330E+01 -0.29960533039E+01  0.15669258481E+03  0.15677763907E+03  0.00000000000E+00 0.  1.
         11    1    1    2    0    0 -0.10567953219E+02  0.19790420362E+02 -0.10246016769E+03  0.10488769392E+03  0.00000000000E+00 0.  1.
        -15    1    1    2    0    0  0.11763221017E+02 -0.14018878242E+02  0.20957128644E+02  0.27879406124E+02  0.17770000000E+01 0. -1.
         15    1    1    2    0    0 -0.54006977308E+01 -0.27754888167E+01 -0.75189545767E+02  0.75455260889E+02  0.17770000000E+01 0.  1.
</event>
<event>
 6    1  0.1059789E-002  0.1848042E+03  0.7546771E-02  0.1066635E+00
        -11   -1    0    0    0    0  0.00000000000E+00  0.00000000000E+00  0.18250000000E+03  0.18250000000E+03  0.00000000000E+00 0. -1.
         11   -1    0    0    0    0 -0.00000000000E+00 -0.00000000000E+00 -0.18250000000E+03  0.18250000000E+03  0.00000000000E+00 0.  1.
        -11    1    1    2    0    0 -0.31233499475E+01  0.12944108807E+01  0.16980803632E+03  0.16984169103E+03  0.00000000000E+00 0. -1.
         11    1    1    2    0    0 -0.33573380469E+01  0.16774647208E+01 -0.18015675291E+03  0.18019584131E+03  0.00000000000E+00 0.  1.
        -15    1    1    2    0    0  0.66237503198E+00  0.18789185545E+01  0.44857365437E+01  0.52200226970E+01  0.17770000000E+01 0.  1.
         15    1    1    2    0    0  0.58183129624E+01 -0.48507941561E+01  0.58629800515E+01  0.97424449579E+01  0.17770000000E+01 0.  1.
</event>
<event>
 6    1  0.1059789E-002  0.1919453E+03  0.7546771E-02  0.1061175E+00
        -11   -1    0    0    0    0  0.00000000000E+00  0.00000000000E+00  0.18250000000E+03  0.18250000000E+03  0.00000000000E+00 0.  1.
         11   -1    0    0    0    0 -0.00000000000E+00 -0.00000000000E+00 -0.18250000000E+03  0.18250000000E+03  0.00000000000E+00 0. -1.
        -11    1    1    2    0    0  0.30241964203E+01  0.14286243323E+00  0.16520410318E+03  0.16523184282E+03  0.00000000000E+00 0.  1.
         11    1    1    2    0    0 -0.13690289144E+02 -0.63818447872E+01 -0.17239428636E+03  0.17305473680E+03  0.00000000000E+00 0. -1.
        -15    1    1    2    0    0  0.16041684471E+02  0.43000279667E+01 -0.81015741645E+00  0.16722438974E+02  0.17770000000E+01 0.  1.
         15    1    1    2    0    0 -0.53755917474E+01  0.19389543873E+01  0.80003405979E+01  0.99909814049E+01  0.17770000000E+01 0. -1.
</event>
<event>
 6    1  0.1059789E-002  0.1835050E+03  0.7546771E-02  0.1067658E+00
        -11   -1    0    0    0    0  0.00000000000E+00  0.00000000000E+00  0.18250000000E+03  0.18250000000E+03  0.00000000000E+00 0. -1.
         11   -1    0    0    0    0 -0.00000000000E+00 -0.00000000000E+00 -0.18250000000E+03  0.18250000000E+03  0.00000000000E+00 0. -1.
        -11    1    1    2    0    0 -0.17619865103E+01  0.22298402139E+01  0.11158527439E+03  0.11162145960E+03  0.00000000000E+00 0. -1.
         11    1    1    2    0    0 -0.57666384305E+01 -0.15605800774E+01 -0.18139661691E+03  0.18149496455E+03  0.00000000000E+00 0. -1.
        -15    1    1    2    0    0  0.89694035930E+01  0.89199630448E+00  0.67899297231E+02  0.68518013338E+02  0.17770000000E+01 0. -1.
         15    1    1    2    0    0 -0.14407786522E+01 -0.15612564410E+01  0.19120452935E+01  0.33655625093E+01  0.17770000000E+01 0.  1.
</event>
<event>
 6    1  0.1059789E-002  0.1782857E+03  0.7546771E-02  0.1071860E+00
        -11   -1    0    0    0    0  0.00000000000E+00  0.00000000000E+00  0.18250000000E+03  0.18250000000E+03  0.00000000000E+00 0.  1.
         11   -1    0    0    0    0 -0.00000000000E+00 -0.00000000000E+00 -0.18250000000E+03  0.18250000000E+03  0.00000000000E+00 0. -1.
        -11    1    1    2    0    0  0.27088344903E+01 -0.34974161501E+00  0.17717793463E+03  0.17719898596E+03  0.00000000000E+00 0.  1.
         11    1    1    2    0    0  0.22820691192E+01 -0.10993067326E+01 -0.17939929575E+03  0.17941717764E+03  0.00000000000E+00 0. -1.
        -15    1    1    2    0    0 -0.46807773002E+01 -0.93395493863E+00  0.13021250002E+01  0.52569198660E+01  0.17770000000E+01 0.  1.
         15    1    1    2    0    0 -0.31012630930E+00  0.23830032863E+01  0.91923611928E+00  0.31269165376E+01  0.17770000000E+01 0. -1.
</event>
<event>
 6    1  0.1059789E-002  0.1710911E+03  0.7546771E-02  0.1077917E+00
        -11   -1    0    0    0    0  0.00000000000E+00  0.00000000000E+00  0.18250000000E+03  0.18250000000E+03  0.00000000000E+00 0.  1.
         11   -1    0    0    0    0 -0.00000000000E+00 -0.00000000000E+00 -0.18250000000E+03  0.18250000000E+03  0.00000000000E+00 0.  1.
        -11    1    1    2    0    0 -0.48067696857E+01  0.14344899371E+01  0.17424278555E+03  0.17431497673E+03  0.00000000000E+00 0.  1.
         11    1    1    2    0    0 -0.64105685380E+01 -0.19384607143E+01 -0.16797528533E+03  0.16810874309E+03  0.00000000000E+00 0.  1.
        -15    1    1    2    0    0  0.37807574747E+01 -0.13446640505E+01 -0.12042841982E+02  0.12817566871E+02  0.17770000000E+01 0.  1.
         15    1    1    2    0    0  0.74365807490E+01  0.18486348277E+01  0.57753417631E+01  0.97587133088E+01  0.17770000000E+01 0.  1.
</event>
<event>
 6    1  0.1059789E-002  0.1850118E+03  0.7546771E-02  0.1066473E+00
        -11   -1    0    0    0    0  0.00000000000E+00  0.00000000000E+00  0.18250000000E+03  0.18250000000E+03  0.00000000000E+00 0. -1.
         11   -1    0    0    0    0 -0.00000000000E+00 -0.00000000000E+00 -0.18250000000E+03  0.18250000000E+03  0.00000000000E+00 0.  1.
        -11    1    1    2    0    0 -0.78298773329E+01  0.12188397216E+02  0.11502279880E+03  0.11593148084E+03  0.00000000000E+00 0. -1.
         11    1    1    2    0    0  0.53465780515E+01  0.48448430074E+01 -0.17984349769E+03  0.17998817201E+03  0.00000000000E+00 0.  1.
        -15    1    1    2    0    0  0.70278489642E+01 -0.17408153810E+02  0.54189534272E+02  0.57376805712E+02  0.17770000000E+01 0. -1.
         15    1    1    2    0    0 -0.45445496828E+01  0.37491358709E+00  0.10631164624E+02  0.11703541442E+02  0.17770000000E+01 0.  1.
</event>
<event>
 6    1  0.1059789E-002  0.1826176E+03  0.7546771E-02  0.1068361E+00
        -11   -1    0    0    0    0  0.00000000000E+00  0.00000000000E+00  0.18250000000E+03  0.18250000000E+03  0.00000000000E+00 0. -1.
         11   -1    0    0    0    0 -0.00000000000E+00 -0.00000000000E+00 -0.18250000000E+03  0.18250000000E+03  0.00000000000E+00 0. -1.
        -11    1    1    2    0    0  0.25222295486E+01 -0.28446285125E+00  0.18236469342E+03  0.18238235652E+03  0.00000000000E+00 0. -1.
         11    1    1    2    0    0 -0.12889118017E+00  0.19302656496E+01 -0.10649221283E+03  0.10650978327E+03  0.00000000000E+00 0. -1.
        -15    1    1    2    0    0  0.32372096321E+00 -0.69381970038E+00 -0.46662409025E+02  0.46702508777E+02  0.17770000000E+01 0.  1.
         15    1    1    2    0    0 -0.27170593316E+01 -0.95198309793E+00 -0.29210071563E+02  0.29405351434E+02  0.17770000000E+01 0.  1.
</event>
<event>
 6    1  0.1059789E-002  0.1855302E+03  0.7546771E-02  0.1066068E+00
        -11   -1    0    0    0    0  0.00000000000E+00  0.00000000000E+00  0.18250000000E+03  0.18250000000E+03  0.00000000000E+00 0.  1.
         11   -1    0    0    0    0 -0.00000000000E+00 -0.00000000000E+00 -0.18250000000E+03  0.18250000000E+03  0.00000000000E+00 0.  1.
        -11    1    1    2    0    0 -0.21124510056E+01 -0.31019415151E+01  0.17301142756E+03  0.17305212670E+03  0.00000000000E+00 0.  1.
         11    1    1    2    0    0 -0.33934612753E+01 -0.46374778441E+01 -0.17937775035E+03  0.17946977211E+03  0.00000000000E+00 0.  1.
        -15    1    1    2    0    0  0.16883347911E+01  0.98272482070E+00  0.24635949868E+01  0.36115442264E+01  0.17770000000E+01 0. -1.
         15    1    1    2    0    0  0.38175774897E+01  0.67566945385E+01  0.39027278109E+01  0.88665569610E+01  0.17770000000E+01 0.  1.
</event>
<event>
 6    1  0.1059789E-002  0.1842605E+03  0.7546771E-02  0.1067062E+00
        -11   -1    0    0    0    0  0.00000000000E+00  0.00000000000E+00  0.18250000000E+03  0.18250000000E+03  0.00000000000E+00 0.  1.
         11   -1    0    0    0    0 -0.00000000000E+00 -0.00000000000E+00 -0.18250000000E+03  0.18250000000E+03  0.00000000000E+00 0. -1.
        -11    1    1    2    0    0 -0.89399037059E+01  0.14712708158E+02  0.17991768631E+03  0.18073947965E+03  0.00000000000E+00 0.  1.
         11    1    1    2    0    0 -0.21093980572E+01  0.31468881048E+00 -0.48262219292E+02  0.48309320014E+02  0.00000000000E+00 0. -1.
        -15    1    1    2    0    0 -0.85764356286E+01 -0.21069943971E+01 -0.21634893220E+02  0.23435464730E+02  0.17770000000E+01 0.  1.
         15    1    1    2    0    0  0.19625737392E+02 -0.12920402572E+02 -0.11002057380E+03  0.11251573560E+03  0.17770000000E+01 0. -1.
</event>
<event>
 6    1  0.1059789E-002  0.1833325E+03  0.7546771E-02  0.1067794E+00
        -11   -1    0    0    0    0  0.00000000000E+00  0.00000000000E+00  0.18250000000E+03  0.18250000000E+03  0.00000000000E+00 0. -1.
         11   -1    0    0    0    0 -0.00000000000E+00 -0.00000000000E+00 -0.18250000000E+03  0.18250000000E+03  0.00000000000E+00 0. -1.
        -11    1    1    2    0    0  0.11381015584E+01 -0.28685538076E+01  0.11078916867E+03  0.11083214232E+03  0.00000000000E+00 0. -1.
         11    1    1    2    0    0 -0.14247253642E+01  0.31737189227E+01 -0.18163415627E+03  0.18166746835E+03  0.00000000000E+00 0. -1.
        -15    1    1    2    0    0 -0.40504515579E+00  0.58393653960E+01  0.55843194940E+02  0.56177240942E+02  0.17770000000E+01 0.  1.
         15    1    1    2    0    0  0.69166896157E+00 -0.61445305110E+01  0.15001792661E+02  0.16323148385E+02  0.17770000000E+01 0.  1.
</event>
<event>
 6    1  0.1059789E-002  0.1850367E+03  0.7546771E-02  0.1066453E+00
        -11   -1    0    0    0    0  0.00000000000E+00  0.00000000000E+00  0.18250000000E+03  0.18250000000E+03  0.00000000000E+00 0.  1.
         11   -1    0    0    0    0 -0.00000000000E+00 -0.00000000000E+00 -0.18250000000E+03  0.18250000000E+03  0.00000000000E+00 0.  1.
        -11    1    1    2    0    0 -0.26104066505E+01  0.21152050948E+01  0.17993197114E+03  0.17996333669E+03  0.00000000000E+00 0.  1.
         11    1    1    2    0    0 -0.53403956340E+00 -0.28029935012E+01 -0.15011142620E+03  0.15013854351E+03  0.00000000000E+00 0.  1.
        -15    1    1    2    0    0  0.35384503881E+01  0.60343204222E+01 -0.28073199191E+02  0.28986132821E+02  0.17770000000E+01 0. -1.
         15    1    1    2    0    0 -0.39400417419E+00 -0.53465320158E+01 -0.17473457418E+01  0.59119869778E+01  0.17770000000E+01 0.  1.
</event>
<event>
 6    1  0.1059789E-002  0.1741873E+03  0.7546771E-02  0.1075271E+00
        -11   -1    0    0    0    0  0.00000000000E+00  0.00000000000E+00  0.18250000000E+03  0.18250000000E+03  0.00000000000E+00 0. -1.
         11   -1    0    0    0    0 -0.00000000000E+00 -0.00000000000E+00 -0.18250000000E+03  0.18250000000E+03  0.00000000000E+00 0. -1.
        -11    1    1    2    0    0  0.30970131155E+01  0.22858364744E+01  0.17459732898E+03  0.17463975442E+03  0.00000000000E+00 0. -1.
         11    1    1    2    0    0 -0.25294263883E+01  0.17178358337E+00 -0.17372649252E+03  0.17374499046E+03  0.00000000000E+00 0. -1.
        -15    1    1    2    0    0  0.58158194016E+00 -0.29078203684E+01 -0.82395869564E+01  0.89354450958E+01  0.17770000000E+01 0. -1.
         15    1    1    2    0    0 -0.11491686673E+01  0.45020031059E+00  0.73687505028E+01  0.76798100183E+01  0.17770000000E+01 0. -1.
</event>
<event>
 6    1  0.1059789E-002  0.1831276E+03  0.7546771E-02  0.1067956E+00
        -11   -1    0    0    0    0  0.00000000000E+00  0.00000000000E+00  0.18250000000E+03  0.18250000000E+03  0.00000000000E+00 0.  1.
         11   -1    0    0    0    0 -0.00000000000E+00 -0.00000000000E+00 -0.18250000000E+03  0.18250000000E+03  0.00000000000E+00 0. -1.
        -11    1    1    2    0    0 -0.30492579514E-01 -0.95749458793E+00  0.17526800980E+02  0.17552962094E+02  0.00000000000E+00 0.  1.
         11    1    1    2    0    0  0.35405609919E+01 -0.62759698624E+01 -0.18172963198E+03  0.18187243471E+03  0.00000000000E+00 0. -1.
        -15    1    1    2    0    0 -0.25518494397E+01  0.69493613108E+01  0.16305945884E+03  0.16323709873E+03  0.17770000000E+01 0.  1.
         15    1    1    2    0    0 -0.95821897273E+00  0.28410313953E+00  0.11433721624E+01  0.23375044589E+01  0.17770000000E+01 0. -1.
</event>
<event>
 6    1  0.1059789E-002  0.1861521E+03  0.7546771E-02  0.1065584E+00
        -11   -1    0    0    0    0  0.00000000000E+00  0.00000000000E+00  0.18250000000E+03  0.18250000000E+03  0.00000000000E+00 0.  1.
         11   -1    0    0    0    0 -0.00000000000E+00 -0.00000000000E+00 -0.18250000000E+03  0.18250000000E+03  0.00000000000E+00 0. -1.
        -11    1    1    2    0    0  0.30716418191E+01  0.38752587961E+01  0.17877949245E+03  0.17884786701E+03  0.00000000000E+00 0.  1.
         11    1    1    2    0    0 -0.85732628446E+00 -0.19895138075E+01 -0.15590887609E+03  0.15592392637E+03  0.00000000000E+00 0. -1.
        -15    1    1    2    0    0 -0.40586514064E+01 -0.24815146220E+01  0.18225986701E+01  0.53953833015E+01  0.17770000000E+01 0. -1.
         15    1    1    2    0    0  0.18443358717E+01  0.59576963332E+00 -0.24693215030E+02  0.24832823315E+02  0.17770000000E+01 0.  1.
</event>
<event>
 6    1  0.1059789E-002  0.1836443E+03  0.7546771E-02  0.1067548E+00
        -11   -1    0    0    0    0  0.00000000000E+00  0.00000000000E+00  0.18250000000E+03  0.18250000000E+03  0.00000000000E+00 0.  1.
         11   -1    0    0    0    0 -0.00000000000E+00 -0.00000000000E+00 -0.18250000000E+03  0.18250000000E+03  0.00000000000E+00 0. -1.
        -11    1    1    2    0    0  0.60496559172E+00 -0.64352215055E-01  0.16510729498E+02  0.16521934304E+02  0.00000000000E+00 0.  1.
         11    1    1    2    0    0  0.16511558267E+01 -0.30419487031E+01 -0.18132271720E+03  0.18135574857E+03  0.00000000000E+00 0. -1.
        -15    1    1    2    0    0 -0.81432472041E+01  0.77414677728E+01  0.29900874290E+02  0.31991605315E+02  0.17770000000E+01 0. -1.
         15    1    1    2    0    0  0.58871257856E+01 -0.46351668546E+01  0.13491111341E+03  0.13513071181E+03  0.17770000000E+01 0.  1.
</event>
<event>
 6    1  0.1059789E-002  0.1957718E+03  0.7546771E-02  0.1058355E+00
        -11   -1    0    0    0    0  0.00000000000E+00  0.00000000000E+00  0.18250000000E+03  0.18250000000E+03  0.00000000000E+00 0.  1.
         11   -1    0    0    0    0 -0.00000000000E+00 -0.00000000000E+00 -0.18250000000E+03  0.18250000000E+03  0.00000000000E+00 0. -1.
        -11    1    1    2    0    0  0.12952194542E+01  0.25505243378E+01  0.16920400843E+03  0.16922818688E+03  0.00000000000E+00 0.  1.
         11    1    1    2    0    0  0.20589800337E+01 -0.30836914093E+01 -0.13994613024E+03  0.13999524249E+03  0.00000000000E+00 0. -1.
        -15    1    1    2    0    0 -0.33628727334E+01  0.47654703192E+01 -0.41892536742E+02  0.42333922380E+02  0.17770000000E+01 0.  1.
         15    1    1    2    0    0  0.86732455680E-02 -0.42323032477E+01  0.12634658555E+02  0.13442648244E+02  0.17770000000E+01 0. -1.
</event>
<event>
 6    1  0.1059789E-002  0.1875229E+03  0.7546771E-02  0.1064525E+00
        -11   -1    0    0    0    0  0.00000000000E+00  0.00000000000E+00  0.18250000000E+03  0.18250000000E+03  0.00000000000E+00 0. -1.
         11   -1    0    0    0    0 -0.00000000000E+00 -0.00000000000E+00 -0.18250000000E+03  0.18250000000E+03  0.00000000000E+00 0. -1.
        -11    1    1    2    0    0  0.46081599970E+01 -0.77541565667E+00  0.16956661969E+03  0.16963099634E+03  0.00000000000E+00 0. -1.
         11    1    1    2    0    0 -0.22219200864E+01  0.32648615569E+01 -0.17743317854E+03  0.17747712274E+03  0.00000000000E+00 0. -1.
        -15    1    1    2    0    0  0.42192592084E+01 -0.15209854705E+00  0.94411373000E+01  0.10493716441E+02  0.17770000000E+01 0. -1.
         15    1    1    2    0    0 -0.66054991190E+01 -0.23373473532E+01 -0.15745784475E+01  0.73981644716E+01  0.17770000000E+01 0.  1.
</event>
<event>
 6    1  0.1059789E-002  0.1835017E+03  0.7546771E-02  0.1067660E+00
        -11   -1    0    0    0    0  0.00000000000E+00  0.00000000000E+00  0.18250000000E+03  0.18250000000E+03  0.00000000000E+00 0. -1.
         11   -1    0    0    0    0 -0.00000000000E+00 -0.00000000000E+00 -0.18250000000E+03  0.18250000000E+03  0.00000000000E+00 0.  1.
        -11    1    1    2    0    0 -0.41072885934E+00  0.26120921559E+01  0.18147906365E+03  0.18149832580E+03  0.00000000000E+00 0. -1.
         11    1    1    2    0    0 -0.97905718266E+00 -0.14621030577E+01 -0.62148820815E+02  0.62173726179E+02  0.00000000000E+00 0.  1.
        -15    1    1    2    0    0  0.35670836755E+01 -0.25978812982E+01 -0.48136324866E+01  0.67677071379E+01  0.17770000000E+01 0.  1.
         15    1    1    2    0    0 -0.21772976335E+01  0.14478922000E+01 -0.11451661035E+03  0.11456024089E+03  0.17770000000E+01 0.  1.
</event>
<event>
 6    1  0.1059789E-002  0.1826414E+03  0.7546771E-02  0.1068342E+00
        -11   -1    0    0    0    0  0.00000000000E+00  0.00000000000E+00  0.18250000000E+03  0.18250000000E+03  0.00000000000E+00 0. -1.
         11   -1    0    0    0    0 -0.00000000000E+00 -0.00000000000E+00 -0.18250000000E+03  0.18250000000E+03  0.00000000000E+00 0. -1.
        -11    1    1    2    0    0  0.45583925923E+00 -0.74044341054E+00  0.58434344779E+02  0.58440813612E+02  0.00000000000E+00 0. -1.
         11    1    1    2    0    0 -0.18447369409E+01 -0.35039541704E+01 -0.18231559995E+03  0.18235859929E+03  0.00000000000E+00 0. -1.
        -15    1    1    2    0    0  0.10338208036E+01  0.22613797057E+01  0.16196009656E+02  0.16481840959E+02  0.17770000000E+01 0.  1.
         15    1    1    2    0    0  0.35507687810E+00  0.19830178753E+01  0.10768524552E+03  0.10771874614E+03  0.17770000000E+01 0. -1.
</event>
<event>
 6    1  0.1059789E-002  0.1739326E+03  0.7546771E-02  0.1075487E+00
        -11   -1    0    0    0    0  0.00000000000E+00  0.00000000000E+00  0.18250000000E+03  0.18250000000E+03  0.00000000000E+00 0.  1.
         11   -1    0    0    0    0 -0.00000000000E+00 -0.00000000000E+00 -0.18250000000E+03  0.18250000000E+03  0.00000000000E+00 0. -1.
        -11    1    1    2    0    0  0.14859860546E+01 -0.36301231151E+01  0.17134759058E+03  0.17139248159E+03  0.00000000000E+00 0.  1.
         11    1    1    2    0    0  0.33118442202E+01 -0.38768509681E+01 -0.17655213860E+03  0.17662575103E+03  0.00000000000E+00 0. -1.
        -15    1    1    2    0    0 -0.26968234591E+01  0.19709561143E+01 -0.42470032116E+01  0.56879073528E+01  0.17770000000E+01 0.  1.
         15    1    1    2    0    0 -0.21010068157E+01  0.55360179688E+01  0.94515512297E+01  0.11293860024E+02  0.17770000000E+01 0. -1.
</event>
<event>
 6    1  0.1059789E-002  0.1829473E+03  0.7546771E-02  0.1068099E+00
        -11   -1    0    0    0    0  0.00000000000E+00  0.00000000000E+00  0.18250000000E+03  0.18250000000E+03  0.00000000000E+00 0. -1.
         11   -1    0    0    0    0 -0.00000000000E+00 -0.00000000000E+00 -0.18250000000E+03  0.18250000000E+03  0.00000000000E+00 0.  1.
        -11    1    1    2    0    0  0.93035375243E+00 -0.72130259296E+01  0.18190738395E+03  0.18205271115E+03  0.00000000000E+00 0. -1.
         11    1    1    2    0    0 -0.32255561923E+01  0.10303566786E+01 -0.83294565963E+02  0.83363364655E+02  0.00000000000E+00 0.  1.
        -15    1    1    2    0    0 -0.40444681167E+01  0.24850342783E+00 -0.20639459708E+02  0.21108398858E+02  0.17770000000E+01 0. -1.
         15    1    1    2    0    0  0.63396705566E+01  0.59341658232E+01 -0.77973358279E+02  0.78475525338E+02  0.17770000000E+01 0.  1.
</event>
<event>
 6    1  0.1059789E-002  0.1786772E+03  0.7546771E-02  0.1071539E+00
        -11   -1    0    0    0    0  0.00000000000E+00  0.00000000000E+00  0.18250000000E+03  0.18250000000E+03  0.00000000000E+00 0.  1.
         11   -1    0    0    0    0 -0.00000000000E+00 -0.00000000000E+00 -0.18250000000E+03  0.18250000000E+03  0.00000000000E+00 0.  1.
        -11    1    1    2    0    0 -0.29819104884E+01  0.56262084448E+00  0.17882206764E+03  0.17884781298E+03  0.00000000000E+00 0.  1.
         11    1    1    2    0    0 -0.36018985050E+00  0.25210562587E+01 -0.17851749575E+03  0.17853565961E+03  0.00000000000E+00 0.  1.
        -15    1    1    2    0    0  0.10280518615E+01 -0.62898482465E+00  0.21845526886E+01  0.30630886355E+01  0.17770000000E+01 0. -1.
         15    1    1    2    0    0  0.23140484774E+01 -0.24546922785E+01 -0.24891245770E+01  0.45534387772E+01  0.17770000000E+01 0.  1.
</event>
<event>
 6    1  0.1059789E-002  0.1830673E+03  0.7546771E-02  0.1068004E+00
        -11   -1    0    0    0    0  0.00000000000E+00  0.00000000000E+00  0.18250000000E+03  0.18250000000E+03  0.00000000000E+00 0.  1.
         11   -1    0    0    0    0 -0.00000000000E+00 -0.00000000000E+00 -0.18250000000E+03  0.18250000000E+03  0.00000000000E+00 0.  1.
        -11    1    1    2    0    0 -0.10392622026E+01 -0.18521302087E+01  0.10259215330E+03  0.10261413339E+03  0.00000000000E+00 0.  1.
         11    1    1    2    0    0  0.41449470472E+01  0.11206741052E+01 -0.18188203642E+03  0.18193271193E+03  0.00000000000E+00 0.  1.
        -15    1    1    2    0    0 -0.18341171659E+01  0.34075930727E+01  0.74077141553E+02  0.74199436022E+02  0.17770000000E+01 0. -1.
         15    1    1    2    0    0 -0.12715676787E+01 -0.26761369693E+01  0.52127415685E+01  0.62537186617E+01  0.17770000000E+01 0.  1.
</event>
<event>
 6    1  0.1059789E-002  0.1829486E+03  0.7546771E-02  0.1068098E+00
        -11   -1    0    0    0    0  0.00000000000E+00  0.00000000000E+00  0.18250000000E+03  0.18250000000E+03  0.00000000000E+00 0.  1.
         11   -1    0    0    0    0 -0.00000000000E+00 -0.00000000000E+00 -0.18250000000E+03  0.18250000000E+03  0.00000000000E+00 0. -1.
        -11    1    1    2    0    0  0.66735101003E+00 -0.22179038391E+01  0.12483853106E+03  0.12486001478E+03  0.00000000000E+00 0.  1.
         11    1    1    2    0    0  0.35944855918E+01 -0.28838568001E+01 -0.18199302295E+03  0.18205135912E+03  0.00000000000E+00 0. -1.
        -15    1    1    2    0    0  0.17575152342E+01  0.12014812070E+01  0.21368833306E+02  0.21548020391E+02  0.17770000000E+01 0. -1.
         15    1    1    2    0    0 -0.60193518361E+01  0.39002794321E+01  0.35785658584E+02  0.36540605708E+02  0.17770000000E+01 0.  1.
</event>
<event>
 6    1  0.1059789E-002  0.1838359E+03  0.7546771E-02  0.1067396E+00
        -11   -1    0    0    0    0  0.00000000000E+00  0.00000000000E+00  0.18250000000E+03  0.18250000000E+03  0.00000000000E+00 0. -1.
         11   -1    0    0    0    0 -0.00000000000E+00 -0.00000000000E+00 -0.18250000000E+03  0.18250000000E+03  0.00000000000E+00 0.  1.
        -11    1    1    2    0    0 -0.36889744875E+01  0.92168493614E+00  0.11245091292E+03  0.11251518054E+03  0.00000000000E+00 0. -1.
         11    1    1    2    0    0 -0.45137101145E+01  0.26368017877E+01 -0.18108869684E+03  0.18116413117E+03  0.00000000000E+00 0.  1.
        -15    1    1    2    0    0  0.50547271868E+01 -0.49000116588E+01  0.66532662763E+02  0.66927672337E+02  0.17770000000E+01 0. -1.
         15    1    1    2    0    0  0.31479574151E+01  0.13415249350E+01  0.21051211524E+01  0.43930159463E+01  0.17770000000E+01 0.  1.
</event>
<event>
 6    1  0.1059789E-002  0.1903912E+03  0.7546771E-02  0.1062341E+00
        -11   -1    0    0    0    0  0.00000000000E+00  0.00000000000E+00  0.18250000000E+03  0.18250000000E+03  0.00000000000E+00 0.  1.
         11   -1    0    0    0    0 -0.00000000000E+00 -0.00000000000E+00 -0.18250000000E+03  0.18250000000E+03  0.00000000000E+00 0. -1.
        -11    1    1    2    0    0  0.38357409276E+00 -0.37138776244E+01  0.15617000235E+03  0.15621462687E+03  0.00000000000E+00 0.  1.
         11    1    1    2    0    0  0.50106974255E+01 -0.14419332727E+02 -0.17394026013E+03  0.17460881518E+03  0.00000000000E+00 0. -1.
        -15    1    1    2    0    0  0.98775813944E+00 -0.44478204451E+01  0.36022349871E+00  0.49036988920E+01  0.17770000000E+01 0.  1.
         15    1    1    2    0    0 -0.63820296577E+01  0.22581030796E+02  0.17410034284E+02  0.29272859053E+02  0.17770000000E+01 0. -1.
</event>
<event>
 6    1  0.1059789E-002  0.1920652E+03  0.7546771E-02  0.1061086E+00
        -11   -1    0    0    0    0  0.00000000000E+00  0.00000000000E+00  0.18250000000E+03  0.18250000000E+03  0.00000000000E+00 0.  1.
         11   -1    0    0    0    0 -0.00000000000E+00 -0.00000000000E+00 -0.18250000000E+03  0.18250000000E+03  0.00000000000E+00 0. -1.
        -11    1    1    2    0    0  0.93840690666E+01  0.24134132999E+02  0.17098520561E+03  0.17293483647E+03  0.00000000000E+00 0.  1.
         11    1    1    2    0    0 -0.81561532990E+01  0.27083348855E+01 -0.71150403998E+02  0.71667551260E+02  0.00000000000E+00 0. -1.
        -15    1    1    2    0    0  0.31718696677E+01  0.15298158854E+01 -0.89866586825E+02  0.89953111399E+02  0.17770000000E+01 0. -1.
         15    1    1    2    0    0 -0.43997854353E+01 -0.28372283770E+02 -0.99682147862E+01  0.30444500870E+02  0.17770000000E+01 0.  1.
</event>
<event>
 6    1  0.1059789E-002  0.1764227E+03  0.7546771E-02  0.1073398E+00
        -11   -1    0    0    0    0  0.00000000000E+00  0.00000000000E+00  0.18250000000E+03  0.18250000000E+03  0.00000000000E+00 0. -1.
         11   -1    0    0    0    0 -0.00000000000E+00 -0.00000000000E+00 -0.18250000000E+03  0.18250000000E+03  0.00000000000E+00 0.  1.
        -11    1    1    2    0    0  0.28961240177E+00 -0.78877052999E+01  0.17593220667E+03  0.17610917385E+03  0.00000000000E+00 0. -1.
         11    1    1    2    0    0  0.27271057978E+01  0.60655083888E+00 -0.17680326031E+03  0.17682533152E+03  0.00000000000E+00 0.  1.
        -15    1    1    2    0    0 -0.18264605388E+01  0.40993473220E+01  0.46356585490E+01  0.66923587582E+01  0.17770000000E+01 0.  1.
         15    1    1    2    0    0 -0.11902576608E+01  0.31818071390E+01 -0.37646049133E+01  0.53731358742E+01  0.17770000000E+01 0. -1.
</event>
<event>
 6    1  0.1059789E-002  0.1884258E+03  0.7546771E-02  0.1063833E+00
        -11   -1    0    0    0    0  0.00000000000E+00  0.00000000000E+00  0.18250000000E+03  0.18250000000E+03  0.00000000000E+00 0.  1.
         11   -1    0    0    0    0 -0.00000000000E+00 -0.00000000000E+00 -0.18250000000E+03  0.18250000000E+03  0.00000000000E+00 0.  1.
        -11    1    1    2    0    0  0.12489814884E+01  0.31534878922E+01  0.16948960988E+03  0.16952354496E+03  0.00000000000E+00 0.  1.
         11    1    1    2    0    0 -0.30336226643E+01  0.60190293931E+01 -0.17644553746E+03  0.17657423161E+03  0.00000000000E+00 0.  1.
        -15    1    1    2    0    0 -0.17321287537E+01 -0.11345250397E+02  0.13167230595E+01  0.11687876848E+02  0.17770000000E+01 0. -1.
         15    1    1    2    0    0  0.35167699296E+01  0.21727331116E+01  0.56392045214E+01  0.72143465779E+01  0.17770000000E+01 0.  1.
</event>
<event>
 6    1  0.1059789E-002  0.1870918E+03  0.7546771E-02  0.1064857E+00
        -11   -1    0    0    0    0  0.00000000000E+00  0.00000000000E+00  0.18250000000E+03  0.18250000000E+03  0.00000000000E+00 0. -1.
         11   -1    0    0    0    0 -0.00000000000E+00 -0.00000000000E+00 -0.18250000000E+03  0.18250000000E+03  0.00000000000E+00 0. -1.
        -11    1    1    2    0    0  0.25073450514E+01 -0.65028791799E+01  0.17777160175E+03  0.17790816903E+03  0.00000000000E+00 0. -1.
         11    1    1    2    0    0  0.87898221472E+01  0.13363074967E+02 -0.50304394987E+02  0.52786029411E+02  0.00000000000E+00 0. -1.
        -15    1    1    2    0    0 -0.45868774808E+01 -0.14873957642E+02 -0.12073418436E+03  0.12174635544E+03  0.17770000000E+01 0.  1.
         15    1    1    2    0    0 -0.67102897179E+01  0.80137618550E+01 -0.67330224021E+01  0.12559446120E+02  0.17770000000E+01 0. -1.
</event>
<event>
 6    1  0.1059789E-002  0.1932968E+03  0.7546771E-02  0.1060171E+00
        -11   -1    0    0    0    0  0.00000000000E+00  0.00000000000E+00  0.18250000000E+03  0.18250000000E+03  0.00000000000E+00 0.  1.
         11   -1    0    0    0    0 -0.00000000000E+00 -0.00000000000E+00 -0.18250000000E+03  0.18250000000E+03  0.00000000000E+00 0.  1.
        -11    1    1    2    0    0 -0.97662740747E+01  0.86780463142E+01  0.17120542805E+03  0.17170319505E+03  0.00000000000E+00 0.  1.
         11    1    1    2    0    0  0.12763884013E+01 -0.11148757382E+01 -0.78208221999E+02  0.78226581821E+02  0.00000000000E+00 0.  1.
        -15    1    1    2    0    0 -0.33430619643E+00 -0.15996548379E+02  0.45635936858E+01  0.16732765372E+02  0.17770000000E+01 0. -1.
         15    1    1    2    0    0  0.88241918698E+01  0.84333778029E+01 -0.97560799737E+02  0.98337457755E+02  0.17770000000E+01 0.  1.
</event>
<event>
 6    1  0.1059789E-002  0.1827635E+03  0.7546771E-02  0.1068245E+00
        -11   -1    0    0    0    0  0.00000000000E+00  0.00000000000E+00  0.18250000000E+03  0.18250000000E+03  0.00000000000E+00 0.  1.
         11   -1    0    0    0    0 -0.00000000000E+00 -0.00000000000E+00 -0.18250000000E+03  0.18250000000E+03  0.00000000000E+00 0. -1.
        -11    1    1    2    0    0  0.29432676378E+01 -0.25142901577E+01  0.18219537563E+03  0.18223649300E+03  0.00000000000E+00 0.  1.
         11    1    1    2    0    0  0.12665047539E+01  0.76639380888E+00 -0.24244552746E+02  0.24289704230E+02  0.00000000000E+00 0. -1.
        -15    1    1    2    0    0 -0.73575516125E+01  0.37659301938E+00 -0.13389444716E+03  0.13410874728E+03  0.17770000000E+01 0. -1.
         15    1    1    2    0    0  0.31477792208E+01  0.13713033295E+01 -0.24056375730E+02  0.24365055491E+02  0.17770000000E+01 0.  1.
</event>
<event>
 6    1  0.1059789E-002  0.1840779E+03  0.7546771E-02  0.1067206E+00
        -11   -1    0    0    0    0  0.00000000000E+00  0.00000000000E+00  0.18250000000E+03  0.18250000000E+03  0.00000000000E+00 0.  1.
         11   -1    0    0    0    0 -0.00000000000E+00 -0.00000000000E+00 -0.18250000000E+03  0.18250000000E+03  0.00000000000E+00 0.  1.
        -11    1    1    2    0    0  0.27578042918E+01  0.94571502836E+00  0.18089858152E+03  0.18092207344E+03  0.00000000000E+00 0.  1.
         11    1    1    2    0    0 -0.18051688172E+01 -0.41241808583E+01 -0.13247642142E+03  0.13255289410E+03  0.00000000000E+00 0.  1.
        -15    1    1    2    0    0 -0.52948945709E+01 -0.40569822671E+01 -0.34223751875E+02  0.34913005242E+02  0.17770000000E+01 0.  1.
         15    1    1    2    0    0  0.43422590964E+01  0.72354480971E+01 -0.14198408223E+02  0.16612027218E+02  0.17770000000E+01 0.  1.
</event>
<event>
 6    1  0.1059789E-002  0.1862072E+03  0.7546771E-02  0.1065542E+00
        -11   -1    0    0    0    0  0.00000000000E+00  0.00000000000E+00  0.18250000000E+03  0.18250000000E+03  0.00000000000E+00 0. -1.
         11   -1    0    0    0    0 -0.00000000000E+00 -0.00000000000E+00 -0.18250000000E+03  0.18250000000E+03  0.00000000000E+00 0. -1.
        -11    1    1    2    0    0 -0.25606538173E+01  0.13358105891E+01  0.12264713342E+03  0.12268113414E+03  0.00000000000E+00 0. -1.
         11    1    1    2    0    0 -0.28838533314E+01  0.16828473254E+01 -0.17876159080E+03  0.17879277091E+03  0.00000000000E+00 0. -1.
        -15    1    1    2    0    0  0.56896023151E+01 -0.83737602254E+01  0.38789051650E+01  0.10986130761E+02  0.17770000000E+01 0.  1.
         15    1    1    2    0    0 -0.24509516640E+00  0.53551023109E+01  0.52235552213E+02  0.52539964184E+02  0.17770000000E+01 0. -1.
</event>
<event>
 6    1  0.1059789E-002  0.1711381E+03  0.7546771E-02  0.1077877E+00
        -11   -1    0    0    0    0  0.00000000000E+00  0.00000000000E+00  0.18250000000E+03  0.18250000000E+03  0.00000000000E+00 0.  1.
         11   -1    0    0    0    0 -0.00000000000E+00 -0.00000000000E+00 -0.18250000000E+03  0.18250000000E+03  0.00000000000E+00 0. -1.
        -11    1    1    2    0    0 -0.13214922152E+01  0.44890371046E+01  0.16871437730E+03  0.16877926088E+03  0.00000000000E+00 0.  1.
         11    1    1    2    0    0 -0.65566481294E+01 -0.14062556924E+01 -0.17350536530E+03  0.17363490138E+03  0.00000000000E+00 0. -1.
        -15    1    1    2    0    0  0.12127005277E+02 -0.30321756195E+01  0.96495249416E+01  0.15891173858E+02  0.17770000000E+01 0. -1.
         15    1    1    2    0    0 -0.42488649324E+01 -0.50605792619E-01 -0.48585369416E+01  0.66946638731E+01  0.17770000000E+01 0.  1.
</event>
<event>
 6    1  0.1059789E-002  0.1848615E+03  0.7546771E-02  0.1066590E+00
        -11   -1    0    0    0    0  0.00000000000E+00  0.00000000000E+00  0.18250000000E+03  0.18250000000E+03  0.00000000000E+00 0.  1.
         11   -1    0    0    0    0 -0.00000000000E+00 -0.00000000000E+00 -0.18250000000E+03  0.18250000000E+03  0.00000000000E+00 0. -1.
        -11    1    1    2    0    0  0.81150829044E+01 -0.14707099307E+01  0.78388277308E+02  0.78820933625E+02  0.00000000000E+00 0.  1.
         11    1    1    2    0    0  0.30367042821E+01  0.15496602601E+02 -0.17944498188E+03  0.18013846837E+03  0.00000000000E+00 0. -1.
        -15    1    1    2    0    0 -0.12036943959E+02 -0.31125820951E+01  0.88072132704E+02  0.88963107383E+02  0.17770000000E+01 0. -1.
         15    1    1    2    0    0  0.88515677246E+00 -0.10913310575E+02  0.12984571870E+02  0.17077490620E+02  0.17770000000E+01 0.  1.
</event>
<event>
 6    1  0.1059789E-002  0.1830381E+03  0.7546771E-02  0.1068027E+00
        -11   -1    0    0    0    0  0.00000000000E+00  0.00000000000E+00  0.18250000000E+03  0.18250000000E+03  0.00000000000E+00 0.  1.
         11   -1    0    0    0    0 -0.00000000000E+00 -0.00000000000E+00 -0.18250000000E+03  0.18250000000E+03  0.00000000000E+00 0.  1.
        -11    1    1    2    0    0  0.71933195131E+01  0.39139901822E+01  0.11041838723E+03  0.11072164831E+03  0.00000000000E+00 0.  1.
         11    1    1    2    0    0  0.17304207439E+01 -0.19924250076E+01 -0.18194279785E+03  0.18196193504E+03  0.00000000000E+00 0.  1.
        -15    1    1    2    0    0 -0.72448193354E+01 -0.13753920170E+01  0.62221773620E+02  0.62682421394E+02  0.17770000000E+01 0.  1.
         15    1    1    2    0    0 -0.16789209217E+01 -0.54617315755E+00  0.93026369958E+01  0.96339952593E+01  0.17770000000E+01 0. -1.
</event>
<event>
 6    1  0.1059789E-002  0.1835058E+03  0.7546771E-02  0.1067657E+00
        -11   -1    0    0    0    0  0.00000000000E+00  0.00000000000E+00  0.18250000000E+03  0.18250000000E+03  0.00000000000E+00 0. -1.
         11   -1    0    0    0    0 -0.00000000000E+00 -0.00000000000E+00 -0.18250000000E+03  0.18250000000E+03  0.00000000000E+00 0.  1.
        -11    1    1    2    0    0  0.62533469759E+00  0.24061227095E+01  0.16110735916E+03  0.16112653923E+03  0.00000000000E+00 0. -1.
         11    1    1    2    0    0  0.18707517696E+01 -0.34789754598E+01 -0.18145118561E+03  0.18149417551E+03  0.00000000000E+00 0.  1.
        -15    1    1    2    0    0 -0.16430525333E+01  0.28744313644E+01  0.29381498468E+01  0.47699508193E+01  0.17770000000E+01 0.  1.
         15    1    1    2    0    0 -0.85303393394E+00 -0.18015786141E+01  0.17405676610E+02  0.17609334446E+02  0.17770000000E+01 0.  1.
</event>
<event>
 6    1  0.1059789E-002  0.1881937E+03  0.7546771E-02  0.1064011E+00
        -11   -1    0    0    0    0  0.00000000000E+00  0.00000000000E+00  0.18250000000E+03  0.18250000000E+03  0.00000000000E+00 0. -1.
         11   -1    0    0    0    0 -0.00000000000E+00 -0.00000000000E+00 -0.18250000000E+03  0.18250000000E+03  0.00000000000E+00 0. -1.
        -11    1    1    2    0    0 -0.74056971394E+00  0.24343981654E+01  0.17130489749E+03  0.17132379474E+03  0.00000000000E+00 0. -1.
         11    1    1    2    0    0  0.24411316868E+01 -0.38600998843E+01 -0.17674732174E+03  0.17680632126E+03  0.00000000000E+00 0. -1.
        -15    1    1    2    0    0 -0.61874676910E+01 -0.35305635457E+01  0.65800891566E+01  0.98592564469E+01  0.17770000000E+01 0. -1.
         15    1    1    2    0    0  0.44869057181E+01  0.49562652646E+01 -0.11376649059E+01  0.70106275564E+01  0.17770000000E+01 0.  1.
</event>
<event>
 6    1  0.1059789E-002  0.1836929E+03  0.7546771E-02  0.1067509E+00
        -11   -1    0    0    0    0  0.00000000000E+00  0.00000000000E+00  0.18250000000E+03  0.18250000000E+03  0.00000000000E+00 0.  1.
         11   -1    0    0    0    0 -0.00000000000E+00 -0.00000000000E+00 -0.18250000000E+03  0.18250000000E+03  0.00000000000E+00 0. -1.
        -11    1    1    2    0    0  0.51557966680E+01 -0.84686903079E+01  0.18103582027E+03  0.18130711287E+03  0.00000000000E+00 0.  1.
         11    1    1    2    0    0  0.10010700206E+01 -0.70959617077E+01 -0.77780834684E+02  0.78110262181E+02  0.00000000000E+00 0. -1.
        -15    1    1    2    0    0 -0.18351274808E+01  0.13595686186E+02 -0.44292826205E+02  0.46402829202E+02  0.17770000000E+01 0. -1.
         15    1    1    2    0    0 -0.43217392078E+01  0.19689658297E+01 -0.58962159385E+02  0.59179795746E+02  0.17770000000E+01 0.  1.
</event>
<event>
 6    1  0.1059789E-002  0.1707496E+03  0.7546771E-02  0.1078213E+00
        -11   -1    0    0    0    0  0.00000000000E+00  0.00000000000E+00  0.18250000000E+03  0.18250000000E+03  0.00000000000E+00 0. -1.
         11   -1    0    0    0    0 -0.00000000000E+00 -0.00000000000E+00 -0.18250000000E+03  0.18250000000E+03  0.00000000000E+00 0. -1.
        -11    1    1    2    0    0  0.21752805518E+01  0.69429925692E+01  0.17301457305E+03  0.17316748968E+03  0.00000000000E+00 0. -1.
         11    1    1    2    0    0 -0.14490542938E+02  0.34063522715E+01 -0.16808812619E+03  0.16874595473E+03  0.00000000000E+00 0. -1.
        -15    1    1    2    0    0  0.16819026513E+01 -0.91398790706E+01 -0.73374836076E+01  0.11973411404E+02  0.17770000000E+01 0.  1.
         15    1    1    2    0    0  0.10633359735E+02 -0.12094657700E+01  0.24110367437E+01  0.11113144194E+02  0.17770000000E+01 0. -1.
</event>
<event>
 6    1  0.1059789E-002  0.1848265E+03  0.7546771E-02  0.1066618E+00
        -11   -1    0    0    0    0  0.00000000000E+00  0.00000000000E+00  0.18250000000E+03  0.18250000000E+03  0.00000000000E+00 0. -1.
         11   -1    0    0    0    0 -0.00000000000E+00 -0.00000000000E+00 -0.18250000000E+03  0.18250000000E+03  0.00000000000E+00 0. -1.
        -11    1    1    2    0    0  0.30334087375E+01 -0.59362923025E+01  0.16529344346E+03  0.16542781987E+03  0.00000000000E+00 0. -1.
         11    1    1    2    0    0  0.37236714240E+01  0.18454644757E+01 -0.18012559756E+03  0.18017353403E+03  0.00000000000E+00 0. -1.
        -15    1    1    2    0    0 -0.68680226122E+01  0.55662313998E+01  0.14482144880E+02  0.17059979950E+02  0.17770000000E+01 0. -1.
         15    1    1    2    0    0  0.11094245073E+00 -0.14754035730E+01  0.35000921402E+00  0.23386661541E+01  0.17770000000E+01 0.  1.
</event>
<event>
 6    1  0.1059789E-002  0.1829942E+03  0.7546771E-02  0.1068062E+00
        -11   -1    0    0    0    0  0.00000000000E+00  0.00000000000E+00  0.18250000000E+03  0.18250000000E+03  0.00000000000E+00 0.  1.
         11   -1    0    0    0    0 -0.00000000000E+00 -0.00000000000E+00 -0.18250000000E+03  0.18250000000E+03  0.00000000000E+00 0.  1.
        -11    1    1    2    0    0  0.83277337196E+00 -0.72970899856E+00  0.41773074068E+02  0.41787745857E+02  0.00000000000E+00 0.  1.
         11    1    1    2    0    0  0.63046336686E+00  0.69865138240E+01 -0.18187054916E+03  0.18200578428E+03  0.00000000000E+00 0.  1.
        -15    1    1    2    0    0  0.45697951245E-01  0.52753399387E+01  0.33198653203E+02  0.33662139018E+02  0.17770000000E+01 0. -1.
         15    1    1    2    0    0 -0.15089346901E+01 -0.11532144764E+02  0.10689882189E+03  0.10754433085E+03  0.17770000000E+01 0.  1.
</event>
<event>
 6    1  0.1059789E-002  0.1843387E+03  0.7546771E-02  0.1067001E+00
        -11   -1    0    0    0    0  0.00000000000E+00  0.00000000000E+00  0.18250000000E+03  0.18250000000E+03  0.00000000000E+00 0. -1.
         11   -1    0    0    0    0 -0.00000000000E+00 -0.00000000000E+00 -0.18250000000E+03  0.18250000000E+03  0.00000000000E+00 0.  1.
        -11    1    1    2    0    0 -0.59542782112E+01 -0.39671227921E+01  0.18051960566E+03  0.18066133930E+03  0.00000000000E+00 0. -1.
         11    1    1    2    0    0 -0.20853520996E+01 -0.73378684965E+00 -0.76507218099E+02  0.76539150490E+02  0.00000000000E+00 0.  1.
        -15    1    1    2    0    0  0.89852296695E+01 -0.66316261776E+01 -0.19778433457E+02  0.22782821972E+02  0.17770000000E+01 0. -1.
         15    1    1    2    0    0 -0.94559935872E+00  0.11332535819E+02 -0.84233954100E+02  0.85016688236E+02  0.17770000000E+01 0.  1.
</event>
<event>
 6    1  0.1059789E-002  0.1833208E+03  0.7546771E-02  0.1067803E+00
        -11   -1    0    0    0    0  0.00000000000E+00  0.00000000000E+00  0.18250000000E+03  0.18250000000E+03  0.00000000000E+00 0.  1.
         11   -1    0    0    0    0 -0.00000000000E+00 -0.00000000000E+00 -0.18250000000E+03  0.18250000000E+03  0.00000000000E+00 0.  1.
        -11    1    1    2    0    0  0.61314650890E+01 -0.11115122130E+01  0.18157228853E+03  0.18167918506E+03  0.00000000000E+00 0.  1.
         11    1    1    2    0    0  0.17689292000E+01  0.28476009571E+01 -0.12246167152E+03  0.12250754643E+03  0.00000000000E+00 0.  1.
        -15    1    1    2    0    0 -0.29242778861E+01  0.62103518536E+00 -0.49308248731E+02  0.49430741525E+02  0.17770000000E+01 0.  1.
         15    1    1    2    0    0 -0.49761164030E+01 -0.23571239295E+01 -0.98023682773E+01  0.11382526983E+02  0.17770000000E+01 0. -1.
</event>
<event>
 6    1  0.1059789E-002  0.1850559E+03  0.7546771E-02  0.1066438E+00
        -11   -1    0    0    0    0  0.00000000000E+00  0.00000000000E+00  0.18250000000E+03  0.18250000000E+03  0.00000000000E+00 0. -1.
         11   -1    0    0    0    0 -0.00000000000E+00 -0.00000000000E+00 -0.18250000000E+03  0.18250000000E+03  0.00000000000E+00 0.  1.
        -11    1    1    2    0    0  0.31383313668E+01 -0.66719315021E+00  0.11795270812E+03  0.11799633733E+03  0.00000000000E+00 0. -1.
         11    1    1    2    0    0  0.69141663671E+01 -0.15117967747E+01 -0.17980489748E+03  0.17994413685E+03  0.00000000000E+00 0.  1.
        -15    1    1    2    0    0 -0.67503110873E+01  0.36900013248E+01  0.36178405630E+01  0.86850048296E+01  0.17770000000E+01 0. -1.
         15    1    1    2    0    0 -0.33021866466E+01 -0.15110113998E+01  0.58234348800E+02  0.58374520994E+02  0.17770000000E+01 0.  1.
</event>
<event>
 6    1  0.1059789E-002  0.1827287E+03  0.7546771E-02  0.1068273E+00
        -11   -1    0    0    0    0  0.00000000000E+00  0.00000000000E+00  0.18250000000E+03  0.18250000000E+03  0.00000000000E+00 0. -1.
         11   -1    0    0    0    0 -0.00000000000E+00 -0.00000000000E+00 -0.18250000000E+03  0.18250000000E+03  0.00000000000E+00 0. -1.
        -11    1    1    2    0    0  0.20312824208E+01 -0.46393774711E+01  0.12990182272E+03  0.13000051337E+03  0.00000000000E+00 0. -1.
         11    1    1    2    0    0 -0.35988685605E+01  0.43525765840E+00 -0.18223528329E+03  0.18227133559E+03  0.00000000000E+00 0. -1.
        -15    1    1    2    0    0  0.93992984847E+00  0.10741710888E+01  0.31036398085E+02  0.31119978258E+02  0.17770000000E+01 0. -1.
         15    1    1    2    0    0  0.62765629126E+00  0.31299487239E+01  0.21297062483E+02  0.21608172779E+02  0.17770000000E+01 0.  1.
</event>
<event>
 6    1  0.1059789E-002  0.1876618E+03  0.7546771E-02  0.1064419E+00
        -11   -1    0    0    0    0  0.00000000000E+00  0.00000000000E+00  0.18250000000E+03  0.18250000000E+03  0.00000000000E+00 0. -1.
         11   -1    0    0    0    0 -0.00000000000E+00 -0.00000000000E+00 -0.18250000000E+03  0.18250000000E+03  0.00000000000E+00 0. -1.
        -11    1    1    2    0    0 -0.25308232463E+01  0.93982993610E+01  0.17707085809E+03  0.17733815687E+03  0.00000000000E+00 0. -1.
         11    1    1    2    0    0 -0.69967104237E+01 -0.14692426854E+01 -0.16249226720E+03  0.16264946828E+03  0.00000000000E+00 0. -1.
        -15    1    1    2    0    0  0.51520394562E+01 -0.10447606821E+02 -0.15613501081E+02  0.19561061930E+02  0.17770000000E+01 0. -1.
         15    1    1    2    0    0  0.43754942138E+01  0.25185501450E+01  0.10349101867E+01  0.54513129191E+01  0.17770000000E+01 0.  1.
</event>
<event>
 6    1  0.1059789E-002  0.1888243E+03  0.7546771E-02  0.1063529E+00
        -11   -1    0    0    0    0  0.00000000000E+00  0.00000000000E+00  0.18250000000E+03  0.18250000000E+03  0.00000000000E+00 0. -1.
         11   -1    0    0    0    0 -0.00000000000E+00 -0.00000000000E+00 -0.18250000000E+03  0.18250000000E+03  0.00000000000E+00 0.  1.
        -11    1    1    2    0    0  0.71879498977E+01 -0.68013895242E+01  0.17589752334E+03  0.17617566302E+03  0.00000000000E+00 0. -1.
         11    1    1    2    0    0 -0.52676431216E+01  0.63857152888E+01 -0.16054266278E+03  0.16075593923E+03  0.00000000000E+00 0.  1.
        -15    1    1    2    0    0  0.64957764201E+01  0.25331906418E+01 -0.17527980516E+02  0.18947295219E+02  0.17770000000E+01 0. -1.
         15    1    1    2    0    0 -0.84160831961E+01 -0.21175164064E+01  0.21731199564E+01  0.91211025342E+01  0.17770000000E+01 0.  1.
</event>
<event>
 6    1  0.1059789E-002  0.1829353E+03  0.7546771E-02  0.1068109E+00
        -11   -1    0    0    0    0  0.00000000000E+00  0.00000000000E+00  0.18250000000E+03  0.18250000000E+03  0.00000000000E+00 0.  1.
         11   -1    0    0    0    0 -0.00000000000E+00 -0.00000000000E+00 -0.18250000000E+03  0.18250000000E+03  0.00000000000E+00 0. -1.
        -11    1    1    2    0    0  0.14339139509E+01 -0.71770508271E+00  0.10023255480E+03  0.10024538020E+03  0.00000000000E+00 0.  1.
         11    1    1    2    0    0  0.15469557674E+01 -0.60077834851E+01 -0.18195901881E+03  0.18206474415E+03  0.00000000000E+00 0. -1.
        -15    1    1    2    0    0 -0.10819543532E+00  0.16832820356E+01  0.62057652509E+02  0.62105998974E+02  0.17770000000E+01 0. -1.
         15    1    1    2    0    0 -0.28726742830E+01  0.50422065322E+01  0.19668811506E+02  0.20583876683E+02  0.17770000000E+01 0.  1.
</event>
<event>
 6    1  0.1059789E-002  0.1830664E+03  0.7546771E-02  0.1068005E+00
        -11   -1    0    0    0    0  0.00000000000E+00  0.00000000000E+00  0.18250000000E+03  0.18250000000E+03  0.00000000000E+00 0. -1.
         11   -1    0    0    0    0 -0.00000000000E+00 -0.00000000000E+00 -0.18250000000E+03  0.18250000000E+03  0.00000000000E+00 0.  1.
        -11    1    1    2    0    0  0.71083910930E+01 -0.88521877368E+00  0.18179247838E+03  0.18193355390E+03  0.00000000000E+00 0. -1.
         11    1    1    2    0    0 -0.13043663135E+01 -0.16548818983E+01 -0.13697464799E+03  0.13699085443E+03  0.00000000000E+00 0.  1.
        -15    1    1    2    0    0 -0.16467628323E+01  0.50300681994E+00 -0.26823922796E+01  0.36493562485E+01  0.17770000000E+01 0. -1.
         15    1    1    2    0    0 -0.41572619472E+01  0.20370938520E+01 -0.42135438114E+02  0.42426235425E+02  0.17770000000E+01 0.  1.
</event>
<event>
 6    1  0.1059789E-002  0.1866702E+03  0.7546771E-02  0.1065183E+00
        -11   -1    0    0    0    0  0.00000000000E+00  0.00000000000E+00  0.18250000000E+03  0.18250000000E+03  0.00000000000E+00 0. -1.
         11   -1    0    0    0    0 -0.00000000000E+00 -0.00000000000E+00 -0.18250000000E+03  0.18250000000E+03  0.00000000000E+00 0. -1.
        -11    1    1    2    0    0  0.26992014682E+01  0.94000325836E+00  0.17830685067E+03  0.17832975717E+03  0.00000000000E+00 0. -1.
         11    1    1    2    0    0  0.72412454383E+00 -0.33167382585E+01 -0.16604311256E+03  0.16607781411E+03  0.00000000000E+00 0. -1.
        -15    1    1    2    0    0 -0.29256549021E+01 -0.42029978370E+01 -0.12635080341E+02  0.13748732002E+02  0.17770000000E+01 0. -1.
         15    1    1    2    0    0 -0.49767110986E+00  0.65797328372E+01  0.37134223114E+00  0.68436967199E+01  0.17770000000E+01 0.  1.
</event>
<event>
 6    1  0.1059789E-002  0.1826109E+03  0.7546771E-02  0.1068367E+00
        -11   -1    0    0    0    0  0.00000000000E+00  0.00000000000E+00  0.18250000000E+03  0.18250000000E+03  0.00000000000E+00 0.  1.
         11   -1    0    0    0    0 -0.00000000000E+00 -0.00000000000E+00 -0.18250000000E+03  0.18250000000E+03  0.00000000000E+00 0.  1.
        -11    1    1    2    0    0  0.86045887546E+01  0.11334533134E+01  0.18218253525E+03  0.18238914390E+03  0.00000000000E+00 0.  1.
         11    1    1    2    0    0  0.96259002593E+00  0.42260247254E+00 -0.20561888108E+02  0.20588744862E+02  0.00000000000E+00 0.  1.
        -15    1    1    2    0    0 -0.23019746317E+01 -0.23764839781E+01 -0.65385808096E+02  0.65493575202E+02  0.17770000000E+01 0. -1.
         15    1    1    2    0    0 -0.72652041488E+01  0.82042819206E+00 -0.96234839045E+02  0.96528536033E+02  0.17770000000E+01 0.  1.
</event>
<event>
 6    1  0.1059789E-002  0.1892691E+03  0.7546771E-02  0.1063191E+00
        -11   -1    0    0    0    0  0.00000000000E+00  0.00000000000E+00  0.18250000000E+03  0.18250000000E+03  0.00000000000E+00 0.  1.
         11   -1    0    0    0    0 -0.00000000000E+00 -0.00000000000E+00 -0.18250000000E+03  0.18250000000E+03  0.00000000000E+00 0.  1.
        -11    1    1    2    0    0  0.52986773883E+01  0.43557677413E+01  0.14991061990E+03  0.15006746034E+03  0.00000000000E+00 0.  1.
         11    1    1    2    0    0 -0.28010547651E+01  0.21668563598E+02 -0.17436734386E+03  0.17573088278E+03  0.00000000000E+00 0.  1.
        -15    1    1    2    0    0 -0.32293966143E+01 -0.22099613048E+02  0.10817886698E+02  0.24879837237E+02  0.17770000000E+01 0. -1.
         15    1    1    2    0    0  0.73177399121E+00 -0.39247182922E+01  0.13638837264E+02  0.14321819639E+02  0.17770000000E+01 0.  1.
</event>
<event>
 6    1  0.1059789E-002  0.1857446E+03  0.7546771E-02  0.1065901E+00
        -11   -1    0    0    0    0  0.00000000000E+00  0.00000000000E+00  0.18250000000E+03  0.18250000000E+03  0.00000000000E+00 0.  1.
         11   -1    0    0    0    0 -0.00000000000E+00 -0.00000000000E+00 -0.18250000000E+03  0.18250000000E+03  0.00000000000E+00 0. -1.
        -11    1    1    2    0    0  0.51219751621E+01  0.53006082212E+00  0.17918139604E+03  0.17925537169E+03  0.00000000000E+00 0.  1.
         11    1    1    2    0    0 -0.76424233895E+01  0.88823796869E+00 -0.14848716194E+03  0.14868635735E+03  0.00000000000E+00 0. -1.
        -15    1    1    2    0    0  0.58308293074E+01 -0.69393519123E+01 -0.28607557665E+02  0.30061657637E+02  0.17770000000E+01 0.  1.
         15    1    1    2    0    0 -0.33103810800E+01  0.55210531215E+01 -0.20866764349E+01  0.69966133242E+01  0.17770000000E+01 0. -1.
</event>
<event>
 6    1  0.1059789E-002  0.1748046E+03  0.7546771E-02  0.1074751E+00
        -11   -1    0    0    0    0  0.00000000000E+00  0.00000000000E+00  0.18250000000E+03  0.18250000000E+03  0.00000000000E+00 0. -1.
         11   -1    0    0    0    0 -0.00000000000E+00 -0.00000000000E+00 -0.18250000000E+03  0.18250000000E+03  0.00000000000E+00 0. -1.
        -11    1    1    2    0    0  0.15327035556E+01 -0.20915593563E+01  0.17473363032E+03  0.17475286941E+03  0.00000000000E+00 0. -1.
         11    1    1    2    0    0 -0.41331857811E+01 -0.43241226281E+01 -0.17482260388E+03  0.17492490985E+03  0.00000000000E+00 0. -1.
        -15    1    1    2    0    0  0.30926325294E+01  0.41668427341E+01 -0.62695740076E+01  0.83302005720E+01  0.17770000000E+01 0. -1.
         15    1    1    2    0    0 -0.49215030392E+00  0.22488392503E+01  0.63585475643E+01  0.69920201675E+01  0.17770000000E+01 0. -1.
</event>
<event>
 6    1  0.1059789E-002  0.1827127E+03  0.7546771E-02  0.1068286E+00
        -11   -1    0    0    0    0  0.00000000000E+00  0.00000000000E+00  0.18250000000E+03  0.18250000000E+03  0.00000000000E+00 0.  1.
         11   -1    0    0    0    0 -0.00000000000E+00 -0.00000000000E+00 -0.18250000000E+03  0.18250000000E+03  0.00000000000E+00 0. -1.
        -11    1    1    2    0    0  0.10311039168E+01 -0.64386751851E+00  0.58725046687E+02  0.58737627199E+02  0.00000000000E+00 0.  1.
         11    1    1    2    0    0  0.42399534172E+01  0.83292377900E+00 -0.18223603227E+03  0.18228725250E+03  0.00000000000E+00 0. -1.
        -15    1    1    2    0    0 -0.44475081498E+01 -0.51101694662E+00  0.11831403473E+03  0.11841203491E+03  0.17770000000E+01 0.  1.
         15    1    1    2    0    0 -0.82354918416E+00  0.32196068612E+00  0.51969508499E+01  0.55630853920E+01  0.17770000000E+01 0. -1.
</event>
<event>
 6    1  0.1059789E-002  0.1840312E+03  0.7546771E-02  0.1067242E+00
        -11   -1    0    0    0    0  0.00000000000E+00  0.00000000000E+00  0.18250000000E+03  0.18250000000E+03  0.00000000000E+00 0. -1.
         11   -1    0    0    0    0 -0.00000000000E+00 -0.00000000000E+00 -0.18250000000E+03  0.18250000000E+03  0.00000000000E+00 0.  1.
        -11    1    1    2    0    0 -0.20153290933E+01  0.17430287905E+01  0.14320064935E+03  0.14322543655E+03  0.00000000000E+00 0. -1.
         11    1    1    2    0    0  0.85728999881E+00  0.60882336230E+01 -0.18086432591E+03  0.18096879820E+03  0.00000000000E+00 0.  1.
        -15    1    1    2    0    0  0.73301512364E-01 -0.56910857317E+01  0.44046689797E+01  0.74130066598E+01  0.17770000000E+01 0.  1.
         15    1    1    2    0    0  0.10847375821E+01 -0.21401766819E+01  0.33259007583E+02  0.33392758590E+02  0.17770000000E+01 0. -1.
</event>
<event>
 6    1  0.1059789E-002  0.1893636E+03  0.7546771E-02  0.1063119E+00
        -11   -1    0    0    0    0  0.00000000000E+00  0.00000000000E+00  0.18250000000E+03  0.18250000000E+03  0.00000000000E+00 0. -1.
         11   -1    0    0    0    0 -0.00000000000E+00 -0.00000000000E+00 -0.18250000000E+03  0.18250000000E+03  0.00000000000E+00 0.  1.
        -11    1    1    2    0    0  0.33828016220E+01 -0.71977571020E+01  0.17545621943E+03  0.17563637433E+03  0.00000000000E+00 0. -1.
         11    1    1    2    0    0  0.63925624512E+01  0.35828960102E+01 -0.15985473083E+03  0.16002261392E+03  0.00000000000E+00 0.  1.
        -15    1    1    2    0    0 -0.40083273083E+01  0.90394859565E+01  0.17387906745E+01  0.10196083374E+02  0.17770000000E+01 0.  1.
         15    1    1    2    0    0 -0.57670367650E+01 -0.54246248647E+01 -0.17340279275E+02  0.19144928370E+02  0.17770000000E+01 0. -1.
</event>
<event>
 6    1  0.1059789E-002  0.2092819E+03  0.7546771E-02  0.1048934E+00
        -11   -1    0    0    0    0  0.00000000000E+00  0.00000000000E+00  0.18250000000E+03  0.18250000000E+03  0.00000000000E+00 0.  1.
         11   -1    0    0    0    0 -0.00000000000E+00 -0.00000000000E+00 -0.18250000000E+03  0.18250000000E+03  0.00000000000E+00 0. -1.
        -11    1    1    2    0    0  0.44472996519E+01 -0.10404231987E+02  0.12350961527E+03  0.12402681800E+03  0.00000000000E+00 0.  1.
         11    1    1    2    0    0  0.27574023640E+02  0.22608431609E+02 -0.15158049435E+03  0.15571806006E+03  0.00000000000E+00 0. -1.
        -15    1    1    2    0    0  0.19256078268E+02  0.12778465670E+02  0.50667731664E+01  0.23725843599E+02  0.17770000000E+01 0.  1.
         15    1    1    2    0    0 -0.51277401560E+02 -0.24982665293E+02  0.23004105913E+02  0.61529278346E+02  0.17770000000E+01 0. -1.
</event>
<event>
 6    1  0.1059789E-002  0.1888403E+03  0.7546771E-02  0.1063517E+00
        -11   -1    0    0    0    0  0.00000000000E+00  0.00000000000E+00  0.18250000000E+03  0.18250000000E+03  0.00000000000E+00 0. -1.
         11   -1    0    0    0    0 -0.00000000000E+00 -0.00000000000E+00 -0.18250000000E+03  0.18250000000E+03  0.00000000000E+00 0. -1.
        -11    1    1    2    0    0  0.23896081220E+01 -0.25175309857E+01  0.32019548366E+02  0.32207136892E+02  0.00000000000E+00 0. -1.
         11    1    1    2    0    0 -0.19206466687E+00  0.27737210631E+01 -0.17613772905E+03  0.17615967192E+03  0.00000000000E+00 0. -1.
        -15    1    1    2    0    0  0.32498825711E+01  0.10569904849E+02  0.14394800637E+03  0.14438306996E+03  0.17770000000E+01 0. -1.
         15    1    1    2    0    0 -0.54474260262E+01 -0.10826094926E+02  0.17017431842E+00  0.12250121222E+02  0.17770000000E+01 0.  1.
</event>
<event>
 6    1  0.1059789E-002  0.1879656E+03  0.7546771E-02  0.1064186E+00
        -11   -1    0    0    0    0  0.00000000000E+00  0.00000000000E+00  0.18250000000E+03  0.18250000000E+03  0.00000000000E+00 0. -1.
         11   -1    0    0    0    0 -0.00000000000E+00 -0.00000000000E+00 -0.18250000000E+03  0.18250000000E+03  0.00000000000E+00 0.  1.
        -11    1    1    2    0    0 -0.32434536165E+01 -0.38959155477E+00  0.17700426598E+03  0.17703440894E+03  0.00000000000E+00 0. -1.
         11    1    1    2    0    0 -0.10575105381E+01  0.54253271754E+01 -0.14461516361E+03  0.14472075888E+03  0.00000000000E+00 0.  1.
        -15    1    1    2    0    0 -0.38967227397E+01 -0.13542636856E+02 -0.85469448763E+01  0.16576955596E+02  0.17770000000E+01 0.  1.
         15    1    1    2    0    0  0.81976868944E+01  0.85069012349E+01 -0.23842157489E+02  0.26667876589E+02  0.17770000000E+01 0. -1.
</event>
<event>
 6    1  0.1059789E-002  0.1826355E+03  0.7546771E-02  0.1068347E+00
        -11   -1    0    0    0    0  0.00000000000E+00  0.00000000000E+00  0.18250000000E+03  0.18250000000E+03  0.00000000000E+00 0.  1.
         11   -1    0    0    0    0 -0.00000000000E+00 -0.00000000000E+00 -0.18250000000E+03  0.18250000000E+03  0.00000000000E+00 0. -1.
        -11    1    1    2    0    0 -0.12084259537E+01 -0.74788797635E+00  0.10155431029E+02  0.10254384872E+02  0.00000000000E+00 0.  1.
         11    1    1    2    0    0  0.32654164672E+01 -0.41735779413E+01 -0.18228747229E+03  0.18236448188E+03  0.00000000000E+00 0. -1.
        -15    1    1    2    0    0 -0.23371224074E+01  0.44599495327E+01  0.16149008823E+03  0.16157833895E+03  0.17770000000E+01 0.  1.
         15    1    1    2    0    0  0.28013189397E+00  0.46151638496E+00  0.10641953033E+02  0.10802794296E+02  0.17770000000E+01 0.  1.
</event>
<event>
 6    1  0.1059789E-002  0.1826362E+03  0.7546771E-02  0.1068346E+00
        -11   -1    0    0    0    0  0.00000000000E+00  0.00000000000E+00  0.18250000000E+03  0.18250000000E+03  0.00000000000E+00 0.  1.
         11   -1    0    0    0    0 -0.00000000000E+00 -0.00000000000E+00 -0.18250000000E+03  0.18250000000E+03  0.00000000000E+00 0. -1.
        -11    1    1    2    0    0  0.50907375834E+00  0.17949942806E+00  0.74330398163E+01  0.74526141083E+01  0.00000000000E+00 0.  1.
         11    1    1    2    0    0  0.38216083520E+01  0.40553681395E+01 -0.18227867738E+03  0.18236383120E+03  0.00000000000E+00 0. -1.
        -15    1    1    2    0    0 -0.28697317309E+01  0.22019493805E+01  0.68530955185E+02  0.68649351700E+02  0.17770000000E+01 0. -1.
         15    1    1    2    0    0 -0.14609503795E+01 -0.64368169481E+01  0.10631468238E+03  0.10653420299E+03  0.17770000000E+01 0.  1.
</event>
<event>
 6    1  0.1059789E-002  0.1834556E+03  0.7546771E-02  0.1067697E+00
        -11   -1    0    0    0    0  0.00000000000E+00  0.00000000000E+00  0.18250000000E+03  0.18250000000E+03  0.00000000000E+00 0. -1.
         11   -1    0    0    0    0 -0.00000000000E+00 -0.00000000000E+00 -0.18250000000E+03  0.18250000000E+03  0.00000000000E+00 0.  1.
        -11    1    1    2    0    0  0.69802395635E+00 -0.30094122597E+01  0.14798968060E+03  0.14802192190E+03  0.00000000000E+00 0. -1.
         11    1    1    2    0    0 -0.10535948027E+01  0.28413582002E+01 -0.18151906513E+03  0.18154435927E+03  0.00000000000E+00 0.  1.
        -15    1    1    2    0    0  0.11614710934E+01  0.27600632110E+01  0.31309687223E+02  0.31502717455E+02  0.17770000000E+01 0. -1.
         15    1    1    2    0    0 -0.80590024697E+00 -0.25920091515E+01  0.22196973047E+01  0.39310013704E+01  0.17770000000E+01 0.  1.
</event>
<event>
 6    1  0.1059789E-002  0.1745618E+03  0.7546771E-02  0.1074955E+00
        -11   -1    0    0    0    0  0.00000000000E+00  0.00000000000E+00  0.18250000000E+03  0.18250000000E+03  0.00000000000E+00 0.  1.
         11   -1    0    0    0    0 -0.00000000000E+00 -0.00000000000E+00 -0.18250000000E+03  0.18250000000E+03  0.00000000000E+00 0. -1.
        -11    1    1    2    0    0 -0.27972246640E+01 -0.14763012325E+01  0.17540199840E+03  0.17543051323E+03  0.00000000000E+00 0.  1.
         11    1    1    2    0    0  0.10783541585E+01 -0.57898027659E+01 -0.17367739105E+03  0.17377721607E+03  0.00000000000E+00 0. -1.
        -15    1    1    2    0    0  0.58543848485E+01  0.49645195788E+01  0.34112379003E+01  0.85857177693E+01  0.17770000000E+01 0. -1.
         15    1    1    2    0    0 -0.41355143429E+01  0.23015844196E+01 -0.51358452460E+01  0.72065529285E+01  0.17770000000E+01 0.  1.
</event>
<event>
 6    1  0.1059789E-002  0.1837320E+03  0.7546771E-02  0.1067478E+00
        -11   -1    0    0    0    0  0.00000000000E+00  0.00000000000E+00  0.18250000000E+03  0.18250000000E+03  0.00000000000E+00 0. -1.
         11   -1    0    0    0    0 -0.00000000000E+00 -0.00000000000E+00 -0.18250000000E+03  0.18250000000E+03  0.00000000000E+00 0. -1.
        -11    1    1    2    0    0 -0.70486474858E+00  0.16342296724E+00  0.25415958996E+02  0.25426256372E+02  0.00000000000E+00 0. -1.
         11    1    1    2    0    0 -0.10490637722E+01  0.26461599792E+02 -0.17932311923E+03  0.18126802777E+03  0.00000000000E+00 0. -1.
        -15    1    1    2    0    0  0.36480953804E+01 -0.15830634286E+02  0.32359720879E+02  0.36252266773E+02  0.17770000000E+01 0.  1.
         15    1    1    2    0    0 -0.18941668596E+01 -0.10794388473E+02  0.12154743936E+03  0.12205344909E+03  0.17770000000E+01 0. -1.
</event>
<event>
 6    1  0.1059789E-002  0.1881902E+03  0.7546771E-02  0.1064013E+00
        -11   -1    0    0    0    0  0.00000000000E+00  0.00000000000E+00  0.18250000000E+03  0.18250000000E+03  0.00000000000E+00 0. -1.
         11   -1    0    0    0    0 -0.00000000000E+00 -0.00000000000E+00 -0.18250000000E+03  0.18250000000E+03  0.00000000000E+00 0.  1.
        -11    1    1    2    0    0 -0.28210492629E+01  0.41064464629E+00  0.17678678462E+03  0.17680976829E+03  0.00000000000E+00 0. -1.
         11    1    1    2    0    0 -0.58892320394E+01  0.57312975122E+01 -0.16348994493E+03  0.16369634363E+03  0.00000000000E+00 0.  1.
        -15    1    1    2    0    0  0.34195655892E+01 -0.45677381405E+01 -0.16722776968E+02  0.17758565794E+02  0.17770000000E+01 0.  1.
         15    1    1    2    0    0  0.52907157132E+01 -0.15742040180E+01  0.34259372796E+01  0.67353222856E+01  0.17770000000E+01 0. -1.
</event>
<event>
 6    1  0.1059789E-002  0.1687076E+03  0.7546771E-02  0.1079996E+00
        -11   -1    0    0    0    0  0.00000000000E+00  0.00000000000E+00  0.18250000000E+03  0.18250000000E+03  0.00000000000E+00 0. -1.
         11   -1    0    0    0    0 -0.00000000000E+00 -0.00000000000E+00 -0.18250000000E+03  0.18250000000E+03  0.00000000000E+00 0. -1.
        -11    1    1    2    0    0 -0.12347651252E+01 -0.31905560088E+01  0.17048150396E+03  0.17051582767E+03  0.00000000000E+00 0. -1.
         11    1    1    2    0    0 -0.31436312055E+01 -0.47283156810E+01 -0.16694263553E+03  0.16703916590E+03  0.00000000000E+00 0. -1.
        -15    1    1    2    0    0  0.27900616586E+01  0.21723075722E+01  0.10968174650E+02  0.11660272227E+02  0.17770000000E+01 0. -1.
         15    1    1    2    0    0  0.15883346720E+01  0.57465641176E+01 -0.14507043079E+02  0.15784734210E+02  0.17770000000E+01 0. -1.
</event>
<event>
 6    1  0.1059789E-002  0.1857384E+03  0.7546771E-02  0.1065906E+00
        -11   -1    0    0    0    0  0.00000000000E+00  0.00000000000E+00  0.18250000000E+03  0.18250000000E+03  0.00000000000E+00 0.  1.
         11   -1    0    0    0    0 -0.00000000000E+00 -0.00000000000E+00 -0.18250000000E+03  0.18250000000E+03  0.00000000000E+00 0. -1.
        -11    1    1    2    0    0 -0.39393701017E+01  0.37690728240E+01  0.17917864696E+03  0.17926157445E+03  0.00000000000E+00 0.  1.
         11    1    1    2    0    0 -0.78416644245E+00 -0.38862078864E+01 -0.16469977828E+03  0.16474748707E+03  0.00000000000E+00 0. -1.
        -15    1    1    2    0    0  0.16940693609E+01 -0.69141571971E+01 -0.68531062159E+01  0.10039832397E+02  0.17770000000E+01 0. -1.
         15    1    1    2    0    0  0.30294671832E+01  0.70312922595E+01 -0.76257624645E+01  0.10951106082E+02  0.17770000000E+01 0.  1.
</event>
<event>
 6    1  0.1059789E-002  0.1847967E+03  0.7546771E-02  0.1066641E+00
        -11   -1    0    0    0    0  0.00000000000E+00  0.00000000000E+00  0.18250000000E+03  0.18250000000E+03  0.00000000000E+00 0. -1.
         11   -1    0    0    0    0 -0.00000000000E+00 -0.00000000000E+00 -0.18250000000E+03  0.18250000000E+03  0.00000000000E+00 0.  1.
        -11    1    1    2    0    0  0.59215996220E+00 -0.16348828904E+01  0.11484576329E+03  0.11485892582E+03  0.00000000000E+00 0. -1.
         11    1    1    2    0    0  0.21481326060E+02  0.40547588985E+01 -0.17887244635E+03  0.18020333100E+03  0.00000000000E+00 0.  1.
        -15    1    1    2    0    0 -0.66977332942E+01 -0.64705988311E+01  0.10861305821E+02  0.14417141660E+02  0.17770000000E+01 0.  1.
         15    1    1    2    0    0 -0.15375752728E+02  0.40507228230E+01  0.53165377237E+02  0.55520601519E+02  0.17770000000E+01 0. -1.
</event>
<event>
 6    1  0.1059789E-002  0.1827388E+03  0.7546771E-02  0.1068265E+00
        -11   -1    0    0    0    0  0.00000000000E+00  0.00000000000E+00  0.18250000000E+03  0.18250000000E+03  0.00000000000E+00 0.  1.
         11   -1    0    0    0    0 -0.00000000000E+00 -0.00000000000E+00 -0.18250000000E+03  0.18250000000E+03  0.00000000000E+00 0.  1.
        -11    1    1    2    0    0 -0.37902391277E+01 -0.14206094172E+00  0.18222174145E+03  0.18226121131E+03  0.00000000000E+00 0.  1.
         11    1    1    2    0    0 -0.43691389768E+00  0.40639843915E+01 -0.10328220757E+03  0.10336305560E+03  0.00000000000E+00 0.  1.
        -15    1    1    2    0    0  0.69340472721E+00 -0.37380046533E+01 -0.32976518077E+02  0.33242472266E+02  0.17770000000E+01 0.  1.
         15    1    1    2    0    0  0.35337482982E+01 -0.18391879645E+00 -0.45963015801E+02  0.46133260818E+02  0.17770000000E+01 0. -1.
</event>
<event>
 6    1  0.1059789E-002  0.1838707E+03  0.7546771E-02  0.1067369E+00
        -11   -1    0    0    0    0  0.00000000000E+00  0.00000000000E+00  0.18250000000E+03  0.18250000000E+03  0.00000000000E+00 0.  1.
         11   -1    0    0    0    0 -0.00000000000E+00 -0.00000000000E+00 -0.18250000000E+03  0.18250000000E+03  0.00000000000E+00 0.  1.
        -11    1    1    2    0    0  0.26559633940E+01  0.76327405194E+00  0.18110820974E+03  0.18112929184E+03  0.00000000000E+00 0.  1.
         11    1    1    2    0    0 -0.10367282016E+01 -0.23469524161E+01 -0.17440147583E+03  0.17442034790E+03  0.00000000000E+00 0.  1.
        -15    1    1    2    0    0 -0.30556675704E+01  0.15603403032E-01 -0.22117759984E+01  0.41697757535E+01  0.17770000000E+01 0. -1.
         15    1    1    2    0    0  0.14364323780E+01  0.15680749611E+01 -0.44949579132E+01  0.52805845038E+01  0.17770000000E+01 0.  1.
</event>
<event>
 6    1  0.1059789E-002  0.1832139E+03  0.7546771E-02  0.1067888E+00
        -11   -1    0    0    0    0  0.00000000000E+00  0.00000000000E+00  0.18250000000E+03  0.18250000000E+03  0.00000000000E+00 0.  1.
         11   -1    0    0    0    0 -0.00000000000E+00 -0.00000000000E+00 -0.18250000000E+03  0.18250000000E+03  0.00000000000E+00 0.  1.
        -11    1    1    2    0    0 -0.14473548797E+01 -0.44862460372E+01  0.18172495200E+03  0.18178608148E+03  0.00000000000E+00 0.  1.
         11    1    1    2    0    0  0.60651513834E+00 -0.32108905314E+01 -0.13154357606E+03  0.13158415589E+03  0.00000000000E+00 0.  1.
        -15    1    1    2    0    0  0.14042832153E+00  0.45323189784E+01 -0.85911598989E+01  0.98755958222E+01  0.17770000000E+01 0. -1.
         15    1    1    2    0    0  0.70041141986E+00  0.31648175902E+01 -0.41590216045E+02  0.41754166813E+02  0.17770000000E+01 0.  1.
</event>
<event>
 6    1  0.1059789E-002  0.1829127E+03  0.7546771E-02  0.1068127E+00
        -11   -1    0    0    0    0  0.00000000000E+00  0.00000000000E+00  0.18250000000E+03  0.18250000000E+03  0.00000000000E+00 0.  1.
         11   -1    0    0    0    0 -0.00000000000E+00 -0.00000000000E+00 -0.18250000000E+03  0.18250000000E+03  0.00000000000E+00 0. -1.
        -11    1    1    2    0    0 -0.86839595748E+00 -0.97208582746E+00  0.95337849220E+02  0.95346759548E+02  0.00000000000E+00 0.  1.
         11    1    1    2    0    0 -0.23151488922E+01 -0.20358839463E+01 -0.18206121379E+03  0.18208731505E+03  0.00000000000E+00 0. -1.
        -15    1    1    2    0    0  0.21220186501E+01  0.39520329569E+01  0.83394221273E+02  0.83533678228E+02  0.17770000000E+01 0.  1.
         15    1    1    2    0    0  0.10615261996E+01 -0.94406318312E+00  0.33291432945E+01  0.40322471702E+01  0.17770000000E+01 0. -1.
</event>
<event>
 6    1  0.1059789E-002  0.1844451E+03  0.7546771E-02  0.1066917E+00
        -11   -1    0    0    0    0  0.00000000000E+00  0.00000000000E+00  0.18250000000E+03  0.18250000000E+03  0.00000000000E+00 0.  1.
         11   -1    0    0    0    0 -0.00000000000E+00 -0.00000000000E+00 -0.18250000000E+03  0.18250000000E+03  0.00000000000E+00 0.  1.
        -11    1    1    2    0    0 -0.17796402904E+01  0.20390815806E+01  0.15916651656E+03  0.15918952530E+03  0.00000000000E+00 0.  1.
         11    1    1    2    0    0  0.25557517300E+01  0.51032316276E+00 -0.18053606108E+03  0.18055487156E+03  0.00000000000E+00 0.  1.
        -15    1    1    2    0    0 -0.17917145976E+01 -0.20772395897E+01 -0.48157528867E+00  0.33037568420E+01  0.17770000000E+01 0. -1.
         15    1    1    2    0    0  0.10156031579E+01 -0.47216515366E+00  0.21851119807E+02  0.21951846289E+02  0.17770000000E+01 0.  1.
</event>
<event>
 6    1  0.1059789E-002  0.1894677E+03  0.7546771E-02  0.1063040E+00
        -11   -1    0    0    0    0  0.00000000000E+00  0.00000000000E+00  0.18250000000E+03  0.18250000000E+03  0.00000000000E+00 0.  1.
         11   -1    0    0    0    0 -0.00000000000E+00 -0.00000000000E+00 -0.18250000000E+03  0.18250000000E+03  0.00000000000E+00 0. -1.
        -11    1    1    2    0    0 -0.16393936947E+01 -0.38880994565E+01  0.15444337052E+03  0.15450100202E+03  0.00000000000E+00 0.  1.
         11    1    1    2    0    0 -0.31665557842E+01  0.35203760994E+01 -0.17546843469E+03  0.17553230955E+03  0.00000000000E+00 0. -1.
        -15    1    1    2    0    0  0.32420685581E+01 -0.20815080658E+01 -0.62091446350E+01  0.75202985620E+01  0.17770000000E+01 0. -1.
         15    1    1    2    0    0  0.15638809209E+01  0.24492314229E+01  0.27234208809E+02  0.27446389864E+02  0.17770000000E+01 0.  1.
</event>
<event>
 6    1  0.1059789E-002  0.1842705E+03  0.7546771E-02  0.1067054E+00
        -11   -1    0    0    0    0  0.00000000000E+00  0.00000000000E+00  0.18250000000E+03  0.18250000000E+03  0.00000000000E+00 0. -1.
         11   -1    0    0    0    0 -0.00000000000E+00 -0.00000000000E+00 -0.18250000000E+03  0.18250000000E+03  0.00000000000E+00 0.  1.
        -11    1    1    2    0    0  0.55374015118E+01  0.41396812023E+00  0.15472811404E+03  0.15482772187E+03  0.00000000000E+00 0. -1.
         11    1    1    2    0    0 -0.31604333058E+01  0.34043967069E+01 -0.18066976367E+03  0.18072947120E+03  0.00000000000E+00 0.  1.
        -15    1    1    2    0    0 -0.57294924941E+01  0.10186092278E+01  0.19954155471E+02  0.20861224762E+02  0.17770000000E+01 0.  1.
         15    1    1    2    0    0  0.33525242881E+01 -0.48369740549E+01  0.59874941668E+01  0.85815821681E+01  0.17770000000E+01 0.  1.
</event>
<event>
 6    1  0.1059789E-002  0.1827424E+03  0.7546771E-02  0.1068262E+00
        -11   -1    0    0    0    0  0.00000000000E+00  0.00000000000E+00  0.18250000000E+03  0.18250000000E+03  0.00000000000E+00 0.  1.
         11   -1    0    0    0    0 -0.00000000000E+00 -0.00000000000E+00 -0.18250000000E+03  0.18250000000E+03  0.00000000000E+00 0.  1.
        -11    1    1    2    0    0  0.77019631878E+00  0.24115902379E+01  0.18223999726E+03  0.18225758029E+03  0.00000000000E+00 0.  1.
         11    1    1    2    0    0 -0.23082755453E+01  0.13062239077E+01 -0.11876304764E+03  0.11879265904E+03  0.00000000000E+00 0.  1.
        -15    1    1    2    0    0  0.30710909875E+01 -0.23606647444E+00 -0.30480488647E+02  0.30687216303E+02  0.17770000000E+01 0. -1.
         15    1    1    2    0    0 -0.15330117609E+01 -0.34817476712E+01 -0.32996460981E+02  0.33262544373E+02  0.17770000000E+01 0.  1.
</event>
<event>
 6    1  0.1059789E-002  0.1840169E+03  0.7546771E-02  0.1067254E+00
        -11   -1    0    0    0    0  0.00000000000E+00  0.00000000000E+00  0.18250000000E+03  0.18250000000E+03  0.00000000000E+00 0. -1.
         11   -1    0    0    0    0 -0.00000000000E+00 -0.00000000000E+00 -0.18250000000E+03  0.18250000000E+03  0.00000000000E+00 0. -1.
        -11    1    1    2    0    0 -0.63455922132E+01  0.73144545898E+01  0.13611374152E+03  0.13645775323E+03  0.00000000000E+00 0. -1.
         11    1    1    2    0    0 -0.16456343644E+01  0.34166142126E+01 -0.18094334240E+03  0.18098307801E+03  0.00000000000E+00 0. -1.
        -15    1    1    2    0    0  0.83832292706E+00  0.71410629104E+00  0.87658720103E+01  0.90117131682E+01  0.17770000000E+01 0. -1.
         15    1    1    2    0    0  0.71529036505E+01 -0.11445175093E+02  0.36063728872E+02  0.38547455593E+02  0.17770000000E+01 0.  1.
</event>
<event>
 6    1  0.1059789E-002  0.1827542E+03  0.7546771E-02  0.1068253E+00
        -11   -1    0    0    0    0  0.00000000000E+00  0.00000000000E+00  0.18250000000E+03  0.18250000000E+03  0.00000000000E+00 0.  1.
         11   -1    0    0    0    0 -0.00000000000E+00 -0.00000000000E+00 -0.18250000000E+03  0.18250000000E+03  0.00000000000E+00 0.  1.
        -11    1    1    2    0    0  0.21252421125E+01  0.88729188741E+00  0.12157000550E+03  0.12159181789E+03  0.00000000000E+00 0.  1.
         11    1    1    2    0    0  0.13426016460E+01  0.24134394083E+01 -0.18222484057E+03  0.18224576755E+03  0.00000000000E+00 0.  1.
        -15    1    1    2    0    0 -0.30710694979E+00 -0.83444016611E+00  0.57678905172E+01  0.61005651449E+01  0.17770000000E+01 0.  1.
         15    1    1    2    0    0 -0.31607368087E+01 -0.24662911296E+01  0.54886944552E+02  0.55061849409E+02  0.17770000000E+01 0. -1.
</event>
<event>
 6    1  0.1059789E-002  0.1831655E+03  0.7546771E-02  0.1067926E+00
        -11   -1    0    0    0    0  0.00000000000E+00  0.00000000000E+00  0.18250000000E+03  0.18250000000E+03  0.00000000000E+00 0. -1.
         11   -1    0    0    0    0 -0.00000000000E+00 -0.00000000000E+00 -0.18250000000E+03  0.18250000000E+03  0.00000000000E+00 0. -1.
        -11    1    1    2    0    0 -0.15944911227E+01 -0.24078989694E+01  0.18181155823E+03  0.18183449366E+03  0.00000000000E+00 0. -1.
         11    1    1    2    0    0 -0.67630254715E-01 -0.25427104616E+01 -0.16395167875E+03  0.16397140884E+03  0.00000000000E+00 0. -1.
        -15    1    1    2    0    0  0.12740473862E+01  0.43834605426E+01 -0.10417755694E+02  0.11511962725E+02  0.17770000000E+01 0. -1.
         15    1    1    2    0    0  0.38807399117E+00  0.56714888844E+00 -0.74421237818E+01  0.76821347728E+01  0.17770000000E+01 0.  1.
</event>
<event>
 6    1  0.1059789E-002  0.1829575E+03  0.7546771E-02  0.1068091E+00
        -11   -1    0    0    0    0  0.00000000000E+00  0.00000000000E+00  0.18250000000E+03  0.18250000000E+03  0.00000000000E+00 0.  1.
         11   -1    0    0    0    0 -0.00000000000E+00 -0.00000000000E+00 -0.18250000000E+03  0.18250000000E+03  0.00000000000E+00 0.  1.
        -11    1    1    2    0    0  0.33364662000E+01 -0.24000575799E+01  0.18199611051E+03  0.18204251295E+03  0.00000000000E+00 0.  1.
         11    1    1    2    0    0  0.80194108766E+00 -0.17698943337E+00 -0.11452819023E+02  0.11482225322E+02  0.00000000000E+00 0.  1.
        -15    1    1    2    0    0 -0.32642004157E+00 -0.15154171586E+01 -0.15215516161E+03  0.15217343386E+03  0.17770000000E+01 0.  1.
         15    1    1    2    0    0 -0.38119872461E+01  0.40924641719E+01 -0.18388129876E+02  0.19301827870E+02  0.17770000000E+01 0.  1.
</event>
<event>
 6    1  0.1059789E-002  0.1841769E+03  0.7546771E-02  0.1067128E+00
        -11   -1    0    0    0    0  0.00000000000E+00  0.00000000000E+00  0.18250000000E+03  0.18250000000E+03  0.00000000000E+00 0. -1.
         11   -1    0    0    0    0 -0.00000000000E+00 -0.00000000000E+00 -0.18250000000E+03  0.18250000000E+03  0.00000000000E+00 0. -1.
        -11    1    1    2    0    0 -0.82434854544E+01 -0.64696935749E+00  0.13695285835E+03  0.13720225593E+03  0.00000000000E+00 0. -1.
         11    1    1    2    0    0 -0.34509001754E+01 -0.13418323509E+01 -0.18078517649E+03  0.18082308831E+03  0.00000000000E+00 0. -1.
        -15    1    1    2    0    0  0.50446069870E+00  0.44663124125E+01  0.18373421862E+02  0.18998494337E+02  0.17770000000E+01 0. -1.
         15    1    1    2    0    0  0.11189924931E+02 -0.24775107041E+01  0.25458896284E+02  0.27976161428E+02  0.17770000000E+01 0.  1.
</event>
<event>
 6    1  0.1059789E-002  0.1870326E+03  0.7546771E-02  0.1064903E+00
        -11   -1    0    0    0    0  0.00000000000E+00  0.00000000000E+00  0.18250000000E+03  0.18250000000E+03  0.00000000000E+00 0. -1.
         11   -1    0    0    0    0 -0.00000000000E+00 -0.00000000000E+00 -0.18250000000E+03  0.18250000000E+03  0.00000000000E+00 0. -1.
        -11    1    1    2    0    0  0.10647672031E+02  0.33032021411E+01  0.15537055149E+03  0.15576999818E+03  0.00000000000E+00 0. -1.
         11    1    1    2    0    0  0.76197859703E+00 -0.30980107507E+01 -0.17793881512E+03  0.17796741333E+03  0.00000000000E+00 0. -1.
        -15    1    1    2    0    0 -0.12356958020E+02  0.48337615538E+01  0.77196452371E+01  0.15453488728E+02  0.17770000000E+01 0. -1.
         15    1    1    2    0    0  0.94730739203E+00 -0.50389529442E+01  0.14848618391E+02  0.15809099759E+02  0.17770000000E+01 0.  1.
</event>
<event>
 6    1  0.1059789E-002  0.1833605E+03  0.7546771E-02  0.1067772E+00
        -11   -1    0    0    0    0  0.00000000000E+00  0.00000000000E+00  0.18250000000E+03  0.18250000000E+03  0.00000000000E+00 0.  1.
         11   -1    0    0    0    0 -0.00000000000E+00 -0.00000000000E+00 -0.18250000000E+03  0.18250000000E+03  0.00000000000E+00 0. -1.
        -11    1    1    2    0    0  0.30631952142E+01 -0.19499049293E+01  0.16595137585E+03  0.16599109748E+03  0.00000000000E+00 0.  1.
         11    1    1    2    0    0 -0.21232173846E+01 -0.22515046389E+01 -0.18161312601E+03  0.18163949147E+03  0.00000000000E+00 0. -1.
        -15    1    1    2    0    0 -0.85692983663E+00  0.36213962612E+01  0.14696244191E+02  0.15263884235E+02  0.17770000000E+01 0. -1.
         15    1    1    2    0    0 -0.83047992978E-01  0.58001330694E+00  0.96550596056E+00  0.21055268142E+01  0.17770000000E+01 0.  1.
</event>
<event>
 6    1  0.1059789E-002  0.1890694E+03  0.7546771E-02  0.1063343E+00
        -11   -1    0    0    0    0  0.00000000000E+00  0.00000000000E+00  0.18250000000E+03  0.18250000000E+03  0.00000000000E+00 0. -1.
         11   -1    0    0    0    0 -0.00000000000E+00 -0.00000000000E+00 -0.18250000000E+03  0.18250000000E+03  0.00000000000E+00 0. -1.
        -11    1    1    2    0    0 -0.20837891713E+01  0.60910136641E+01  0.16702968792E+03  0.16715369954E+03  0.00000000000E+00 0. -1.
         11    1    1    2    0    0 -0.41406811614E+01 -0.11933770799E+02 -0.17547652869E+03  0.17593058929E+03  0.00000000000E+00 0. -1.
        -15    1    1    2    0    0 -0.17779176978E+01  0.41170856573E+01 -0.44329663381E+01  0.65513590349E+01  0.17770000000E+01 0.  1.
         15    1    1    2    0    0  0.80023880305E+01  0.17256714777E+01  0.12879807113E+02  0.15364352134E+02  0.17770000000E+01 0. -1.
</event>
<event>
 6    1  0.1059789E-002  0.1830930E+03  0.7546771E-02  0.1067984E+00
        -11   -1    0    0    0    0  0.00000000000E+00  0.00000000000E+00  0.18250000000E+03  0.18250000000E+03  0.00000000000E+00 0.  1.
         11   -1    0    0    0    0 -0.00000000000E+00 -0.00000000000E+00 -0.18250000000E+03  0.18250000000E+03  0.00000000000E+00 0.  1.
        -11    1    1    2    0    0  0.29351129440E+01 -0.29673172650E+01  0.18185907290E+03  0.18190696044E+03  0.00000000000E+00 0.  1.
         11    1    1    2    0    0 -0.16158891826E+01 -0.17185884143E+01 -0.16122710145E+03  0.16124435768E+03  0.00000000000E+00 0.  1.
        -15    1    1    2    0    0 -0.24160073845E+01  0.39818304397E+01 -0.14443476517E+02  0.15279522513E+02  0.17770000000E+01 0. -1.
         15    1    1    2    0    0  0.10967836231E+01  0.70407523953E+00 -0.61884949326E+01  0.65691593670E+01  0.17770000000E+01 0. -1.
</event>
<event>
 6    1  0.1059789E-002  0.1838270E+03  0.7546771E-02  0.1067403E+00
        -11   -1    0    0    0    0  0.00000000000E+00  0.00000000000E+00  0.18250000000E+03  0.18250000000E+03  0.00000000000E+00 0.  1.
         11   -1    0    0    0    0 -0.00000000000E+00 -0.00000000000E+00 -0.18250000000E+03  0.18250000000E+03  0.00000000000E+00 0. -1.
        -11    1    1    2    0    0  0.12525395761E+01 -0.15172080366E+01  0.94242152607E+02  0.94262686699E+02  0.00000000000E+00 0.  1.
         11    1    1    2    0    0  0.55712654524E+00 -0.34314273744E+01 -0.18113962157E+03  0.18117297697E+03  0.00000000000E+00 0. -1.
        -15    1    1    2    0    0 -0.11854507019E+01 -0.12976232735E+01  0.78515887908E-01  0.25006025816E+01  0.17770000000E+01 0.  1.
         15    1    1    2    0    0 -0.62421541941E+00  0.62462586844E+01  0.86818953072E+02  0.87063733747E+02  0.17770000000E+01 0.  1.
</event>
<event>
 6    1  0.1059789E-002  0.1833355E+03  0.7546771E-02  0.1067792E+00
        -11   -1    0    0    0    0  0.00000000000E+00  0.00000000000E+00  0.18250000000E+03  0.18250000000E+03  0.00000000000E+00 0.  1.
         11   -1    0    0    0    0 -0.00000000000E+00 -0.00000000000E+00 -0.18250000000E+03  0.18250000000E+03  0.00000000000E+00 0. -1.
        -11    1    1    2    0    0  0.20193234161E+00  0.35129438942E+01  0.18163039728E+03  0.18166447855E+03  0.00000000000E+00 0.  1.
         11    1    1    2    0    0 -0.15254373215E+01  0.34045807246E+01 -0.11210620176E+03  0.11216826022E+03  0.00000000000E+00 0. -1.
        -15    1    1    2    0    0  0.22771661963E+01 -0.33513535347E+01 -0.57187206274E+01  0.72303907926E+01  0.17770000000E+01 0.  1.
         15    1    1    2    0    0 -0.95366121645E+00 -0.35661710841E+01 -0.63805474892E+02  0.63936870436E+02  0.17770000000E+01 0. -1.
</event>
<event>
 6    1  0.1059789E-002  0.1897021E+03  0.7546771E-02  0.1062862E+00
        -11   -1    0    0    0    0  0.00000000000E+00  0.00000000000E+00  0.18250000000E+03  0.18250000000E+03  0.00000000000E+00 0.  1.
         11   -1    0    0    0    0 -0.00000000000E+00 -0.00000000000E+00 -0.18250000000E+03  0.18250000000E+03  0.00000000000E+00 0. -1.
        -11    1    1    2    0    0  0.55263468541E+01  0.23434501345E+01  0.17519506016E+03  0.17529786471E+03  0.00000000000E+00 0.  1.
         11    1    1    2    0    0 -0.67546466895E+00  0.26711297231E+01 -0.16949842611E+03  0.16952081771E+03  0.00000000000E+00 0. -1.
        -15    1    1    2    0    0  0.42791674463E+01  0.29928553242E+00  0.36958865072E+01  0.59344883467E+01  0.17770000000E+01 0. -1.
         15    1    1    2    0    0 -0.91300496315E+01 -0.53138653900E+01 -0.93925205587E+01  0.14246829230E+02  0.17770000000E+01 0.  1.
</event>
<event>
 6    1  0.1059789E-002  0.1831577E+03  0.7546771E-02  0.1067932E+00
        -11   -1    0    0    0    0  0.00000000000E+00  0.00000000000E+00  0.18250000000E+03  0.18250000000E+03  0.00000000000E+00 0. -1.
         11   -1    0    0    0    0 -0.00000000000E+00 -0.00000000000E+00 -0.18250000000E+03  0.18250000000E+03  0.00000000000E+00 0. -1.
        -11    1    1    2    0    0 -0.37252672744E+01 -0.12937752873E+00  0.18180410812E+03  0.18184231654E+03  0.00000000000E+00 0. -1.
         11    1    1    2    0    0 -0.95924024302E+00  0.19940897994E+01 -0.14864923364E+03  0.14866570283E+03  0.00000000000E+00 0. -1.
        -15    1    1    2    0    0  0.26002467323E+01  0.15468393786E+01 -0.57199184653E+01  0.67103793769E+01  0.17770000000E+01 0. -1.
         15    1    1    2    0    0  0.20842607851E+01 -0.34115516492E+01 -0.27434956015E+02  0.27781601253E+02  0.17770000000E+01 0. -1.
</event>
<event>
 6    1  0.1059789E-002  0.1871224E+03  0.7546771E-02  0.1064834E+00
        -11   -1    0    0    0    0  0.00000000000E+00  0.00000000000E+00  0.18250000000E+03  0.18250000000E+03  0.00000000000E+00 0. -1.
         11   -1    0    0    0    0 -0.00000000000E+00 -0.00000000000E+00 -0.18250000000E+03  0.18250000000E+03  0.00000000000E+00 0.  1.
        -11    1    1    2    0    0 -0.55950812671E+01 -0.14175505551E+01  0.17778389264E+03  0.17787756144E+03  0.00000000000E+00 0. -1.
         11    1    1    2    0    0  0.17644067796E+00 -0.39259493928E+01 -0.17178150133E+03  0.17182644852E+03  0.00000000000E+00 0.  1.
        -15    1    1    2    0    0 -0.26974938313E+00  0.11399895583E+01  0.30200658859E+01  0.36947080910E+01  0.17770000000E+01 0.  1.
         15    1    1    2    0    0  0.56883899723E+01  0.42035103896E+01 -0.90224571888E+01  0.11601281946E+02  0.17770000000E+01 0. -1.
</event>
<event>
 6    1  0.1059789E-002  0.1952167E+03  0.7546771E-02  0.1058760E+00
        -11   -1    0    0    0    0  0.00000000000E+00  0.00000000000E+00  0.18250000000E+03  0.18250000000E+03  0.00000000000E+00 0. -1.
         11   -1    0    0    0    0 -0.00000000000E+00 -0.00000000000E+00 -0.18250000000E+03  0.18250000000E+03  0.00000000000E+00 0.  1.
        -11    1    1    2    0    0 -0.17284008243E+01  0.51971678111E+00  0.92147544456E+02  0.92165218082E+02  0.00000000000E+00 0. -1.
         11    1    1    2    0    0  0.43194284832E+01 -0.53036605374E+01 -0.16964542607E+03  0.16978326438E+03  0.00000000000E+00 0.  1.
        -15    1    1    2    0    0  0.59030117948E+00  0.34114690419E+01 -0.12437385805E+02  0.13031994136E+02  0.17770000000E+01 0.  1.
         15    1    1    2    0    0 -0.31813288384E+01  0.13724747144E+01  0.89935267415E+02  0.90019523404E+02  0.17770000000E+01 0. -1.
</event>
<event>
 6    1  0.1059789E-002  0.1834433E+03  0.7546771E-02  0.1067706E+00
        -11   -1    0    0    0    0  0.00000000000E+00  0.00000000000E+00  0.18250000000E+03  0.18250000000E+03  0.00000000000E+00 0. -1.
         11   -1    0    0    0    0 -0.00000000000E+00 -0.00000000000E+00 -0.18250000000E+03  0.18250000000E+03  0.00000000000E+00 0. -1.
        -11    1    1    2    0    0 -0.30514180684E+00  0.13258328490E+01  0.94938538096E+02  0.94948285715E+02  0.00000000000E+00 0. -1.
         11    1    1    2    0    0  0.43176259672E+00  0.31661883102E+01 -0.18152858004E+03  0.18155670337E+03  0.00000000000E+00 0. -1.
        -15    1    1    2    0    0 -0.64981468831E+01  0.29854474597E+01  0.51063293781E+02  0.51592213659E+02  0.17770000000E+01 0. -1.
         15    1    1    2    0    0  0.63715260932E+01 -0.74774686189E+01  0.35526748160E+02  0.36902797259E+02  0.17770000000E+01 0.  1.
</event>
<event>
 6    1  0.1059789E-002  0.1845419E+03  0.7546771E-02  0.1066841E+00
        -11   -1    0    0    0    0  0.00000000000E+00  0.00000000000E+00  0.18250000000E+03  0.18250000000E+03  0.00000000000E+00 0.  1.
         11   -1    0    0    0    0 -0.00000000000E+00 -0.00000000000E+00 -0.18250000000E+03  0.18250000000E+03  0.00000000000E+00 0.  1.
        -11    1    1    2    0    0 -0.37969544997E+01  0.27939992389E+01  0.18039651666E+03  0.18045810184E+03  0.00000000000E+00 0.  1.
         11    1    1    2    0    0 -0.37421871302E+00  0.26582998717E+01 -0.16378061698E+03  0.16380261627E+03  0.00000000000E+00 0.  1.
        -15    1    1    2    0    0  0.72892291276E+01 -0.41437355432E+01 -0.10940481723E+02  0.13898031331E+02  0.17770000000E+01 0. -1.
         15    1    1    2    0    0 -0.31180559148E+01 -0.13085635674E+01 -0.56754179538E+01  0.68412505617E+01  0.17770000000E+01 0.  1.
</event>
<event>
 6    1  0.1059789E-002  0.1848024E+03  0.7546771E-02  0.1066637E+00
        -11   -1    0    0    0    0  0.00000000000E+00  0.00000000000E+00  0.18250000000E+03  0.18250000000E+03  0.00000000000E+00 0.  1.
         11   -1    0    0    0    0 -0.00000000000E+00 -0.00000000000E+00 -0.18250000000E+03  0.18250000000E+03  0.00000000000E+00 0. -1.
        -11    1    1    2    0    0  0.82314416466E+01 -0.96008642080E-01  0.15485463671E+03  0.15507328706E+03  0.00000000000E+00 0.  1.
         11    1    1    2    0    0  0.47248177792E+01  0.20040785453E+01 -0.18012448031E+03  0.18019758222E+03  0.00000000000E+00 0. -1.
        -15    1    1    2    0    0 -0.50944491348E+01  0.37536896535E-01  0.34940510196E+01  0.64281367855E+01  0.17770000000E+01 0. -1.
         15    1    1    2    0    0 -0.78618102910E+01 -0.19456067997E+01  0.21775792579E+02  0.23300993934E+02  0.17770000000E+01 0.  1.
</event>
<event>
 6    1  0.1059789E-002  0.1877279E+03  0.7546771E-02  0.1064368E+00
        -11   -1    0    0    0    0  0.00000000000E+00  0.00000000000E+00  0.18250000000E+03  0.18250000000E+03  0.00000000000E+00 0.  1.
         11   -1    0    0    0    0 -0.00000000000E+00 -0.00000000000E+00 -0.18250000000E+03  0.18250000000E+03  0.00000000000E+00 0.  1.
        -11    1    1    2    0    0  0.25337980922E+01 -0.19658816499E+01  0.17724313784E+03  0.17727214878E+03  0.00000000000E+00 0.  1.
         11    1    1    2    0    0 -0.25236075810E+01  0.13713118444E+01 -0.17342245208E+03  0.17344623368E+03  0.00000000000E+00 0.  1.
        -15    1    1    2    0    0  0.33262922512E+01 -0.39032915488E+01 -0.59302072914E+01  0.80389671335E+01  0.17770000000E+01 0.  1.
         15    1    1    2    0    0 -0.33364827625E+01  0.44978613542E+01  0.21095215357E+01  0.62426504063E+01  0.17770000000E+01 0. -1.
</event>
<event>
 6    1  0.1059789E-002  0.1833258E+03  0.7546771E-02  0.1067799E+00
        -11   -1    0    0    0    0  0.00000000000E+00  0.00000000000E+00  0.18250000000E+03  0.18250000000E+03  0.00000000000E+00 0.  1.
         11   -1    0    0    0    0 -0.00000000000E+00 -0.00000000000E+00 -0.18250000000E+03  0.18250000000E+03  0.00000000000E+00 0. -1.
        -11    1    1    2    0    0 -0.21045954271E+01  0.11685475677E+01  0.16158113003E+03  0.16159906066E+03  0.00000000000E+00 0.  1.
         11    1    1    2    0    0  0.29936046711E+01 -0.73086327895E+00 -0.18164809150E+03  0.18167422760E+03  0.00000000000E+00 0. -1.
        -15    1    1    2    0    0 -0.33800013462E+01 -0.23825159038E+01  0.13427933352E+02  0.14162200191E+02  0.17770000000E+01 0. -1.
         15    1    1    2    0    0  0.24909921023E+01  0.19448316150E+01  0.66390281142E+01  0.75645115484E+01  0.17770000000E+01 0.  1.
</event>
<event>
 6    1  0.1059789E-002  0.1846499E+03  0.7546771E-02  0.1066756E+00
        -11   -1    0    0    0    0  0.00000000000E+00  0.00000000000E+00  0.18250000000E+03  0.18250000000E+03  0.00000000000E+00 0.  1.
         11   -1    0    0    0    0 -0.00000000000E+00 -0.00000000000E+00 -0.18250000000E+03  0.18250000000E+03  0.00000000000E+00 0. -1.
        -11    1    1    2    0    0 -0.90684242249E+00  0.24396522791E+01  0.18033129334E+03  0.18035007520E+03  0.00000000000E+00 0.  1.
         11    1    1    2    0    0 -0.41993496780E+01  0.62793532022E+00 -0.12009527079E+03  0.12017030792E+03  0.00000000000E+00 0. -1.
        -15    1    1    2    0    0  0.74226584486E+01 -0.41530668355E+01 -0.60710251436E+02  0.61328917983E+02  0.17770000000E+01 0.  1.
         15    1    1    2    0    0 -0.23164663481E+01  0.10854792361E+01  0.47422888385E+00  0.31506988984E+01  0.17770000000E+01 0. -1.
</event>
<event>
 6    1  0.1059789E-002  0.1842346E+03  0.7546771E-02  0.1067082E+00
        -11   -1    0    0    0    0  0.00000000000E+00  0.00000000000E+00  0.18250000000E+03  0.18250000000E+03  0.00000000000E+00 0. -1.
         11   -1    0    0    0    0 -0.00000000000E+00 -0.00000000000E+00 -0.18250000000E+03  0.18250000000E+03  0.00000000000E+00 0.  1.
        -11    1    1    2    0    0 -0.23122530818E+01 -0.43921621867E+01  0.18069723101E+03  0.18076539187E+03  0.00000000000E+00 0. -1.
         11    1    1    2    0    0  0.67577662280E+01 -0.19873976515E+01 -0.12933369509E+03  0.12952537141E+03  0.00000000000E+00 0.  1.
        -15    1    1    2    0    0 -0.34201011437E+00  0.66565120632E+01 -0.60516818193E+01  0.91764211765E+01  0.17770000000E+01 0. -1.
         15    1    1    2    0    0 -0.41035030318E+01 -0.27695222494E+00 -0.45311854103E+02  0.45532815539E+02  0.17770000000E+01 0.  1.
</event>
<event>
 6    1  0.1059789E-002  0.1859597E+03  0.7546771E-02  0.1065734E+00
        -11   -1    0    0    0    0  0.00000000000E+00  0.00000000000E+00  0.18250000000E+03  0.18250000000E+03  0.00000000000E+00 0. -1.
         11   -1    0    0    0    0 -0.00000000000E+00 -0.00000000000E+00 -0.18250000000E+03  0.18250000000E+03  0.00000000000E+00 0. -1.
        -11    1    1    2    0    0  0.30652433018E+01 -0.61943058434E+01  0.13357945845E+03  0.13375812821E+03  0.00000000000E+00 0. -1.
         11    1    1    2    0    0 -0.52992153410E+01 -0.38006893751E+01 -0.17892151077E+03  0.17904031373E+03  0.00000000000E+00 0. -1.
        -15    1    1    2    0    0 -0.14891891302E+00  0.86199660786E+01  0.47480848146E+02  0.48289902274E+02  0.17770000000E+01 0. -1.
         15    1    1    2    0    0  0.23828909522E+01  0.13750291399E+01 -0.21387958235E+01  0.39116557876E+01  0.17770000000E+01 0.  1.
</event>
<event>
 6    1  0.1059789E-002  0.1826105E+03  0.7546771E-02  0.1068367E+00
        -11   -1    0    0    0    0  0.00000000000E+00  0.00000000000E+00  0.18250000000E+03  0.18250000000E+03  0.00000000000E+00 0.  1.
         11   -1    0    0    0    0 -0.00000000000E+00 -0.00000000000E+00 -0.18250000000E+03  0.18250000000E+03  0.00000000000E+00 0.  1.
        -11    1    1    2    0    0  0.23082857840E+01 -0.36704234576E+01  0.18233799204E+03  0.18238953790E+03  0.00000000000E+00 0.  1.
         11    1    1    2    0    0  0.85504455566E-01  0.93990465191E+00 -0.42748193815E+02  0.42758610901E+02  0.00000000000E+00 0.  1.
        -15    1    1    2    0    0 -0.15928894493E+01 -0.22058885622E+01 -0.53596644372E+02  0.53695076665E+02  0.17770000000E+01 0. -1.
         15    1    1    2    0    0 -0.80090079032E+00  0.49364073679E+01 -0.85993153856E+02  0.86156774538E+02  0.17770000000E+01 0.  1.
</event>
<event>
 6    1  0.1059789E-002  0.1838878E+03  0.7546771E-02  0.1067355E+00
        -11   -1    0    0    0    0  0.00000000000E+00  0.00000000000E+00  0.18250000000E+03  0.18250000000E+03  0.00000000000E+00 0.  1.
         11   -1    0    0    0    0 -0.00000000000E+00 -0.00000000000E+00 -0.18250000000E+03  0.18250000000E+03  0.00000000000E+00 0.  1.
        -11    1    1    2    0    0  0.15598998021E+01 -0.15909618085E+01  0.16195634683E+03  0.16197167260E+03  0.00000000000E+00 0.  1.
         11    1    1    2    0    0 -0.51586458863E+01  0.45775495483E+01 -0.18098084255E+03  0.18111220544E+03  0.00000000000E+00 0.  1.
        -15    1    1    2    0    0 -0.20676614696E+01  0.17872492179E+01  0.55564365647E+01  0.64421425021E+01  0.17770000000E+01 0.  1.
         15    1    1    2    0    0  0.56664075538E+01 -0.47738369577E+01  0.13468059161E+02  0.15473979463E+02  0.17770000000E+01 0.  1.
</event>
<event>
 6    1  0.1059789E-002  0.2215811E+03  0.7546771E-02  0.1041006E+00
        -11   -1    0    0    0    0  0.00000000000E+00  0.00000000000E+00  0.18250000000E+03  0.18250000000E+03  0.00000000000E+00 0. -1.
         11   -1    0    0    0    0 -0.00000000000E+00 -0.00000000000E+00 -0.18250000000E+03  0.18250000000E+03  0.00000000000E+00 0.  1.
        -11    1    1    2    0    0 -0.22151368272E+01  0.39297945273E+01  0.14334798513E+03  0.14341894909E+03  0.00000000000E+00 0. -1.
         11    1    1    2    0    0 -0.55428072893E+01  0.41515966262E+01 -0.99808549492E+02  0.10004851333E+03  0.00000000000E+00 0.  1.
        -15    1    1    2    0    0  0.36920761529E+01 -0.77108555849E+01 -0.82176817809E+02  0.82639432685E+02  0.17770000000E+01 0.  1.
         15    1    1    2    0    0  0.40658679636E+01 -0.37053556861E+00  0.38637382171E+02  0.38893104902E+02  0.17770000000E+01 0. -1.
</event>
<event>
 6    1  0.1059789E-002  0.1827235E+03  0.7546771E-02  0.1068277E+00
        -11   -1    0    0    0    0  0.00000000000E+00  0.00000000000E+00  0.18250000000E+03  0.18250000000E+03  0.00000000000E+00 0.  1.
         11   -1    0    0    0    0 -0.00000000000E+00 -0.00000000000E+00 -0.18250000000E+03  0.18250000000E+03  0.00000000000E+00 0. -1.
        -11    1    1    2    0    0  0.74675864307E+01  0.52568258637E+01  0.18204755802E+03  0.18227647255E+03  0.00000000000E+00 0.  1.
         11    1    1    2    0    0 -0.54191127075E+00  0.80491555472E+00 -0.52062310402E+02  0.52071352213E+02  0.00000000000E+00 0. -1.
        -15    1    1    2    0    0 -0.56348128637E+01 -0.34853385614E+01 -0.38638299783E+02  0.39242510623E+02  0.17770000000E+01 0.  1.
         15    1    1    2    0    0 -0.12908622962E+01 -0.25764028570E+01 -0.91346947833E+02  0.91409664613E+02  0.17770000000E+01 0. -1.
</event>
<event>
 6    1  0.1059789E-002  0.1842184E+03  0.7546771E-02  0.1067095E+00
        -11   -1    0    0    0    0  0.00000000000E+00  0.00000000000E+00  0.18250000000E+03  0.18250000000E+03  0.00000000000E+00 0. -1.
         11   -1    0    0    0    0 -0.00000000000E+00 -0.00000000000E+00 -0.18250000000E+03  0.18250000000E+03  0.00000000000E+00 0. -1.
        -11    1    1    2    0    0  0.32422550741E+01 -0.13373254014E+01  0.17394709268E+03  0.17398244655E+03  0.00000000000E+00 0. -1.
         11    1    1    2    0    0 -0.20252678273E+01 -0.16319752971E+01 -0.18076284133E+03  0.18078155287E+03  0.00000000000E+00 0. -1.
        -15    1    1    2    0    0  0.13230395251E+01  0.37212909449E+01  0.30299548720E+01  0.52855269754E+01  0.17770000000E+01 0.  1.
         15    1    1    2    0    0 -0.25400267718E+01 -0.75199024640E+00  0.37857937796E+01  0.49504736010E+01  0.17770000000E+01 0. -1.
</event>
<event>
 6    1  0.1059789E-002  0.1653094E+03  0.7546771E-02  0.1083027E+00
        -11   -1    0    0    0    0  0.00000000000E+00  0.00000000000E+00  0.18250000000E+03  0.18250000000E+03  0.00000000000E+00 0. -1.
         11   -1    0    0    0    0 -0.00000000000E+00 -0.00000000000E+00 -0.18250000000E+03  0.18250000000E+03  0.00000000000E+00 0. -1.
        -11    1    1    2    0    0 -0.10724198560E+02  0.79936266037E+01  0.16257329625E+03  0.16312260160E+03  0.00000000000E+00 0. -1.
         11    1    1    2    0    0 -0.29787348848E+01 -0.16866386296E+01 -0.16784726960E+03  0.16788217155E+03  0.00000000000E+00 0. -1.
        -15    1    1    2    0    0 -0.75769408550E+01  0.51675941299E+01  0.14971719624E+01  0.94611476416E+01  0.17770000000E+01 0.  1.
         15    1    1    2    0    0  0.21279874299E+02 -0.11474582104E+02  0.37768013931E+01  0.24534079205E+02  0.17770000000E+01 0. -1.
</event>
<event>
 6    1  0.1059789E-002  0.1900157E+03  0.7546771E-02  0.1062625E+00
        -11   -1    0    0    0    0  0.00000000000E+00  0.00000000000E+00  0.18250000000E+03  0.18250000000E+03  0.00000000000E+00 0. -1.
         11   -1    0    0    0    0 -0.00000000000E+00 -0.00000000000E+00 -0.18250000000E+03  0.18250000000E+03  0.00000000000E+00 0. -1.
        -11    1    1    2    0    0 -0.62615636774E+01 -0.50864785708E+01  0.17479819419E+03  0.17498425111E+03  0.00000000000E+00 0. -1.
         11    1    1    2    0    0  0.39506675930E+01  0.68906385564E+01 -0.17027835965E+03  0.17046351058E+03  0.00000000000E+00 0. -1.
        -15    1    1    2    0    0 -0.60958379059E+00 -0.61569124016E+01  0.52613001705E+01  0.83137338905E+01  0.17770000000E+01 0.  1.
         15    1    1    2    0    0  0.29204798750E+01  0.43527524160E+01 -0.97811347135E+01  0.11238504419E+02  0.17770000000E+01 0. -1.
</event>
<event>
 6    1  0.1059789E-002  0.1831106E+03  0.7546771E-02  0.1067970E+00
        -11   -1    0    0    0    0  0.00000000000E+00  0.00000000000E+00  0.18250000000E+03  0.18250000000E+03  0.00000000000E+00 0. -1.
         11   -1    0    0    0    0 -0.00000000000E+00 -0.00000000000E+00 -0.18250000000E+03  0.18250000000E+03  0.00000000000E+00 0.  1.
        -11    1    1    2    0    0 -0.76184791825E+00  0.30989397363E+00  0.29018960913E+02  0.29030613824E+02  0.00000000000E+00 0. -1.
         11    1    1    2    0    0 -0.11729520457E+01 -0.32981766120E+01 -0.18185573907E+03  0.18188942690E+03  0.00000000000E+00 0.  1.
        -15    1    1    2    0    0 -0.14179185872E+01  0.10654399230E+02  0.92675791064E+02  0.93313914795E+02  0.17770000000E+01 0. -1.
         15    1    1    2    0    0  0.33527185511E+01 -0.76661165916E+01  0.60160987091E+02  0.60766044483E+02  0.17770000000E+01 0. -1.
</event>
<event>
 6    1  0.1059789E-002  0.1829104E+03  0.7546771E-02  0.1068129E+00
        -11   -1    0    0    0    0  0.00000000000E+00  0.00000000000E+00  0.18250000000E+03  0.18250000000E+03  0.00000000000E+00 0. -1.
         11   -1    0    0    0    0 -0.00000000000E+00 -0.00000000000E+00 -0.18250000000E+03  0.18250000000E+03  0.00000000000E+00 0.  1.
        -11    1    1    2    0    0  0.62307540850E+00 -0.26740581452E+01  0.18206885350E+03  0.18208955550E+03  0.00000000000E+00 0. -1.
         11    1    1    2    0    0 -0.18954259976E+01 -0.10578753073E+01 -0.12215831041E+03  0.12217759428E+03  0.00000000000E+00 0.  1.
        -15    1    1    2    0    0 -0.99218272089E+00  0.14175783468E+01 -0.51345397874E+02  0.51405267889E+02  0.17770000000E+01 0.  1.
         15    1    1    2    0    0  0.22645333100E+01  0.23143551058E+01 -0.85651452087E+01  0.93275823296E+01  0.17770000000E+01 0. -1.
</event>
<event>
 6    1  0.1059789E-002  0.1800199E+03  0.7546771E-02  0.1070446E+00
        -11   -1    0    0    0    0  0.00000000000E+00  0.00000000000E+00  0.18250000000E+03  0.18250000000E+03  0.00000000000E+00 0.  1.
         11   -1    0    0    0    0 -0.00000000000E+00 -0.00000000000E+00 -0.18250000000E+03  0.18250000000E+03  0.00000000000E+00 0. -1.
        -11    1    1    2    0    0 -0.47672815259E+00  0.28835199468E+01  0.18026254954E+03  0.18028624108E+03  0.00000000000E+00 0.  1.
         11    1    1    2    0    0  0.26170421851E+01 -0.56339353468E+00 -0.17974783446E+03  0.17976776773E+03  0.00000000000E+00 0. -1.
        -15    1    1    2    0    0 -0.99785740729E+00 -0.11758911798E+01 -0.88745645793E+00  0.25147062327E+01  0.17770000000E+01 0. -1.
         15    1    1    2    0    0 -0.11424566252E+01 -0.11442352323E+01  0.37274137281E+00  0.24312849562E+01  0.17770000000E+01 0.  1.
</event>
<event>
 6    1  0.1059789E-002  0.1867143E+03  0.7546771E-02  0.1065149E+00
        -11   -1    0    0    0    0  0.00000000000E+00  0.00000000000E+00  0.18250000000E+03  0.18250000000E+03  0.00000000000E+00 0.  1.
         11   -1    0    0    0    0 -0.00000000000E+00 -0.00000000000E+00 -0.18250000000E+03  0.18250000000E+03  0.00000000000E+00 0. -1.
        -11    1    1    2    0    0 -0.44869195617E+01  0.11525914838E+01  0.17822549535E+03  0.17828569238E+03  0.00000000000E+00 0.  1.
         11    1    1    2    0    0 -0.43092208713E-01  0.24802476080E+01 -0.16524112210E+03  0.16525974077E+03  0.00000000000E+00 0. -1.
        -15    1    1    2    0    0  0.77521411745E+01 -0.47224408887E+01 -0.14605987665E+02  0.17288428078E+02  0.17770000000E+01 0.  1.
         15    1    1    2    0    0 -0.32221294041E+01  0.10896017968E+01  0.16216144152E+01  0.41661387740E+01  0.17770000000E+01 0. -1.
</event>
<event>
 6    1  0.1059789E-002  0.1870015E+03  0.7546771E-02  0.1064927E+00
        -11   -1    0    0    0    0  0.00000000000E+00  0.00000000000E+00  0.18250000000E+03  0.18250000000E+03  0.00000000000E+00 0. -1.
         11   -1    0    0    0    0 -0.00000000000E+00 -0.00000000000E+00 -0.18250000000E+03  0.18250000000E+03  0.00000000000E+00 0. -1.
        -11    1    1    2    0    0 -0.21144818929E+01  0.13998080053E+01  0.17798045853E+03  0.17799852279E+03  0.00000000000E+00 0. -1.
         11    1    1    2    0    0  0.11516189541E+02  0.18204206728E+01 -0.14666610353E+03  0.14712879554E+03  0.00000000000E+00 0. -1.
        -15    1    1    2    0    0 -0.14171912249E+02 -0.27170309022E+01 -0.31563799280E+02  0.34751352603E+02  0.17770000000E+01 0. -1.
         15    1    1    2    0    0  0.47702046006E+01 -0.50319777587E+00  0.24944427999E+00  0.51213290640E+01  0.17770000000E+01 0.  1.
</event>
<event>
 6    1  0.1059789E-002  0.1794507E+03  0.7546771E-02  0.1070908E+00
        -11   -1    0    0    0    0  0.00000000000E+00  0.00000000000E+00  0.18250000000E+03  0.18250000000E+03  0.00000000000E+00 0.  1.
         11   -1    0    0    0    0 -0.00000000000E+00 -0.00000000000E+00 -0.18250000000E+03  0.18250000000E+03  0.00000000000E+00 0. -1.
        -11    1    1    2    0    0 -0.61764662390E+00 -0.23660293794E+01  0.17908729664E+03  0.17910399047E+03  0.00000000000E+00 0.  1.
         11    1    1    2    0    0  0.22548955102E+01 -0.15627254940E+01 -0.17980238112E+03  0.17982331029E+03  0.00000000000E+00 0. -1.
        -15    1    1    2    0    0  0.14779394876E+00  0.70053293875E+00  0.45959297086E+00  0.19701634827E+01  0.17770000000E+01 0. -1.
         15    1    1    2    0    0 -0.17850428351E+01  0.32282219346E+01  0.25549151056E+00  0.41025357639E+01  0.17770000000E+01 0.  1.
</event>
<event>
 6    1  0.1059789E-002  0.1841416E+03  0.7546771E-02  0.1067156E+00
        -11   -1    0    0    0    0  0.00000000000E+00  0.00000000000E+00  0.18250000000E+03  0.18250000000E+03  0.00000000000E+00 0. -1.
         11   -1    0    0    0    0 -0.00000000000E+00 -0.00000000000E+00 -0.18250000000E+03  0.18250000000E+03  0.00000000000E+00 0. -1.
        -11    1    1    2    0    0  0.45330284304E+01 -0.18039935701E+01  0.16040364530E+03  0.16047782453E+03  0.00000000000E+00 0. -1.
         11    1    1    2    0    0  0.38138401965E+00 -0.26896487680E+01 -0.18083801546E+03  0.18085841839E+03  0.00000000000E+00 0. -1.
        -15    1    1    2    0    0 -0.44171059788E+00 -0.20504762925E+01  0.10380023125E+02  0.10737884817E+02  0.17770000000E+01 0. -1.
         15    1    1    2    0    0 -0.44727018521E+01  0.65441186307E+01  0.10054347036E+02  0.12925872266E+02  0.17770000000E+01 0.  1.
</event>
<event>
 6    1  0.1059789E-002  0.1829986E+03  0.7546771E-02  0.1068059E+00
        -11   -1    0    0    0    0  0.00000000000E+00  0.00000000000E+00  0.18250000000E+03  0.18250000000E+03  0.00000000000E+00 0.  1.
         11   -1    0    0    0    0 -0.00000000000E+00 -0.00000000000E+00 -0.18250000000E+03  0.18250000000E+03  0.00000000000E+00 0.  1.
        -11    1    1    2    0    0 -0.15940993887E+01 -0.22516907004E+01  0.18198052908E+03  0.18200144018E+03  0.00000000000E+00 0.  1.
         11    1    1    2    0    0  0.11972431012E+01 -0.27428071002E+01 -0.15523280416E+03  0.15526164970E+03  0.00000000000E+00 0.  1.
        -15    1    1    2    0    0  0.20489044294E+01  0.34690679770E+01 -0.18040809554E+02  0.18570432961E+02  0.17770000000E+01 0. -1.
         15    1    1    2    0    0 -0.16520481419E+01  0.15254298236E+01 -0.87069153689E+01  0.91664771560E+01  0.17770000000E+01 0. -1.
</event>
<event>
 6    1  0.1059789E-002  0.1855351E+03  0.7546771E-02  0.1066064E+00
        -11   -1    0    0    0    0  0.00000000000E+00  0.00000000000E+00  0.18250000000E+03  0.18250000000E+03  0.00000000000E+00 0.  1.
         11   -1    0    0    0    0 -0.00000000000E+00 -0.00000000000E+00 -0.18250000000E+03  0.18250000000E+03  0.00000000000E+00 0. -1.
        -11    1    1    2    0    0  0.24223895940E+01  0.53578836502E+00  0.16807229074E+03  0.16809060043E+03  0.00000000000E+00 0.  1.
         11    1    1    2    0    0 -0.82670555948E+00 -0.30541187669E+01 -0.17943700197E+03  0.17946489562E+03  0.00000000000E+00 0. -1.
        -15    1    1    2    0    0  0.25254824525E+00  0.20003550956E+01 -0.22965261792E+01  0.35351043289E+01  0.17770000000E+01 0. -1.
         15    1    1    2    0    0 -0.18482322798E+01  0.51797530625E+00  0.13661237415E+02  0.13909399617E+02  0.17770000000E+01 0. -1.
</event>
<event>
 6    1  0.1059789E-002  0.1827773E+03  0.7546771E-02  0.1068234E+00
        -11   -1    0    0    0    0  0.00000000000E+00  0.00000000000E+00  0.18250000000E+03  0.18250000000E+03  0.00000000000E+00 0. -1.
         11   -1    0    0    0    0 -0.00000000000E+00 -0.00000000000E+00 -0.18250000000E+03  0.18250000000E+03  0.00000000000E+00 0.  1.
        -11    1    1    2    0    0 -0.67340514076E+01 -0.26776516315E+01  0.18207850986E+03  0.18222266878E+03  0.00000000000E+00 0. -1.
         11    1    1    2    0    0 -0.98268795689E+00  0.80511561126E+00 -0.46677438861E+02  0.46694723315E+02  0.00000000000E+00 0.  1.
        -15    1    1    2    0    0  0.14187797139E+01  0.14978255677E+01 -0.10243784628E+03  0.10247402840E+03  0.17770000000E+01 0.  1.
         15    1    1    2    0    0  0.62979596506E+01  0.37471045261E+00 -0.32963224713E+02  0.33608579502E+02  0.17770000000E+01 0.  1.
</event>
<event>
 6    1  0.1059789E-002  0.1833602E+03  0.7546771E-02  0.1067772E+00
        -11   -1    0    0    0    0  0.00000000000E+00  0.00000000000E+00  0.18250000000E+03  0.18250000000E+03  0.00000000000E+00 0.  1.
         11   -1    0    0    0    0 -0.00000000000E+00 -0.00000000000E+00 -0.18250000000E+03  0.18250000000E+03  0.00000000000E+00 0. -1.
        -11    1    1    2    0    0 -0.25323994069E+01  0.16867280015E+01  0.13887987912E+03  0.13891320644E+03  0.00000000000E+00 0.  1.
         11    1    1    2    0    0  0.51794607642E+01 -0.41849049676E+01 -0.18151767112E+03  0.18163976760E+03  0.00000000000E+00 0. -1.
        -15    1    1    2    0    0  0.14373615729E+01 -0.21076849487E+01  0.30894572260E+01  0.43830148397E+01  0.17770000000E+01 0. -1.
         15    1    1    2    0    0 -0.40844229302E+01  0.46058619149E+01  0.39548334774E+02  0.40064011120E+02  0.17770000000E+01 0. -1.
</event>
<event>
 6    1  0.1059789E-002  0.1834023E+03  0.7546771E-02  0.1067739E+00
        -11   -1    0    0    0    0  0.00000000000E+00  0.00000000000E+00  0.18250000000E+03  0.18250000000E+03  0.00000000000E+00 0.  1.
         11   -1    0    0    0    0 -0.00000000000E+00 -0.00000000000E+00 -0.18250000000E+03  0.18250000000E+03  0.00000000000E+00 0.  1.
        -11    1    1    2    0    0  0.18164477876E+01 -0.19249520723E-01  0.12479968677E+03  0.12481290667E+03  0.00000000000E+00 0.  1.
         11    1    1    2    0    0 -0.15605792982E+01  0.98472235734E+01 -0.18132380890E+03  0.18159770619E+03  0.00000000000E+00 0.  1.
        -15    1    1    2    0    0  0.15510509120E+00 -0.12193792152E+02  0.42500887464E+02  0.44251506063E+02  0.17770000000E+01 0.  1.
         15    1    1    2    0    0 -0.41097358064E+00  0.23658180994E+01  0.14023234661E+02  0.14337881082E+02  0.17770000000E+01 0.  1.
</event>
<event>
 6    1  0.1059789E-002  0.1855092E+03  0.7546771E-02  0.1066084E+00
        -11   -1    0    0    0    0  0.00000000000E+00  0.00000000000E+00  0.18250000000E+03  0.18250000000E+03  0.00000000000E+00 0. -1.
         11   -1    0    0    0    0 -0.00000000000E+00 -0.00000000000E+00 -0.18250000000E+03  0.18250000000E+03  0.00000000000E+00 0. -1.
        -11    1    1    2    0    0 -0.27679033321E+01 -0.98484407230E+01  0.17919901873E+03  0.17949078357E+03  0.00000000000E+00 0. -1.
         11    1    1    2    0    0  0.35525030984E+01 -0.24392943051E+01 -0.15074191673E+03  0.15080350093E+03  0.00000000000E+00 0. -1.
        -15    1    1    2    0    0 -0.61900555656E+00  0.13269629718E+02 -0.29511349905E+02  0.32412092542E+02  0.17770000000E+01 0.  1.
         15    1    1    2    0    0 -0.16559420973E+00 -0.98189468972E+00  0.10542479024E+01  0.22936229559E+01  0.17770000000E+01 0. -1.
</event>
<event>
 6    1  0.1059789E-002  0.1859065E+03  0.7546771E-02  0.1065775E+00
        -11   -1    0    0    0    0  0.00000000000E+00  0.00000000000E+00  0.18250000000E+03  0.18250000000E+03  0.00000000000E+00 0.  1.
         11   -1    0    0    0    0 -0.00000000000E+00 -0.00000000000E+00 -0.18250000000E+03  0.18250000000E+03  0.00000000000E+00 0. -1.
        -11    1    1    2    0    0 -0.18577230260E+01 -0.56431349889E+01  0.17146883628E+03  0.17157172821E+03  0.00000000000E+00 0.  1.
         11    1    1    2    0    0 -0.30551332839E+00 -0.41395341846E+01 -0.17904536182E+03  0.17909346909E+03  0.00000000000E+00 0. -1.
        -15    1    1    2    0    0  0.11665896454E+01  0.87122199137E+01  0.34474288064E+01  0.96076116491E+01  0.17770000000E+01 0.  1.
         15    1    1    2    0    0  0.99664670893E+00  0.10704492598E+01  0.41290967385E+01  0.47271910429E+01  0.17770000000E+01 0. -1.
</event>
<event>
 6    1  0.1059789E-002  0.1826227E+03  0.7546771E-02  0.1068357E+00
        -11   -1    0    0    0    0  0.00000000000E+00  0.00000000000E+00  0.18250000000E+03  0.18250000000E+03  0.00000000000E+00 0.  1.
         11   -1    0    0    0    0 -0.00000000000E+00 -0.00000000000E+00 -0.18250000000E+03  0.18250000000E+03  0.00000000000E+00 0.  1.
        -11    1    1    2    0    0 -0.70883532116E+00 -0.19551509260E+00  0.24140920806E+02  0.24152116492E+02  0.00000000000E+00 0.  1.
         11    1    1    2    0    0 -0.18132434303E+01  0.67528519476E+01 -0.18224326207E+03  0.18237734352E+03  0.00000000000E+00 0.  1.
        -15    1    1    2    0    0  0.79844464449E+00 -0.76875013032E+01  0.10536553990E+03  0.10566356949E+03  0.17770000000E+01 0.  1.
         15    1    1    2    0    0  0.17236341070E+01  0.11301644482E+01  0.52736801364E+02  0.52806970499E+02  0.17770000000E+01 0.  1.
</event>
<event>
 6    1  0.1059789E-002  0.1826121E+03  0.7546771E-02  0.1068366E+00
        -11   -1    0    0    0    0  0.00000000000E+00  0.00000000000E+00  0.18250000000E+03  0.18250000000E+03  0.00000000000E+00 0.  1.
         11   -1    0    0    0    0 -0.00000000000E+00 -0.00000000000E+00 -0.18250000000E+03  0.18250000000E+03  0.00000000000E+00 0.  1.
        -11    1    1    2    0    0 -0.31536170542E+01  0.17845254420E+01  0.18235186205E+03  0.18238785986E+03  0.00000000000E+00 0.  1.
         11    1    1    2    0    0  0.38804309984E+01  0.18405522323E+01 -0.10115156889E+03  0.10124270475E+03  0.00000000000E+00 0.  1.
        -15    1    1    2    0    0  0.15896389811E+00 -0.16016802212E+01 -0.34555380301E+02  0.34638456746E+02  0.17770000000E+01 0.  1.
         15    1    1    2    0    0 -0.88577784230E+00 -0.20233974532E+01 -0.46644912860E+02  0.46730978637E+02  0.17770000000E+01 0. -1.
</event>
<event>
 6    1  0.1059789E-002  0.1858512E+03  0.7546771E-02  0.1065818E+00
        -11   -1    0    0    0    0  0.00000000000E+00  0.00000000000E+00  0.18250000000E+03  0.18250000000E+03  0.00000000000E+00 0.  1.
         11   -1    0    0    0    0 -0.00000000000E+00 -0.00000000000E+00 -0.18250000000E+03  0.18250000000E+03  0.00000000000E+00 0.  1.
        -11    1    1    2    0    0 -0.28583518899E+01 -0.46814903623E+00  0.17912536072E+03  0.17914877670E+03  0.00000000000E+00 0.  1.
         11    1    1    2    0    0  0.27851694581E+01  0.11925832256E+01 -0.17612012441E+03  0.17614618261E+03  0.00000000000E+00 0.  1.
        -15    1    1    2    0    0 -0.17601354788E+01 -0.30765370793E+00 -0.55381433597E+01  0.60845286243E+01  0.17770000000E+01 0. -1.
         15    1    1    2    0    0  0.18333179106E+01 -0.41678048145E+00  0.25329070543E+01  0.36205120738E+01  0.17770000000E+01 0. -1.
</event>
<event>
 6    1  0.1059789E-002  0.1870399E+03  0.7546771E-02  0.1064897E+00
        -11   -1    0    0    0    0  0.00000000000E+00  0.00000000000E+00  0.18250000000E+03  0.18250000000E+03  0.00000000000E+00 0. -1.
         11   -1    0    0    0    0 -0.00000000000E+00 -0.00000000000E+00 -0.18250000000E+03  0.18250000000E+03  0.00000000000E+00 0.  1.
        -11    1    1    2    0    0  0.36134165321E+01  0.30799387663E+01  0.17789677981E+03  0.17796012775E+03  0.00000000000E+00 0. -1.
         11    1    1    2    0    0 -0.12511649660E+01  0.25931961100E+01 -0.13506178547E+03  0.13509247194E+03  0.00000000000E+00 0.  1.
        -15    1    1    2    0    0 -0.10301810642E+02 -0.30628214331E+01 -0.41968377452E+02  0.43359089158E+02  0.17770000000E+01 0. -1.
         15    1    1    2    0    0  0.79395590755E+01 -0.26103134431E+01 -0.86661688924E+00  0.85883111505E+01  0.17770000000E+01 0.  1.
</event>
<event>
 6    1  0.1059789E-002  0.1840261E+03  0.7546771E-02  0.1067246E+00
        -11   -1    0    0    0    0  0.00000000000E+00  0.00000000000E+00  0.18250000000E+03  0.18250000000E+03  0.00000000000E+00 0. -1.
         11   -1    0    0    0    0 -0.00000000000E+00 -0.00000000000E+00 -0.18250000000E+03  0.18250000000E+03  0.00000000000E+00 0. -1.
        -11    1    1    2    0    0 -0.34302610634E+00 -0.24661549604E+01  0.18095675010E+03  0.18097387931E+03  0.00000000000E+00 0. -1.
         11    1    1    2    0    0 -0.56383532308E+01 -0.15966162510E+01 -0.16127736991E+03  0.16138379799E+03  0.00000000000E+00 0. -1.
        -15    1    1    2    0    0  0.14273771786E+01 -0.35081000246E-02 -0.36516086439E+00  0.23083520905E+01  0.17770000000E+01 0. -1.
         15    1    1    2    0    0  0.45540021586E+01  0.40662793115E+01 -0.19314219329E+02  0.20333970601E+02  0.17770000000E+01 0.  1.
</event>
<event>
 6    1  0.1059789E-002  0.1834154E+03  0.7546771E-02  0.1067728E+00
        -11   -1    0    0    0    0  0.00000000000E+00  0.00000000000E+00  0.18250000000E+03  0.18250000000E+03  0.00000000000E+00 0.  1.
         11   -1    0    0    0    0 -0.00000000000E+00 -0.00000000000E+00 -0.18250000000E+03  0.18250000000E+03  0.00000000000E+00 0. -1.
        -11    1    1    2    0    0 -0.49923337273E+00 -0.38656254384E+01  0.13306603013E+03  0.13312310344E+03  0.00000000000E+00 0.  1.
         11    1    1    2    0    0  0.32203570195E+01  0.19179791024E+01 -0.18154591175E+03  0.18158460127E+03  0.00000000000E+00 0. -1.
        -15    1    1    2    0    0 -0.13484899166E+01 -0.12705328845E+00  0.59809333810E+00  0.23130093459E+01  0.17770000000E+01 0.  1.
         15    1    1    2    0    0 -0.13726337302E+01  0.20746996245E+01  0.47881788286E+02  0.47979285951E+02  0.17770000000E+01 0. -1.
</event>
<event>
 6    1  0.1059789E-002  0.1444143E+03  0.7546771E-02  0.1103599E+00
        -11   -1    0    0    0    0  0.00000000000E+00  0.00000000000E+00  0.18250000000E+03  0.18250000000E+03  0.00000000000E+00 0.  1.
         11   -1    0    0    0    0 -0.00000000000E+00 -0.00000000000E+00 -0.18250000000E+03  0.18250000000E+03  0.00000000000E+00 0. -1.
        -11    1    1    2    0    0 -0.23090684008E+01 -0.19703291498E+01  0.13704955891E+03  0.13708317034E+03  0.00000000000E+00 0.  1.
         11    1    1    2    0    0  0.25396015735E+02 -0.13734977560E+02 -0.15067016448E+03  0.15341155657E+03  0.00000000000E+00 0. -1.
        -15    1    1    2    0    0 -0.28430641212E+02  0.59965241755E+01 -0.22429006179E+02  0.36748846364E+02  0.17770000000E+01 0.  1.
         15    1    1    2    0    0  0.53436938778E+01  0.97087825339E+01  0.36049611750E+02  0.37756426723E+02  0.17770000000E+01 0. -1.
</event>
<event>
 6    1  0.1059789E-002  0.1838964E+03  0.7546771E-02  0.1067349E+00
        -11   -1    0    0    0    0  0.00000000000E+00  0.00000000000E+00  0.18250000000E+03  0.18250000000E+03  0.00000000000E+00 0.  1.
         11   -1    0    0    0    0 -0.00000000000E+00 -0.00000000000E+00 -0.18250000000E+03  0.18250000000E+03  0.00000000000E+00 0.  1.
        -11    1    1    2    0    0  0.21581184897E+02 -0.19558345157E+02  0.17874628713E+03  0.18110359347E+03  0.00000000000E+00 0.  1.
         11    1    1    2    0    0 -0.86806563545E+00 -0.14746838397E+01 -0.25301671389E+02  0.25359471711E+02  0.00000000000E+00 0.  1.
        -15    1    1    2    0    0 -0.23659205447E+02  0.10683714389E+02 -0.13128662550E+03  0.13384033592E+03  0.17770000000E+01 0.  1.
         15    1    1    2    0    0  0.29460861860E+01  0.10349314607E+02 -0.22157990240E+02  0.24696598898E+02  0.17770000000E+01 0. -1.
</event>
<event>
 6    1  0.1059789E-002  0.2048829E+03  0.7546771E-02  0.1051914E+00
        -11   -1    0    0    0    0  0.00000000000E+00  0.00000000000E+00  0.18250000000E+03  0.18250000000E+03  0.00000000000E+00 0.  1.
         11   -1    0    0    0    0 -0.00000000000E+00 -0.00000000000E+00 -0.18250000000E+03  0.18250000000E+03  0.00000000000E+00 0.  1.
        -11    1    1    2    0    0 -0.39893675526E+01 -0.31119840618E+01  0.16003718168E+03  0.16011714155E+03  0.00000000000E+00 0.  1.
         11    1    1    2    0    0  0.23692497243E+01  0.44083892546E+01 -0.13340116970E+03  0.13349501608E+03  0.00000000000E+00 0.  1.
        -15    1    1    2    0    0  0.88684526164E+01 -0.10466080679E+02  0.19417577093E+02  0.23840896077E+02  0.17770000000E+01 0.  1.
         15    1    1    2    0    0 -0.72483347882E+01  0.91696754863E+01 -0.46053589077E+02  0.47546946291E+02  0.17770000000E+01 0. -1.
</event>
<event>
 6    1  0.1059789E-002  0.1853938E+03  0.7546771E-02  0.1066174E+00
        -11   -1    0    0    0    0  0.00000000000E+00  0.00000000000E+00  0.18250000000E+03  0.18250000000E+03  0.00000000000E+00 0. -1.
         11   -1    0    0    0    0 -0.00000000000E+00 -0.00000000000E+00 -0.18250000000E+03  0.18250000000E+03  0.00000000000E+00 0. -1.
        -11    1    1    2    0    0 -0.24549346569E+01 -0.93586176275E+00  0.12810457776E+03  0.12813151597E+03  0.00000000000E+00 0. -1.
         11    1    1    2    0    0  0.14432312583E+01 -0.66369435575E+01 -0.17947774615E+03  0.17960621732E+03  0.00000000000E+00 0. -1.
        -15    1    1    2    0    0 -0.35736029047E+01  0.75121223667E+01  0.36004536001E+01  0.92370782880E+01  0.17770000000E+01 0.  1.
         15    1    1    2    0    0  0.45853063032E+01  0.60682953517E-01  0.47772714783E+02  0.48025188423E+02  0.17770000000E+01 0.  1.
</event>
<event>
 6    1  0.1059789E-002  0.1930659E+03  0.7546771E-02  0.1060342E+00
        -11   -1    0    0    0    0  0.00000000000E+00  0.00000000000E+00  0.18250000000E+03  0.18250000000E+03  0.00000000000E+00 0. -1.
         11   -1    0    0    0    0 -0.00000000000E+00 -0.00000000000E+00 -0.18250000000E+03  0.18250000000E+03  0.00000000000E+00 0.  1.
        -11    1    1    2    0    0  0.70072057075E+01 -0.34984916596E+01  0.17175559351E+03  0.17193406957E+03  0.00000000000E+00 0. -1.
         11    1    1    2    0    0 -0.66746928598E-01 -0.43762782450E+01 -0.13564317940E+03  0.13571377375E+03  0.00000000000E+00 0.  1.
        -15    1    1    2    0    0 -0.13884293345E+02 -0.37815591156E+01  0.39413203253E+01  0.15025495863E+02  0.17770000000E+01 0. -1.
         15    1    1    2    0    0  0.69438345656E+01  0.11656329020E+02 -0.40053734440E+02  0.42326660821E+02  0.17770000000E+01 0.  1.
</event>
<event>
 6    1  0.1059789E-002  0.1832358E+03  0.7546771E-02  0.1067871E+00
        -11   -1    0    0    0    0  0.00000000000E+00  0.00000000000E+00  0.18250000000E+03  0.18250000000E+03  0.00000000000E+00 0. -1.
         11   -1    0    0    0    0 -0.00000000000E+00 -0.00000000000E+00 -0.18250000000E+03  0.18250000000E+03  0.00000000000E+00 0.  1.
        -11    1    1    2    0    0 -0.63821691324E+00 -0.41330550776E+01  0.13949664788E+03  0.13955932156E+03  0.00000000000E+00 0. -1.
         11    1    1    2    0    0  0.15902340185E+01  0.21263412287E+01 -0.18174478862E+03  0.18176418338E+03  0.00000000000E+00 0.  1.
        -15    1    1    2    0    0  0.63344828803E+00  0.52870791055E+01  0.34279083330E+02  0.34735684031E+02  0.17770000000E+01 0.  1.
         15    1    1    2    0    0 -0.15854653933E+01 -0.32803652566E+01  0.79690574083E+01  0.89408110207E+01  0.17770000000E+01 0. -1.
</event>
<event>
 6    1  0.1059789E-002  0.1850018E+03  0.7546771E-02  0.1066481E+00
        -11   -1    0    0    0    0  0.00000000000E+00  0.00000000000E+00  0.18250000000E+03  0.18250000000E+03  0.00000000000E+00 0. -1.
         11   -1    0    0    0    0 -0.00000000000E+00 -0.00000000000E+00 -0.18250000000E+03  0.18250000000E+03  0.00000000000E+00 0. -1.
        -11    1    1    2    0    0 -0.41314025178E+01 -0.51413714713E+01  0.17987729932E+03  0.17999818054E+03  0.00000000000E+00 0. -1.
         11    1    1    2    0    0 -0.33774954028E+01 -0.47107693736E+00 -0.16577123220E+03  0.16580630511E+03  0.00000000000E+00 0. -1.
        -15    1    1    2    0    0  0.15677494657E+01  0.14040599501E+01  0.48076877947E+00  0.27960848253E+01  0.17770000000E+01 0. -1.
         15    1    1    2    0    0  0.59411484549E+01  0.42083884586E+01 -0.14586835897E+02  0.16399429529E+02  0.17770000000E+01 0.  1.
</event>
<event>
 6    1  0.1059789E-002  0.1850731E+03  0.7546771E-02  0.1066425E+00
        -11   -1    0    0    0    0  0.00000000000E+00  0.00000000000E+00  0.18250000000E+03  0.18250000000E+03  0.00000000000E+00 0.  1.
         11   -1    0    0    0    0 -0.00000000000E+00 -0.00000000000E+00 -0.18250000000E+03  0.18250000000E+03  0.00000000000E+00 0. -1.
        -11    1    1    2    0    0  0.17571808330E+01 -0.16815040099E+01  0.16391092140E+03  0.16392896417E+03  0.00000000000E+00 0.  1.
         11    1    1    2    0    0  0.36502025958E+01  0.51090612767E+01 -0.17981729729E+03  0.17992689319E+03  0.00000000000E+00 0. -1.
        -15    1    1    2    0    0 -0.40110772330E+01  0.35452205953E+00  0.16142685345E+02  0.16731958810E+02  0.17770000000E+01 0.  1.
         15    1    1    2    0    0 -0.13963061958E+01 -0.37820793264E+01 -0.23630945155E+00  0.44121838335E+01  0.17770000000E+01 0. -1.
</event>
<event>
 6    1  0.1059789E-002  0.1973451E+03  0.7546771E-02  0.1057216E+00
        -11   -1    0    0    0    0  0.00000000000E+00  0.00000000000E+00  0.18250000000E+03  0.18250000000E+03  0.00000000000E+00 0.  1.
         11   -1    0    0    0    0 -0.00000000000E+00 -0.00000000000E+00 -0.18250000000E+03  0.18250000000E+03  0.00000000000E+00 0. -1.
        -11    1    1    2    0    0  0.12851823448E+00 -0.55207635658E+01  0.13669984578E+03  0.13681134157E+03  0.00000000000E+00 0.  1.
         11    1    1    2    0    0  0.61164678581E+01  0.10788843854E+01 -0.16753980022E+03  0.16765488310E+03  0.00000000000E+00 0. -1.
        -15    1    1    2    0    0  0.26458141609E+01  0.13186640841E+02 -0.10603284399E+02  0.17218455165E+02  0.17770000000E+01 0. -1.
         15    1    1    2    0    0 -0.88908002534E+01 -0.87447616606E+01  0.41443238844E+02  0.43315320160E+02  0.17770000000E+01 0.  1.
</event>
<event>
 6    1  0.1059789E-002  0.1907785E+03  0.7546771E-02  0.1062050E+00
        -11   -1    0    0    0    0  0.00000000000E+00  0.00000000000E+00  0.18250000000E+03  0.18250000000E+03  0.00000000000E+00 0. -1.
         11   -1    0    0    0    0 -0.00000000000E+00 -0.00000000000E+00 -0.18250000000E+03  0.18250000000E+03  0.00000000000E+00 0. -1.
        -11    1    1    2    0    0 -0.12379008035E+02  0.53915201625E+01  0.12081015551E+03  0.12156233793E+03  0.00000000000E+00 0. -1.
         11    1    1    2    0    0 -0.12955295450E+02 -0.38068285909E+01 -0.17369742708E+03  0.17422149064E+03  0.00000000000E+00 0. -1.
        -15    1    1    2    0    0  0.24560169759E+02  0.62594731370E+01  0.13040909071E+02  0.28558816168E+02  0.17770000000E+01 0.  1.
         15    1    1    2    0    0  0.77413372674E+00 -0.78441647086E+01  0.39846362507E+02  0.40657355264E+02  0.17770000000E+01 0. -1.
</event>
<event>
 6    1  0.1059789E-002  0.1848025E+03  0.7546771E-02  0.1066637E+00
        -11   -1    0    0    0    0  0.00000000000E+00  0.00000000000E+00  0.18250000000E+03  0.18250000000E+03  0.00000000000E+00 0. -1.
         11   -1    0    0    0    0 -0.00000000000E+00 -0.00000000000E+00 -0.18250000000E+03  0.18250000000E+03  0.00000000000E+00 0.  1.
        -11    1    1    2    0    0 -0.60317408598E-01  0.30405949840E+01  0.17483793979E+03  0.17486438759E+03  0.00000000000E+00 0. -1.
         11    1    1    2    0    0 -0.21999304075E+01 -0.21146972251E+01 -0.18017163114E+03  0.18019747031E+03  0.00000000000E+00 0.  1.
        -15    1    1    2    0    0 -0.11852364108E+01 -0.17217932590E+01 -0.59745395643E+00  0.28078528463E+01  0.17770000000E+01 0.  1.
         15    1    1    2    0    0  0.34454842269E+01  0.79589550009E+00  0.59311453063E+01  0.71302892542E+01  0.17770000000E+01 0.  1.
</event>
<event>
 6    1  0.1958238E-002  0.1857603E+03  0.7546771E-02  0.1065889E+00
        -11   -1    0    0    0    0  0.00000000000E+00  0.00000000000E+00  0.18250000000E+03  0.18250000000E+03  0.00000000000E+00 0. -1.
         11   -1    0    0    0    0 -0.00000000000E+00 -0.00000000000E+00 -0.18250000000E+03  0.18250000000E+03  0.00000000000E+00 0. -1.
        -11    1    1    2    0    0  0.56467819432E+00 -0.28354143562E+01  0.15485422602E+03  0.15488121175E+03  0.00000000000E+00 0. -1.
         11    1    1    2    0    0  0.76680382001E+01 -0.12064178000E+01 -0.17907152254E+03  0.17923968433E+03  0.00000000000E+00 0. -1.
        -15    1    1    2    0    0  0.32837228091E+00  0.20560933167E+01  0.21263348243E+02  0.21438821227E+02  0.17770000000E+01 0. -1.
         15    1    1    2    0    0 -0.85610886754E+01  0.19857388396E+01  0.29539482764E+01  0.94402827005E+01  0.17770000000E+01 0. -1.
</event>
<event>
 6    1  0.1059789E-002  0.1871510E+03  0.7546771E-02  0.1064812E+00
        -11   -1    0    0    0    0  0.00000000000E+00  0.00000000000E+00  0.18250000000E+03  0.18250000000E+03  0.00000000000E+00 0. -1.
         11   -1    0    0    0    0 -0.00000000000E+00 -0.00000000000E+00 -0.18250000000E+03  0.18250000000E+03  0.00000000000E+00 0.  1.
        -11    1    1    2    0    0  0.46944778736E+01  0.76049789808E+01  0.17172840390E+03  0.17196080522E+03  0.00000000000E+00 0. -1.
         11    1    1    2    0    0 -0.56324070287E+00 -0.25493132012E+01 -0.17782978969E+03  0.17784895372E+03  0.00000000000E+00 0.  1.
        -15    1    1    2    0    0  0.12748508305E+01  0.30726384818E+01  0.29219760453E+01  0.47709563915E+01  0.17770000000E+01 0. -1.
         15    1    1    2    0    0 -0.54060880012E+01 -0.81283042614E+01  0.31794097465E+01  0.10419284667E+02  0.17770000000E+01 0.  1.
</event>
<event>
 6    1  0.1059789E-002  0.1391132E+03  0.7546771E-02  0.1109434E+00
        -11   -1    0    0    0    0  0.00000000000E+00  0.00000000000E+00  0.18250000000E+03  0.18250000000E+03  0.00000000000E+00 0.  1.
         11   -1    0    0    0    0 -0.00000000000E+00 -0.00000000000E+00 -0.18250000000E+03  0.18250000000E+03  0.00000000000E+00 0. -1.
        -11    1    1    2    0    0  0.32376004125E+01  0.29913593325E+00  0.13035120961E+03  0.13039175351E+03  0.00000000000E+00 0.  1.
         11    1    1    2    0    0 -0.11683110912E+01 -0.88927998389E+00 -0.33969446022E+02  0.34001162226E+02  0.00000000000E+00 0. -1.
        -15    1    1    2    0    0  0.83697471854E+00 -0.54134157224E+00 -0.14842561360E+03  0.14843959741E+03  0.17770000000E+01 0. -1.
         15    1    1    2    0    0 -0.29062640398E+01  0.11314856229E+01  0.52043850018E+02  0.52167486848E+02  0.17770000000E+01 0.  1.
</event>
<event>
 6    1  0.1059789E-002  0.1829855E+03  0.7546771E-02  0.1068069E+00
        -11   -1    0    0    0    0  0.00000000000E+00  0.00000000000E+00  0.18250000000E+03  0.18250000000E+03  0.00000000000E+00 0. -1.
         11   -1    0    0    0    0 -0.00000000000E+00 -0.00000000000E+00 -0.18250000000E+03  0.18250000000E+03  0.00000000000E+00 0.  1.
        -11    1    1    2    0    0  0.73063227898E+00 -0.16774629362E+01  0.10580121327E+03  0.10581703282E+03  0.00000000000E+00 0. -1.
         11    1    1    2    0    0 -0.28332295011E+01 -0.93670360503E-01 -0.18199244255E+03  0.18201451896E+03  0.00000000000E+00 0.  1.
        -15    1    1    2    0    0  0.29639297412E+01 -0.20891019119E+01  0.93255017079E+01  0.10162280129E+02  0.17770000000E+01 0. -1.
         15    1    1    2    0    0 -0.86133251909E+00  0.38602352086E+01  0.66865727573E+02  0.67006168093E+02  0.17770000000E+01 0.  1.
</event>
<event>
 6    1  0.1059789E-002  0.1793274E+03  0.7546771E-02  0.1071009E+00
        -11   -1    0    0    0    0  0.00000000000E+00  0.00000000000E+00  0.18250000000E+03  0.18250000000E+03  0.00000000000E+00 0.  1.
         11   -1    0    0    0    0 -0.00000000000E+00 -0.00000000000E+00 -0.18250000000E+03  0.18250000000E+03  0.00000000000E+00 0.  1.
        -11    1    1    2    0    0 -0.12027590922E+00 -0.56254396444E+00  0.87350050749E+01  0.87539268711E+01  0.00000000000E+00 0.  1.
         11    1    1    2    0    0 -0.39248842608E+01  0.17211482244E+01 -0.18115009529E+03  0.18120078391E+03  0.00000000000E+00 0.  1.
        -15    1    1    2    0    0 -0.27846259827E+01  0.13416899547E+02  0.68997507521E+02  0.70367471949E+02  0.17770000000E+01 0. -1.
         15    1    1    2    0    0  0.68297861528E+01 -0.14575503807E+02  0.10341758269E+03  0.10467781727E+03  0.17770000000E+01 0.  1.
</event>
<event>
 6    1  0.1059789E-002  0.1882941E+03  0.7546771E-02  0.1063934E+00
        -11   -1    0    0    0    0  0.00000000000E+00  0.00000000000E+00  0.18250000000E+03  0.18250000000E+03  0.00000000000E+00 0.  1.
         11   -1    0    0    0    0 -0.00000000000E+00 -0.00000000000E+00 -0.18250000000E+03  0.18250000000E+03  0.00000000000E+00 0. -1.
        -11    1    1    2    0    0 -0.19520714463E+01  0.23848794579E+01  0.16727201634E+03  0.16730040550E+03  0.00000000000E+00 0.  1.
         11    1    1    2    0    0 -0.31220031037E+01  0.89263011947E+00 -0.17667604082E+03  0.17670587736E+03  0.00000000000E+00 0. -1.
        -15    1    1    2    0    0 -0.30383544045E+01 -0.13246165841E+01  0.11591588661E+02  0.12186421265E+02  0.17770000000E+01 0. -1.
         15    1    1    2    0    0  0.81124289546E+01 -0.19528929932E+01 -0.21875641735E+01  0.88072958732E+01  0.17770000000E+01 0.  1.
</event>
<event>
 6    1  0.1059789E-002  0.1831030E+03  0.7546771E-02  0.1067976E+00
        -11   -1    0    0    0    0  0.00000000000E+00  0.00000000000E+00  0.18250000000E+03  0.18250000000E+03  0.00000000000E+00 0. -1.
         11   -1    0    0    0    0 -0.00000000000E+00 -0.00000000000E+00 -0.18250000000E+03  0.18250000000E+03  0.00000000000E+00 0. -1.
        -11    1    1    2    0    0  0.17250732106E+01 -0.11251763348E+01  0.12307200863E+03  0.12308924083E+03  0.00000000000E+00 0. -1.
         11    1    1    2    0    0 -0.25749191799E+00  0.28858797317E+01 -0.18187392264E+03  0.18189699926E+03  0.00000000000E+00 0. -1.
        -15    1    1    2    0    0  0.24166916039E+01 -0.17290892784E+01  0.52324808120E+01  0.62742913934E+01  0.17770000000E+01 0.  1.
         15    1    1    2    0    0 -0.38842728965E+01 -0.31614118574E-01  0.53569433191E+02  0.53739468520E+02  0.17770000000E+01 0. -1.
</event>
<event>
 6    1  0.1059789E-002  0.1826288E+03  0.7546771E-02  0.1068352E+00
        -11   -1    0    0    0    0  0.00000000000E+00  0.00000000000E+00  0.18250000000E+03  0.18250000000E+03  0.00000000000E+00 0.  1.
         11   -1    0    0    0    0 -0.00000000000E+00 -0.00000000000E+00 -0.18250000000E+03  0.18250000000E+03  0.00000000000E+00 0. -1.
        -11    1    1    2    0    0 -0.55102778136E+00 -0.30607753461E+01  0.18234472726E+03  0.18237124646E+03  0.00000000000E+00 0.  1.
         11    1    1    2    0    0 -0.87281625921E+00  0.14896330656E+00 -0.47606848231E+02  0.47615081610E+02  0.00000000000E+00 0. -1.
        -15    1    1    2    0    0 -0.14709202050E+01  0.33327876564E+01 -0.10521713914E+03  0.10529518117E+03  0.17770000000E+01 0.  1.
         15    1    1    2    0    0  0.28947642456E+01 -0.42097561690E+00 -0.29520739883E+02  0.29718490755E+02  0.17770000000E+01 0. -1.
</event>
<event>
 6    1  0.1059789E-002  0.1827499E+03  0.7546771E-02  0.1068256E+00
        -11   -1    0    0    0    0  0.00000000000E+00  0.00000000000E+00  0.18250000000E+03  0.18250000000E+03  0.00000000000E+00 0. -1.
         11   -1    0    0    0    0 -0.00000000000E+00 -0.00000000000E+00 -0.18250000000E+03  0.18250000000E+03  0.00000000000E+00 0.  1.
        -11    1    1    2    0    0  0.11770660121E+01  0.27759259602E+01  0.18222514735E+03  0.18225009074E+03  0.00000000000E+00 0. -1.
         11    1    1    2    0    0  0.59064378539E+00  0.70115940102E-01 -0.26904990725E+02  0.26911564471E+02  0.00000000000E+00 0.  1.
        -15    1    1    2    0    0 -0.28280754917E+01 -0.29374864020E+01 -0.15080673017E+03  0.15087231168E+03  0.17770000000E+01 0.  1.
         15    1    1    2    0    0  0.10603656942E+01  0.91444501748E-01 -0.45134264510E+01  0.49660331081E+01  0.17770000000E+01 0.  1.
</event>
<event>
 6    1  0.1059789E-002  0.1850276E+03  0.7546771E-02  0.1066460E+00
        -11   -1    0    0    0    0  0.00000000000E+00  0.00000000000E+00  0.18250000000E+03  0.18250000000E+03  0.00000000000E+00 0. -1.
         11   -1    0    0    0    0 -0.00000000000E+00 -0.00000000000E+00 -0.18250000000E+03  0.18250000000E+03  0.00000000000E+00 0.  1.
        -11    1    1    2    0    0  0.50982386487E+01  0.12755290713E+01  0.17157344848E+03  0.17165391704E+03  0.00000000000E+00 0. -1.
         11    1    1    2    0    0 -0.18451383188E+01  0.23350979153E+01 -0.17994775656E+03  0.17997236541E+03  0.00000000000E+00 0.  1.
        -15    1    1    2    0    0  0.95903029349E+00 -0.49749587541E+01  0.28646742228E+01  0.60855600491E+01  0.17770000000E+01 0.  1.
         15    1    1    2    0    0 -0.42121306234E+01  0.13643317675E+01  0.55096338642E+01  0.72881575092E+01  0.17770000000E+01 0.  1.
</event>
<event>
 6    1  0.1059789E-002  0.1853128E+03  0.7546771E-02  0.1066238E+00
        -11   -1    0    0    0    0  0.00000000000E+00  0.00000000000E+00  0.18250000000E+03  0.18250000000E+03  0.00000000000E+00 0. -1.
         11   -1    0    0    0    0 -0.00000000000E+00 -0.00000000000E+00 -0.18250000000E+03  0.18250000000E+03  0.00000000000E+00 0.  1.
        -11    1    1    2    0    0 -0.26085503949E+01 -0.22245042432E+01  0.17965448387E+03  0.17968719077E+03  0.00000000000E+00 0. -1.
         11    1    1    2    0    0  0.25616985306E+01 -0.56704364810E+00 -0.14265278337E+03  0.14267690928E+03  0.00000000000E+00 0.  1.
        -15    1    1    2    0    0 -0.39435016835E+01 -0.81349292960E+01 -0.19205501280E+02  0.21301110032E+02  0.17770000000E+01 0.  1.
         15    1    1    2    0    0  0.39903535477E+01  0.10926477187E+02 -0.17796199218E+02  0.21334789916E+02  0.17770000000E+01 0. -1.
</event>
<event>
 6    1  0.1059789E-002  0.1916866E+03  0.7546771E-02  0.1061369E+00
        -11   -1    0    0    0    0  0.00000000000E+00  0.00000000000E+00  0.18250000000E+03  0.18250000000E+03  0.00000000000E+00 0.  1.
         11   -1    0    0    0    0 -0.00000000000E+00 -0.00000000000E+00 -0.18250000000E+03  0.18250000000E+03  0.00000000000E+00 0.  1.
        -11    1    1    2    0    0  0.92034624604E+01 -0.16709925789E+02  0.17226030035E+03  0.17331340518E+03  0.00000000000E+00 0.  1.
         11    1    1    2    0    0  0.15021580051E+01  0.93958047237E+01 -0.15021119151E+03  0.15051225758E+03  0.00000000000E+00 0.  1.
        -15    1    1    2    0    0 -0.11439070466E+02  0.18955753957E+02 -0.10161748205E+02  0.24425228695E+02  0.17770000000E+01 0.  1.
         15    1    1    2    0    0  0.73345000035E+00 -0.11641632892E+02 -0.11887360630E+02  0.16749108544E+02  0.17770000000E+01 0. -1.
</event>
<event>
 6    1  0.1059789E-002  0.1711817E+03  0.7546771E-02  0.1077839E+00
        -11   -1    0    0    0    0  0.00000000000E+00  0.00000000000E+00  0.18250000000E+03  0.18250000000E+03  0.00000000000E+00 0. -1.
         11   -1    0    0    0    0 -0.00000000000E+00 -0.00000000000E+00 -0.18250000000E+03  0.18250000000E+03  0.00000000000E+00 0.  1.
        -11    1    1    2    0    0  0.48604292166E+01  0.35636196561E+01  0.17279050458E+03  0.17289558014E+03  0.00000000000E+00 0. -1.
         11    1    1    2    0    0  0.73133759090E+00  0.59614737225E+01 -0.16955497380E+03  0.16966131900E+03  0.00000000000E+00 0.  1.
        -15    1    1    2    0    0 -0.11130820260E+01 -0.31956509498E+01  0.78895531219E+01  0.87666364162E+01  0.17770000000E+01 0. -1.
         15    1    1    2    0    0 -0.44786847815E+01 -0.63294424288E+01 -0.11125083903E+02  0.13676464444E+02  0.17770000000E+01 0.  1.
</event>
<event>
 6    1  0.1059789E-002  0.1827968E+03  0.7546771E-02  0.1068219E+00
        -11   -1    0    0    0    0  0.00000000000E+00  0.00000000000E+00  0.18250000000E+03  0.18250000000E+03  0.00000000000E+00 0. -1.
         11   -1    0    0    0    0 -0.00000000000E+00 -0.00000000000E+00 -0.18250000000E+03  0.18250000000E+03  0.00000000000E+00 0.  1.
        -11    1    1    2    0    0 -0.94442436847E+00  0.24655428882E+01  0.18218404111E+03  0.18220317142E+03  0.00000000000E+00 0. -1.
         11    1    1    2    0    0  0.36593627138E+00  0.24339110649E+01 -0.12262583414E+03  0.12265053212E+03  0.00000000000E+00 0.  1.
        -15    1    1    2    0    0 -0.90178435902E+00 -0.56205117374E+01 -0.41456161939E+02  0.41882865935E+02  0.17770000000E+01 0.  1.
         15    1    1    2    0    0  0.14802724561E+01  0.72105778435E+00 -0.18102045037E+02  0.18263430521E+02  0.17770000000E+01 0.  1.
</event>
<event>
 6    1  0.1059789E-002  0.1827643E+03  0.7546771E-02  0.1068245E+00
        -11   -1    0    0    0    0  0.00000000000E+00  0.00000000000E+00  0.18250000000E+03  0.18250000000E+03  0.00000000000E+00 0.  1.
         11   -1    0    0    0    0 -0.00000000000E+00 -0.00000000000E+00 -0.18250000000E+03  0.18250000000E+03  0.00000000000E+00 0.  1.
        -11    1    1    2    0    0  0.38034617454E+00 -0.36638076863E+00  0.25186465517E+02  0.25192001574E+02  0.00000000000E+00 0.  1.
         11    1    1    2    0    0  0.39910643270E+01  0.46516029141E+00 -0.18219144512E+03  0.18223574744E+03  0.00000000000E+00 0.  1.
        -15    1    1    2    0    0 -0.43921124211E+01 -0.25626491605E+01  0.27015757907E+02  0.27547535761E+02  0.17770000000E+01 0.  1.
         15    1    1    2    0    0  0.20701919591E-01  0.24638696377E+01  0.12998922170E+03  0.13002471523E+03  0.17770000000E+01 0.  1.
</event>
<event>
 6    1  0.1059789E-002  0.1838158E+03  0.7546771E-02  0.1067412E+00
        -11   -1    0    0    0    0  0.00000000000E+00  0.00000000000E+00  0.18250000000E+03  0.18250000000E+03  0.00000000000E+00 0.  1.
         11   -1    0    0    0    0 -0.00000000000E+00 -0.00000000000E+00 -0.18250000000E+03  0.18250000000E+03  0.00000000000E+00 0. -1.
        -11    1    1    2    0    0 -0.18258472876E+00 -0.25398112520E+01  0.18116630322E+03  0.18118419743E+03  0.00000000000E+00 0.  1.
         11    1    1    2    0    0  0.48781965360E+00 -0.20015691984E+01 -0.14830274667E+03  0.14831705538E+03  0.00000000000E+00 0. -1.
        -15    1    1    2    0    0  0.47948930915E+00  0.19154647629E+01 -0.19096372915E+00  0.26632895827E+01  0.17770000000E+01 0.  1.
         15    1    1    2    0    0 -0.78472423398E+00  0.26259156876E+01 -0.32672592822E+02  0.32835457603E+02  0.17770000000E+01 0.  1.
</event>
<event>
 6    1  0.1059789E-002  0.1846817E+03  0.7546771E-02  0.1066731E+00
        -11   -1    0    0    0    0  0.00000000000E+00  0.00000000000E+00  0.18250000000E+03  0.18250000000E+03  0.00000000000E+00 0. -1.
         11   -1    0    0    0    0 -0.00000000000E+00 -0.00000000000E+00 -0.18250000000E+03  0.18250000000E+03  0.00000000000E+00 0.  1.
        -11    1    1    2    0    0 -0.44901105865E+01  0.41802219408E+01  0.16550733578E+03  0.16562099368E+03  0.00000000000E+00 0. -1.
         11    1    1    2    0    0 -0.88385864006E+00  0.37102443010E+01 -0.18027799366E+03  0.18031833550E+03  0.00000000000E+00 0.  1.
        -15    1    1    2    0    0  0.48040728061E+01 -0.44450570741E+01  0.46911842682E+01  0.82463680949E+01  0.17770000000E+01 0. -1.
         15    1    1    2    0    0  0.56989642051E+00 -0.34454091677E+01  0.10079473611E+02  0.10814302730E+02  0.17770000000E+01 0. -1.
</event>
<event>
 6    1  0.1059789E-002  0.1837202E+03  0.7546771E-02  0.1067488E+00
        -11   -1    0    0    0    0  0.00000000000E+00  0.00000000000E+00  0.18250000000E+03  0.18250000000E+03  0.00000000000E+00 0.  1.
         11   -1    0    0    0    0 -0.00000000000E+00 -0.00000000000E+00 -0.18250000000E+03  0.18250000000E+03  0.00000000000E+00 0.  1.
        -11    1    1    2    0    0 -0.48242501132E+01 -0.55261997798E+01  0.16350676212E+03  0.16367123612E+03  0.00000000000E+00 0.  1.
         11    1    1    2    0    0  0.48085999474E+01  0.12392029881E+01 -0.18121179171E+03  0.18127981606E+03  0.00000000000E+00 0.  1.
        -15    1    1    2    0    0 -0.18832517629E+01  0.70177104454E+00  0.14057498277E+02  0.14311188162E+02  0.17770000000E+01 0. -1.
         15    1    1    2    0    0  0.18989019287E+01  0.35852257471E+01  0.36475313110E+01  0.57377596549E+01  0.17770000000E+01 0.  1.
</event>
<event>
 6    1  0.1059789E-002  0.1828714E+03  0.7546771E-02  0.1068160E+00
        -11   -1    0    0    0    0  0.00000000000E+00  0.00000000000E+00  0.18250000000E+03  0.18250000000E+03  0.00000000000E+00 0.  1.
         11   -1    0    0    0    0 -0.00000000000E+00 -0.00000000000E+00 -0.18250000000E+03  0.18250000000E+03  0.00000000000E+00 0.  1.
        -11    1    1    2    0    0 -0.56927190392E+00  0.19935069266E+01  0.11748744662E+03  0.11750573711E+03  0.00000000000E+00 0.  1.
         11    1    1    2    0    0 -0.41601795674E+01 -0.13505366730E+01 -0.18207606622E+03  0.18212859450E+03  0.00000000000E+00 0.  1.
        -15    1    1    2    0    0 -0.19689506949E+01 -0.14590498090E+01  0.16848845625E+02  0.17118613293E+02  0.17770000000E+01 0. -1.
         15    1    1    2    0    0  0.66984021662E+01  0.81607955541E+00  0.47739773979E+02  0.48247055102E+02  0.17770000000E+01 0. -1.
</event>
<event>
 6    1  0.1059789E-002  0.1831864E+03  0.7546771E-02  0.1067910E+00
        -11   -1    0    0    0    0  0.00000000000E+00  0.00000000000E+00  0.18250000000E+03  0.18250000000E+03  0.00000000000E+00 0. -1.
         11   -1    0    0    0    0 -0.00000000000E+00 -0.00000000000E+00 -0.18250000000E+03  0.18250000000E+03  0.00000000000E+00 0. -1.
        -11    1    1    2    0    0 -0.31437770767E+01  0.57778718697E+00  0.18178547180E+03  0.18181357191E+03  0.00000000000E+00 0. -1.
         11    1    1    2    0    0 -0.33472675303E+01 -0.20060038443E+01 -0.10658297418E+03  0.10665438873E+03  0.00000000000E+00 0. -1.
        -15    1    1    2    0    0  0.51695313097E+00  0.38384160450E+01 -0.86273502368E+01  0.96223479142E+01  0.17770000000E+01 0.  1.
         15    1    1    2    0    0  0.59740914760E+01 -0.24101993877E+01 -0.66575147391E+02  0.66909691444E+02  0.17770000000E+01 0. -1.
</event>
<event>
 6    1  0.1059789E-002  0.1830237E+03  0.7546771E-02  0.1068039E+00
        -11   -1    0    0    0    0  0.00000000000E+00  0.00000000000E+00  0.18250000000E+03  0.18250000000E+03  0.00000000000E+00 0.  1.
         11   -1    0    0    0    0 -0.00000000000E+00 -0.00000000000E+00 -0.18250000000E+03  0.18250000000E+03  0.00000000000E+00 0.  1.
        -11    1    1    2    0    0  0.37516372251E+01  0.12661415141E+01  0.18193323528E+03  0.18197631713E+03  0.00000000000E+00 0.  1.
         11    1    1    2    0    0  0.51718163710E+01  0.22600664429E+00 -0.84385713086E+02  0.84544351299E+02  0.00000000000E+00 0.  1.
        -15    1    1    2    0    0 -0.75269246645E+01 -0.37944287904E-02 -0.91815205478E+02  0.92140351070E+02  0.17770000000E+01 0.  1.
         15    1    1    2    0    0 -0.13965289316E+01 -0.14883537296E+01 -0.57323167161E+01  0.63389805028E+01  0.17770000000E+01 0. -1.
</event>
<event>
 6    1  0.1059789E-002  0.1831383E+03  0.7546771E-02  0.1067948E+00
        -11   -1    0    0    0    0  0.00000000000E+00  0.00000000000E+00  0.18250000000E+03  0.18250000000E+03  0.00000000000E+00 0. -1.
         11   -1    0    0    0    0 -0.00000000000E+00 -0.00000000000E+00 -0.18250000000E+03  0.18250000000E+03  0.00000000000E+00 0.  1.
        -11    1    1    2    0    0  0.12030524308E+01  0.25747243433E+01  0.16335580049E+03  0.16338051933E+03  0.00000000000E+00 0. -1.
         11    1    1    2    0    0  0.23460490641E+01 -0.71087871099E+00 -0.18184519957E+03  0.18186172192E+03  0.00000000000E+00 0.  1.
        -15    1    1    2    0    0 -0.34855853258E+01  0.52491373553E+00  0.11566139241E+02  0.12221217020E+02  0.17770000000E+01 0. -1.
         15    1    1    2    0    0 -0.63516169012E-01 -0.23887593678E+01  0.69232598311E+01  0.75365417341E+01  0.17770000000E+01 0. -1.
</event>
<event>
 6    1  0.1059789E-002  0.1851925E+03  0.7546771E-02  0.1066332E+00
        -11   -1    0    0    0    0  0.00000000000E+00  0.00000000000E+00  0.18250000000E+03  0.18250000000E+03  0.00000000000E+00 0. -1.
         11   -1    0    0    0    0 -0.00000000000E+00 -0.00000000000E+00 -0.18250000000E+03  0.18250000000E+03  0.00000000000E+00 0. -1.
        -11    1    1    2    0    0 -0.24509279636E+01  0.67334149529E-01  0.17979079563E+03  0.17980751312E+03  0.00000000000E+00 0. -1.
         11    1    1    2    0    0  0.18295363982E+01 -0.22158653498E+01 -0.17418179811E+03  0.17420549950E+03  0.00000000000E+00 0. -1.
        -15    1    1    2    0    0 -0.22382989761E+01  0.34642029111E+00 -0.64618481228E+01  0.70741218173E+01  0.17770000000E+01 0. -1.
         15    1    1    2    0    0  0.28596905415E+01  0.18021109091E+01  0.85285060824E+00  0.39128655589E+01  0.17770000000E+01 0. -1.
</event>
<event>
 6    1  0.1059789E-002  0.1850328E+03  0.7546771E-02  0.1066456E+00
        -11   -1    0    0    0    0  0.00000000000E+00  0.00000000000E+00  0.18250000000E+03  0.18250000000E+03  0.00000000000E+00 0. -1.
         11   -1    0    0    0    0 -0.00000000000E+00 -0.00000000000E+00 -0.18250000000E+03  0.18250000000E+03  0.00000000000E+00 0.  1.
        -11    1    1    2    0    0  0.14885699976E+00  0.57135215084E+00  0.24852291758E+02  0.24859304240E+02  0.00000000000E+00 0. -1.
         11    1    1    2    0    0  0.13625543000E+02  0.41102170084E+01 -0.17940361918E+03  0.17996724113E+03  0.00000000000E+00 0.  1.
        -15    1    1    2    0    0 -0.14122621036E+02 -0.31985735020E+01  0.16194233307E+02  0.21796564380E+02  0.17770000000E+01 0. -1.
         15    1    1    2    0    0  0.34822103614E+00 -0.14829956572E+01  0.13835709411E+03  0.13837689025E+03  0.17770000000E+01 0. -1.
</event>
<event>
 6    1  0.1059789E-002  0.1846998E+03  0.7546771E-02  0.1066717E+00
        -11   -1    0    0    0    0  0.00000000000E+00  0.00000000000E+00  0.18250000000E+03  0.18250000000E+03  0.00000000000E+00 0. -1.
         11   -1    0    0    0    0 -0.00000000000E+00 -0.00000000000E+00 -0.18250000000E+03  0.18250000000E+03  0.00000000000E+00 0.  1.
        -11    1    1    2    0    0 -0.39313952538E+01 -0.98537498714E+00  0.18025467580E+03  0.18030023566E+03  0.00000000000E+00 0. -1.
         11    1    1    2    0    0 -0.79571136028E-02  0.29398205741E+01 -0.14212969754E+03  0.14216009824E+03  0.00000000000E+00 0.  1.
        -15    1    1    2    0    0  0.11488619210E+01  0.69585430804E+01 -0.26717965284E+02  0.27690225774E+02  0.17770000000E+01 0.  1.
         15    1    1    2    0    0  0.27904904464E+01 -0.89129886673E+01 -0.11407012974E+02  0.14849440323E+02  0.17770000000E+01 0. -1.
</event>
<event>
 6    1  0.1059789E-002  0.1851493E+03  0.7546771E-02  0.1066365E+00
        -11   -1    0    0    0    0  0.00000000000E+00  0.00000000000E+00  0.18250000000E+03  0.18250000000E+03  0.00000000000E+00 0.  1.
         11   -1    0    0    0    0 -0.00000000000E+00 -0.00000000000E+00 -0.18250000000E+03  0.18250000000E+03  0.00000000000E+00 0.  1.
        -11    1    1    2    0    0 -0.30565926056E+01  0.18681505273E+01  0.17981497246E+03  0.17985065212E+03  0.00000000000E+00 0.  1.
         11    1    1    2    0    0  0.18016787244E+01  0.26396947048E+01 -0.11700088641E+03  0.11704452766E+03  0.00000000000E+00 0.  1.
        -15    1    1    2    0    0  0.28211356625E+01 -0.19533036200E+01  0.11610944972E+01  0.40348569850E+01  0.17770000000E+01 0. -1.
         15    1    1    2    0    0 -0.15662217813E+01 -0.25545416122E+01 -0.63975180553E+02  0.64069963238E+02  0.17770000000E+01 0. -1.
</event>
<event>
 6    1  0.1209799E-002  0.1826841E+03  0.7546771E-02  0.1068308E+00
        -11   -1    0    0    0    0  0.00000000000E+00  0.00000000000E+00  0.18250000000E+03  0.18250000000E+03  0.00000000000E+00 0.  1.
         11   -1    0    0    0    0 -0.00000000000E+00 -0.00000000000E+00 -0.18250000000E+03  0.18250000000E+03  0.00000000000E+00 0.  1.
        -11    1    1    2    0    0 -0.19830579442E+00 -0.24981385355E+01  0.18229864620E+03  0.18231586993E+03  0.00000000000E+00 0.  1.
         11    1    1    2    0    0 -0.26813505319E+01 -0.50803788084E+00 -0.71546222974E+02  0.71598252528E+02  0.00000000000E+00 0.  1.
        -15    1    1    2    0    0  0.10904132978E+01 -0.31773755373E+00 -0.88399682333E+01  0.90880540094E+01  0.17770000000E+01 0. -1.
         15    1    1    2    0    0  0.17892430285E+01  0.33239139700E+01 -0.10191245499E+03  0.10199782354E+03  0.17770000000E+01 0.  1.
</event>
<event>
 6    1  0.1059789E-002  0.1832055E+03  0.7546771E-02  0.1067895E+00
        -11   -1    0    0    0    0  0.00000000000E+00  0.00000000000E+00  0.18250000000E+03  0.18250000000E+03  0.00000000000E+00 0.  1.
         11   -1    0    0    0    0 -0.00000000000E+00 -0.00000000000E+00 -0.18250000000E+03  0.18250000000E+03  0.00000000000E+00 0. -1.
        -11    1    1    2    0    0 -0.21020651234E+00  0.42625836505E+01  0.14969449706E+03  0.14975532129E+03  0.00000000000E+00 0.  1.
         11    1    1    2    0    0 -0.31041946026E+01 -0.17885094031E+01 -0.18175922304E+03  0.18179452674E+03  0.00000000000E+00 0. -1.
        -15    1    1    2    0    0  0.27741483936E+00  0.26275408091E+01  0.82756595448E+01  0.88670851805E+01  0.17770000000E+01 0. -1.
         15    1    1    2    0    0  0.30369862756E+01 -0.51016150565E+01  0.23789066440E+02  0.24583066792E+02  0.17770000000E+01 0.  1.
</event>
<event>
 6    1  0.1059789E-002  0.1854901E+03  0.7546771E-02  0.1066099E+00
        -11   -1    0    0    0    0  0.00000000000E+00  0.00000000000E+00  0.18250000000E+03  0.18250000000E+03  0.00000000000E+00 0. -1.
         11   -1    0    0    0    0 -0.00000000000E+00 -0.00000000000E+00 -0.18250000000E+03  0.18250000000E+03  0.00000000000E+00 0. -1.
        -11    1    1    2    0    0 -0.21612220568E+01  0.31514787991E+00  0.95791948155E+02  0.95816843667E+02  0.00000000000E+00 0. -1.
         11    1    1    2    0    0  0.23546771743E+01  0.11896943835E+01 -0.17949050280E+03  0.17950988963E+03  0.00000000000E+00 0. -1.
        -15    1    1    2    0    0  0.67470841162E+01  0.86645699488E+01  0.10083024875E+02  0.15014094581E+02  0.17770000000E+01 0.  1.
         15    1    1    2    0    0 -0.69405392337E+01 -0.10169412212E+02  0.73615529773E+02  0.74659172125E+02  0.17770000000E+01 0. -1.
</event>
<event>
 6    1  0.1059789E-002  0.2051250E+03  0.7546771E-02  0.1051748E+00
        -11   -1    0    0    0    0  0.00000000000E+00  0.00000000000E+00  0.18250000000E+03  0.18250000000E+03  0.00000000000E+00 0.  1.
         11   -1    0    0    0    0 -0.00000000000E+00 -0.00000000000E+00 -0.18250000000E+03  0.18250000000E+03  0.00000000000E+00 0.  1.
        -11    1    1    2    0    0  0.11092891941E+01  0.32560433821E+01  0.15983797588E+03  0.15987498514E+03  0.00000000000E+00 0.  1.
         11    1    1    2    0    0  0.21854026363E+01 -0.12918493687E+01 -0.13328810373E+03  0.13331227797E+03  0.00000000000E+00 0.  1.
        -15    1    1    2    0    0 -0.13984741656E+02  0.60015081788E+00 -0.46702797143E+02  0.48787725609E+02  0.17770000000E+01 0. -1.
         15    1    1    2    0    0  0.10690049826E+02 -0.25643448313E+01  0.20152925001E+02  0.23025011287E+02  0.17770000000E+01 0.  1.
</event>
<event>
 6    1  0.1059789E-002  0.1830466E+03  0.7546771E-02  0.1068021E+00
        -11   -1    0    0    0    0  0.00000000000E+00  0.00000000000E+00  0.18250000000E+03  0.18250000000E+03  0.00000000000E+00 0. -1.
         11   -1    0    0    0    0 -0.00000000000E+00 -0.00000000000E+00 -0.18250000000E+03  0.18250000000E+03  0.00000000000E+00 0.  1.
        -11    1    1    2    0    0  0.26602104594E+00 -0.24399531245E+01  0.18193687311E+03  0.18195342793E+03  0.00000000000E+00 0. -1.
         11    1    1    2    0    0 -0.35401411185E+00  0.11281550615E+01 -0.82129033408E+01  0.82975804377E+01  0.00000000000E+00 0.  1.
        -15    1    1    2    0    0 -0.28664706709E+01 -0.24274566566E+01 -0.16089414756E+03  0.16094779790E+03  0.17770000000E+01 0.  1.
         15    1    1    2    0    0  0.29544637368E+01  0.37392547196E+01 -0.12829822202E+02  0.13801193737E+02  0.17770000000E+01 0. -1.
</event>
<event>
 6    1  0.1059789E-002  0.1857481E+03  0.7546771E-02  0.1065898E+00
        -11   -1    0    0    0    0  0.00000000000E+00  0.00000000000E+00  0.18250000000E+03  0.18250000000E+03  0.00000000000E+00 0. -1.
         11   -1    0    0    0    0 -0.00000000000E+00 -0.00000000000E+00 -0.18250000000E+03  0.18250000000E+03  0.00000000000E+00 0.  1.
        -11    1    1    2    0    0 -0.14948752023E+01  0.36418941171E+01  0.68925977368E+02  0.69038311109E+02  0.00000000000E+00 0. -1.
         11    1    1    2    0    0  0.23041278835E+01 -0.68037057515E+01 -0.17910795065E+03  0.17925193836E+03  0.00000000000E+00 0.  1.
        -15    1    1    2    0    0  0.97847416020E+01  0.61468252048E+01  0.10251367256E+03  0.10317817318E+03  0.17770000000E+01 0.  1.
         15    1    1    2    0    0 -0.10593994283E+02 -0.29850135703E+01  0.76683007196E+01  0.13531577359E+02  0.17770000000E+01 0. -1.
</event>
<event>
 6    1  0.1059789E-002  0.1855765E+03  0.7546771E-02  0.1066032E+00
        -11   -1    0    0    0    0  0.00000000000E+00  0.00000000000E+00  0.18250000000E+03  0.18250000000E+03  0.00000000000E+00 0. -1.
         11   -1    0    0    0    0 -0.00000000000E+00 -0.00000000000E+00 -0.18250000000E+03  0.18250000000E+03  0.00000000000E+00 0.  1.
        -11    1    1    2    0    0 -0.22040420965E+01  0.12697104991E+02  0.10974702659E+03  0.11050105937E+03  0.00000000000E+00 0. -1.
         11    1    1    2    0    0 -0.53660110915E+01  0.34630242943E+01 -0.17930976610E+03  0.17942346232E+03  0.00000000000E+00 0.  1.
        -15    1    1    2    0    0  0.38236081432E+01  0.31547492913E+01  0.33901675035E+02  0.34308216531E+02  0.17770000000E+01 0. -1.
         15    1    1    2    0    0  0.37464450447E+01 -0.19314878576E+02  0.35661064468E+02  0.40767261778E+02  0.17770000000E+01 0.  1.
</event>
<event>
 6    1  0.1059789E-002  0.1835410E+03  0.7546771E-02  0.1067629E+00
        -11   -1    0    0    0    0  0.00000000000E+00  0.00000000000E+00  0.18250000000E+03  0.18250000000E+03  0.00000000000E+00 0. -1.
         11   -1    0    0    0    0 -0.00000000000E+00 -0.00000000000E+00 -0.18250000000E+03  0.18250000000E+03  0.00000000000E+00 0. -1.
        -11    1    1    2    0    0  0.89114606837E+01 -0.13827882847E-01  0.97904895710E+02  0.98309627844E+02  0.00000000000E+00 0. -1.
         11    1    1    2    0    0  0.68257931640E+01  0.17608895817E+01 -0.18132203973E+03  0.18145901542E+03  0.00000000000E+00 0. -1.
        -15    1    1    2    0    0 -0.12265859989E+01  0.92001450960E+00  0.70083670540E+01  0.73909321248E+01  0.17770000000E+01 0.  1.
         15    1    1    2    0    0 -0.14510667849E+02 -0.26670762085E+01  0.76408776968E+02  0.77840424611E+02  0.17770000000E+01 0. -1.
</event>
<event>
 6    1  0.1059789E-002  0.1836629E+03  0.7546771E-02  0.1067533E+00
        -11   -1    0    0    0    0  0.00000000000E+00  0.00000000000E+00  0.18250000000E+03  0.18250000000E+03  0.00000000000E+00 0. -1.
         11   -1    0    0    0    0 -0.00000000000E+00 -0.00000000000E+00 -0.18250000000E+03  0.18250000000E+03  0.00000000000E+00 0. -1.
        -11    1    1    2    0    0  0.45801039632E+00 -0.33690817199E+01  0.16135040366E+03  0.16138622384E+03  0.00000000000E+00 0. -1.
         11    1    1    2    0    0 -0.15184973269E+01 -0.42975706187E+01 -0.18127977803E+03  0.18133706976E+03  0.00000000000E+00 0. -1.
        -15    1    1    2    0    0  0.12198395430E+01  0.56162598155E+01  0.78203874820E+01  0.98664366514E+01  0.17770000000E+01 0.  1.
         15    1    1    2    0    0 -0.15935261243E+00  0.20503925231E+01  0.12108986886E+02  0.12410269746E+02  0.17770000000E+01 0. -1.
</event>
<event>
 6    1  0.1059789E-002  0.1837697E+03  0.7546771E-02  0.1067449E+00
        -11   -1    0    0    0    0  0.00000000000E+00  0.00000000000E+00  0.18250000000E+03  0.18250000000E+03  0.00000000000E+00 0. -1.
         11   -1    0    0    0    0 -0.00000000000E+00 -0.00000000000E+00 -0.18250000000E+03  0.18250000000E+03  0.00000000000E+00 0.  1.
        -11    1    1    2    0    0 -0.11100062499E+01  0.29040456660E+01  0.16321535335E+03  0.16324496061E+03  0.00000000000E+00 0. -1.
         11    1    1    2    0    0 -0.29642592946E+01  0.21597992170E+01 -0.18119320530E+03  0.18123032089E+03  0.00000000000E+00 0.  1.
        -15    1    1    2    0    0  0.25514504139E-01 -0.19499414122E+01  0.12029186681E+01  0.28995973553E+01  0.17770000000E+01 0.  1.
         15    1    1    2    0    0  0.40487510403E+01 -0.31139034709E+01  0.16774933278E+02  0.17625121142E+02  0.17770000000E+01 0. -1.
</event>
<event>
 6    1  0.1059789E-002  0.1577346E+03  0.7546771E-02  0.1090078E+00
        -11   -1    0    0    0    0  0.00000000000E+00  0.00000000000E+00  0.18250000000E+03  0.18250000000E+03  0.00000000000E+00 0.  1.
         11   -1    0    0    0    0 -0.00000000000E+00 -0.00000000000E+00 -0.18250000000E+03  0.18250000000E+03  0.00000000000E+00 0. -1.
        -11    1    1    2    0    0  0.38772073648E+00 -0.14000783478E+02  0.16157614091E+03  0.16218206305E+03  0.00000000000E+00 0.  1.
         11    1    1    2    0    0  0.14681762263E+01 -0.18171268687E+01 -0.15376762295E+03  0.15378536783E+03  0.00000000000E+00 0. -1.
        -15    1    1    2    0    0  0.12009201354E+02  0.98215026064E+01 -0.22827036303E+02  0.27657081299E+02  0.17770000000E+01 0.  1.
         15    1    1    2    0    0 -0.13865098316E+02  0.59964077399E+01  0.15018518348E+02  0.21375487818E+02  0.17770000000E+01 0. -1.
</event>
<event>
 6    1  0.1059789E-002  0.1830190E+03  0.7546771E-02  0.1068042E+00
        -11   -1    0    0    0    0  0.00000000000E+00  0.00000000000E+00  0.18250000000E+03  0.18250000000E+03  0.00000000000E+00 0.  1.
         11   -1    0    0    0    0 -0.00000000000E+00 -0.00000000000E+00 -0.18250000000E+03  0.18250000000E+03  0.00000000000E+00 0.  1.
        -11    1    1    2    0    0 -0.28221365980E+01  0.22289183751E+01  0.18194542519E+03  0.18198096132E+03  0.00000000000E+00 0.  1.
         11    1    1    2    0    0  0.93552243122E+00 -0.22930063688E+01 -0.15397326588E+03  0.15399318065E+03  0.00000000000E+00 0.  1.
        -15    1    1    2    0    0  0.23181375253E+01 -0.28399236652E+01 -0.11507311491E+02  0.12207164895E+02  0.17770000000E+01 0.  1.
         15    1    1    2    0    0 -0.43152335857E+00  0.29040116590E+01 -0.16464847825E+02  0.16818693143E+02  0.17770000000E+01 0.  1.
</event>
<event>
 6    1  0.1059789E-002  0.1865947E+03  0.7546771E-02  0.1065241E+00
        -11   -1    0    0    0    0  0.00000000000E+00  0.00000000000E+00  0.18250000000E+03  0.18250000000E+03  0.00000000000E+00 0. -1.
         11   -1    0    0    0    0 -0.00000000000E+00 -0.00000000000E+00 -0.18250000000E+03  0.18250000000E+03  0.00000000000E+00 0. -1.
        -11    1    1    2    0    0  0.21698349855E+01 -0.81744677511E+00  0.16120298653E+03  0.16121966155E+03  0.00000000000E+00 0. -1.
         11    1    1    2    0    0  0.21398227425E+01 -0.11191457596E+02 -0.17804102349E+03  0.17840525107E+03  0.00000000000E+00 0. -1.
        -15    1    1    2    0    0 -0.12369032208E+01  0.40268451282E+01 -0.17032364948E+01  0.48789501761E+01  0.17770000000E+01 0.  1.
         15    1    1    2    0    0 -0.30727545071E+01  0.79820592434E+01  0.18541273454E+02  0.20496137205E+02  0.17770000000E+01 0. -1.
</event>
<event>
 6    1  0.1059789E-002  0.1836234E+03  0.7546771E-02  0.1067564E+00
        -11   -1    0    0    0    0  0.00000000000E+00  0.00000000000E+00  0.18250000000E+03  0.18250000000E+03  0.00000000000E+00 0.  1.
         11   -1    0    0    0    0 -0.00000000000E+00 -0.00000000000E+00 -0.18250000000E+03  0.18250000000E+03  0.00000000000E+00 0.  1.
        -11    1    1    2    0    0  0.51428492540E+01 -0.20847024142E+01  0.18129169885E+03  0.18137661083E+03  0.00000000000E+00 0.  1.
         11    1    1    2    0    0  0.23518176460E+01 -0.77712628965E-02 -0.13439562160E+03  0.13441619773E+03  0.00000000000E+00 0.  1.
        -15    1    1    2    0    0 -0.62387841074E+01  0.97127790402E+00 -0.46198576500E+02  0.46661890312E+02  0.17770000000E+01 0. -1.
         15    1    1    2    0    0 -0.12558827925E+01  0.11211957730E+01 -0.69750074602E+00  0.25453011297E+01  0.17770000000E+01 0.  1.
</event>
<event>
 6    1  0.1059789E-002  0.1703559E+03  0.7546771E-02  0.1078555E+00
        -11   -1    0    0    0    0  0.00000000000E+00  0.00000000000E+00  0.18250000000E+03  0.18250000000E+03  0.00000000000E+00 0. -1.
         11   -1    0    0    0    0 -0.00000000000E+00 -0.00000000000E+00 -0.18250000000E+03  0.18250000000E+03  0.00000000000E+00 0.  1.
        -11    1    1    2    0    0 -0.76927705442E+01  0.20017877724E+01  0.17063529081E+03  0.17082033937E+03  0.00000000000E+00 0. -1.
         11    1    1    2    0    0 -0.28518547687E+01  0.81166837137E+01 -0.16998777009E+03  0.17020533367E+03  0.00000000000E+00 0.  1.
        -15    1    1    2    0    0  0.42177824899E+01  0.48807306183E+01 -0.31727627234E+01  0.74050910055E+01  0.17770000000E+01 0.  1.
         15    1    1    2    0    0  0.63268428230E+01 -0.14999202104E+02  0.25252419998E+01  0.16569235952E+02  0.17770000000E+01 0. -1.
</event>
<event>
 6    1  0.1059789E-002  0.1867189E+03  0.7546771E-02  0.1065145E+00
        -11   -1    0    0    0    0  0.00000000000E+00  0.00000000000E+00  0.18250000000E+03  0.18250000000E+03  0.00000000000E+00 0.  1.
         11   -1    0    0    0    0 -0.00000000000E+00 -0.00000000000E+00 -0.18250000000E+03  0.18250000000E+03  0.00000000000E+00 0.  1.
        -11    1    1    2    0    0  0.71822934768E+01 -0.15933070012E+02  0.17742241159E+03  0.17828112686E+03  0.00000000000E+00 0.  1.
         11    1    1    2    0    0 -0.25343295127E+01 -0.26730556731E+01 -0.14199425224E+03  0.14204202097E+03  0.00000000000E+00 0.  1.
        -15    1    1    2    0    0 -0.89280852536E+01  0.76448410035E+01 -0.28562998337E+02  0.30937952474E+02  0.17770000000E+01 0.  1.
         15    1    1    2    0    0  0.42801212894E+01  0.10961284681E+02 -0.68651610104E+01  0.13738899694E+02  0.17770000000E+01 0. -1.
</event>
<event>
 6    1  0.1059789E-002  0.1840867E+03  0.7546771E-02  0.1067199E+00
        -11   -1    0    0    0    0  0.00000000000E+00  0.00000000000E+00  0.18250000000E+03  0.18250000000E+03  0.00000000000E+00 0. -1.
         11   -1    0    0    0    0 -0.00000000000E+00 -0.00000000000E+00 -0.18250000000E+03  0.18250000000E+03  0.00000000000E+00 0.  1.
        -11    1    1    2    0    0 -0.37103810756E+01 -0.15658652632E+01  0.18086845175E+03  0.18091328227E+03  0.00000000000E+00 0. -1.
         11    1    1    2    0    0 -0.20171152947E+01 -0.14030744649E+01 -0.15053172318E+03  0.15055177533E+03  0.00000000000E+00 0.  1.
        -15    1    1    2    0    0 -0.17000656064E+01 -0.71223463272E+00 -0.62251475112E+00  0.26349107866E+01  0.17770000000E+01 0.  1.
         15    1    1    2    0    0  0.74275619767E+01  0.36811743609E+01 -0.29714213823E+02  0.30900031614E+02  0.17770000000E+01 0. -1.
</event>
<event>
 6    1  0.1059789E-002  0.1849616E+03  0.7546771E-02  0.1066512E+00
        -11   -1    0    0    0    0  0.00000000000E+00  0.00000000000E+00  0.18250000000E+03  0.18250000000E+03  0.00000000000E+00 0.  1.
         11   -1    0    0    0    0 -0.00000000000E+00 -0.00000000000E+00 -0.18250000000E+03  0.18250000000E+03  0.00000000000E+00 0. -1.
        -11    1    1    2    0    0  0.24539453371E+00  0.33941443786E+01  0.18000628201E+03  0.18003844589E+03  0.00000000000E+00 0.  1.
         11    1    1    2    0    0  0.55003765968E+01  0.39730681671E+00 -0.16815172966E+03  0.16824213558E+03  0.00000000000E+00 0. -1.
        -15    1    1    2    0    0 -0.36517645401E+01 -0.26602667605E+01 -0.12728784609E+02  0.13623218786E+02  0.17770000000E+01 0. -1.
         15    1    1    2    0    0 -0.20940065904E+01 -0.11311844348E+01  0.87423225415E+00  0.30961997449E+01  0.17770000000E+01 0.  1.
</event>
<event>
 6    1  0.1059789E-002  0.1890166E+03  0.7546771E-02  0.1063383E+00
        -11   -1    0    0    0    0  0.00000000000E+00  0.00000000000E+00  0.18250000000E+03  0.18250000000E+03  0.00000000000E+00 0.  1.
         11   -1    0    0    0    0 -0.00000000000E+00 -0.00000000000E+00 -0.18250000000E+03  0.18250000000E+03  0.00000000000E+00 0. -1.
        -11    1    1    2    0    0  0.28164936653E+01 -0.10987886284E+01  0.15048119646E+03  0.15051156255E+03  0.00000000000E+00 0.  1.
         11    1    1    2    0    0  0.89542930313E+01  0.47619684941E+01 -0.17569088003E+03  0.17598335443E+03  0.00000000000E+00 0. -1.
        -15    1    1    2    0    0 -0.94201911708E+01  0.65094139637E+01  0.25393867704E+02  0.27912698146E+02  0.17770000000E+01 0.  1.
         15    1    1    2    0    0 -0.23505955257E+01 -0.10172593829E+02 -0.18418413409E+00  0.10592384875E+02  0.17770000000E+01 0. -1.
</event>
<event>
 6    1  0.1059789E-002  0.1893515E+03  0.7546771E-02  0.1063128E+00
        -11   -1    0    0    0    0  0.00000000000E+00  0.00000000000E+00  0.18250000000E+03  0.18250000000E+03  0.00000000000E+00 0. -1.
         11   -1    0    0    0    0 -0.00000000000E+00 -0.00000000000E+00 -0.18250000000E+03  0.18250000000E+03  0.00000000000E+00 0. -1.
        -11    1    1    2    0    0  0.82777846899E+00 -0.13396826200E+02  0.17513493019E+03  0.17564852389E+03  0.00000000000E+00 0. -1.
         11    1    1    2    0    0  0.22968273501E+01  0.81355880686E+00 -0.16715815651E+03  0.16717591507E+03  0.00000000000E+00 0. -1.
        -15    1    1    2    0    0 -0.35184919258E+01  0.64044894383E+01 -0.12300796991E+02  0.14417510395E+02  0.17770000000E+01 0.  1.
         15    1    1    2    0    0  0.39388610672E+00  0.61787779550E+01  0.43240233043E+01  0.77580506455E+01  0.17770000000E+01 0. -1.
</event>
<event>
 6    1  0.1059789E-002  0.1950805E+03  0.7546771E-02  0.1058860E+00
        -11   -1    0    0    0    0  0.00000000000E+00  0.00000000000E+00  0.18250000000E+03  0.18250000000E+03  0.00000000000E+00 0.  1.
         11   -1    0    0    0    0 -0.00000000000E+00 -0.00000000000E+00 -0.18250000000E+03  0.18250000000E+03  0.00000000000E+00 0.  1.
        -11    1    1    2    0    0  0.78790831622E+00 -0.89278683704E+01  0.14532256366E+03  0.14559867836E+03  0.00000000000E+00 0.  1.
         11    1    1    2    0    0 -0.13486858140E+02 -0.80114069296E+01 -0.16919384375E+03  0.16991949490E+03  0.00000000000E+00 0.  1.
        -15    1    1    2    0    0  0.13729646341E+01  0.19493170773E+02  0.30294945629E+02  0.36094462157E+02  0.17770000000E+01 0. -1.
         15    1    1    2    0    0  0.11325985190E+02 -0.25538954735E+01 -0.64236655371E+01  0.13387364586E+02  0.17770000000E+01 0.  1.
</event>
<event>
 6    1  0.1059789E-002  0.1842566E+03  0.7546771E-02  0.1067065E+00
        -11   -1    0    0    0    0  0.00000000000E+00  0.00000000000E+00  0.18250000000E+03  0.18250000000E+03  0.00000000000E+00 0. -1.
         11   -1    0    0    0    0 -0.00000000000E+00 -0.00000000000E+00 -0.18250000000E+03  0.18250000000E+03  0.00000000000E+00 0.  1.
        -11    1    1    2    0    0 -0.75760294928E+00  0.37298342949E+01  0.16124987267E+03  0.16129478312E+03  0.00000000000E+00 0. -1.
         11    1    1    2    0    0  0.15075901753E+01 -0.25506597571E+01 -0.18071909636E+03  0.18074338296E+03  0.00000000000E+00 0.  1.
        -15    1    1    2    0    0  0.43385658983E+01 -0.36466015840E+01  0.12302252860E+02  0.13661039917E+02  0.17770000000E+01 0. -1.
         15    1    1    2    0    0 -0.50885531243E+01  0.24674270462E+01  0.71669708326E+01  0.93007940006E+01  0.17770000000E+01 0.  1.
</event>
<event>
 6    1  0.1059789E-002  0.1289673E+03  0.7546771E-02  0.1121446E+00
        -11   -1    0    0    0    0  0.00000000000E+00  0.00000000000E+00  0.18250000000E+03  0.18250000000E+03  0.00000000000E+00 0. -1.
         11   -1    0    0    0    0 -0.00000000000E+00 -0.00000000000E+00 -0.18250000000E+03  0.18250000000E+03  0.00000000000E+00 0.  1.
        -11    1    1    2    0    0 -0.37835805331E+01 -0.30828849456E+01  0.12940082832E+03  0.12949283390E+03  0.00000000000E+00 0. -1.
         11    1    1    2    0    0 -0.49531753316E+01 -0.28227646748E+01 -0.12853227515E+03  0.12865864798E+03  0.00000000000E+00 0.  1.
        -15    1    1    2    0    0  0.52223879867E+01  0.32627605718E+01 -0.53560983715E+02  0.53943077854E+02  0.17770000000E+01 0. -1.
         15    1    1    2    0    0  0.35143678780E+01  0.26428890487E+01  0.52692430541E+02  0.52905440263E+02  0.17770000000E+01 0. -1.
</event>
<event>
 6    1  0.1059789E-002  0.2060689E+03  0.7546771E-02  0.1051103E+00
        -11   -1    0    0    0    0  0.00000000000E+00  0.00000000000E+00  0.18250000000E+03  0.18250000000E+03  0.00000000000E+00 0. -1.
         11   -1    0    0    0    0 -0.00000000000E+00 -0.00000000000E+00 -0.18250000000E+03  0.18250000000E+03  0.00000000000E+00 0.  1.
        -11    1    1    2    0    0  0.16738021146E+01 -0.27893979495E+01  0.15889777844E+03  0.15893107420E+03  0.00000000000E+00 0. -1.
         11    1    1    2    0    0 -0.36765790501E+02  0.10593151089E+01 -0.89651753740E+02  0.96903469743E+02  0.00000000000E+00 0.  1.
        -15    1    1    2    0    0  0.77172128490E+01  0.90122786227E+01 -0.78423654596E+02  0.79336018739E+02  0.17770000000E+01 0. -1.
         15    1    1    2    0    0  0.27374775537E+02 -0.72821957821E+01  0.91776298983E+01  0.29829437317E+02  0.17770000000E+01 0.  1.
</event>
<event>
 6    1  0.1059789E-002  0.1908264E+03  0.7546771E-02  0.1062014E+00
        -11   -1    0    0    0    0  0.00000000000E+00  0.00000000000E+00  0.18250000000E+03  0.18250000000E+03  0.00000000000E+00 0.  1.
         11   -1    0    0    0    0 -0.00000000000E+00 -0.00000000000E+00 -0.18250000000E+03  0.18250000000E+03  0.00000000000E+00 0.  1.
        -11    1    1    2    0    0  0.97415061476E+01 -0.55295491102E+01  0.16652090863E+03  0.16689723146E+03  0.00000000000E+00 0.  1.
         11    1    1    2    0    0 -0.57532436341E+01 -0.18587314946E+01 -0.17406861555E+03  0.17417358472E+03  0.00000000000E+00 0.  1.
        -15    1    1    2    0    0 -0.97115719866E+00  0.62407399054E+01 -0.66018933364E+01  0.93076691764E+01  0.17770000000E+01 0.  1.
         15    1    1    2    0    0 -0.30171053149E+01  0.11475406994E+01  0.14149600255E+02  0.14621514645E+02  0.17770000000E+01 0. -1.
</event>
<event>
 6    1  0.1059789E-002  0.1836541E+03  0.7546771E-02  0.1067540E+00
        -11   -1    0    0    0    0  0.00000000000E+00  0.00000000000E+00  0.18250000000E+03  0.18250000000E+03  0.00000000000E+00 0.  1.
         11   -1    0    0    0    0 -0.00000000000E+00 -0.00000000000E+00 -0.18250000000E+03  0.18250000000E+03  0.00000000000E+00 0.  1.
        -11    1    1    2    0    0  0.18395025572E+01 -0.23164385188E+01  0.16562006107E+03  0.16564647381E+03  0.00000000000E+00 0.  1.
         11    1    1    2    0    0  0.18616610939E+00  0.47349990662E+01 -0.18128399950E+03  0.18134592179E+03  0.00000000000E+00 0.  1.
        -15    1    1    2    0    0 -0.19110909386E+01  0.70366580249E+00  0.13593527209E+02  0.13859622113E+02  0.17770000000E+01 0. -1.
         15    1    1    2    0    0 -0.11457772794E+00 -0.31222263499E+01  0.20704112162E+01  0.41479822854E+01  0.17770000000E+01 0. -1.
</event>
<event>
 6    1  0.1059789E-002  0.1837363E+03  0.7546771E-02  0.1067475E+00
        -11   -1    0    0    0    0  0.00000000000E+00  0.00000000000E+00  0.18250000000E+03  0.18250000000E+03  0.00000000000E+00 0. -1.
         11   -1    0    0    0    0 -0.00000000000E+00 -0.00000000000E+00 -0.18250000000E+03  0.18250000000E+03  0.00000000000E+00 0. -1.
        -11    1    1    2    0    0 -0.18901419797E+01 -0.24714726330E-01  0.85888363780E+02  0.85909162959E+02  0.00000000000E+00 0. -1.
         11    1    1    2    0    0 -0.55154631513E+00 -0.27064356998E+01 -0.18124262535E+03  0.18126367050E+03  0.00000000000E+00 0. -1.
        -15    1    1    2    0    0  0.45531762405E+01  0.17659709675E+01  0.43534559332E+01  0.67794081525E+01  0.17770000000E+01 0.  1.
         15    1    1    2    0    0 -0.21114879457E+01  0.96517945865E+00  0.91000805637E+02  0.91047758393E+02  0.17770000000E+01 0. -1.
</event>
<event>
 6    1  0.1059789E-002  0.1632019E+03  0.7546771E-02  0.1084946E+00
        -11   -1    0    0    0    0  0.00000000000E+00  0.00000000000E+00  0.18250000000E+03  0.18250000000E+03  0.00000000000E+00 0.  1.
         11   -1    0    0    0    0 -0.00000000000E+00 -0.00000000000E+00 -0.18250000000E+03  0.18250000000E+03  0.00000000000E+00 0.  1.
        -11    1    1    2    0    0  0.47518113199E+01  0.28394064640E+02  0.16681665047E+03  0.16928259654E+03  0.00000000000E+00 0.  1.
         11    1    1    2    0    0 -0.25469628359E+01 -0.46747348466E+01 -0.15801788975E+03  0.15810753824E+03  0.00000000000E+00 0.  1.
        -15    1    1    2    0    0  0.13142822384E+01  0.43641607507E+01  0.41683763068E+01  0.64269998362E+01  0.17770000000E+01 0. -1.
         15    1    1    2    0    0 -0.35191307223E+01 -0.28083490544E+02 -0.12967137025E+02  0.31182865388E+02  0.17770000000E+01 0.  1.
</event>
<event>
 6    1  0.1059789E-002  0.1831596E+03  0.7546771E-02  0.1067931E+00
        -11   -1    0    0    0    0  0.00000000000E+00  0.00000000000E+00  0.18250000000E+03  0.18250000000E+03  0.00000000000E+00 0.  1.
         11   -1    0    0    0    0 -0.00000000000E+00 -0.00000000000E+00 -0.18250000000E+03  0.18250000000E+03  0.00000000000E+00 0. -1.
        -11    1    1    2    0    0  0.74375388967E+00 -0.37609031877E+01  0.18179995004E+03  0.18184036790E+03  0.00000000000E+00 0.  1.
         11    1    1    2    0    0  0.19258174741E+01 -0.15834807197E+01 -0.14657535426E+03  0.14659655747E+03  0.00000000000E+00 0. -1.
        -15    1    1    2    0    0 -0.20319861923E+01  0.23422914014E+01 -0.30212841723E+02  0.30423491431E+02  0.17770000000E+01 0.  1.
         15    1    1    2    0    0 -0.63758517152E+00  0.30020925060E+01 -0.50117540499E+01  0.61395832043E+01  0.17770000000E+01 0.  1.
</event>
<event>
 6    1  0.1059789E-002  0.1832185E+03  0.7546771E-02  0.1067884E+00
        -11   -1    0    0    0    0  0.00000000000E+00  0.00000000000E+00  0.18250000000E+03  0.18250000000E+03  0.00000000000E+00 0.  1.
         11   -1    0    0    0    0 -0.00000000000E+00 -0.00000000000E+00 -0.18250000000E+03  0.18250000000E+03  0.00000000000E+00 0.  1.
        -11    1    1    2    0    0  0.81123723548E+00  0.35671859010E+01  0.18174470952E+03  0.18178152370E+03  0.00000000000E+00 0.  1.
         11    1    1    2    0    0  0.18061739076E+00 -0.27547122870E+01 -0.16524541354E+03  0.16526847177E+03  0.00000000000E+00 0.  1.
        -15    1    1    2    0    0  0.16335112021E+01  0.17419746768E+01 -0.76654184559E+01  0.82230896703E+01  0.17770000000E+01 0. -1.
         15    1    1    2    0    0 -0.26253658283E+01 -0.25544482909E+01 -0.88338775163E+01  0.97269148642E+01  0.17770000000E+01 0.  1.
</event>
<event>
 6    1  0.1059789E-002  0.1855864E+03  0.7546771E-02  0.1066024E+00
        -11   -1    0    0    0    0  0.00000000000E+00  0.00000000000E+00  0.18250000000E+03  0.18250000000E+03  0.00000000000E+00 0. -1.
         11   -1    0    0    0    0 -0.00000000000E+00 -0.00000000000E+00 -0.18250000000E+03  0.18250000000E+03  0.00000000000E+00 0. -1.
        -11    1    1    2    0    0 -0.23892728186E+01 -0.62951255985E+01  0.17928720550E+03  0.17941359839E+03  0.00000000000E+00 0. -1.
         11    1    1    2    0    0  0.32125024774E+01 -0.20525740753E+01 -0.14330583514E+03  0.14335653322E+03  0.00000000000E+00 0. -1.
        -15    1    1    2    0    0  0.64419515482E+01  0.43318133394E-01 -0.28513395192E+01  0.72655682685E+01  0.17770000000E+01 0.  1.
         15    1    1    2    0    0 -0.72651812070E+01  0.83043815404E+01 -0.33130030841E+02  0.34964300125E+02  0.17770000000E+01 0. -1.
</event>
<event>
 6    1  0.1059789E-002  0.1833685E+03  0.7546771E-02  0.1067766E+00
        -11   -1    0    0    0    0  0.00000000000E+00  0.00000000000E+00  0.18250000000E+03  0.18250000000E+03  0.00000000000E+00 0.  1.
         11   -1    0    0    0    0 -0.00000000000E+00 -0.00000000000E+00 -0.18250000000E+03  0.18250000000E+03  0.00000000000E+00 0.  1.
        -11    1    1    2    0    0 -0.25681765648E+01  0.11879836965E+01  0.18160948082E+03  0.18163152359E+03  0.00000000000E+00 0.  1.
         11    1    1    2    0    0  0.52476262717E+00  0.43558447048E+01 -0.15359095681E+03  0.15365360644E+03  0.00000000000E+00 0.  1.
        -15    1    1    2    0    0  0.10632245932E+00 -0.12782867561E+01 -0.20872806780E+02  0.20987546626E+02  0.17770000000E+01 0.  1.
         15    1    1    2    0    0  0.19370914784E+01 -0.42655416451E+01 -0.71457172331E+01  0.87273233409E+01  0.17770000000E+01 0. -1.
</event>
<event>
 6    1  0.1059789E-002  0.1852352E+03  0.7546771E-02  0.1066298E+00
        -11   -1    0    0    0    0  0.00000000000E+00  0.00000000000E+00  0.18250000000E+03  0.18250000000E+03  0.00000000000E+00 0. -1.
         11   -1    0    0    0    0 -0.00000000000E+00 -0.00000000000E+00 -0.18250000000E+03  0.18250000000E+03  0.00000000000E+00 0. -1.
        -11    1    1    2    0    0 -0.33929974959E+01 -0.76648104231E+01  0.17956929239E+03  0.17976482559E+03  0.00000000000E+00 0. -1.
         11    1    1    2    0    0 -0.22457102012E+01  0.94113969068E+00 -0.16326861509E+03  0.16328677114E+03  0.00000000000E+00 0. -1.
        -15    1    1    2    0    0  0.44805823039E+01  0.43068527524E-01 -0.13613534469E+02  0.14441728512E+02  0.17770000000E+01 0. -1.
         15    1    1    2    0    0  0.11581253932E+01  0.66806022049E+01 -0.26871428357E+01  0.75066747542E+01  0.17770000000E+01 0. -1.
</event>
<event>
 6    1  0.1059789E-002  0.1865344E+03  0.7546771E-02  0.1065288E+00
        -11   -1    0    0    0    0  0.00000000000E+00  0.00000000000E+00  0.18250000000E+03  0.18250000000E+03  0.00000000000E+00 0.  1.
         11   -1    0    0    0    0 -0.00000000000E+00 -0.00000000000E+00 -0.18250000000E+03  0.18250000000E+03  0.00000000000E+00 0. -1.
        -11    1    1    2    0    0  0.98043890906E+00 -0.16502970838E+01  0.12005462940E+03  0.12006997452E+03  0.00000000000E+00 0.  1.
         11    1    1    2    0    0  0.91564985172E+01  0.73047616265E-01 -0.17823052819E+03  0.17846559327E+03  0.00000000000E+00 0. -1.
        -15    1    1    2    0    0 -0.45102978602E+01  0.74881251474E+00  0.60025437880E+02  0.60225529709E+02  0.17770000000E+01 0.  1.
         15    1    1    2    0    0 -0.56266395661E+01  0.82843695276E+00 -0.18495390847E+01  0.62389025010E+01  0.17770000000E+01 0. -1.
</event>
<event>
 6    1  0.1059789E-002  0.1849314E+03  0.7546771E-02  0.1066536E+00
        -11   -1    0    0    0    0  0.00000000000E+00  0.00000000000E+00  0.18250000000E+03  0.18250000000E+03  0.00000000000E+00 0.  1.
         11   -1    0    0    0    0 -0.00000000000E+00 -0.00000000000E+00 -0.18250000000E+03  0.18250000000E+03  0.00000000000E+00 0.  1.
        -11    1    1    2    0    0 -0.22149077301E+01  0.83128738780E+01  0.17986299812E+03  0.18006861964E+03  0.00000000000E+00 0.  1.
         11    1    1    2    0    0 -0.16485344612E+01  0.15072473155E+01 -0.14892405267E+03  0.14894080342E+03  0.00000000000E+00 0.  1.
        -15    1    1    2    0    0 -0.14712089316E+01 -0.85570610952E+00  0.75738345604E+00  0.25744994399E+01  0.17770000000E+01 0. -1.
         15    1    1    2    0    0  0.53346511230E+01 -0.89644150839E+01 -0.31696328899E+02  0.33416077494E+02  0.17770000000E+01 0.  1.
</event>
<event>
 6    1  0.1059789E-002  0.1826655E+03  0.7546771E-02  0.1068323E+00
        -11   -1    0    0    0    0  0.00000000000E+00  0.00000000000E+00  0.18250000000E+03  0.18250000000E+03  0.00000000000E+00 0. -1.
         11   -1    0    0    0    0 -0.00000000000E+00 -0.00000000000E+00 -0.18250000000E+03  0.18250000000E+03  0.00000000000E+00 0.  1.
        -11    1    1    2    0    0 -0.18080441333E+01 -0.50735670313E+00  0.10857711894E+03  0.10859335703E+03  0.00000000000E+00 0. -1.
         11    1    1    2    0    0  0.83831774880E+00  0.25296325420E+01 -0.18231504489E+03  0.18233452062E+03  0.00000000000E+00 0.  1.
        -15    1    1    2    0    0  0.23394470801E+01 -0.82360462247E+00  0.61344923723E+02  0.61420751646E+02  0.17770000000E+01 0.  1.
         15    1    1    2    0    0 -0.13697206956E+01 -0.11986712164E+01  0.12393002229E+02  0.12651370705E+02  0.17770000000E+01 0. -1.
</event>
<event>
 6    1  0.1059789E-002  0.1846091E+03  0.7546771E-02  0.1066788E+00
        -11   -1    0    0    0    0  0.00000000000E+00  0.00000000000E+00  0.18250000000E+03  0.18250000000E+03  0.00000000000E+00 0. -1.
         11   -1    0    0    0    0 -0.00000000000E+00 -0.00000000000E+00 -0.18250000000E+03  0.18250000000E+03  0.00000000000E+00 0. -1.
        -11    1    1    2    0    0  0.23444664277E+01 -0.19086547060E+00  0.16203130906E+03  0.16204838187E+03  0.00000000000E+00 0. -1.
         11    1    1    2    0    0 -0.33622102151E+01  0.82862699600E+00 -0.18035761384E+03  0.18039085329E+03  0.00000000000E+00 0. -1.
        -15    1    1    2    0    0 -0.38385335760E+01 -0.17743359026E+01  0.13552732047E+01  0.47830013975E+01  0.17770000000E+01 0.  1.
         15    1    1    2    0    0  0.48562773634E+01  0.11365743771E+01  0.16971031576E+02  0.17777763440E+02  0.17770000000E+01 0. -1.
</event>
<event>
 6    1  0.1059789E-002  0.1902494E+03  0.7546771E-02  0.1062448E+00
        -11   -1    0    0    0    0  0.00000000000E+00  0.00000000000E+00  0.18250000000E+03  0.18250000000E+03  0.00000000000E+00 0. -1.
         11   -1    0    0    0    0 -0.00000000000E+00 -0.00000000000E+00 -0.18250000000E+03  0.18250000000E+03  0.00000000000E+00 0.  1.
        -11    1    1    2    0    0 -0.38529187524E+01  0.12467594421E+02  0.17426272107E+03  0.17475062761E+03  0.00000000000E+00 0. -1.
         11    1    1    2    0    0  0.81375588360E+00 -0.45507837547E+01 -0.16643066653E+03  0.16649486056E+03  0.00000000000E+00 0.  1.
        -15    1    1    2    0    0 -0.21481631496E+01 -0.11339350705E+02  0.21393371662E+01  0.11871393003E+02  0.17770000000E+01 0.  1.
         15    1    1    2    0    0  0.51873260184E+01  0.34225400389E+01 -0.99713917126E+01  0.11883118834E+02  0.17770000000E+01 0. -1.
</event>
<event>
 6    1  0.1059789E-002  0.1853992E+03  0.7546771E-02  0.1066170E+00
        -11   -1    0    0    0    0  0.00000000000E+00  0.00000000000E+00  0.18250000000E+03  0.18250000000E+03  0.00000000000E+00 0.  1.
         11   -1    0    0    0    0 -0.00000000000E+00 -0.00000000000E+00 -0.18250000000E+03  0.18250000000E+03  0.00000000000E+00 0. -1.
        -11    1    1    2    0    0 -0.20510196389E+01 -0.17330492571E+01  0.17958072686E+03  0.17960080067E+03  0.00000000000E+00 0.  1.
         11    1    1    2    0    0 -0.39990011448E+01 -0.49270214319E+01 -0.79227869533E+02  0.79481588189E+02  0.00000000000E+00 0. -1.
        -15    1    1    2    0    0 -0.83516939219E+00  0.32546778886E+01 -0.97437612330E+02  0.97511724739E+02  0.17770000000E+01 0. -1.
         15    1    1    2    0    0  0.68851901759E+01  0.34053928003E+01 -0.29152449953E+01  0.84058864057E+01  0.17770000000E+01 0. -1.
</event>
<event>
 6    1  0.1059789E-002  0.1827937E+03  0.7546771E-02  0.1068221E+00
        -11   -1    0    0    0    0  0.00000000000E+00  0.00000000000E+00  0.18250000000E+03  0.18250000000E+03  0.00000000000E+00 0. -1.
         11   -1    0    0    0    0 -0.00000000000E+00 -0.00000000000E+00 -0.18250000000E+03  0.18250000000E+03  0.00000000000E+00 0.  1.
        -11    1    1    2    0    0 -0.19113472066E+01 -0.27534182368E+01  0.11924164624E+03  0.11928874531E+03  0.00000000000E+00 0. -1.
         11    1    1    2    0    0  0.34791327877E+01  0.23446210447E+01 -0.18215798817E+03  0.18220629590E+03  0.00000000000E+00 0.  1.
        -15    1    1    2    0    0 -0.43009694497E+01 -0.79905024700E+00  0.45547507628E+02  0.45791593110E+02  0.17770000000E+01 0.  1.
         15    1    1    2    0    0  0.27331838686E+01  0.12078474391E+01  0.17368834301E+02  0.17713365674E+02  0.17770000000E+01 0.  1.
</event>
<event>
 6    1  0.1059789E-002  0.1833066E+03  0.7546771E-02  0.1067815E+00
        -11   -1    0    0    0    0  0.00000000000E+00  0.00000000000E+00  0.18250000000E+03  0.18250000000E+03  0.00000000000E+00 0.  1.
         11   -1    0    0    0    0 -0.00000000000E+00 -0.00000000000E+00 -0.18250000000E+03  0.18250000000E+03  0.00000000000E+00 0. -1.
        -11    1    1    2    0    0 -0.34875961388E+01  0.77617130700E+00  0.59435951767E+02  0.59543245891E+02  0.00000000000E+00 0.  1.
         11    1    1    2    0    0  0.33530249259E+01 -0.33492942289E+00 -0.18166218643E+03  0.18169343668E+03  0.00000000000E+00 0. -1.
        -15    1    1    2    0    0 -0.58066207393E+01 -0.36253877881E+01  0.18541755863E+02  0.19844765570E+02  0.17770000000E+01 0. -1.
         15    1    1    2    0    0  0.59411919523E+01  0.31841459040E+01  0.10368447880E+03  0.10391855186E+03  0.17770000000E+01 0. -1.
</event>
<event>
 6    1  0.1059789E-002  0.1826443E+03  0.7546771E-02  0.1068340E+00
        -11   -1    0    0    0    0  0.00000000000E+00  0.00000000000E+00  0.18250000000E+03  0.18250000000E+03  0.00000000000E+00 0. -1.
         11   -1    0    0    0    0 -0.00000000000E+00 -0.00000000000E+00 -0.18250000000E+03  0.18250000000E+03  0.00000000000E+00 0.  1.
        -11    1    1    2    0    0 -0.55842037303E+01  0.60839137458E+01  0.18216863753E+03  0.18235572335E+03  0.00000000000E+00 0. -1.
         11    1    1    2    0    0 -0.50492622529E+00 -0.10606812091E+00 -0.16627132988E+02  0.16635136078E+02  0.00000000000E+00 0.  1.
        -15    1    1    2    0    0  0.21698552249E+01 -0.67488833124E+01 -0.12903254529E+03  0.12923935612E+03  0.17770000000E+01 0.  1.
         15    1    1    2    0    0  0.39192747307E+01  0.77103768755E+00 -0.36508959259E+02  0.36769784452E+02  0.17770000000E+01 0. -1.
</event>
<event>
 6    1  0.1059789E-002  0.1849605E+03  0.7546771E-02  0.1066513E+00
        -11   -1    0    0    0    0  0.00000000000E+00  0.00000000000E+00  0.18250000000E+03  0.18250000000E+03  0.00000000000E+00 0.  1.
         11   -1    0    0    0    0 -0.00000000000E+00 -0.00000000000E+00 -0.18250000000E+03  0.18250000000E+03  0.00000000000E+00 0. -1.
        -11    1    1    2    0    0  0.17582088576E+01  0.33188085647E+01  0.16892208808E+03  0.16896383528E+03  0.00000000000E+00 0.  1.
         11    1    1    2    0    0 -0.36842312793E+00  0.48417056309E+01 -0.17997401232E+03  0.18003950389E+03  0.00000000000E+00 0. -1.
        -15    1    1    2    0    0  0.97574282829E-02  0.91982970629E+00  0.91336544590E+00  0.21995788992E+01  0.17770000000E+01 0. -1.
         15    1    1    2    0    0 -0.13995431580E+01 -0.90803439019E+01  0.10138558795E+02  0.13797081933E+02  0.17770000000E+01 0. -1.
</event>
<event>
 6    1  0.1059789E-002  0.1849335E+03  0.7546771E-02  0.1066534E+00
        -11   -1    0    0    0    0  0.00000000000E+00  0.00000000000E+00  0.18250000000E+03  0.18250000000E+03  0.00000000000E+00 0. -1.
         11   -1    0    0    0    0 -0.00000000000E+00 -0.00000000000E+00 -0.18250000000E+03  0.18250000000E+03  0.00000000000E+00 0. -1.
        -11    1    1    2    0    0  0.32986104797E+01  0.75851057619E+00  0.64088678939E+02  0.64177994185E+02  0.00000000000E+00 0. -1.
         11    1    1    2    0    0  0.23619854907E+01 -0.47636020339E+01 -0.17998801088E+03  0.18006652921E+03  0.00000000000E+00 0. -1.
        -15    1    1    2    0    0  0.11039165642E+02  0.87521831934E+01  0.74283109143E+02  0.75628049833E+02  0.17770000000E+01 0.  1.
         15    1    1    2    0    0 -0.16699761612E+02 -0.47470917357E+01  0.41616222801E+02  0.45127426773E+02  0.17770000000E+01 0. -1.
</event>
<event>
 6    1  0.1059789E-002  0.1832584E+03  0.7546771E-02  0.1067853E+00
        -11   -1    0    0    0    0  0.00000000000E+00  0.00000000000E+00  0.18250000000E+03  0.18250000000E+03  0.00000000000E+00 0.  1.
         11   -1    0    0    0    0 -0.00000000000E+00 -0.00000000000E+00 -0.18250000000E+03  0.18250000000E+03  0.00000000000E+00 0. -1.
        -11    1    1    2    0    0 -0.66150024046E+00  0.12170500980E+02  0.18133244832E+03  0.18174161739E+03  0.00000000000E+00 0.  1.
         11    1    1    2    0    0 -0.37253960766E+01 -0.52747917698E+01 -0.70360619898E+02  0.70656343215E+02  0.00000000000E+00 0. -1.
        -15    1    1    2    0    0 -0.30409658697E+01  0.33025001527E+01 -0.14274834377E+02  0.15069260306E+02  0.17770000000E+01 0.  1.
         15    1    1    2    0    0  0.74278621868E+01 -0.10198209363E+02 -0.96696994046E+02  0.97532779092E+02  0.17770000000E+01 0. -1.
</event>
<event>
 6    1  0.1059789E-002  0.1828199E+03  0.7546771E-02  0.1068200E+00
        -11   -1    0    0    0    0  0.00000000000E+00  0.00000000000E+00  0.18250000000E+03  0.18250000000E+03  0.00000000000E+00 0.  1.
         11   -1    0    0    0    0 -0.00000000000E+00 -0.00000000000E+00 -0.18250000000E+03  0.18250000000E+03  0.00000000000E+00 0.  1.
        -11    1    1    2    0    0  0.25788659655E+00 -0.95046286378E+00  0.23475194510E+02  0.23495843088E+02  0.00000000000E+00 0.  1.
         11    1    1    2    0    0 -0.97966560716E+00 -0.44586050481E+01 -0.18212292044E+03  0.18218012255E+03  0.00000000000E+00 0.  1.
        -15    1    1    2    0    0  0.46030975466E-01  0.79305799873E+01  0.14787029677E+03  0.14809347930E+03  0.17770000000E+01 0.  1.
         15    1    1    2    0    0  0.67574803514E+00 -0.25215120754E+01  0.10777429162E+02  0.11230555058E+02  0.17770000000E+01 0. -1.
</event>
<event>
 6    1  0.1059789E-002  0.1827372E+03  0.7546771E-02  0.1068266E+00
        -11   -1    0    0    0    0  0.00000000000E+00  0.00000000000E+00  0.18250000000E+03  0.18250000000E+03  0.00000000000E+00 0. -1.
         11   -1    0    0    0    0 -0.00000000000E+00 -0.00000000000E+00 -0.18250000000E+03  0.18250000000E+03  0.00000000000E+00 0. -1.
        -11    1    1    2    0    0 -0.27564422463E+01  0.41356460777E+01  0.18219504754E+03  0.18226282367E+03  0.00000000000E+00 0. -1.
         11    1    1    2    0    0 -0.13304630246E+01 -0.38056155687E+00 -0.69611062630E+02  0.69624815974E+02  0.00000000000E+00 0. -1.
        -15    1    1    2    0    0  0.42458127674E+01 -0.21267122035E+00 -0.23921291648E+02  0.24360995017E+02  0.17770000000E+01 0.  1.
         15    1    1    2    0    0 -0.15890749650E+00 -0.35424133004E+01 -0.88662693265E+02  0.88751365339E+02  0.17770000000E+01 0. -1.
</event>
<event>
 6    1  0.1059789E-002  0.1828863E+03  0.7546771E-02  0.1068148E+00
        -11   -1    0    0    0    0  0.00000000000E+00  0.00000000000E+00  0.18250000000E+03  0.18250000000E+03  0.00000000000E+00 0. -1.
         11   -1    0    0    0    0 -0.00000000000E+00 -0.00000000000E+00 -0.18250000000E+03  0.18250000000E+03  0.00000000000E+00 0.  1.
        -11    1    1    2    0    0  0.92950111616E+01  0.80396839450E+01  0.18169856187E+03  0.18211370387E+03  0.00000000000E+00 0. -1.
         11    1    1    2    0    0 -0.23729477965E+01 -0.64191054704E+01 -0.42571214810E+02  0.43117793620E+02  0.00000000000E+00 0.  1.
        -15    1    1    2    0    0 -0.75840505904E+01 -0.14336291464E+01 -0.13489117402E+03  0.13512349786E+03  0.17770000000E+01 0.  1.
         15    1    1    2    0    0  0.66198722528E+00 -0.18694932823E+00 -0.42361730422E+01  0.46450046482E+01  0.17770000000E+01 0. -1.
</event>
<event>
 6    1  0.1059789E-002  0.1851361E+03  0.7546771E-02  0.1066376E+00
        -11   -1    0    0    0    0  0.00000000000E+00  0.00000000000E+00  0.18250000000E+03  0.18250000000E+03  0.00000000000E+00 0.  1.
         11   -1    0    0    0    0 -0.00000000000E+00 -0.00000000000E+00 -0.18250000000E+03  0.18250000000E+03  0.00000000000E+00 0. -1.
        -11    1    1    2    0    0  0.24741926393E+01  0.81115204888E+00  0.15615786469E+03  0.15617957069E+03  0.00000000000E+00 0.  1.
         11    1    1    2    0    0 -0.14034543125E+01  0.51750809174E+01 -0.17978393410E+03  0.17986387660E+03  0.00000000000E+00 0. -1.
        -15    1    1    2    0    0 -0.20601764489E+01 -0.29605560620E+01  0.24802036936E+02  0.25125842958E+02  0.17770000000E+01 0.  1.
         15    1    1    2    0    0  0.98943812216E+00 -0.30256769043E+01 -0.11759675312E+01  0.38307097464E+01  0.17770000000E+01 0. -1.
</event>
<event>
 6    1  0.1059789E-002  0.1853260E+03  0.7546771E-02  0.1066227E+00
        -11   -1    0    0    0    0  0.00000000000E+00  0.00000000000E+00  0.18250000000E+03  0.18250000000E+03  0.00000000000E+00 0. -1.
         11   -1    0    0    0    0 -0.00000000000E+00 -0.00000000000E+00 -0.18250000000E+03  0.18250000000E+03  0.00000000000E+00 0.  1.
        -11    1    1    2    0    0  0.49997641772E+01  0.59630787852E+01  0.16106288452E+03  0.16125076347E+03  0.00000000000E+00 0. -1.
         11    1    1    2    0    0 -0.28117091718E+01 -0.41534085485E+01 -0.17960394358E+03  0.17967396322E+03  0.00000000000E+00 0.  1.
        -15    1    1    2    0    0 -0.63123218052E+01 -0.15189644603E+01  0.18378185280E+02  0.19572125148E+02  0.17770000000E+01 0. -1.
         15    1    1    2    0    0  0.41242667998E+01 -0.29070577651E+00  0.16287378082E+00  0.45031481603E+01  0.17770000000E+01 0.  1.
</event>
<event>
 6    1  0.1059789E-002  0.1864314E+03  0.7546771E-02  0.1065368E+00
        -11   -1    0    0    0    0  0.00000000000E+00  0.00000000000E+00  0.18250000000E+03  0.18250000000E+03  0.00000000000E+00 0.  1.
         11   -1    0    0    0    0 -0.00000000000E+00 -0.00000000000E+00 -0.18250000000E+03  0.18250000000E+03  0.00000000000E+00 0. -1.
        -11    1    1    2    0    0  0.18531703127E+01  0.31898645563E+01  0.17853048655E+03  0.17856859775E+03  0.00000000000E+00 0.  1.
         11    1    1    2    0    0  0.53605325264E+01  0.21968111690E+01 -0.16373689663E+03  0.16383934999E+03  0.00000000000E+00 0. -1.
        -15    1    1    2    0    0 -0.10725959530E+02 -0.14958517398E+01 -0.69421755784E+01  0.12985965926E+02  0.17770000000E+01 0.  1.
         15    1    1    2    0    0  0.35122566905E+01 -0.38908239855E+01 -0.78514143416E+01  0.96060863263E+01  0.17770000000E+01 0. -1.
</event>
<event>
 6    1  0.1059789E-002  0.1834272E+03  0.7546771E-02  0.1067719E+00
        -11   -1    0    0    0    0  0.00000000000E+00  0.00000000000E+00  0.18250000000E+03  0.18250000000E+03  0.00000000000E+00 0. -1.
         11   -1    0    0    0    0 -0.00000000000E+00 -0.00000000000E+00 -0.18250000000E+03  0.18250000000E+03  0.00000000000E+00 0.  1.
        -11    1    1    2    0    0  0.17358234617E+01 -0.75503418173E+00  0.85177883994E+02  0.85198914790E+02  0.00000000000E+00 0. -1.
         11    1    1    2    0    0 -0.20038917770E+01 -0.23111686978E+01 -0.18154703463E+03  0.18157280321E+03  0.00000000000E+00 0.  1.
        -15    1    1    2    0    0  0.17146347459E+01  0.68924965883E+01  0.14555421799E+02  0.16293081792E+02  0.17770000000E+01 0. -1.
         15    1    1    2    0    0 -0.14465664306E+01 -0.38262937087E+01  0.81813728835E+02  0.81935200207E+02  0.17770000000E+01 0. -1.
</event>
<event>
 6    1  0.1059789E-002  0.1834475E+03  0.7546771E-02  0.1067703E+00
        -11   -1    0    0    0    0  0.00000000000E+00  0.00000000000E+00  0.18250000000E+03  0.18250000000E+03  0.00000000000E+00 0. -1.
         11   -1    0    0    0    0 -0.00000000000E+00 -0.00000000000E+00 -0.18250000000E+03  0.18250000000E+03  0.00000000000E+00 0.  1.
        -11    1    1    2    0    0 -0.26191082035E+01 -0.28464251090E+01  0.18151126490E+03  0.18155247492E+03  0.00000000000E+00 0. -1.
         11    1    1    2    0    0 -0.15527857256E+01 -0.12146092511E+01 -0.13969789493E+03  0.13971180432E+03  0.00000000000E+00 0.  1.
        -15    1    1    2    0    0  0.96149492277E+00  0.71223354434E+01 -0.18283936670E+02  0.19725927197E+02  0.17770000000E+01 0. -1.
         15    1    1    2    0    0  0.32103990063E+01 -0.30613010832E+01 -0.23529433304E+02  0.24009793558E+02  0.17770000000E+01 0.  1.
</event>
<event>
 6    1  0.1059789E-002  0.1886184E+03  0.7546771E-02  0.1063686E+00
        -11   -1    0    0    0    0  0.00000000000E+00  0.00000000000E+00  0.18250000000E+03  0.18250000000E+03  0.00000000000E+00 0. -1.
         11   -1    0    0    0    0 -0.00000000000E+00 -0.00000000000E+00 -0.18250000000E+03  0.18250000000E+03  0.00000000000E+00 0.  1.
        -11    1    1    2    0    0  0.32285025220E+00 -0.37766511127E+01  0.17634081925E+03  0.17638155192E+03  0.00000000000E+00 0. -1.
         11    1    1    2    0    0  0.30493303717E+01 -0.73498042751E+01 -0.16862859370E+03  0.16881623338E+03  0.00000000000E+00 0.  1.
        -15    1    1    2    0    0 -0.84789133109E+01  0.76785590787E+01 -0.64984156531E+01  0.13275517898E+02  0.17770000000E+01 0.  1.
         15    1    1    2    0    0  0.51067326869E+01  0.34478963092E+01 -0.12138098953E+01  0.65266968028E+01  0.17770000000E+01 0. -1.
</event>
<event>
 6    1  0.1059789E-002  0.1735904E+03  0.7546771E-02  0.1075777E+00
        -11   -1    0    0    0    0  0.00000000000E+00  0.00000000000E+00  0.18250000000E+03  0.18250000000E+03  0.00000000000E+00 0.  1.
         11   -1    0    0    0    0 -0.00000000000E+00 -0.00000000000E+00 -0.18250000000E+03  0.18250000000E+03  0.00000000000E+00 0.  1.
        -11    1    1    2    0    0  0.22488611439E+01 -0.13358987576E+02  0.17122955229E+03  0.17176460491E+03  0.00000000000E+00 0.  1.
         11    1    1    2    0    0 -0.60724515787E+01  0.10433191284E+01 -0.17557460984E+03  0.17568268783E+03  0.00000000000E+00 0.  1.
        -15    1    1    2    0    0 -0.23034835099E+01  0.35717760619E+01  0.48862269859E+01  0.67153975068E+01  0.17770000000E+01 0. -1.
         15    1    1    2    0    0  0.61270739446E+01  0.87438923862E+01 -0.54116943054E+00  0.10837309746E+02  0.17770000000E+01 0.  1.
</event>
<event>
 6    1  0.1059789E-002  0.1829025E+03  0.7546771E-02  0.1068135E+00
        -11   -1    0    0    0    0  0.00000000000E+00  0.00000000000E+00  0.18250000000E+03  0.18250000000E+03  0.00000000000E+00 0.  1.
         11   -1    0    0    0    0 -0.00000000000E+00 -0.00000000000E+00 -0.18250000000E+03  0.18250000000E+03  0.00000000000E+00 0. -1.
        -11    1    1    2    0    0  0.21785788217E+01 -0.11442775994E+01  0.18208090369E+03  0.18209753174E+03  0.00000000000E+00 0.  1.
         11    1    1    2    0    0 -0.25218077060E+01 -0.22723810466E+01 -0.15739070071E+03  0.15742730353E+03  0.00000000000E+00 0. -1.
        -15    1    1    2    0    0 -0.91903092134E+00  0.90193953652E+00 -0.44332238703E+01  0.49466469093E+01  0.17770000000E+01 0. -1.
         15    1    1    2    0    0  0.12622598057E+01  0.25147191095E+01 -0.20256979113E+02  0.20528517818E+02  0.17770000000E+01 0.  1.
</event>
<event>
 6    1  0.2889312E-002  0.1863632E+03  0.7546771E-02  0.1065421E+00
        -11   -1    0    0    0    0  0.00000000000E+00  0.00000000000E+00  0.18250000000E+03  0.18250000000E+03  0.00000000000E+00 0. -1.
         11   -1    0    0    0    0 -0.00000000000E+00 -0.00000000000E+00 -0.18250000000E+03  0.18250000000E+03  0.00000000000E+00 0. -1.
        -11    1    1    2    0    0 -0.33333356625E+01  0.52899097201E+00  0.17860495369E+03  0.17863683954E+03  0.00000000000E+00 0. -1.
         11    1    1    2    0    0  0.81603445286E+00 -0.31763969965E+01 -0.50176263941E+02  0.50283325996E+02  0.00000000000E+00 0. -1.
        -15    1    1    2    0    0  0.41656112336E+00  0.28103684178E+01 -0.13173368647E+03  0.13177630126E+03  0.17770000000E+01 0. -1.
         15    1    1    2    0    0  0.21007400863E+01 -0.16296239334E+00  0.33049967247E+01  0.43035331998E+01  0.17770000000E+01 0. -1.
</event>
<event>
 6    1  0.1059789E-002  0.1861379E+03  0.7546771E-02  0.1065595E+00
        -11   -1    0    0    0    0  0.00000000000E+00  0.00000000000E+00  0.18250000000E+03  0.18250000000E+03  0.00000000000E+00 0. -1.
         11   -1    0    0    0    0 -0.00000000000E+00 -0.00000000000E+00 -0.18250000000E+03  0.18250000000E+03  0.00000000000E+00 0. -1.
        -11    1    1    2    0    0  0.62409152547E+01 -0.10898938803E+02  0.17842063077E+03  0.17886211833E+03  0.00000000000E+00 0. -1.
         11    1    1    2    0    0 -0.18660363208E+01 -0.13702666928E+01 -0.11621376841E+03  0.11623682588E+03  0.00000000000E+00 0. -1.
        -15    1    1    2    0    0  0.47038946382E+01  0.17432750570E+01 -0.52697921767E+02  0.52965973230E+02  0.17770000000E+01 0.  1.
         15    1    1    2    0    0 -0.90787735722E+01  0.10525930439E+02 -0.95089405927E+01  0.16935082562E+02  0.17770000000E+01 0. -1.
</event>
<event>
 6    1  0.1059789E-002  0.1826774E+03  0.7546771E-02  0.1068314E+00
        -11   -1    0    0    0    0  0.00000000000E+00  0.00000000000E+00  0.18250000000E+03  0.18250000000E+03  0.00000000000E+00 0. -1.
         11   -1    0    0    0    0 -0.00000000000E+00 -0.00000000000E+00 -0.18250000000E+03  0.18250000000E+03  0.00000000000E+00 0.  1.
        -11    1    1    2    0    0  0.18209520177E+01 -0.39630159972E+00  0.10863624283E+03  0.10865222583E+03  0.00000000000E+00 0. -1.
         11    1    1    2    0    0  0.25401050858E+01  0.38857377482E+00 -0.18230446208E+03  0.18232257133E+03  0.00000000000E+00 0.  1.
        -15    1    1    2    0    0 -0.78064101167E+00  0.16929652260E+01  0.39300928210E+02  0.39385228435E+02  0.17770000000E+01 0.  1.
         15    1    1    2    0    0 -0.35804160919E+01 -0.16852374011E+01  0.34367291033E+02  0.34639974400E+02  0.17770000000E+01 0. -1.
</event>
<event>
 6    1  0.1059789E-002  0.1850355E+03  0.7546771E-02  0.1066454E+00
        -11   -1    0    0    0    0  0.00000000000E+00  0.00000000000E+00  0.18250000000E+03  0.18250000000E+03  0.00000000000E+00 0. -1.
         11   -1    0    0    0    0 -0.00000000000E+00 -0.00000000000E+00 -0.18250000000E+03  0.18250000000E+03  0.00000000000E+00 0.  1.
        -11    1    1    2    0    0  0.16053029302E+01 -0.60871563800E+01  0.17985435190E+03  0.17996449196E+03  0.00000000000E+00 0. -1.
         11    1    1    2    0    0  0.25969201731E+01 -0.11759769502E+00 -0.16577067016E+03  0.16579105196E+03  0.00000000000E+00 0.  1.
        -15    1    1    2    0    0 -0.61124885957E+01  0.13075413237E+01 -0.11302844472E+02  0.13037799021E+02  0.17770000000E+01 0.  1.
         15    1    1    2    0    0  0.19102654924E+01  0.48972127513E+01 -0.27808372614E+01  0.62066570597E+01  0.17770000000E+01 0. -1.
</event>
<event>
 6    1  0.1059789E-002  0.1853537E+03  0.7546771E-02  0.1066206E+00
        -11   -1    0    0    0    0  0.00000000000E+00  0.00000000000E+00  0.18250000000E+03  0.18250000000E+03  0.00000000000E+00 0. -1.
         11   -1    0    0    0    0 -0.00000000000E+00 -0.00000000000E+00 -0.18250000000E+03  0.18250000000E+03  0.00000000000E+00 0.  1.
        -11    1    1    2    0    0  0.57627371775E+01 -0.20028956701E+01  0.17644329915E+03  0.17654874269E+03  0.00000000000E+00 0. -1.
         11    1    1    2    0    0 -0.74493419303E+01 -0.10193295232E+01 -0.17948885706E+03  0.17964626780E+03  0.00000000000E+00 0.  1.
        -15    1    1    2    0    0 -0.20626566768E+01  0.22056324614E+01  0.29417852548E+01  0.45750624702E+01  0.17770000000E+01 0. -1.
         15    1    1    2    0    0  0.37492614297E+01  0.81659273183E+00  0.10377264972E+00  0.42299270349E+01  0.17770000000E+01 0.  1.
</event>
<event>
 6    1  0.1059789E-002  0.1848143E+03  0.7546771E-02  0.1066627E+00
        -11   -1    0    0    0    0  0.00000000000E+00  0.00000000000E+00  0.18250000000E+03  0.18250000000E+03  0.00000000000E+00 0. -1.
         11   -1    0    0    0    0 -0.00000000000E+00 -0.00000000000E+00 -0.18250000000E+03  0.18250000000E+03  0.00000000000E+00 0. -1.
        -11    1    1    2    0    0 -0.27929901848E+01  0.25493750616E+01  0.17061271602E+03  0.17065461897E+03  0.00000000000E+00 0. -1.
         11    1    1    2    0    0  0.34526982086E+01 -0.19671753770E+01 -0.18014182694E+03  0.18018565069E+03  0.00000000000E+00 0. -1.
        -15    1    1    2    0    0  0.81631272346E-01 -0.47991455455E+01  0.75451227172E+01  0.91172949634E+01  0.17770000000E+01 0.  1.
         15    1    1    2    0    0 -0.74133929623E+00  0.42169458609E+01  0.19839882012E+01  0.50424353767E+01  0.17770000000E+01 0. -1.
</event>
<event>
 6    1  0.1059789E-002  0.1833866E+03  0.7546771E-02  0.1067751E+00
        -11   -1    0    0    0    0  0.00000000000E+00  0.00000000000E+00  0.18250000000E+03  0.18250000000E+03  0.00000000000E+00 0. -1.
         11   -1    0    0    0    0 -0.00000000000E+00 -0.00000000000E+00 -0.18250000000E+03  0.18250000000E+03  0.00000000000E+00 0. -1.
        -11    1    1    2    0    0 -0.37256716609E+01  0.40274490715E+01  0.18153053255E+03  0.18161342248E+03  0.00000000000E+00 0. -1.
         11    1    1    2    0    0 -0.36214579706E+01 -0.33173559343E+01 -0.13228440131E+03  0.13237553640E+03  0.00000000000E+00 0. -1.
        -15    1    1    2    0    0  0.83638882813E+01 -0.37085674387E+01 -0.29614460195E+02  0.31046450381E+02  0.17770000000E+01 0.  1.
         15    1    1    2    0    0 -0.10167586498E+01  0.29984743015E+01 -0.19631671048E+02  0.19964590741E+02  0.17770000000E+01 0. -1.
</event>
<event>
 6    1  0.1059789E-002  0.2080392E+03  0.7546771E-02  0.1049767E+00
        -11   -1    0    0    0    0  0.00000000000E+00  0.00000000000E+00  0.18250000000E+03  0.18250000000E+03  0.00000000000E+00 0. -1.
         11   -1    0    0    0    0 -0.00000000000E+00 -0.00000000000E+00 -0.18250000000E+03  0.18250000000E+03  0.00000000000E+00 0.  1.
        -11    1    1    2    0    0  0.13835160728E+01  0.38371104048E+01  0.15690775257E+03  0.15696076054E+03  0.00000000000E+00 0. -1.
         11    1    1    2    0    0  0.11777624539E+01  0.49335081887E+01 -0.10308497387E+03  0.10320968204E+03  0.00000000000E+00 0.  1.
        -15    1    1    2    0    0 -0.54321351194E+00 -0.11067353689E+02  0.24226880033E+02  0.26699828534E+02  0.17770000000E+01 0. -1.
         15    1    1    2    0    0 -0.20180650148E+01  0.22967350954E+01 -0.78049658734E+02  0.78129728887E+02  0.17770000000E+01 0.  1.
</event>
<event>
 6    1  0.1059789E-002  0.1863846E+03  0.7546771E-02  0.1065404E+00
        -11   -1    0    0    0    0  0.00000000000E+00  0.00000000000E+00  0.18250000000E+03  0.18250000000E+03  0.00000000000E+00 0. -1.
         11   -1    0    0    0    0 -0.00000000000E+00 -0.00000000000E+00 -0.18250000000E+03  0.18250000000E+03  0.00000000000E+00 0. -1.
        -11    1    1    2    0    0  0.76201133801E+00  0.25076602468E+01  0.17859615128E+03  0.17861538084E+03  0.00000000000E+00 0. -1.
         11    1    1    2    0    0 -0.25527974378E+00 -0.28886628045E+01 -0.16962494130E+03  0.16964972812E+03  0.00000000000E+00 0. -1.
        -15    1    1    2    0    0 -0.28460753208E+01 -0.13692244731E+01  0.27345548823E+01  0.45398722222E+01  0.17770000000E+01 0. -1.
         15    1    1    2    0    0  0.23393437266E+01  0.17502270309E+01 -0.11705764864E+02  0.12195018810E+02  0.17770000000E+01 0.  1.
</event>
<event>
 6    1  0.1059789E-002  0.1848337E+03  0.7546771E-02  0.1066612E+00
        -11   -1    0    0    0    0  0.00000000000E+00  0.00000000000E+00  0.18250000000E+03  0.18250000000E+03  0.00000000000E+00 0.  1.
         11   -1    0    0    0    0 -0.00000000000E+00 -0.00000000000E+00 -0.18250000000E+03  0.18250000000E+03  0.00000000000E+00 0.  1.
        -11    1    1    2    0    0 -0.96830930511E+00 -0.24686515250E+01  0.18014679915E+03  0.18016631513E+03  0.00000000000E+00 0.  1.
         11    1    1    2    0    0  0.27388726724E+01 -0.19145712356E+00 -0.16212885546E+03  0.16215210098E+03  0.00000000000E+00 0.  1.
        -15    1    1    2    0    0  0.52589551013E+01  0.10638443811E+01 -0.11450119101E+02  0.12769155417E+02  0.17770000000E+01 0. -1.
         15    1    1    2    0    0 -0.70295184686E+01  0.15962642674E+01 -0.65678245813E+01  0.99124284735E+01  0.17770000000E+01 0.  1.
</event>
<event>
 6    1  0.1059789E-002  0.1948393E+03  0.7546771E-02  0.1059036E+00
        -11   -1    0    0    0    0  0.00000000000E+00  0.00000000000E+00  0.18250000000E+03  0.18250000000E+03  0.00000000000E+00 0.  1.
         11   -1    0    0    0    0 -0.00000000000E+00 -0.00000000000E+00 -0.18250000000E+03  0.18250000000E+03  0.00000000000E+00 0. -1.
        -11    1    1    2    0    0 -0.28099230732E+01  0.18507071582E+01  0.16675190505E+03  0.16678584659E+03  0.00000000000E+00 0.  1.
         11    1    1    2    0    0  0.72613061460E+00 -0.22989801785E+01 -0.17014358935E+03  0.17016066988E+03  0.00000000000E+00 0. -1.
        -15    1    1    2    0    0  0.49866797706E+01  0.10816667265E+01  0.14998117624E+02  0.15941713813E+02  0.17770000000E+01 0. -1.
         15    1    1    2    0    0 -0.29028873120E+01 -0.63339370623E+00 -0.11606433320E+02  0.12111769720E+02  0.17770000000E+01 0.  1.
</event>
<event>
 6    1  0.1059789E-002  0.1917706E+03  0.7546771E-02  0.1061306E+00
        -11   -1    0    0    0    0  0.00000000000E+00  0.00000000000E+00  0.18250000000E+03  0.18250000000E+03  0.00000000000E+00 0. -1.
         11   -1    0    0    0    0 -0.00000000000E+00 -0.00000000000E+00 -0.18250000000E+03  0.18250000000E+03  0.00000000000E+00 0.  1.
        -11    1    1    2    0    0  0.66746711727E+01  0.88507887642E+00  0.17309845118E+03  0.17322935202E+03  0.00000000000E+00 0. -1.
         11    1    1    2    0    0 -0.16577802527E+01 -0.34095997641E+01 -0.15985626805E+03  0.15990121963E+03  0.00000000000E+00 0.  1.
        -15    1    1    2    0    0  0.39142899295E+01 -0.37455301484E+00 -0.19809372714E+02  0.20273897798E+02  0.17770000000E+01 0. -1.
         15    1    1    2    0    0 -0.89311808495E+01  0.28990739025E+01  0.65671895827E+01  0.11595530556E+02  0.17770000000E+01 0. -1.
</event>
<event>
 6    1  0.1059789E-002  0.1825696E+03  0.7546771E-02  0.1068399E+00
        -11   -1    0    0    0    0  0.00000000000E+00  0.00000000000E+00  0.18250000000E+03  0.18250000000E+03  0.00000000000E+00 0.  1.
         11   -1    0    0    0    0 -0.00000000000E+00 -0.00000000000E+00 -0.18250000000E+03  0.18250000000E+03  0.00000000000E+00 0. -1.
        -11    1    1    2    0    0  0.45194367467E+00  0.87901574984E+00  0.54308728650E+02  0.54317722056E+02  0.00000000000E+00 0.  1.
         11    1    1    2    0    0 -0.39685647442E+01 -0.12126081675E+01 -0.18238315141E+03  0.18243035340E+03  0.00000000000E+00 0. -1.
        -15    1    1    2    0    0  0.24971945486E+01 -0.55331576118E+00  0.10943280744E+03  0.10947711730E+03  0.17770000000E+01 0.  1.
         15    1    1    2    0    0  0.10194265210E+01  0.88690817880E+00  0.18641615311E+02  0.18774807242E+02  0.17770000000E+01 0. -1.
</event>
<event>
 6    1  0.1059789E-002  0.1828664E+03  0.7546771E-02  0.1068163E+00
        -11   -1    0    0    0    0  0.00000000000E+00  0.00000000000E+00  0.18250000000E+03  0.18250000000E+03  0.00000000000E+00 0.  1.
         11   -1    0    0    0    0 -0.00000000000E+00 -0.00000000000E+00 -0.18250000000E+03  0.18250000000E+03  0.00000000000E+00 0. -1.
        -11    1    1    2    0    0  0.33083301936E+01  0.64402975446E+00  0.18210237344E+03  0.18213356152E+03  0.00000000000E+00 0.  1.
         11    1    1    2    0    0 -0.81639933398E+00 -0.22776245087E+01 -0.81500764953E+02  0.81536671316E+02  0.00000000000E+00 0. -1.
        -15    1    1    2    0    0 -0.51054542079E+01 -0.14055009467E+01 -0.25701887151E+02  0.26301821756E+02  0.17770000000E+01 0.  1.
         15    1    1    2    0    0  0.26135233483E+01  0.30390957009E+01 -0.74899721331E+02  0.75027945403E+02  0.17770000000E+01 0.  1.
</event>
<event>
 6    1  0.1059789E-002  0.1829528E+03  0.7546771E-02  0.1068095E+00
        -11   -1    0    0    0    0  0.00000000000E+00  0.00000000000E+00  0.18250000000E+03  0.18250000000E+03  0.00000000000E+00 0.  1.
         11   -1    0    0    0    0 -0.00000000000E+00 -0.00000000000E+00 -0.18250000000E+03  0.18250000000E+03  0.00000000000E+00 0. -1.
        -11    1    1    2    0    0 -0.27995786052E+01  0.62704701043E+00  0.15109552458E+03  0.15112275930E+03  0.00000000000E+00 0.  1.
         11    1    1    2    0    0 -0.26672539298E+01  0.12444128709E+01 -0.18202341792E+03  0.18204721222E+03  0.00000000000E+00 0. -1.
        -15    1    1    2    0    0  0.47515669348E+01 -0.15218550453E+01  0.25947425654E+02  0.26482448115E+02  0.17770000000E+01 0. -1.
         15    1    1    2    0    0  0.71526560020E+00 -0.34960483607E+00  0.49804676817E+01  0.53475803639E+01  0.17770000000E+01 0. -1.
</event>
<event>
 6    1  0.1059789E-002  0.1803208E+03  0.7546771E-02  0.1070203E+00
        -11   -1    0    0    0    0  0.00000000000E+00  0.00000000000E+00  0.18250000000E+03  0.18250000000E+03  0.00000000000E+00 0.  1.
         11   -1    0    0    0    0 -0.00000000000E+00 -0.00000000000E+00 -0.18250000000E+03  0.18250000000E+03  0.00000000000E+00 0.  1.
        -11    1    1    2    0    0 -0.71531702022E+00 -0.63152740665E-01  0.62330428129E+01  0.62742720228E+01  0.00000000000E+00 0.  1.
         11    1    1    2    0    0  0.27528742417E+01 -0.29847512377E+01 -0.18143479929E+03  0.18148022881E+03  0.00000000000E+00 0.  1.
        -15    1    1    2    0    0 -0.85132673628E+01  0.26908243359E+00  0.19256382223E+02  0.21130880527E+02  0.17770000000E+01 0. -1.
         15    1    1    2    0    0  0.64757101413E+01  0.27788215448E+01  0.15594537426E+03  0.15611461864E+03  0.17770000000E+01 0.  1.
</event>
<event>
 6    1  0.1059789E-002  0.1847639E+03  0.7546771E-02  0.1066667E+00
        -11   -1    0    0    0    0  0.00000000000E+00  0.00000000000E+00  0.18250000000E+03  0.18250000000E+03  0.00000000000E+00 0. -1.
         11   -1    0    0    0    0 -0.00000000000E+00 -0.00000000000E+00 -0.18250000000E+03  0.18250000000E+03  0.00000000000E+00 0.  1.
        -11    1    1    2    0    0  0.30042911024E+01  0.36356624541E+00  0.18021065052E+03  0.18023605773E+03  0.00000000000E+00 0. -1.
         11    1    1    2    0    0 -0.45978590695E-01  0.33979804063E+01 -0.17411063201E+03  0.17414379278E+03  0.00000000000E+00 0.  1.
        -15    1    1    2    0    0 -0.57879091558E+00 -0.50656452114E+01 -0.32478012427E+01  0.63009286810E+01  0.17770000000E+01 0. -1.
         15    1    1    2    0    0 -0.23795215962E+01  0.13040985597E+01 -0.28522172659E+01  0.43192208107E+01  0.17770000000E+01 0.  1.
</event>
<event>
 6    1  0.1059789E-002  0.1856302E+03  0.7546771E-02  0.1065990E+00
        -11   -1    0    0    0    0  0.00000000000E+00  0.00000000000E+00  0.18250000000E+03  0.18250000000E+03  0.00000000000E+00 0.  1.
         11   -1    0    0    0    0 -0.00000000000E+00 -0.00000000000E+00 -0.18250000000E+03  0.18250000000E+03  0.00000000000E+00 0. -1.
        -11    1    1    2    0    0  0.60248452563E+00  0.33953579968E+01  0.15209396964E+03  0.15213305704E+03  0.00000000000E+00 0.  1.
         11    1    1    2    0    0  0.53529404748E+01  0.64251925876E+01 -0.17917475491E+03  0.17936981315E+03  0.00000000000E+00 0. -1.
        -15    1    1    2    0    0 -0.48159165570E+01 -0.34557259783E+01  0.25973608496E+02  0.26700583545E+02  0.17770000000E+01 0. -1.
         15    1    1    2    0    0 -0.11395084434E+01 -0.63648246062E+01  0.11071767746E+01  0.67965462678E+01  0.17770000000E+01 0.  1.
</event>
<event>
 6    1  0.1059789E-002  0.1965261E+03  0.7546771E-02  0.1057808E+00
        -11   -1    0    0    0    0  0.00000000000E+00  0.00000000000E+00  0.18250000000E+03  0.18250000000E+03  0.00000000000E+00 0.  1.
         11   -1    0    0    0    0 -0.00000000000E+00 -0.00000000000E+00 -0.18250000000E+03  0.18250000000E+03  0.00000000000E+00 0. -1.
        -11    1    1    2    0    0  0.18608891239E+01 -0.17085695219E+01  0.16845493465E+03  0.16847387669E+03  0.00000000000E+00 0.  1.
         11    1    1    2    0    0  0.15824843631E+01  0.47868539772E+01 -0.14730930665E+03  0.14739555643E+03  0.00000000000E+00 0. -1.
        -15    1    1    2    0    0 -0.63593410153E+01  0.30127553954E-01  0.13049558945E+02  0.14625007470E+02  0.17770000000E+01 0.  1.
         15    1    1    2    0    0  0.29159675283E+01 -0.31084120092E+01 -0.34195186941E+02  0.34505559418E+02  0.17770000000E+01 0. -1.
</event>
<event>
 6    1  0.1059789E-002  0.1846253E+03  0.7546771E-02  0.1066776E+00
        -11   -1    0    0    0    0  0.00000000000E+00  0.00000000000E+00  0.18250000000E+03  0.18250000000E+03  0.00000000000E+00 0.  1.
         11   -1    0    0    0    0 -0.00000000000E+00 -0.00000000000E+00 -0.18250000000E+03  0.18250000000E+03  0.00000000000E+00 0.  1.
        -11    1    1    2    0    0 -0.29391562262E+01  0.29554813464E+01  0.18032657338E+03  0.18037473930E+03  0.00000000000E+00 0.  1.
         11    1    1    2    0    0  0.26837291654E+01  0.33612513818E+01 -0.16215374742E+03  0.16221078329E+03  0.00000000000E+00 0.  1.
        -15    1    1    2    0    0  0.19716313290E+01 -0.77895123890E+01 -0.17673264761E+02  0.19495277624E+02  0.17770000000E+01 0.  1.
         15    1    1    2    0    0 -0.17162042682E+01  0.14727796609E+01 -0.49956120431E+00  0.29191997905E+01  0.17770000000E+01 0. -1.
</event>
<event>
 6    1  0.1059789E-002  0.1825897E+03  0.7546771E-02  0.1068383E+00
        -11   -1    0    0    0    0  0.00000000000E+00  0.00000000000E+00  0.18250000000E+03  0.18250000000E+03  0.00000000000E+00 0.  1.
         11   -1    0    0    0    0 -0.00000000000E+00 -0.00000000000E+00 -0.18250000000E+03  0.18250000000E+03  0.00000000000E+00 0. -1.
        -11    1    1    2    0    0  0.17790125345E+01  0.11064578632E+01  0.10841154454E+03  0.10843178558E+03  0.00000000000E+00 0.  1.
         11    1    1    2    0    0  0.40511943470E+00 -0.27370671136E+01 -0.18238935667E+03  0.18241034260E+03  0.00000000000E+00 0. -1.
        -15    1    1    2    0    0 -0.68613112404E+00 -0.33234109742E+00  0.19637611778E+02  0.19732580973E+02  0.17770000000E+01 0.  1.
         15    1    1    2    0    0 -0.14980008452E+01  0.19629503478E+01  0.54340200350E+02  0.54425290846E+02  0.17770000000E+01 0. -1.
</event>
<event>
 6    1  0.1059789E-002  0.2007174E+03  0.7546771E-02  0.1054813E+00
        -11   -1    0    0    0    0  0.00000000000E+00  0.00000000000E+00  0.18250000000E+03  0.18250000000E+03  0.00000000000E+00 0.  1.
         11   -1    0    0    0    0 -0.00000000000E+00 -0.00000000000E+00 -0.18250000000E+03  0.18250000000E+03  0.00000000000E+00 0.  1.
        -11    1    1    2    0    0  0.13747325860E+02  0.18288822600E+00  0.16370626002E+03  0.16428256751E+03  0.00000000000E+00 0.  1.
         11    1    1    2    0    0 -0.36997198376E+01  0.23032458895E+01 -0.14928601358E+03  0.14934961239E+03  0.00000000000E+00 0.  1.
        -15    1    1    2    0    0 -0.55191474120E+01 -0.66323892072E+01 -0.31722316096E+02  0.32922828588E+02  0.17770000000E+01 0.  1.
         15    1    1    2    0    0 -0.45284586104E+01  0.41462550917E+01  0.17302069657E+02  0.18444991518E+02  0.17770000000E+01 0. -1.
</event>
<event>
 6    1  0.1059789E-002  0.1828099E+03  0.7546771E-02  0.1068208E+00
        -11   -1    0    0    0    0  0.00000000000E+00  0.00000000000E+00  0.18250000000E+03  0.18250000000E+03  0.00000000000E+00 0. -1.
         11   -1    0    0    0    0 -0.00000000000E+00 -0.00000000000E+00 -0.18250000000E+03  0.18250000000E+03  0.00000000000E+00 0.  1.
        -11    1    1    2    0    0 -0.89043846063E+00 -0.46602595871E+01  0.18212833241E+03  0.18219012149E+03  0.00000000000E+00 0. -1.
         11    1    1    2    0    0 -0.25109834929E+01  0.36225365411E+00 -0.14626370917E+03  0.14628570978E+03  0.00000000000E+00 0.  1.
        -15    1    1    2    0    0  0.10479541199E+01  0.27037249041E+01 -0.21919301482E+02  0.22181565379E+02  0.17770000000E+01 0.  1.
         15    1    1    2    0    0  0.23534678337E+01  0.15942810289E+01 -0.13945321761E+02  0.14342603350E+02  0.17770000000E+01 0. -1.
</event>
<event>
 6    1  0.1059789E-002  0.1880479E+03  0.7546771E-02  0.1064123E+00
        -11   -1    0    0    0    0  0.00000000000E+00  0.00000000000E+00  0.18250000000E+03  0.18250000000E+03  0.00000000000E+00 0.  1.
         11   -1    0    0    0    0 -0.00000000000E+00 -0.00000000000E+00 -0.18250000000E+03  0.18250000000E+03  0.00000000000E+00 0. -1.
        -11    1    1    2    0    0 -0.31163124600E+01  0.86580770908E+01  0.14068243999E+03  0.14098305793E+03  0.00000000000E+00 0.  1.
         11    1    1    2    0    0 -0.23059341112E-01 -0.34195736977E+01 -0.17691910207E+03  0.17695214803E+03  0.00000000000E+00 0. -1.
        -15    1    1    2    0    0  0.11683839787E+01 -0.86101103731E+01 -0.15774213089E+01  0.90080579896E+01  0.17770000000E+01 0. -1.
         15    1    1    2    0    0  0.19709878224E+01  0.33716069800E+01  0.37814083390E+02  0.38056736043E+02  0.17770000000E+01 0.  1.
</event>
<event>
 6    1  0.1059789E-002  0.1949219E+03  0.7546771E-02  0.1058976E+00
        -11   -1    0    0    0    0  0.00000000000E+00  0.00000000000E+00  0.18250000000E+03  0.18250000000E+03  0.00000000000E+00 0.  1.
         11   -1    0    0    0    0 -0.00000000000E+00 -0.00000000000E+00 -0.18250000000E+03  0.18250000000E+03  0.00000000000E+00 0.  1.
        -11    1    1    2    0    0 -0.37430793422E+01  0.34690582886E+01  0.17000154555E+03  0.17007813057E+03  0.00000000000E+00 0.  1.
         11    1    1    2    0    0 -0.37866705247E+00 -0.10657045331E+01 -0.66355431748E+02  0.66365069407E+02  0.00000000000E+00 0.  1.
        -15    1    1    2    0    0  0.30368677700E+02 -0.15198259798E+02 -0.18903105870E+02  0.38906668151E+02  0.17770000000E+01 0. -1.
         15    1    1    2    0    0 -0.26246931305E+02  0.12794906043E+02 -0.84743007929E+02  0.89650131876E+02  0.17770000000E+01 0.  1.
</event>
<event>
 6    1  0.1059789E-002  0.1838221E+03  0.7546771E-02  0.1067407E+00
        -11   -1    0    0    0    0  0.00000000000E+00  0.00000000000E+00  0.18250000000E+03  0.18250000000E+03  0.00000000000E+00 0. -1.
         11   -1    0    0    0    0 -0.00000000000E+00 -0.00000000000E+00 -0.18250000000E+03  0.18250000000E+03  0.00000000000E+00 0.  1.
        -11    1    1    2    0    0 -0.48146587344E+01 -0.12308399662E+01  0.15145408117E+03  0.15153558859E+03  0.00000000000E+00 0. -1.
         11    1    1    2    0    0 -0.37136177449E+01  0.83322501790E+01 -0.18094805095E+03  0.18117785320E+03  0.00000000000E+00 0.  1.
        -15    1    1    2    0    0  0.45760894464E+01 -0.72156419723E+01  0.21252567329E+02  0.22974669329E+02  0.17770000000E+01 0.  1.
         15    1    1    2    0    0  0.39521870328E+01  0.11423175953E+00  0.82414024477E+01  0.93118888815E+01  0.17770000000E+01 0.  1.
</event>
<event>
 6    1  0.1059789E-002  0.1939887E+03  0.7546771E-02  0.1059661E+00
        -11   -1    0    0    0    0  0.00000000000E+00  0.00000000000E+00  0.18250000000E+03  0.18250000000E+03  0.00000000000E+00 0.  1.
         11   -1    0    0    0    0 -0.00000000000E+00 -0.00000000000E+00 -0.18250000000E+03  0.18250000000E+03  0.00000000000E+00 0. -1.
        -11    1    1    2    0    0 -0.46552215537E+01  0.32148653023E+01  0.17091773073E+03  0.17101133624E+03  0.00000000000E+00 0.  1.
         11    1    1    2    0    0 -0.20859566615E-01  0.85401343301E+01 -0.90479806497E+02  0.90881954827E+02  0.00000000000E+00 0. -1.
        -15    1    1    2    0    0 -0.21069578870E+01 -0.10001542074E+02 -0.90291996956E+02  0.90886041606E+02  0.17770000000E+01 0. -1.
         15    1    1    2    0    0  0.67830390073E+01 -0.17534575583E+01  0.98540727258E+01  0.12220667325E+02  0.17770000000E+01 0. -1.
</event>
<event>
 6    1  0.1059789E-002  0.1739264E+03  0.7546771E-02  0.1075492E+00
        -11   -1    0    0    0    0  0.00000000000E+00  0.00000000000E+00  0.18250000000E+03  0.18250000000E+03  0.00000000000E+00 0.  1.
         11   -1    0    0    0    0 -0.00000000000E+00 -0.00000000000E+00 -0.18250000000E+03  0.18250000000E+03  0.00000000000E+00 0.  1.
        -11    1    1    2    0    0  0.23853475055E+01 -0.30486234438E+01  0.17779571429E+03  0.17783784751E+03  0.00000000000E+00 0.  1.
         11    1    1    2    0    0  0.70146729450E+01 -0.61515167103E+01 -0.17009309956E+03  0.17034878724E+03  0.00000000000E+00 0.  1.
        -15    1    1    2    0    0 -0.26153778442E+01 -0.80877805127E-01 -0.26667578423E+01  0.41371571008E+01  0.17770000000E+01 0. -1.
         15    1    1    2    0    0 -0.67846426063E+01  0.92810179592E+01 -0.50358568821E+01  0.12676208155E+02  0.17770000000E+01 0.  1.
</event>
<event>
 6    1  0.1059789E-002  0.1828441E+03  0.7546771E-02  0.1068181E+00
        -11   -1    0    0    0    0  0.00000000000E+00  0.00000000000E+00  0.18250000000E+03  0.18250000000E+03  0.00000000000E+00 0.  1.
         11   -1    0    0    0    0 -0.00000000000E+00 -0.00000000000E+00 -0.18250000000E+03  0.18250000000E+03  0.00000000000E+00 0.  1.
        -11    1    1    2    0    0  0.53737768161E+01  0.79749429750E+01  0.18190188029E+03  0.18215589820E+03  0.00000000000E+00 0.  1.
         11    1    1    2    0    0  0.70967590431E+00 -0.26414268122E+01 -0.94901953028E+02  0.94941358027E+02  0.00000000000E+00 0.  1.
        -15    1    1    2    0    0 -0.81049560172E+01 -0.34873084939E+01 -0.54365175697E+02  0.55105187507E+02  0.17770000000E+01 0. -1.
         15    1    1    2    0    0  0.20215032968E+01 -0.18462076689E+01 -0.32634751569E+02  0.32797556271E+02  0.17770000000E+01 0.  1.
</event>
<event>
 6    1  0.1059789E-002  0.1854783E+03  0.7546771E-02  0.1066108E+00
        -11   -1    0    0    0    0  0.00000000000E+00  0.00000000000E+00  0.18250000000E+03  0.18250000000E+03  0.00000000000E+00 0. -1.
         11   -1    0    0    0    0 -0.00000000000E+00 -0.00000000000E+00 -0.18250000000E+03  0.18250000000E+03  0.00000000000E+00 0.  1.
        -11    1    1    2    0    0  0.94954308220E+00 -0.26005378732E+01  0.17950035222E+03  0.17952170030E+03  0.00000000000E+00 0. -1.
         11    1    1    2    0    0  0.48345707353E+01  0.20493197877E+01 -0.17269821926E+03  0.17277803020E+03  0.00000000000E+00 0.  1.
        -15    1    1    2    0    0 -0.72647967320E+01 -0.29634732685E+00 -0.69746956153E+01  0.10230796705E+02  0.17770000000E+01 0. -1.
         15    1    1    2    0    0  0.14806829145E+01  0.84756541235E+00  0.17256265252E+00  0.24694727961E+01  0.17770000000E+01 0. -1.
</event>
<event>
 6    1  0.1059789E-002  0.1838058E+03  0.7546771E-02  0.1067420E+00
        -11   -1    0    0    0    0  0.00000000000E+00  0.00000000000E+00  0.18250000000E+03  0.18250000000E+03  0.00000000000E+00 0.  1.
         11   -1    0    0    0    0 -0.00000000000E+00 -0.00000000000E+00 -0.18250000000E+03  0.18250000000E+03  0.00000000000E+00 0. -1.
        -11    1    1    2    0    0  0.18075269889E+01  0.40738694645E+01  0.17302784215E+03  0.17308523255E+03  0.00000000000E+00 0.  1.
         11    1    1    2    0    0 -0.28133798045E+01 -0.10997380219E+01 -0.18116902092E+03  0.18119420153E+03  0.00000000000E+00 0. -1.
        -15    1    1    2    0    0  0.15031436611E+01  0.78472788330E+00  0.15265491630E+01  0.28919405360E+01  0.17770000000E+01 0.  1.
         15    1    1    2    0    0 -0.49729084547E+00 -0.37588593259E+01  0.66146296015E+01  0.78286253827E+01  0.17770000000E+01 0.  1.
</event>
<event>
 6    1  0.1059789E-002  0.2067709E+03  0.7546771E-02  0.1050625E+00
        -11   -1    0    0    0    0  0.00000000000E+00  0.00000000000E+00  0.18250000000E+03  0.18250000000E+03  0.00000000000E+00 0. -1.
         11   -1    0    0    0    0 -0.00000000000E+00 -0.00000000000E+00 -0.18250000000E+03  0.18250000000E+03  0.00000000000E+00 0. -1.
        -11    1    1    2    0    0  0.30315972000E+01 -0.20370825842E+01  0.15818698782E+03  0.15822914840E+03  0.00000000000E+00 0. -1.
         11    1    1    2    0    0 -0.12702878852E-02 -0.16767849679E+01 -0.86108383363E+02  0.86124707807E+02  0.00000000000E+00 0. -1.
        -15    1    1    2    0    0  0.18538037110E+02 -0.24563977801E+02  0.89834548753E+01  0.32107756318E+02  0.17770000000E+01 0.  1.
         15    1    1    2    0    0 -0.21568364022E+02  0.28277845353E+02 -0.81062059333E+02  0.88538387476E+02  0.17770000000E+01 0. -1.
</event>
<event>
 6    1  0.1059789E-002  0.1740130E+03  0.7546771E-02  0.1075419E+00
        -11   -1    0    0    0    0  0.00000000000E+00  0.00000000000E+00  0.18250000000E+03  0.18250000000E+03  0.00000000000E+00 0.  1.
         11   -1    0    0    0    0 -0.00000000000E+00 -0.00000000000E+00 -0.18250000000E+03  0.18250000000E+03  0.00000000000E+00 0.  1.
        -11    1    1    2    0    0  0.25503024730E+01 -0.69839107681E+01  0.17232445233E+03  0.17248477011E+03  0.00000000000E+00 0.  1.
         11    1    1    2    0    0  0.10853357991E+01 -0.26961008876E+01 -0.17568691156E+03  0.17571094959E+03  0.00000000000E+00 0.  1.
        -15    1    1    2    0    0 -0.25663544497E+01  0.59380233370E+01  0.80360786696E+01  0.10468170122E+02  0.17770000000E+01 0.  1.
         15    1    1    2    0    0 -0.10692838224E+01  0.37419883188E+01 -0.46736194375E+01  0.63361101724E+01  0.17770000000E+01 0.  1.
</event>
<event>
 6    1  0.1059789E-002  0.1898636E+03  0.7546771E-02  0.1062740E+00
        -11   -1    0    0    0    0  0.00000000000E+00  0.00000000000E+00  0.18250000000E+03  0.18250000000E+03  0.00000000000E+00 0. -1.
         11   -1    0    0    0    0 -0.00000000000E+00 -0.00000000000E+00 -0.18250000000E+03  0.18250000000E+03  0.00000000000E+00 0.  1.
        -11    1    1    2    0    0  0.13994870283E+02  0.12546428279E+01  0.15499428531E+03  0.15562987824E+03  0.00000000000E+00 0. -1.
         11    1    1    2    0    0 -0.20665672002E+01 -0.42921406768E+01 -0.17507158617E+03  0.17513638530E+03  0.00000000000E+00 0.  1.
        -15    1    1    2    0    0 -0.12803089952E+02 -0.44142948164E+01  0.22351772262E+02  0.26194743047E+02  0.17770000000E+01 0.  1.
         15    1    1    2    0    0  0.87478686933E+00  0.74517926653E+01 -0.22744714041E+01  0.80389934172E+01  0.17770000000E+01 0. -1.
</event>
<event>
 6    1  0.1059789E-002  0.1845345E+03  0.7546771E-02  0.1066847E+00
        -11   -1    0    0    0    0  0.00000000000E+00  0.00000000000E+00  0.18250000000E+03  0.18250000000E+03  0.00000000000E+00 0. -1.
         11   -1    0    0    0    0 -0.00000000000E+00 -0.00000000000E+00 -0.18250000000E+03  0.18250000000E+03  0.00000000000E+00 0.  1.
        -11    1    1    2    0    0  0.41955558121E+01 -0.35717085335E+01  0.12081549047E+03  0.12094107048E+03  0.00000000000E+00 0. -1.
         11    1    1    2    0    0  0.11445683034E+02  0.45041812070E+01 -0.18004587835E+03  0.18046553582E+03  0.00000000000E+00 0.  1.
        -15    1    1    2    0    0 -0.12197923801E+02 -0.34696508893E+01  0.17925982852E+02  0.22030125114E+02  0.17770000000E+01 0. -1.
         15    1    1    2    0    0 -0.34433150456E+01  0.25371782157E+01  0.41304405030E+02  0.41563268588E+02  0.17770000000E+01 0. -1.
</event>
<event>
 6    1  0.1059789E-002  0.1836909E+03  0.7546771E-02  0.1067511E+00
        -11   -1    0    0    0    0  0.00000000000E+00  0.00000000000E+00  0.18250000000E+03  0.18250000000E+03  0.00000000000E+00 0. -1.
         11   -1    0    0    0    0 -0.00000000000E+00 -0.00000000000E+00 -0.18250000000E+03  0.18250000000E+03  0.00000000000E+00 0.  1.
        -11    1    1    2    0    0 -0.20136676556E+01 -0.44925038935E+01  0.14056791814E+03  0.14065410431E+03  0.00000000000E+00 0. -1.
         11    1    1    2    0    0 -0.24874089540E+01 -0.14241075050E+01 -0.18128645779E+03  0.18130911468E+03  0.00000000000E+00 0.  1.
        -15    1    1    2    0    0  0.49086910299E+00  0.51078392625E+01  0.36486212156E+02  0.36888106226E+02  0.17770000000E+01 0. -1.
         15    1    1    2    0    0  0.40102075065E+01  0.80877213595E+00  0.42323274936E+01  0.61486747862E+01  0.17770000000E+01 0. -1.
</event>
<event>
 6    1  0.1059789E-002  0.1826959E+03  0.7546771E-02  0.1068299E+00
        -11   -1    0    0    0    0  0.00000000000E+00  0.00000000000E+00  0.18250000000E+03  0.18250000000E+03  0.00000000000E+00 0.  1.
         11   -1    0    0    0    0 -0.00000000000E+00 -0.00000000000E+00 -0.18250000000E+03  0.18250000000E+03  0.00000000000E+00 0.  1.
        -11    1    1    2    0    0 -0.28575447331E+01 -0.35066780468E+01  0.45554502119E+02  0.45778543185E+02  0.00000000000E+00 0.  1.
         11    1    1    2    0    0  0.13111781456E+01  0.63102390880E+01 -0.18219018218E+03  0.18230414364E+03  0.00000000000E+00 0.  1.
        -15    1    1    2    0    0  0.36196071444E+01 -0.40523316957E+01  0.96778623274E+02  0.96947318683E+02  0.17770000000E+01 0. -1.
         15    1    1    2    0    0 -0.20732405568E+01  0.12487706545E+01  0.39857056790E+02  0.39969994490E+02  0.17770000000E+01 0.  1.
</event>
<event>
 6    1  0.1059789E-002  0.1835082E+03  0.7546771E-02  0.1067655E+00
        -11   -1    0    0    0    0  0.00000000000E+00  0.00000000000E+00  0.18250000000E+03  0.18250000000E+03  0.00000000000E+00 0. -1.
         11   -1    0    0    0    0 -0.00000000000E+00 -0.00000000000E+00 -0.18250000000E+03  0.18250000000E+03  0.00000000000E+00 0.  1.
        -11    1    1    2    0    0  0.91127253093E+00 -0.22103323972E+01  0.95420337589E+02  0.95450284507E+02  0.00000000000E+00 0. -1.
         11    1    1    2    0    0  0.21632196674E+01 -0.33275093659E+01 -0.18144839884E+03  0.18149179948E+03  0.00000000000E+00 0.  1.
        -15    1    1    2    0    0  0.27806729219E-01  0.97870832818E+01  0.75524312372E+02  0.76176553221E+02  0.17770000000E+01 0.  1.
         15    1    1    2    0    0 -0.31022989275E+01 -0.42492415187E+01  0.10503748881E+02  0.11881362787E+02  0.17770000000E+01 0. -1.
</event>
<event>
 6    1  0.1059789E-002  0.1858046E+03  0.7546771E-02  0.1065854E+00
        -11   -1    0    0    0    0  0.00000000000E+00  0.00000000000E+00  0.18250000000E+03  0.18250000000E+03  0.00000000000E+00 0. -1.
         11   -1    0    0    0    0 -0.00000000000E+00 -0.00000000000E+00 -0.18250000000E+03  0.18250000000E+03  0.00000000000E+00 0. -1.
        -11    1    1    2    0    0  0.24996717014E+01 -0.86794746836E+01  0.17896766468E+03  0.17919544257E+03  0.00000000000E+00 0. -1.
         11    1    1    2    0    0  0.28877385494E+01  0.33507376778E+01 -0.12607623026E+03  0.12615380420E+03  0.00000000000E+00 0. -1.
        -15    1    1    2    0    0  0.78282064181E+00  0.85921980824E+01 -0.30960338068E+01  0.93371210969E+01  0.17770000000E+01 0.  1.
         15    1    1    2    0    0 -0.61702308926E+01 -0.32634610766E+01 -0.49795400611E+02  0.50313632134E+02  0.17770000000E+01 0. -1.
</event>
<event>
 6    1  0.1059789E-002  0.1846014E+03  0.7546771E-02  0.1066794E+00
        -11   -1    0    0    0    0  0.00000000000E+00  0.00000000000E+00  0.18250000000E+03  0.18250000000E+03  0.00000000000E+00 0. -1.
         11   -1    0    0    0    0 -0.00000000000E+00 -0.00000000000E+00 -0.18250000000E+03  0.18250000000E+03  0.00000000000E+00 0.  1.
        -11    1    1    2    0    0 -0.37521802323E+01 -0.11053647848E+01  0.17438380733E+03  0.17442767254E+03  0.00000000000E+00 0. -1.
         11    1    1    2    0    0  0.40073038196E+01  0.28686779462E+01 -0.18033131638E+03  0.18039864596E+03  0.00000000000E+00 0.  1.
        -15    1    1    2    0    0  0.33469534085E+01  0.15927701353E+00  0.29646131467E+01  0.48139512249E+01  0.17770000000E+01 0.  1.
         15    1    1    2    0    0 -0.36020769958E+01 -0.19225901749E+01  0.29828959001E+01  0.53597302745E+01  0.17770000000E+01 0. -1.
</event>
<event>
 6    1  0.1059789E-002  0.1880482E+03  0.7546771E-02  0.1064122E+00
        -11   -1    0    0    0    0  0.00000000000E+00  0.00000000000E+00  0.18250000000E+03  0.18250000000E+03  0.00000000000E+00 0. -1.
         11   -1    0    0    0    0 -0.00000000000E+00 -0.00000000000E+00 -0.18250000000E+03  0.18250000000E+03  0.00000000000E+00 0. -1.
        -11    1    1    2    0    0 -0.91826330460E+01 -0.41501572504E+00  0.16488149757E+03  0.16513752217E+03  0.00000000000E+00 0. -1.
         11    1    1    2    0    0 -0.23681472845E+01  0.15435769709E+01 -0.17692917683E+03  0.17695175717E+03  0.00000000000E+00 0. -1.
        -15    1    1    2    0    0  0.84405072633E+01 -0.39582467119E+00  0.15589001841E+02  0.17820593353E+02  0.17770000000E+01 0. -1.
         15    1    1    2    0    0  0.31102730672E+01 -0.73273657467E+00 -0.35413225735E+01  0.50901273079E+01  0.17770000000E+01 0.  1.
</event>
<event>
 6    1  0.1059789E-002  0.1831845E+03  0.7546771E-02  0.1067911E+00
        -11   -1    0    0    0    0  0.00000000000E+00  0.00000000000E+00  0.18250000000E+03  0.18250000000E+03  0.00000000000E+00 0. -1.
         11   -1    0    0    0    0 -0.00000000000E+00 -0.00000000000E+00 -0.18250000000E+03  0.18250000000E+03  0.00000000000E+00 0.  1.
        -11    1    1    2    0    0  0.16964808745E+01 -0.17349312713E+01  0.13709794663E+03  0.13711941877E+03  0.00000000000E+00 0. -1.
         11    1    1    2    0    0  0.25366035534E+01 -0.52597457327E-01 -0.18179776970E+03  0.18181547292E+03  0.00000000000E+00 0.  1.
        -15    1    1    2    0    0  0.16020060038E+01 -0.13625518901E+01  0.44416653881E+01  0.52258101104E+01  0.17770000000E+01 0. -1.
         15    1    1    2    0    0 -0.58350904317E+01  0.31500806187E+01  0.40258157689E+02  0.40839298204E+02  0.17770000000E+01 0. -1.
</event>
<event>
 6    1  0.1059789E-002  0.1021073E+03  0.7546771E-02  0.1160219E+00
        -11   -1    0    0    0    0  0.00000000000E+00  0.00000000000E+00  0.18250000000E+03  0.18250000000E+03  0.00000000000E+00 0.  1.
         11   -1    0    0    0    0 -0.00000000000E+00 -0.00000000000E+00 -0.18250000000E+03  0.18250000000E+03  0.00000000000E+00 0. -1.
        -11    1    1    2    0    0  0.96990085208E+00 -0.73236039831E+01  0.11259238199E+03  0.11283448217E+03  0.00000000000E+00 0.  1.
         11    1    1    2    0    0  0.48739974946E+01  0.30792706319E+01 -0.88979896227E+02  0.89166471792E+02  0.00000000000E+00 0. -1.
        -15    1    1    2    0    0 -0.44577378300E+01  0.25452207577E+02 -0.89799831336E+02  0.93460439407E+02  0.17770000000E+01 0. -1.
         15    1    1    2    0    0 -0.13861605167E+01 -0.21207874225E+02  0.66187345570E+02  0.69538606635E+02  0.17770000000E+01 0.  1.
</event>
<event>
 6    1  0.1059789E-002  0.1933711E+03  0.7546771E-02  0.1060116E+00
        -11   -1    0    0    0    0  0.00000000000E+00  0.00000000000E+00  0.18250000000E+03  0.18250000000E+03  0.00000000000E+00 0.  1.
         11   -1    0    0    0    0 -0.00000000000E+00 -0.00000000000E+00 -0.18250000000E+03  0.18250000000E+03  0.00000000000E+00 0. -1.
        -11    1    1    2    0    0 -0.27621932490E+01 -0.35079480055E+01  0.17157077256E+03  0.17162885949E+03  0.00000000000E+00 0.  1.
         11    1    1    2    0    0  0.30976827647E+01  0.24901762862E+01 -0.16190249316E+03  0.16195127017E+03  0.00000000000E+00 0. -1.
        -15    1    1    2    0    0 -0.15056531820E+01  0.23247610108E+01  0.10548281466E+02  0.11049682174E+02  0.17770000000E+01 0.  1.
         15    1    1    2    0    0  0.11701636662E+01 -0.13069892915E+01 -0.20216560863E+02  0.20370188172E+02  0.17770000000E+01 0. -1.
</event>
<event>
 6    1  0.1059789E-002  0.1870169E+03  0.7546771E-02  0.1064915E+00
        -11   -1    0    0    0    0  0.00000000000E+00  0.00000000000E+00  0.18250000000E+03  0.18250000000E+03  0.00000000000E+00 0.  1.
         11   -1    0    0    0    0 -0.00000000000E+00 -0.00000000000E+00 -0.18250000000E+03  0.18250000000E+03  0.00000000000E+00 0. -1.
        -11    1    1    2    0    0  0.12645051742E+01 -0.22401293432E+01  0.17796447773E+03  0.17798306797E+03  0.00000000000E+00 0.  1.
         11    1    1    2    0    0 -0.10218543923E+02  0.65532110154E+01 -0.15921499679E+03  0.15967710674E+03  0.00000000000E+00 0. -1.
        -15    1    1    2    0    0 -0.16042621632E+01 -0.23558468696E+01 -0.15673438539E+02  0.16029288075E+02  0.17770000000E+01 0.  1.
         15    1    1    2    0    0  0.10558300912E+02 -0.19572348026E+01 -0.30760423993E+01  0.11310537214E+02  0.17770000000E+01 0. -1.
</event>
<event>
 6    1  0.1059789E-002  0.1843820E+03  0.7546771E-02  0.1066967E+00
        -11   -1    0    0    0    0  0.00000000000E+00  0.00000000000E+00  0.18250000000E+03  0.18250000000E+03  0.00000000000E+00 0. -1.
         11   -1    0    0    0    0 -0.00000000000E+00 -0.00000000000E+00 -0.18250000000E+03  0.18250000000E+03  0.00000000000E+00 0.  1.
        -11    1    1    2    0    0 -0.18609979382E+01  0.71088576291E+01  0.14777107277E+03  0.14795367220E+03  0.00000000000E+00 0. -1.
         11    1    1    2    0    0  0.26206358190E+01  0.29859695922E+01 -0.18057433751E+03  0.18061803651E+03  0.00000000000E+00 0.  1.
        -15    1    1    2    0    0  0.26356390429E+01  0.66936135746E+00  0.26814449336E+01  0.42121863353E+01  0.17770000000E+01 0.  1.
         15    1    1    2    0    0 -0.33952769237E+01 -0.10764188579E+02  0.30121819807E+02  0.32216104957E+02  0.17770000000E+01 0. -1.
</event>
<event>
 6    1  0.1059789E-002  0.1831367E+03  0.7546771E-02  0.1067949E+00
        -11   -1    0    0    0    0  0.00000000000E+00  0.00000000000E+00  0.18250000000E+03  0.18250000000E+03  0.00000000000E+00 0. -1.
         11   -1    0    0    0    0 -0.00000000000E+00 -0.00000000000E+00 -0.18250000000E+03  0.18250000000E+03  0.00000000000E+00 0.  1.
        -11    1    1    2    0    0  0.21883230293E+01 -0.19464245426E+01  0.15347354334E+03  0.15350148478E+03  0.00000000000E+00 0. -1.
         11    1    1    2    0    0  0.27081151231E+01  0.21203664975E+01 -0.18183081049E+03  0.18186333738E+03  0.00000000000E+00 0.  1.
        -15    1    1    2    0    0 -0.92914340045E+00  0.18878662782E+01  0.18066844958E+02  0.18275556415E+02  0.17770000000E+01 0.  1.
         15    1    1    2    0    0 -0.39672947520E+01 -0.20618082331E+01  0.10290422194E+02  0.11359621418E+02  0.17770000000E+01 0.  1.
</event>
<event>
 6    1  0.1059789E-002  0.1836736E+03  0.7546771E-02  0.1067524E+00
        -11   -1    0    0    0    0  0.00000000000E+00  0.00000000000E+00  0.18250000000E+03  0.18250000000E+03  0.00000000000E+00 0. -1.
         11   -1    0    0    0    0 -0.00000000000E+00 -0.00000000000E+00 -0.18250000000E+03  0.18250000000E+03  0.00000000000E+00 0. -1.
        -11    1    1    2    0    0  0.39027483489E+01  0.35613849996E+00  0.18128399977E+03  0.18132635454E+03  0.00000000000E+00 0. -1.
         11    1    1    2    0    0  0.87424000610E+00 -0.30167001915E+00 -0.58780767102E+02  0.58788041994E+02  0.00000000000E+00 0. -1.
        -15    1    1    2    0    0 -0.61425985853E+01 -0.56528121954E+01 -0.11473258509E+03  0.11504959632E+03  0.17770000000E+01 0. -1.
         15    1    1    2    0    0  0.13656102303E+01  0.55983437146E+01 -0.77706475771E+01  0.98360071378E+01  0.17770000000E+01 0.  1.
</event>
<event>
 6    1  0.1059789E-002  0.2037629E+03  0.7546771E-02  0.1052686E+00
        -11   -1    0    0    0    0  0.00000000000E+00  0.00000000000E+00  0.18250000000E+03  0.18250000000E+03  0.00000000000E+00 0.  1.
         11   -1    0    0    0    0 -0.00000000000E+00 -0.00000000000E+00 -0.18250000000E+03  0.18250000000E+03  0.00000000000E+00 0. -1.
        -11    1    1    2    0    0  0.61724303614E+00  0.44528806098E+01  0.15065663342E+03  0.15072368867E+03  0.00000000000E+00 0.  1.
         11    1    1    2    0    0  0.86879501582E+00 -0.31031897206E+01 -0.16120491252E+03  0.16123711859E+03  0.00000000000E+00 0. -1.
        -15    1    1    2    0    0  0.18757892445E+02  0.15556242296E+02  0.10525872217E+02  0.26604640916E+02  0.17770000000E+01 0. -1.
         15    1    1    2    0    0 -0.20243930497E+02 -0.16905933185E+02  0.22406885095E-01  0.26434551819E+02  0.17770000000E+01 0.  1.
</event>
<event>
 6    1  0.1059789E-002  0.1833319E+03  0.7546771E-02  0.1067795E+00
        -11   -1    0    0    0    0  0.00000000000E+00  0.00000000000E+00  0.18250000000E+03  0.18250000000E+03  0.00000000000E+00 0.  1.
         11   -1    0    0    0    0 -0.00000000000E+00 -0.00000000000E+00 -0.18250000000E+03  0.18250000000E+03  0.00000000000E+00 0.  1.
        -11    1    1    2    0    0 -0.21455668293E+01  0.13923193256E+01  0.18165012960E+03  0.18166813588E+03  0.00000000000E+00 0.  1.
         11    1    1    2    0    0  0.23211393618E+01 -0.59080619221E+00 -0.16608456675E+03  0.16610183639E+03  0.00000000000E+00 0.  1.
        -15    1    1    2    0    0 -0.12215233145E+01  0.15327121512E+01 -0.12781886200E+02  0.13052803131E+02  0.17770000000E+01 0.  1.
         15    1    1    2    0    0  0.10459507821E+01 -0.23342252846E+01 -0.27836766494E+01  0.41772246057E+01  0.17770000000E+01 0. -1.
</event>
<event>
 6    1  0.1059789E-002  0.1725081E+03  0.7546771E-02  0.1076699E+00
        -11   -1    0    0    0    0  0.00000000000E+00  0.00000000000E+00  0.18250000000E+03  0.18250000000E+03  0.00000000000E+00 0. -1.
         11   -1    0    0    0    0 -0.00000000000E+00 -0.00000000000E+00 -0.18250000000E+03  0.18250000000E+03  0.00000000000E+00 0.  1.
        -11    1    1    2    0    0  0.54792762368E+01  0.44408770511E+01  0.17484825598E+03  0.17499044681E+03  0.00000000000E+00 0. -1.
         11    1    1    2    0    0  0.88382854212E+00  0.23630676539E+01 -0.17016462663E+03  0.17018332878E+03  0.00000000000E+00 0.  1.
        -15    1    1    2    0    0 -0.95682804486E+01 -0.77591890269E+01  0.15394347337E+01  0.12541315457E+02  0.17770000000E+01 0. -1.
         15    1    1    2    0    0  0.32051756697E+01  0.95524432186E+00 -0.62230640836E+01  0.72849089478E+01  0.17770000000E+01 0. -1.
</event>
<event>
 6    1  0.1059789E-002  0.1851000E+03  0.7546771E-02  0.1066404E+00
        -11   -1    0    0    0    0  0.00000000000E+00  0.00000000000E+00  0.18250000000E+03  0.18250000000E+03  0.00000000000E+00 0. -1.
         11   -1    0    0    0    0 -0.00000000000E+00 -0.00000000000E+00 -0.18250000000E+03  0.18250000000E+03  0.00000000000E+00 0.  1.
        -11    1    1    2    0    0 -0.36410112509E+01  0.25768794872E+01  0.17984472101E+03  0.17990003042E+03  0.00000000000E+00 0. -1.
         11    1    1    2    0    0 -0.24610333273E+01  0.96453843497E+00 -0.16959979702E+03  0.16962039432E+03  0.00000000000E+00 0.  1.
        -15    1    1    2    0    0  0.29279130247E+01 -0.58581859778E+01 -0.39589422964E+01  0.78563331610E+01  0.17770000000E+01 0. -1.
         15    1    1    2    0    0  0.31741315535E+01  0.23167680556E+01 -0.62859816896E+01  0.76232421019E+01  0.17770000000E+01 0.  1.
</event>
<event>
 6    1  0.1059789E-002  0.1973408E+03  0.7546771E-02  0.1057219E+00
        -11   -1    0    0    0    0  0.00000000000E+00  0.00000000000E+00  0.18250000000E+03  0.18250000000E+03  0.00000000000E+00 0.  1.
         11   -1    0    0    0    0 -0.00000000000E+00 -0.00000000000E+00 -0.18250000000E+03  0.18250000000E+03  0.00000000000E+00 0.  1.
        -11    1    1    2    0    0 -0.18473624546E+01 -0.87560031666E+01  0.15489838720E+03  0.15515666501E+03  0.00000000000E+00 0.  1.
         11    1    1    2    0    0 -0.29252685985E+00 -0.42293555914E+01 -0.16760557220E+03  0.16765918064E+03  0.00000000000E+00 0.  1.
        -15    1    1    2    0    0  0.97590627799E+00  0.53241652619E+01  0.26042726264E+02  0.26658590530E+02  0.17770000000E+01 0.  1.
         15    1    1    2    0    0  0.11639830365E+01  0.76611934960E+01 -0.13335541264E+02  0.15525563826E+02  0.17770000000E+01 0.  1.
</event>
<event>
 6    1  0.1059789E-002  0.1828274E+03  0.7546771E-02  0.1068194E+00
        -11   -1    0    0    0    0  0.00000000000E+00  0.00000000000E+00  0.18250000000E+03  0.18250000000E+03  0.00000000000E+00 0. -1.
         11   -1    0    0    0    0 -0.00000000000E+00 -0.00000000000E+00 -0.18250000000E+03  0.18250000000E+03  0.00000000000E+00 0.  1.
        -11    1    1    2    0    0  0.54119697384E+00  0.30164788116E+00  0.44072075521E+02  0.44076430508E+02  0.00000000000E+00 0. -1.
         11    1    1    2    0    0  0.25620347605E+01 -0.53925182476E+01 -0.18207469885E+03  0.18217255347E+03  0.00000000000E+00 0.  1.
        -15    1    1    2    0    0 -0.21778142469E+01  0.36183255207E+01  0.14147420780E+02  0.14870857345E+02  0.17770000000E+01 0.  1.
         15    1    1    2    0    0 -0.92541748747E+00  0.14725448458E+01  0.12385520255E+03  0.12388015868E+03  0.17770000000E+01 0. -1.
</event>
<event>
 6    1  0.1059789E-002  0.1833813E+03  0.7546771E-02  0.1067755E+00
        -11   -1    0    0    0    0  0.00000000000E+00  0.00000000000E+00  0.18250000000E+03  0.18250000000E+03  0.00000000000E+00 0. -1.
         11   -1    0    0    0    0 -0.00000000000E+00 -0.00000000000E+00 -0.18250000000E+03  0.18250000000E+03  0.00000000000E+00 0.  1.
        -11    1    1    2    0    0  0.90895355857E+00 -0.34222412106E+01  0.14695922329E+03  0.14700187496E+03  0.00000000000E+00 0. -1.
         11    1    1    2    0    0  0.41555517352E+00 -0.31767072447E+01 -0.18159041280E+03  0.18161867243E+03  0.00000000000E+00 0.  1.
        -15    1    1    2    0    0  0.13553932277E+01  0.14579082045E+01  0.24195225716E+01  0.36020002234E+01  0.17770000000E+01 0.  1.
         15    1    1    2    0    0 -0.26799019598E+01  0.51410402508E+01  0.32211666932E+02  0.32777452386E+02  0.17770000000E+01 0. -1.
</event>
<event>
 6    1  0.1059789E-002  0.1854897E+03  0.7546771E-02  0.1066100E+00
        -11   -1    0    0    0    0  0.00000000000E+00  0.00000000000E+00  0.18250000000E+03  0.18250000000E+03  0.00000000000E+00 0.  1.
         11   -1    0    0    0    0 -0.00000000000E+00 -0.00000000000E+00 -0.18250000000E+03  0.18250000000E+03  0.00000000000E+00 0. -1.
        -11    1    1    2    0    0  0.60673719842E+01  0.34160692074E+01  0.17937522839E+03  0.17951032029E+03  0.00000000000E+00 0.  1.
         11    1    1    2    0    0 -0.10272131327E+01 -0.23584315664E+01 -0.16179611564E+03  0.16181656406E+03  0.00000000000E+00 0. -1.
        -15    1    1    2    0    0 -0.71738482841E+01 -0.16902391455E+01 -0.20068629997E+01  0.78425911325E+01  0.17770000000E+01 0. -1.
         15    1    1    2    0    0  0.21336894326E+01  0.63260150455E+00 -0.15572249747E+02  0.15830524516E+02  0.17770000000E+01 0.  1.
</event>
<event>
 6    1  0.1059789E-002  0.1902744E+03  0.7546771E-02  0.1062430E+00
        -11   -1    0    0    0    0  0.00000000000E+00  0.00000000000E+00  0.18250000000E+03  0.18250000000E+03  0.00000000000E+00 0. -1.
         11   -1    0    0    0    0 -0.00000000000E+00 -0.00000000000E+00 -0.18250000000E+03  0.18250000000E+03  0.00000000000E+00 0.  1.
        -11    1    1    2    0    0  0.48702602320E+00  0.59676376299E+01  0.15602328608E+03  0.15613813017E+03  0.00000000000E+00 0. -1.
         11    1    1    2    0    0  0.13703376443E+02 -0.42664575670E+00 -0.17418693194E+03  0.17472564726E+03  0.00000000000E+00 0.  1.
        -15    1    1    2    0    0  0.10883323943E+01  0.10713823831E+01 -0.50194648337E+01  0.55394118666E+01  0.17770000000E+01 0. -1.
         15    1    1    2    0    0 -0.15278734861E+02 -0.66123742563E+01  0.23183110689E+02  0.28596810705E+02  0.17770000000E+01 0.  1.
</event>
<event>
 6    1  0.1059789E-002  0.1752647E+03  0.7546771E-02  0.1074365E+00
        -11   -1    0    0    0    0  0.00000000000E+00  0.00000000000E+00  0.18250000000E+03  0.18250000000E+03  0.00000000000E+00 0.  1.
         11   -1    0    0    0    0 -0.00000000000E+00 -0.00000000000E+00 -0.18250000000E+03  0.18250000000E+03  0.00000000000E+00 0.  1.
        -11    1    1    2    0    0 -0.40757419629E+01 -0.14932574715E+00  0.17269814242E+03  0.17274629480E+03  0.00000000000E+00 0.  1.
         11    1    1    2    0    0 -0.64465541790E+01  0.61104165698E+00 -0.17786150487E+03  0.17797934247E+03  0.00000000000E+00 0.  1.
        -15    1    1    2    0    0  0.93267829975E+01  0.10463318948E+01  0.13484379138E+01  0.96467458411E+01  0.17770000000E+01 0.  1.
         15    1    1    2    0    0  0.11955131445E+01 -0.15080478046E+01  0.38149245361E+01  0.46276168895E+01  0.17770000000E+01 0. -1.
</event>
<event>
 6    1  0.1059789E-002  0.1836852E+03  0.7546771E-02  0.1067515E+00
        -11   -1    0    0    0    0  0.00000000000E+00  0.00000000000E+00  0.18250000000E+03  0.18250000000E+03  0.00000000000E+00 0.  1.
         11   -1    0    0    0    0 -0.00000000000E+00 -0.00000000000E+00 -0.18250000000E+03  0.18250000000E+03  0.00000000000E+00 0. -1.
        -11    1    1    2    0    0 -0.27297011516E+01  0.12665708299E+01  0.16083164235E+03  0.16085979190E+03  0.00000000000E+00 0.  1.
         11    1    1    2    0    0  0.26563131937E+01  0.43552894411E+01 -0.18124303064E+03  0.18131481104E+03  0.00000000000E+00 0. -1.
        -15    1    1    2    0    0  0.18310004385E+01 -0.52630568742E+01  0.19109398587E+02  0.19984473314E+02  0.17770000000E+01 0.  1.
         15    1    1    2    0    0 -0.17576124806E+01 -0.35880339674E+00  0.13019897066E+01  0.28409237416E+01  0.17770000000E+01 0. -1.
</event>
<event>
 6    1  0.1059789E-002  0.1837927E+03  0.7546771E-02  0.1067430E+00
        -11   -1    0    0    0    0  0.00000000000E+00  0.00000000000E+00  0.18250000000E+03  0.18250000000E+03  0.00000000000E+00 0. -1.
         11   -1    0    0    0    0 -0.00000000000E+00 -0.00000000000E+00 -0.18250000000E+03  0.18250000000E+03  0.00000000000E+00 0. -1.
        -11    1    1    2    0    0  0.88594968492E+00 -0.26043753391E+01  0.18118645653E+03  0.18120733900E+03  0.00000000000E+00 0. -1.
         11    1    1    2    0    0  0.13578244657E+01  0.23462712928E+01 -0.15235398796E+03  0.15237810316E+03  0.00000000000E+00 0. -1.
        -15    1    1    2    0    0 -0.15184946260E+00 -0.14734398588E+01 -0.27957912557E+02  0.28053461227E+02  0.17770000000E+01 0.  1.
         15    1    1    2    0    0 -0.20919246881E+01  0.17315439052E+01 -0.87455601435E+00  0.33610966095E+01  0.17770000000E+01 0.  1.
</event>
<event>
 6    1  0.1059789E-002  0.1841976E+03  0.7546771E-02  0.1067112E+00
        -11   -1    0    0    0    0  0.00000000000E+00  0.00000000000E+00  0.18250000000E+03  0.18250000000E+03  0.00000000000E+00 0.  1.
         11   -1    0    0    0    0 -0.00000000000E+00 -0.00000000000E+00 -0.18250000000E+03  0.18250000000E+03  0.00000000000E+00 0. -1.
        -11    1    1    2    0    0  0.28240451480E+01  0.34023509757E+01  0.14317272888E+03  0.14324099105E+03  0.00000000000E+00 0.  1.
         11    1    1    2    0    0  0.61049653595E-01  0.32011852735E+01 -0.18077409225E+03  0.18080244397E+03  0.00000000000E+00 0. -1.
        -15    1    1    2    0    0  0.95033341501E+00  0.56244553683E+00  0.28685914680E+02  0.28762108904E+02  0.17770000000E+01 0. -1.
         15    1    1    2    0    0 -0.38354282166E+01 -0.71659817861E+01  0.89154486965E+01  0.12194456077E+02  0.17770000000E+01 0. -1.
</event>
<event>
 6    1  0.1059789E-002  0.1828957E+03  0.7546771E-02  0.1068140E+00
        -11   -1    0    0    0    0  0.00000000000E+00  0.00000000000E+00  0.18250000000E+03  0.18250000000E+03  0.00000000000E+00 0.  1.
         11   -1    0    0    0    0 -0.00000000000E+00 -0.00000000000E+00 -0.18250000000E+03  0.18250000000E+03  0.00000000000E+00 0. -1.
        -11    1    1    2    0    0 -0.66591878445E+00 -0.18709674809E+01  0.10643456318E+03  0.10645308922E+03  0.00000000000E+00 0.  1.
         11    1    1    2    0    0  0.37340104657E-01 -0.38022223727E+01 -0.18206458836E+03  0.18210429051E+03  0.00000000000E+00 0. -1.
        -15    1    1    2    0    0  0.20758569478E+01 -0.31846083277E+00  0.47954432102E+02  0.48033278949E+02  0.17770000000E+01 0. -1.
         15    1    1    2    0    0 -0.14472782680E+01  0.59916506864E+01  0.27675593082E+02  0.28409341312E+02  0.17770000000E+01 0.  1.
</event>
<event>
 6    1  0.1059789E-002  0.1853359E+03  0.7546771E-02  0.1066220E+00
        -11   -1    0    0    0    0  0.00000000000E+00  0.00000000000E+00  0.18250000000E+03  0.18250000000E+03  0.00000000000E+00 0. -1.
         11   -1    0    0    0    0 -0.00000000000E+00 -0.00000000000E+00 -0.18250000000E+03  0.18250000000E+03  0.00000000000E+00 0.  1.
        -11    1    1    2    0    0  0.18271355000E+01 -0.11289550498E+02  0.15084410653E+03  0.15127702023E+03  0.00000000000E+00 0. -1.
         11    1    1    2    0    0  0.21986939101E+01  0.10788766698E+01 -0.17964740288E+03  0.17966409655E+03  0.00000000000E+00 0.  1.
        -15    1    1    2    0    0 -0.45599110874E+01  0.20912559743E+00  0.18262830062E+01  0.52277682867E+01  0.17770000000E+01 0. -1.
         15    1    1    2    0    0  0.53408167735E+00  0.10001548231E+02  0.26977013344E+02  0.28831114932E+02  0.17770000000E+01 0.  1.
</event>
<event>
 6    1  0.1059789E-002  0.1833238E+03  0.7546771E-02  0.1067801E+00
        -11   -1    0    0    0    0  0.00000000000E+00  0.00000000000E+00  0.18250000000E+03  0.18250000000E+03  0.00000000000E+00 0. -1.
         11   -1    0    0    0    0 -0.00000000000E+00 -0.00000000000E+00 -0.18250000000E+03  0.18250000000E+03  0.00000000000E+00 0. -1.
        -11    1    1    2    0    0  0.29011094063E+00 -0.22928194711E+01  0.15361252065E+03  0.15362990492E+03  0.00000000000E+00 0. -1.
         11    1    1    2    0    0 -0.28654416744E+01 -0.91543933370E+00 -0.18165131019E+03  0.18167621550E+03  0.00000000000E+00 0. -1.
        -15    1    1    2    0    0  0.23361190436E+01 -0.15044760140E+01  0.19503753905E+02  0.19780673539E+02  0.17770000000E+01 0. -1.
         15    1    1    2    0    0  0.23921169013E+00  0.47127348188E+01  0.85350356332E+01  0.99132060386E+01  0.17770000000E+01 0.  1.
</event>
<event>
 6    1  0.1059789E-002  0.1832882E+03  0.7546771E-02  0.1067829E+00
        -11   -1    0    0    0    0  0.00000000000E+00  0.00000000000E+00  0.18250000000E+03  0.18250000000E+03  0.00000000000E+00 0. -1.
         11   -1    0    0    0    0 -0.00000000000E+00 -0.00000000000E+00 -0.18250000000E+03  0.18250000000E+03  0.00000000000E+00 0.  1.
        -11    1    1    2    0    0 -0.28796427805E+01  0.30566966174E+01  0.18166323605E+03  0.18171176921E+03  0.00000000000E+00 0. -1.
         11    1    1    2    0    0 -0.18703874206E+01 -0.58638638992E+00 -0.43065462912E+02  0.43110048642E+02  0.00000000000E+00 0.  1.
        -15    1    1    2    0    0  0.88487824563E+01 -0.36668582122E+01 -0.31305100842E+02  0.32785879092E+02  0.17770000000E+01 0.  1.
         15    1    1    2    0    0 -0.40987522552E+01  0.11965479848E+01 -0.10729267230E+03  0.10739230305E+03  0.17770000000E+01 0.  1.
</event>
<event>
 6    1  0.1059789E-002  0.1869066E+03  0.7546771E-02  0.1065000E+00
        -11   -1    0    0    0    0  0.00000000000E+00  0.00000000000E+00  0.18250000000E+03  0.18250000000E+03  0.00000000000E+00 0. -1.
         11   -1    0    0    0    0 -0.00000000000E+00 -0.00000000000E+00 -0.18250000000E+03  0.18250000000E+03  0.00000000000E+00 0. -1.
        -11    1    1    2    0    0  0.24200321267E+01  0.19699337108E+01  0.15064035550E+03  0.15067267138E+03  0.00000000000E+00 0. -1.
         11    1    1    2    0    0 -0.35099089777E+01  0.12953195619E+01 -0.17805410145E+03  0.17809340347E+03  0.00000000000E+00 0. -1.
        -15    1    1    2    0    0 -0.61441227744E+00 -0.30054983150E+01  0.31368449905E+02  0.31568146937E+02  0.17770000000E+01 0.  1.
         15    1    1    2    0    0  0.17042891284E+01 -0.25975495779E+00 -0.39547039514E+01  0.46657782217E+01  0.17770000000E+01 0.  1.
</event>
<event>
 6    1  0.1059789E-002  0.1891120E+03  0.7546771E-02  0.1063310E+00
        -11   -1    0    0    0    0  0.00000000000E+00  0.00000000000E+00  0.18250000000E+03  0.18250000000E+03  0.00000000000E+00 0. -1.
         11   -1    0    0    0    0 -0.00000000000E+00 -0.00000000000E+00 -0.18250000000E+03  0.18250000000E+03  0.00000000000E+00 0. -1.
        -11    1    1    2    0    0  0.29014638487E+01 -0.93134887820E+01  0.17561727410E+03  0.17588799427E+03  0.00000000000E+00 0. -1.
         11    1    1    2    0    0 -0.17400543059E+01 -0.31850549242E+01 -0.11229449330E+03  0.11235312897E+03  0.00000000000E+00 0. -1.
        -15    1    1    2    0    0  0.43119143857E+00  0.17744761805E+02 -0.67385978635E+02  0.69707175694E+02  0.17770000000E+01 0. -1.
         15    1    1    2    0    0 -0.15926009814E+01 -0.52462180989E+01  0.40631978420E+01  0.70517010665E+01  0.17770000000E+01 0.  1.
</event>
<event>
 6    1  0.1059789E-002  0.1828923E+03  0.7546771E-02  0.1068143E+00
        -11   -1    0    0    0    0  0.00000000000E+00  0.00000000000E+00  0.18250000000E+03  0.18250000000E+03  0.00000000000E+00 0.  1.
         11   -1    0    0    0    0 -0.00000000000E+00 -0.00000000000E+00 -0.18250000000E+03  0.18250000000E+03  0.00000000000E+00 0.  1.
        -11    1    1    2    0    0 -0.29865270714E+01  0.36395571579E+00  0.18208279845E+03  0.18210765305E+03  0.00000000000E+00 0.  1.
         11    1    1    2    0    0  0.15478955638E+01  0.39288679688E+01 -0.15152874488E+03  0.15158757373E+03  0.00000000000E+00 0.  1.
        -15    1    1    2    0    0  0.33340640228E+00 -0.16698272867E+01 -0.54813019893E+01  0.60084842926E+01  0.17770000000E+01 0.  1.
         15    1    1    2    0    0  0.11052251053E+01 -0.26229963979E+01 -0.25072751584E+02  0.25296288930E+02  0.17770000000E+01 0.  1.
</event>
<event>
 6    1  0.1059789E-002  0.1848289E+03  0.7546771E-02  0.1066616E+00
        -11   -1    0    0    0    0  0.00000000000E+00  0.00000000000E+00  0.18250000000E+03  0.18250000000E+03  0.00000000000E+00 0. -1.
         11   -1    0    0    0    0 -0.00000000000E+00 -0.00000000000E+00 -0.18250000000E+03  0.18250000000E+03  0.00000000000E+00 0.  1.
        -11    1    1    2    0    0  0.22115546991E+01  0.43315113316E+00  0.16565962352E+03  0.16567495122E+03  0.00000000000E+00 0. -1.
         11    1    1    2    0    0  0.38516180477E+01 -0.69971518494E+01 -0.17999393201E+03  0.18017105943E+03  0.00000000000E+00 0.  1.
        -15    1    1    2    0    0 -0.76835913077E+01  0.44352650067E+01  0.12575443508E+02  0.15492212866E+02  0.17770000000E+01 0. -1.
         15    1    1    2    0    0  0.16204185609E+01  0.21287357095E+01  0.17588649787E+01  0.36617764878E+01  0.17770000000E+01 0.  1.
</event>
<event>
 6    1  0.1059789E-002  0.1855967E+03  0.7546771E-02  0.1066016E+00
        -11   -1    0    0    0    0  0.00000000000E+00  0.00000000000E+00  0.18250000000E+03  0.18250000000E+03  0.00000000000E+00 0. -1.
         11   -1    0    0    0    0 -0.00000000000E+00 -0.00000000000E+00 -0.18250000000E+03  0.18250000000E+03  0.00000000000E+00 0.  1.
        -11    1    1    2    0    0 -0.30249959579E+01  0.52293335748E+01  0.11932777468E+03  0.11948060236E+03  0.00000000000E+00 0. -1.
         11    1    1    2    0    0 -0.38022729647E+01  0.21707361843E+01 -0.17934981731E+03  0.17940325065E+03  0.00000000000E+00 0.  1.
        -15    1    1    2    0    0  0.40705105114E+01 -0.50614590456E+01  0.61468389933E+02  0.61836139218E+02  0.17770000000E+01 0. -1.
         15    1    1    2    0    0  0.27567584113E+01 -0.23386107135E+01 -0.14463473041E+01  0.42800077724E+01  0.17770000000E+01 0.  1.
</event>
<event>
 6    1  0.1059789E-002  0.1999327E+03  0.7546771E-02  0.1055367E+00
        -11   -1    0    0    0    0  0.00000000000E+00  0.00000000000E+00  0.18250000000E+03  0.18250000000E+03  0.00000000000E+00 0. -1.
         11   -1    0    0    0    0 -0.00000000000E+00 -0.00000000000E+00 -0.18250000000E+03  0.18250000000E+03  0.00000000000E+00 0.  1.
        -11    1    1    2    0    0 -0.25472848449E+01  0.16942861328E+01  0.14923931611E+03  0.14927066939E+03  0.00000000000E+00 0. -1.
         11    1    1    2    0    0 -0.41695452951E+01  0.91568941893E+00 -0.16501204617E+03  0.16506725592E+03  0.00000000000E+00 0.  1.
        -15    1    1    2    0    0  0.13986002773E+02 -0.11666015713E+02 -0.11051934133E+02  0.21377726101E+02  0.17770000000E+01 0. -1.
         15    1    1    2    0    0 -0.72691726331E+01  0.90560401616E+01  0.26824664195E+02  0.29284348590E+02  0.17770000000E+01 0.  1.
</event>
<event>
 6    1  0.1059789E-002  0.1540732E+03  0.7546771E-02  0.1093644E+00
        -11   -1    0    0    0    0  0.00000000000E+00  0.00000000000E+00  0.18250000000E+03  0.18250000000E+03  0.00000000000E+00 0.  1.
         11   -1    0    0    0    0 -0.00000000000E+00 -0.00000000000E+00 -0.18250000000E+03  0.18250000000E+03  0.00000000000E+00 0.  1.
        -11    1    1    2    0    0 -0.14257796235E-01  0.30402398720E+01  0.15530631658E+03  0.15533607189E+03  0.00000000000E+00 0.  1.
         11    1    1    2    0    0 -0.38022914477E+01  0.56099935289E+00 -0.15281682133E+03  0.15286514653E+03  0.00000000000E+00 0.  1.
        -15    1    1    2    0    0 -0.16867672682E+01  0.68566540513E+01  0.25417957997E+02  0.26440295125E+02  0.17770000000E+01 0.  1.
         15    1    1    2    0    0  0.55033165122E+01 -0.10457893276E+02 -0.27907453242E+02  0.30358486455E+02  0.17770000000E+01 0. -1.
</event>
<event>
 6    1  0.1059789E-002  0.1848859E+03  0.7546771E-02  0.1066571E+00
        -11   -1    0    0    0    0  0.00000000000E+00  0.00000000000E+00  0.18250000000E+03  0.18250000000E+03  0.00000000000E+00 0. -1.
         11   -1    0    0    0    0 -0.00000000000E+00 -0.00000000000E+00 -0.18250000000E+03  0.18250000000E+03  0.00000000000E+00 0.  1.
        -11    1    1    2    0    0  0.33073598429E+01  0.96364010899E+01  0.17982577127E+03  0.18011414955E+03  0.00000000000E+00 0. -1.
         11    1    1    2    0    0 -0.62384231092E+00  0.11383620892E+01 -0.92208627460E+02  0.92217764154E+02  0.00000000000E+00 0.  1.
        -15    1    1    2    0    0  0.24655349142E+01  0.24941592154E+01 -0.69261165819E+02  0.69372664013E+02  0.17770000000E+01 0.  1.
         15    1    1    2    0    0 -0.51490524461E+01 -0.13268922395E+02 -0.18355977988E+02  0.23295422287E+02  0.17770000000E+01 0. -1.
</event>
<event>
 6    1  0.1059789E-002  0.1838551E+03  0.7546771E-02  0.1067381E+00
        -11   -1    0    0    0    0  0.00000000000E+00  0.00000000000E+00  0.18250000000E+03  0.18250000000E+03  0.00000000000E+00 0.  1.
         11   -1    0    0    0    0 -0.00000000000E+00 -0.00000000000E+00 -0.18250000000E+03  0.18250000000E+03  0.00000000000E+00 0.  1.
        -11    1    1    2    0    0  0.40131345175E+01  0.28510116828E+01  0.18107795112E+03  0.18114485336E+03  0.00000000000E+00 0.  1.
         11    1    1    2    0    0  0.31749260839E+01 -0.21129792185E+01 -0.15924657039E+03  0.15929223150E+03  0.00000000000E+00 0.  1.
        -15    1    1    2    0    0 -0.40155687739E+01  0.37032875061E+00 -0.29508815722E+01  0.53035240184E+01  0.17770000000E+01 0.  1.
         15    1    1    2    0    0 -0.31724918276E+01 -0.11083612149E+01 -0.18880499160E+02  0.19259391126E+02  0.17770000000E+01 0. -1.
</event>
<event>
 6    1  0.1059789E-002  0.1837628E+03  0.7546771E-02  0.1067454E+00
        -11   -1    0    0    0    0  0.00000000000E+00  0.00000000000E+00  0.18250000000E+03  0.18250000000E+03  0.00000000000E+00 0. -1.
         11   -1    0    0    0    0 -0.00000000000E+00 -0.00000000000E+00 -0.18250000000E+03  0.18250000000E+03  0.00000000000E+00 0. -1.
        -11    1    1    2    0    0 -0.95720255249E+00  0.27682219802E+01  0.84022937128E+02  0.84073974887E+02  0.00000000000E+00 0. -1.
         11    1    1    2    0    0 -0.10192365716E+01  0.50912459319E+01 -0.18116284748E+03  0.18123723937E+03  0.00000000000E+00 0. -1.
        -15    1    1    2    0    0  0.55006137264E+01  0.32833605494E+01  0.66757532677E+02  0.67087726940E+02  0.17770000000E+01 0. -1.
         15    1    1    2    0    0 -0.35241746023E+01 -0.11142828462E+02  0.30382377675E+02  0.32601058801E+02  0.17770000000E+01 0.  1.
</event>
<event>
 6    1  0.1059789E-002  0.1867128E+03  0.7546771E-02  0.1065150E+00
        -11   -1    0    0    0    0  0.00000000000E+00  0.00000000000E+00  0.18250000000E+03  0.18250000000E+03  0.00000000000E+00 0.  1.
         11   -1    0    0    0    0 -0.00000000000E+00 -0.00000000000E+00 -0.18250000000E+03  0.18250000000E+03  0.00000000000E+00 0.  1.
        -11    1    1    2    0    0 -0.14239823407E+01 -0.17924911155E+01  0.16900266380E+03  0.16901816802E+03  0.00000000000E+00 0.  1.
         11    1    1    2    0    0  0.17240926388E+01 -0.18298031409E+01 -0.17826942590E+03  0.17828715289E+03  0.00000000000E+00 0.  1.
        -15    1    1    2    0    0  0.49919041004E+01  0.64375821252E+01  0.30509706540E+01  0.88784976825E+01  0.17770000000E+01 0.  1.
         15    1    1    2    0    0 -0.52920143986E+01 -0.28152878688E+01  0.62157914487E+01  0.88161814020E+01  0.17770000000E+01 0. -1.
</event>
<event>
 6    1  0.1059789E-002  0.1859928E+03  0.7546771E-02  0.1065708E+00
        -11   -1    0    0    0    0  0.00000000000E+00  0.00000000000E+00  0.18250000000E+03  0.18250000000E+03  0.00000000000E+00 0.  1.
         11   -1    0    0    0    0 -0.00000000000E+00 -0.00000000000E+00 -0.18250000000E+03  0.18250000000E+03  0.00000000000E+00 0. -1.
        -11    1    1    2    0    0  0.15570448921E+01 -0.12867307683E+01  0.90812146270E+02  0.90834607805E+02  0.00000000000E+00 0.  1.
         11    1    1    2    0    0 -0.64793189433E+01 -0.26121280372E+01 -0.17887085570E+03  0.17900722837E+03  0.00000000000E+00 0. -1.
        -15    1    1    2    0    0  0.69116509117E+01  0.16154058632E+02  0.75003086528E+02  0.77054170856E+02  0.17770000000E+01 0.  1.
         15    1    1    2    0    0 -0.19893768605E+01 -0.12255199826E+02  0.13055622907E+02  0.18103992973E+02  0.17770000000E+01 0. -1.
</event>
<event>
 6    1  0.1059789E-002  0.1842161E+03  0.7546771E-02  0.1067097E+00
        -11   -1    0    0    0    0  0.00000000000E+00  0.00000000000E+00  0.18250000000E+03  0.18250000000E+03  0.00000000000E+00 0.  1.
         11   -1    0    0    0    0 -0.00000000000E+00 -0.00000000000E+00 -0.18250000000E+03  0.18250000000E+03  0.00000000000E+00 0.  1.
        -11    1    1    2    0    0 -0.39715924703E+01  0.88976914021E+01  0.13967046603E+03  0.14000993372E+03  0.00000000000E+00 0.  1.
         11    1    1    2    0    0  0.71139381846E+01 -0.33808294209E+00 -0.18064355782E+03  0.18078389696E+03  0.00000000000E+00 0.  1.
        -15    1    1    2    0    0  0.84660341649E-01 -0.30195481571E+01  0.94621470985E+00  0.36301363230E+01  0.17770000000E+01 0.  1.
         15    1    1    2    0    0 -0.32270060559E+01 -0.55400603029E+01  0.40026877085E+02  0.40576033005E+02  0.17770000000E+01 0. -1.
</event>
<event>
 6    1  0.1059789E-002  0.1829497E+03  0.7546771E-02  0.1068097E+00
        -11   -1    0    0    0    0  0.00000000000E+00  0.00000000000E+00  0.18250000000E+03  0.18250000000E+03  0.00000000000E+00 0. -1.
         11   -1    0    0    0    0 -0.00000000000E+00 -0.00000000000E+00 -0.18250000000E+03  0.18250000000E+03  0.00000000000E+00 0. -1.
        -11    1    1    2    0    0 -0.18297067709E+01 -0.59558151929E+01  0.18194367580E+03  0.18205032471E+03  0.00000000000E+00 0. -1.
         11    1    1    2    0    0 -0.19969413196E+01 -0.14219644901E-01 -0.13029612867E+03  0.13031143128E+03  0.00000000000E+00 0. -1.
        -15    1    1    2    0    0  0.25489166993E+01  0.36982168706E+01 -0.13105378709E+02  0.13967192434E+02  0.17770000000E+01 0.  1.
         15    1    1    2    0    0  0.12777313912E+01  0.22718179672E+01 -0.38542168421E+02  0.38671051576E+02  0.17770000000E+01 0. -1.
</event>
<event>
 6    1  0.1059789E-002  0.2012244E+03  0.7546771E-02  0.1054456E+00
        -11   -1    0    0    0    0  0.00000000000E+00  0.00000000000E+00  0.18250000000E+03  0.18250000000E+03  0.00000000000E+00 0.  1.
         11   -1    0    0    0    0 -0.00000000000E+00 -0.00000000000E+00 -0.18250000000E+03  0.18250000000E+03  0.00000000000E+00 0. -1.
        -11    1    1    2    0    0 -0.71291886854E+01  0.15234979829E+00  0.16362032752E+03  0.16377563958E+03  0.00000000000E+00 0.  1.
         11    1    1    2    0    0 -0.50181200229E+01  0.10522981058E+01 -0.11289011532E+03  0.11300649095E+03  0.00000000000E+00 0. -1.
        -15    1    1    2    0    0  0.22859883974E+00 -0.38873884882E+01 -0.67365913732E+02  0.67501763745E+02  0.17770000000E+01 0. -1.
         15    1    1    2    0    0  0.11918709869E+02  0.26827405841E+01  0.16635701528E+02  0.20716105722E+02  0.17770000000E+01 0.  1.
</event>
<event>
 6    1  0.1059789E-002  0.1827814E+03  0.7546771E-02  0.1068231E+00
        -11   -1    0    0    0    0  0.00000000000E+00  0.00000000000E+00  0.18250000000E+03  0.18250000000E+03  0.00000000000E+00 0. -1.
         11   -1    0    0    0    0 -0.00000000000E+00 -0.00000000000E+00 -0.18250000000E+03  0.18250000000E+03  0.00000000000E+00 0. -1.
        -11    1    1    2    0    0  0.24068055410E+01  0.22249929547E+01  0.12707465597E+03  0.12711692057E+03  0.00000000000E+00 0. -1.
         11    1    1    2    0    0 -0.41635563656E+01  0.13863621427E+01 -0.18216577916E+03  0.18221862774E+03  0.00000000000E+00 0. -1.
        -15    1    1    2    0    0  0.19012675152E+01  0.24446781642E+00  0.36530559904E+02  0.36623955529E+02  0.17770000000E+01 0.  1.
         15    1    1    2    0    0 -0.14451669061E+00 -0.38558229139E+01  0.18560563286E+02  0.19040496157E+02  0.17770000000E+01 0. -1.
</event>
<event>
 6    1  0.1059789E-002  0.1748306E+03  0.7546771E-02  0.1074729E+00
        -11   -1    0    0    0    0  0.00000000000E+00  0.00000000000E+00  0.18250000000E+03  0.18250000000E+03  0.00000000000E+00 0. -1.
         11   -1    0    0    0    0 -0.00000000000E+00 -0.00000000000E+00 -0.18250000000E+03  0.18250000000E+03  0.00000000000E+00 0. -1.
        -11    1    1    2    0    0 -0.25648540587E+01  0.57299452865E+00  0.17457063279E+03  0.17459041392E+03  0.00000000000E+00 0. -1.
         11    1    1    2    0    0 -0.32840849187E+00  0.44742136912E+01 -0.17506203462E+03  0.17511950892E+03  0.00000000000E+00 0. -1.
        -15    1    1    2    0    0  0.16748654952E+01 -0.20355724814E+01 -0.65800363513E+01  0.73077586946E+01  0.17770000000E+01 0.  1.
         15    1    1    2    0    0  0.12183970554E+01 -0.30116357384E+01  0.70714381773E+01  0.79823184665E+01  0.17770000000E+01 0. -1.
</event>
<event>
 6    1  0.1059789E-002  0.1842362E+03  0.7546771E-02  0.1067081E+00
        -11   -1    0    0    0    0  0.00000000000E+00  0.00000000000E+00  0.18250000000E+03  0.18250000000E+03  0.00000000000E+00 0.  1.
         11   -1    0    0    0    0 -0.00000000000E+00 -0.00000000000E+00 -0.18250000000E+03  0.18250000000E+03  0.00000000000E+00 0.  1.
        -11    1    1    2    0    0 -0.13920671117E+01 -0.33085326375E+01  0.16377419400E+03  0.16381352465E+03  0.00000000000E+00 0.  1.
         11    1    1    2    0    0 -0.69210668117E-01 -0.47498424334E+01 -0.18070138544E+03  0.18076381411E+03  0.00000000000E+00 0.  1.
        -15    1    1    2    0    0  0.19792295236E+01  0.60172262059E+01  0.52275686271E+01  0.84029496888E+01  0.17770000000E+01 0.  1.
         15    1    1    2    0    0 -0.51795174372E+00  0.20411488649E+01  0.11699622813E+02  0.12019711547E+02  0.17770000000E+01 0. -1.
</event>
<event>
 6    1  0.1059789E-002  0.1832786E+03  0.7546771E-02  0.1067837E+00
        -11   -1    0    0    0    0  0.00000000000E+00  0.00000000000E+00  0.18250000000E+03  0.18250000000E+03  0.00000000000E+00 0. -1.
         11   -1    0    0    0    0 -0.00000000000E+00 -0.00000000000E+00 -0.18250000000E+03  0.18250000000E+03  0.00000000000E+00 0.  1.
        -11    1    1    2    0    0  0.21027511008E+01 -0.22784346830E+01  0.18169498318E+03  0.18172143446E+03  0.00000000000E+00 0. -1.
         11    1    1    2    0    0  0.30827363922E+01  0.12542739658E+01 -0.16576764789E+03  0.16580105414E+03  0.00000000000E+00 0.  1.
        -15    1    1    2    0    0 -0.46538782798E+01 -0.13481258265E-02 -0.97905520906E+01  0.10985045476E+02  0.17770000000E+01 0. -1.
         15    1    1    2    0    0 -0.53160921324E+00  0.10255088431E+01 -0.61367832079E+01  0.64924659324E+01  0.17770000000E+01 0.  1.
</event>
<event>
 6    1  0.1059789E-002  0.1830140E+03  0.7546771E-02  0.1068046E+00
        -11   -1    0    0    0    0  0.00000000000E+00  0.00000000000E+00  0.18250000000E+03  0.18250000000E+03  0.00000000000E+00 0. -1.
         11   -1    0    0    0    0 -0.00000000000E+00 -0.00000000000E+00 -0.18250000000E+03  0.18250000000E+03  0.00000000000E+00 0.  1.
        -11    1    1    2    0    0 -0.33972041501E+01 -0.46887724500E+00  0.18195372352E+03  0.18198603888E+03  0.00000000000E+00 0. -1.
         11    1    1    2    0    0 -0.15656919607E+01  0.30207008279E+01 -0.13141632174E+03  0.13146035769E+03  0.00000000000E+00 0.  1.
        -15    1    1    2    0    0  0.30953666589E+01 -0.24126558654E+01 -0.46876146238E+02  0.47073697733E+02  0.17770000000E+01 0.  1.
         15    1    1    2    0    0  0.18675294519E+01 -0.13916771752E+00 -0.36612555496E+01  0.44799057029E+01  0.17770000000E+01 0. -1.
</event>
<event>
 6    1  0.1059789E-002  0.1825757E+03  0.7546771E-02  0.1068395E+00
        -11   -1    0    0    0    0  0.00000000000E+00  0.00000000000E+00  0.18250000000E+03  0.18250000000E+03  0.00000000000E+00 0.  1.
         11   -1    0    0    0    0 -0.00000000000E+00 -0.00000000000E+00 -0.18250000000E+03  0.18250000000E+03  0.00000000000E+00 0.  1.
        -11    1    1    2    0    0 -0.22181908215E+00  0.45105040608E+00  0.23600434296E+02  0.23605786348E+02  0.00000000000E+00 0.  1.
         11    1    1    2    0    0 -0.28111671001E+01 -0.34262294185E+01 -0.18237042367E+03  0.18242426686E+03  0.00000000000E+00 0.  1.
        -15    1    1    2    0    0  0.83482989134E+00 -0.16380487919E+01  0.53213352430E+02  0.53274747776E+02  0.17770000000E+01 0. -1.
         15    1    1    2    0    0  0.21981562909E+01  0.46132278043E+01  0.10555663695E+03  0.10569519901E+03  0.17770000000E+01 0.  1.
</event>
<event>
 6    1  0.1059789E-002  0.1835058E+03  0.7546771E-02  0.1067657E+00
        -11   -1    0    0    0    0  0.00000000000E+00  0.00000000000E+00  0.18250000000E+03  0.18250000000E+03  0.00000000000E+00 0. -1.
         11   -1    0    0    0    0 -0.00000000000E+00 -0.00000000000E+00 -0.18250000000E+03  0.18250000000E+03  0.00000000000E+00 0.  1.
        -11    1    1    2    0    0  0.12265256161E+01  0.66898502176E+01  0.18136668378E+03  0.18149416643E+03  0.00000000000E+00 0. -1.
         11    1    1    2    0    0  0.10542203523E+01 -0.18688325327E+01 -0.34895632355E+02  0.34961537052E+02  0.00000000000E+00 0.  1.
        -15    1    1    2    0    0 -0.23719004885E+01 -0.67213439646E+01 -0.12149718002E+02  0.14197737606E+02  0.17770000000E+01 0. -1.
         15    1    1    2    0    0  0.91154520104E-01  0.19003262797E+01 -0.13432133343E+03  0.13434655891E+03  0.17770000000E+01 0.  1.
</event>
<event>
 6    1  0.1059789E-002  0.1830568E+03  0.7546771E-02  0.1068012E+00
        -11   -1    0    0    0    0  0.00000000000E+00  0.00000000000E+00  0.18250000000E+03  0.18250000000E+03  0.00000000000E+00 0.  1.
         11   -1    0    0    0    0 -0.00000000000E+00 -0.00000000000E+00 -0.18250000000E+03  0.18250000000E+03  0.00000000000E+00 0. -1.
        -11    1    1    2    0    0 -0.30295583430E+01  0.14444255654E+01  0.18191220373E+03  0.18194316270E+03  0.00000000000E+00 0.  1.
         11    1    1    2    0    0  0.30972387543E+01 -0.90584699068E+00 -0.17095680114E+03  0.17098725480E+03  0.00000000000E+00 0. -1.
        -15    1    1    2    0    0 -0.12548415875E+01 -0.26852531654E+00 -0.86120448711E+01  0.88866067268E+01  0.17770000000E+01 0.  1.
         15    1    1    2    0    0  0.11871611762E+01 -0.27005325814E+00 -0.23433577105E+01  0.31829757744E+01  0.17770000000E+01 0. -1.
</event>
<event>
 6    1  0.1059789E-002  0.1834046E+03  0.7546771E-02  0.1067737E+00
        -11   -1    0    0    0    0  0.00000000000E+00  0.00000000000E+00  0.18250000000E+03  0.18250000000E+03  0.00000000000E+00 0.  1.
         11   -1    0    0    0    0 -0.00000000000E+00 -0.00000000000E+00 -0.18250000000E+03  0.18250000000E+03  0.00000000000E+00 0.  1.
        -11    1    1    2    0    0  0.43547165561E+01  0.21096221012E+00  0.14228645127E+03  0.14235323065E+03  0.00000000000E+00 0.  1.
         11    1    1    2    0    0  0.23991240112E+01 -0.62290940400E+00 -0.18157852734E+03  0.18159544433E+03  0.00000000000E+00 0.  1.
        -15    1    1    2    0    0 -0.68093543180E+01 -0.32642521835E+00  0.38187378533E+02  0.38831784248E+02  0.17770000000E+01 0.  1.
         15    1    1    2    0    0  0.55513750761E-01  0.73837241223E+00  0.11046975303E+01  0.22195407699E+01  0.17770000000E+01 0.  1.
</event>
<event>
 6    1  0.1059789E-002  0.1842999E+03  0.7546771E-02  0.1067031E+00
        -11   -1    0    0    0    0  0.00000000000E+00  0.00000000000E+00  0.18250000000E+03  0.18250000000E+03  0.00000000000E+00 0. -1.
         11   -1    0    0    0    0 -0.00000000000E+00 -0.00000000000E+00 -0.18250000000E+03  0.18250000000E+03  0.00000000000E+00 0.  1.
        -11    1    1    2    0    0 -0.32254697989E+01  0.20320227357E+01  0.32804257794E+02  0.33025022350E+02  0.00000000000E+00 0. -1.
         11    1    1    2    0    0 -0.12817149504E+02  0.12199753944E+02 -0.17983157655E+03  0.18070005324E+03  0.00000000000E+00 0.  1.
        -15    1    1    2    0    0 -0.12492869458E+01 -0.16504060107E+02  0.92894173584E+02  0.94373883743E+02  0.17770000000E+01 0. -1.
         15    1    1    2    0    0  0.17291906248E+02  0.22722834272E+01  0.54133145171E+02  0.56901040665E+02  0.17770000000E+01 0.  1.
</event>
<event>
 6    1  0.1059789E-002  0.1828041E+03  0.7546771E-02  0.1068213E+00
        -11   -1    0    0    0    0  0.00000000000E+00  0.00000000000E+00  0.18250000000E+03  0.18250000000E+03  0.00000000000E+00 0. -1.
         11   -1    0    0    0    0 -0.00000000000E+00 -0.00000000000E+00 -0.18250000000E+03  0.18250000000E+03  0.00000000000E+00 0.  1.
        -11    1    1    2    0    0 -0.11612824406E+01 -0.26342039894E+01  0.18217313000E+03  0.18219587510E+03  0.00000000000E+00 0. -1.
         11    1    1    2    0    0 -0.17167640063E+01 -0.59659274857E+00 -0.99482470350E+02  0.99499070893E+02  0.00000000000E+00 0.  1.
        -15    1    1    2    0    0  0.46328921340E+01 -0.19718888025E+00 -0.61118784403E+02  0.61320193321E+02  0.17770000000E+01 0.  1.
         15    1    1    2    0    0 -0.17548456871E+01  0.34279856182E+01 -0.21571875249E+02  0.21984860689E+02  0.17770000000E+01 0. -1.
</event>
<event>
 6    1  0.1059789E-002  0.2229682E+03  0.7546771E-02  0.1040147E+00
        -11   -1    0    0    0    0  0.00000000000E+00  0.00000000000E+00  0.18250000000E+03  0.18250000000E+03  0.00000000000E+00 0. -1.
         11   -1    0    0    0    0 -0.00000000000E+00 -0.00000000000E+00 -0.18250000000E+03  0.18250000000E+03  0.00000000000E+00 0. -1.
        -11    1    1    2    0    0 -0.19276927732E+01  0.26665851030E+01  0.10969228216E+03  0.10974162128E+03  0.00000000000E+00 0. -1.
         11    1    1    2    0    0  0.24156931418E+01  0.20649989550E+01 -0.14199622768E+03  0.14203178683E+03  0.00000000000E+00 0. -1.
        -15    1    1    2    0    0 -0.52585186880E+01 -0.19976923403E+01 -0.40130628342E+02  0.40561901504E+02  0.17770000000E+01 0. -1.
         15    1    1    2    0    0  0.47705183194E+01 -0.27338917177E+01  0.72434573866E+02  0.72664690388E+02  0.17770000000E+01 0. -1.
</event>
<event>
 6    1  0.1059789E-002  0.1847985E+03  0.7546771E-02  0.1066640E+00
        -11   -1    0    0    0    0  0.00000000000E+00  0.00000000000E+00  0.18250000000E+03  0.18250000000E+03  0.00000000000E+00 0.  1.
         11   -1    0    0    0    0 -0.00000000000E+00 -0.00000000000E+00 -0.18250000000E+03  0.18250000000E+03  0.00000000000E+00 0. -1.
        -11    1    1    2    0    0 -0.25162699888E+01 -0.55788110411E+00  0.18018306202E+03  0.18020149468E+03  0.00000000000E+00 0.  1.
         11    1    1    2    0    0  0.61127595909E-02 -0.31590201594E+01 -0.17571329551E+03  0.17574169017E+03  0.00000000000E+00 0. -1.
        -15    1    1    2    0    0 -0.14755935474E+01  0.13624918949E+01 -0.26631697046E+01  0.37794129645E+01  0.17770000000E+01 0.  1.
         15    1    1    2    0    0  0.39857507767E+01  0.23544093686E+01 -0.18065968108E+01  0.52774021796E+01  0.17770000000E+01 0. -1.
</event>
<event>
 6    1  0.1059789E-002  0.1847502E+03  0.7546771E-02  0.1066678E+00
        -11   -1    0    0    0    0  0.00000000000E+00  0.00000000000E+00  0.18250000000E+03  0.18250000000E+03  0.00000000000E+00 0. -1.
         11   -1    0    0    0    0 -0.00000000000E+00 -0.00000000000E+00 -0.18250000000E+03  0.18250000000E+03  0.00000000000E+00 0.  1.
        -11    1    1    2    0    0  0.31661684858E+01 -0.11704500036E+01  0.15006904208E+03  0.15010700172E+03  0.00000000000E+00 0. -1.
         11    1    1    2    0    0  0.41092785696E+01 -0.51337611350E+01 -0.18012976443E+03  0.18024975370E+03  0.00000000000E+00 0.  1.
        -15    1    1    2    0    0 -0.49029338103E+01  0.86583281022E+01  0.29001754192E+02  0.30712617613E+02  0.17770000000E+01 0. -1.
         15    1    1    2    0    0 -0.23725132451E+01 -0.23541169636E+01  0.10589681625E+01  0.39306269660E+01  0.17770000000E+01 0.  1.
</event>
<event>
 6    1  0.1059789E-002  0.1502937E+03  0.7546771E-02  0.1097441E+00
        -11   -1    0    0    0    0  0.00000000000E+00  0.00000000000E+00  0.18250000000E+03  0.18250000000E+03  0.00000000000E+00 0. -1.
         11   -1    0    0    0    0 -0.00000000000E+00 -0.00000000000E+00 -0.18250000000E+03  0.18250000000E+03  0.00000000000E+00 0.  1.
        -11    1    1    2    0    0 -0.10312178545E+02  0.42108629033E+01  0.14700360726E+03  0.14742500785E+03  0.00000000000E+00 0. -1.
         11    1    1    2    0    0 -0.28518191031E+01 -0.34049795163E+01 -0.15345645140E+03  0.15352071271E+03  0.00000000000E+00 0.  1.
        -15    1    1    2    0    0  0.10296005422E+02 -0.44439057704E+01  0.34112865387E+02  0.35952765402E+02  0.17770000000E+01 0.  1.
         15    1    1    2    0    0  0.28679922262E+01  0.36380223834E+01 -0.27660021251E+02  0.28101514032E+02  0.17770000000E+01 0.  1.
</event>
<event>
 6    1  0.1059789E-002  0.1844913E+03  0.7546771E-02  0.1066881E+00
        -11   -1    0    0    0    0  0.00000000000E+00  0.00000000000E+00  0.18250000000E+03  0.18250000000E+03  0.00000000000E+00 0. -1.
         11   -1    0    0    0    0 -0.00000000000E+00 -0.00000000000E+00 -0.18250000000E+03  0.18250000000E+03  0.00000000000E+00 0. -1.
        -11    1    1    2    0    0 -0.15381848523E+01 -0.22284279787E+01  0.18048840381E+03  0.18050871396E+03  0.00000000000E+00 0. -1.
         11    1    1    2    0    0  0.40444832556E+01  0.27613222442E+01 -0.17714449598E+03  0.17721217565E+03  0.00000000000E+00 0. -1.
        -15    1    1    2    0    0  0.37877694994E+00 -0.12399359745E+01  0.33812970018E+00  0.22255277785E+01  0.17770000000E+01 0.  1.
         15    1    1    2    0    0 -0.28850753532E+01  0.70704170900E+00 -0.36820375364E+01  0.50535826095E+01  0.17770000000E+01 0.  1.
</event>
<event>
 6    1  0.1059789E-002  0.1854755E+03  0.7546771E-02  0.1066111E+00
        -11   -1    0    0    0    0  0.00000000000E+00  0.00000000000E+00  0.18250000000E+03  0.18250000000E+03  0.00000000000E+00 0. -1.
         11   -1    0    0    0    0 -0.00000000000E+00 -0.00000000000E+00 -0.18250000000E+03  0.18250000000E+03  0.00000000000E+00 0. -1.
        -11    1    1    2    0    0  0.25077610228E+00 -0.21517658272E+01  0.53632282181E+02  0.53676015843E+02  0.00000000000E+00 0. -1.
         11    1    1    2    0    0 -0.26464423051E+01 -0.12632361483E+01 -0.17950054100E+03  0.17952449316E+03  0.00000000000E+00 0. -1.
        -15    1    1    2    0    0  0.50717033303E+01  0.54267856241E+00 -0.43863110593E+00  0.54191144055E+01  0.17770000000E+01 0.  1.
         15    1    1    2    0    0 -0.26760371274E+01  0.28723234131E+01  0.12630688993E+03  0.12638037660E+03  0.17770000000E+01 0. -1.
</event>
<event>
 6    1  0.1059789E-002  0.1839718E+03  0.7546771E-02  0.1067289E+00
        -11   -1    0    0    0    0  0.00000000000E+00  0.00000000000E+00  0.18250000000E+03  0.18250000000E+03  0.00000000000E+00 0.  1.
         11   -1    0    0    0    0 -0.00000000000E+00 -0.00000000000E+00 -0.18250000000E+03  0.18250000000E+03  0.00000000000E+00 0. -1.
        -11    1    1    2    0    0 -0.23204079823E+01 -0.11981628789E+01  0.18100937964E+03  0.18102821715E+03  0.00000000000E+00 0.  1.
         11    1    1    2    0    0 -0.62926933526E+01 -0.48961613576E+01 -0.13432717941E+03  0.13456359654E+03  0.00000000000E+00 0. -1.
        -15    1    1    2    0    0 -0.29249055166E+00  0.29436639689E+01 -0.26826536201E+01  0.43709344230E+01  0.17770000000E+01 0. -1.
         15    1    1    2    0    0  0.89055918866E+01  0.31506602676E+01 -0.43999546605E+02  0.45037251885E+02  0.17770000000E+01 0.  1.
</event>
<event>
 6    1  0.1059789E-002  0.1831839E+03  0.7546771E-02  0.1067912E+00
        -11   -1    0    0    0    0  0.00000000000E+00  0.00000000000E+00  0.18250000000E+03  0.18250000000E+03  0.00000000000E+00 0. -1.
         11   -1    0    0    0    0 -0.00000000000E+00 -0.00000000000E+00 -0.18250000000E+03  0.18250000000E+03  0.00000000000E+00 0.  1.
        -11    1    1    2    0    0  0.27203665677E+01  0.11604417188E+01  0.18179205526E+03  0.18181611143E+03  0.00000000000E+00 0. -1.
         11    1    1    2    0    0  0.42113214722E+00  0.22380835047E+01 -0.15016088425E+03  0.15017815264E+03  0.00000000000E+00 0.  1.
        -15    1    1    2    0    0 -0.35750293881E+01 -0.70396035742E+00 -0.27232858670E+02  0.27532938740E+02  0.17770000000E+01 0. -1.
         15    1    1    2    0    0  0.43353067310E+00 -0.26945648661E+01 -0.43983123426E+01  0.54727971939E+01  0.17770000000E+01 0.  1.
</event>
<event>
 6    1  0.1059789E-002  0.1826696E+03  0.7546771E-02  0.1068320E+00
        -11   -1    0    0    0    0  0.00000000000E+00  0.00000000000E+00  0.18250000000E+03  0.18250000000E+03  0.00000000000E+00 0.  1.
         11   -1    0    0    0    0 -0.00000000000E+00 -0.00000000000E+00 -0.18250000000E+03  0.18250000000E+03  0.00000000000E+00 0.  1.
        -11    1    1    2    0    0  0.18692117205E+01 -0.17736048438E+01  0.18231222916E+03  0.18233043774E+03  0.00000000000E+00 0.  1.
         11    1    1    2    0    0  0.18812432756E+01  0.19079633781E+01 -0.73244997060E+02  0.73293990169E+02  0.00000000000E+00 0.  1.
        -15    1    1    2    0    0 -0.31223130415E+01 -0.12234389916E+01 -0.99134245223E+02  0.99206864413E+02  0.17770000000E+01 0.  1.
         15    1    1    2    0    0 -0.62814195451E+00  0.10890804573E+01 -0.99329868743E+01  0.10168707676E+02  0.17770000000E+01 0. -1.
</event>
<event>
 6    1  0.1059789E-002  0.1871050E+03  0.7546771E-02  0.1064847E+00
        -11   -1    0    0    0    0  0.00000000000E+00  0.00000000000E+00  0.18250000000E+03  0.18250000000E+03  0.00000000000E+00 0. -1.
         11   -1    0    0    0    0 -0.00000000000E+00 -0.00000000000E+00 -0.18250000000E+03  0.18250000000E+03  0.00000000000E+00 0. -1.
        -11    1    1    2    0    0 -0.87763107768E+00 -0.24227505473E+01  0.17787635763E+03  0.17789502118E+03  0.00000000000E+00 0. -1.
         11    1    1    2    0    0  0.10194597749E+02 -0.75578563733E+01 -0.13577216210E+03  0.13636396525E+03  0.00000000000E+00 0. -1.
        -15    1    1    2    0    0 -0.13405866902E+01  0.10112178841E+02 -0.29832805785E+01  0.10775482616E+02  0.17770000000E+01 0. -1.
         15    1    1    2    0    0 -0.79763799806E+01 -0.13157192053E+00 -0.39120914951E+02  0.39965530953E+02  0.17770000000E+01 0.  1.
</event>
<event>
 6    1  0.2003213E-002  0.1915966E+03  0.7546771E-02  0.1061436E+00
        -11   -1    0    0    0    0  0.00000000000E+00  0.00000000000E+00  0.18250000000E+03  0.18250000000E+03  0.00000000000E+00 0. -1.
         11   -1    0    0    0    0 -0.00000000000E+00 -0.00000000000E+00 -0.18250000000E+03  0.18250000000E+03  0.00000000000E+00 0. -1.
        -11    1    1    2    0    0  0.32751253402E+01  0.36319361672E+01  0.16542549741E+03  0.16549777219E+03  0.00000000000E+00 0. -1.
         11    1    1    2    0    0  0.13157076520E+01 -0.56257094419E+01 -0.17330712943E+03  0.17340340482E+03  0.00000000000E+00 0. -1.
        -15    1    1    2    0    0 -0.47906133763E+01 -0.18188487296E+01  0.16032141382E+02  0.16924700101E+02  0.17770000000E+01 0. -1.
         15    1    1    2    0    0  0.19978038402E+00  0.38126220044E+01 -0.81505093698E+01  0.91741228866E+01  0.17770000000E+01 0. -1.
</event>
<event>
 6    1  0.1059789E-002  0.1891976E+03  0.7546771E-02  0.1063245E+00
        -11   -1    0    0    0    0  0.00000000000E+00  0.00000000000E+00  0.18250000000E+03  0.18250000000E+03  0.00000000000E+00 0. -1.
         11   -1    0    0    0    0 -0.00000000000E+00 -0.00000000000E+00 -0.18250000000E+03  0.18250000000E+03  0.00000000000E+00 0.  1.
        -11    1    1    2    0    0  0.15058928823E+01  0.17688683593E+01  0.17161779841E+03  0.17163352044E+03  0.00000000000E+00 0. -1.
         11    1    1    2    0    0  0.29026125552E+01  0.14448948104E+01 -0.17577251050E+03  0.17580241275E+03  0.00000000000E+00 0.  1.
        -15    1    1    2    0    0 -0.92001323251E+01 -0.27036640544E+01  0.66998851346E+01  0.11832092965E+02  0.17770000000E+01 0. -1.
         15    1    1    2    0    0  0.47916268876E+01 -0.51009911529E+00 -0.25451730405E+01  0.57319738436E+01  0.17770000000E+01 0.  1.
</event>
<event>
 6    1  0.1059789E-002  0.1826427E+03  0.7546771E-02  0.1068341E+00
        -11   -1    0    0    0    0  0.00000000000E+00  0.00000000000E+00  0.18250000000E+03  0.18250000000E+03  0.00000000000E+00 0.  1.
         11   -1    0    0    0    0 -0.00000000000E+00 -0.00000000000E+00 -0.18250000000E+03  0.18250000000E+03  0.00000000000E+00 0.  1.
        -11    1    1    2    0    0 -0.22674922937E+01  0.99070758988E+00  0.34412386301E+02  0.34501236989E+02  0.00000000000E+00 0.  1.
         11    1    1    2    0    0  0.31010550353E+01 -0.46377619660E+01 -0.18227196095E+03  0.18235732266E+03  0.00000000000E+00 0.  1.
        -15    1    1    2    0    0  0.33308505987E+00 -0.12692645172E+01  0.91798462520E+02  0.91825037044E+02  0.17770000000E+01 0.  1.
         15    1    1    2    0    0 -0.11666478015E+01  0.49163188933E+01  0.56061112134E+02  0.56316403305E+02  0.17770000000E+01 0. -1.
</event>
<event>
 6    1  0.1059789E-002  0.1904361E+03  0.7546771E-02  0.1062307E+00
        -11   -1    0    0    0    0  0.00000000000E+00  0.00000000000E+00  0.18250000000E+03  0.18250000000E+03  0.00000000000E+00 0.  1.
         11   -1    0    0    0    0 -0.00000000000E+00 -0.00000000000E+00 -0.18250000000E+03  0.18250000000E+03  0.00000000000E+00 0.  1.
        -11    1    1    2    0    0  0.66750077352E+01  0.79494962184E+01  0.16531416039E+03  0.16563973510E+03  0.00000000000E+00 0.  1.
         11    1    1    2    0    0  0.45468946583E+01 -0.19519599743E+01 -0.17449373329E+03  0.17456387759E+03  0.00000000000E+00 0.  1.
        -15    1    1    2    0    0 -0.83209568394E+01  0.49075004689E+01 -0.48331478531E+00  0.98342872521E+01  0.17770000000E+01 0. -1.
         15    1    1    2    0    0 -0.29009455541E+01 -0.10905036713E+02  0.96628876928E+01  0.14962100066E+02  0.17770000000E+01 0. -1.
</event>
<event>
 6    1  0.1059789E-002  0.1828450E+03  0.7546771E-02  0.1068180E+00
        -11   -1    0    0    0    0  0.00000000000E+00  0.00000000000E+00  0.18250000000E+03  0.18250000000E+03  0.00000000000E+00 0. -1.
         11   -1    0    0    0    0 -0.00000000000E+00 -0.00000000000E+00 -0.18250000000E+03  0.18250000000E+03  0.00000000000E+00 0.  1.
        -11    1    1    2    0    0  0.14978157345E+01 -0.26943216642E+01  0.18212888440E+03  0.18215497071E+03  0.00000000000E+00 0. -1.
         11    1    1    2    0    0 -0.39587411895E+01  0.67067567464E+00 -0.67510612535E+02  0.67629906421E+02  0.00000000000E+00 0.  1.
        -15    1    1    2    0    0 -0.26829487791E+01 -0.14524392450E+01 -0.74225401279E+02  0.74309324569E+02  0.17770000000E+01 0. -1.
         15    1    1    2    0    0  0.51438742340E+01  0.34760852346E+01 -0.40392870591E+02  0.40905798296E+02  0.17770000000E+01 0.  1.
</event>
<event>
 6    1  0.1059789E-002  0.1852209E+03  0.7546771E-02  0.1066309E+00
        -11   -1    0    0    0    0  0.00000000000E+00  0.00000000000E+00  0.18250000000E+03  0.18250000000E+03  0.00000000000E+00 0.  1.
         11   -1    0    0    0    0 -0.00000000000E+00 -0.00000000000E+00 -0.18250000000E+03  0.18250000000E+03  0.00000000000E+00 0. -1.
        -11    1    1    2    0    0  0.20356943264E+01 -0.15722277476E+01  0.14317510294E+03  0.14319820549E+03  0.00000000000E+00 0.  1.
         11    1    1    2    0    0  0.69978531010E+01 -0.35401163710E+00 -0.17964247844E+03  0.17977907368E+03  0.00000000000E+00 0. -1.
        -15    1    1    2    0    0 -0.13933366412E+02  0.45178034415E+01  0.22682244886E+02  0.27059031941E+02  0.17770000000E+01 0.  1.
         15    1    1    2    0    0  0.48998189845E+01 -0.25915640569E+01  0.13785130611E+02  0.14963688893E+02  0.17770000000E+01 0.  1.
</event>
<event>
 6    1  0.1059789E-002  0.1836797E+03  0.7546771E-02  0.1067520E+00
        -11   -1    0    0    0    0  0.00000000000E+00  0.00000000000E+00  0.18250000000E+03  0.18250000000E+03  0.00000000000E+00 0.  1.
         11   -1    0    0    0    0 -0.00000000000E+00 -0.00000000000E+00 -0.18250000000E+03  0.18250000000E+03  0.00000000000E+00 0.  1.
        -11    1    1    2    0    0 -0.46624799024E+01 -0.31968930434E+01  0.18123214134E+03  0.18132029092E+03  0.00000000000E+00 0.  1.
         11    1    1    2    0    0 -0.47587439814E+01  0.30057194963E+01 -0.15030334523E+03  0.15040869516E+03  0.00000000000E+00 0.  1.
        -15    1    1    2    0    0  0.18581053514E+01  0.29384778003E+01 -0.78991975995E+01  0.88114844944E+01  0.17770000000E+01 0. -1.
         15    1    1    2    0    0  0.75631185324E+01 -0.27473042531E+01 -0.23029598515E+02  0.24459529418E+02  0.17770000000E+01 0.  1.
</event>
<event>
 6    1  0.1059789E-002  0.1439005E+03  0.7546771E-02  0.1104152E+00
        -11   -1    0    0    0    0  0.00000000000E+00  0.00000000000E+00  0.18250000000E+03  0.18250000000E+03  0.00000000000E+00 0. -1.
         11   -1    0    0    0    0 -0.00000000000E+00 -0.00000000000E+00 -0.18250000000E+03  0.18250000000E+03  0.00000000000E+00 0.  1.
        -11    1    1    2    0    0 -0.65091549502E+01  0.20996407491E+01  0.14085158125E+03  0.14101753625E+03  0.00000000000E+00 0. -1.
         11    1    1    2    0    0  0.20484619387E+02 -0.46339808670E+02 -0.14171576271E+03  0.15050034850E+03  0.00000000000E+00 0.  1.
        -15    1    1    2    0    0 -0.26820687741E+02  0.86056558385E+01  0.16240577950E+02  0.32562565999E+02  0.17770000000E+01 0.  1.
         15    1    1    2    0    0  0.12845223304E+02  0.35634512082E+02 -0.15376396492E+02  0.40919549254E+02  0.17770000000E+01 0. -1.
</event>
<event>
 6    1  0.1059789E-002  0.1857729E+03  0.7546771E-02  0.1065879E+00
        -11   -1    0    0    0    0  0.00000000000E+00  0.00000000000E+00  0.18250000000E+03  0.18250000000E+03  0.00000000000E+00 0. -1.
         11   -1    0    0    0    0 -0.00000000000E+00 -0.00000000000E+00 -0.18250000000E+03  0.18250000000E+03  0.00000000000E+00 0. -1.
        -11    1    1    2    0    0  0.31052118479E+01  0.26026359450E+01  0.15966870142E+03  0.15972009976E+03  0.00000000000E+00 0. -1.
         11    1    1    2    0    0  0.37301744218E+01  0.18203392342E+01 -0.17917898580E+03  0.17922705373E+03  0.00000000000E+00 0. -1.
        -15    1    1    2    0    0 -0.40182527985E+01 -0.47392235265E+01  0.21129108036E+00  0.64659854707E+01  0.17770000000E+01 0. -1.
         15    1    1    2    0    0 -0.28171334712E+01  0.31624834730E+00  0.19298993301E+02  0.19586861041E+02  0.17770000000E+01 0. -1.
</event>
<event>
 6    1  0.1059789E-002  0.1855927E+03  0.7546771E-02  0.1066019E+00
        -11   -1    0    0    0    0  0.00000000000E+00  0.00000000000E+00  0.18250000000E+03  0.18250000000E+03  0.00000000000E+00 0. -1.
         11   -1    0    0    0    0 -0.00000000000E+00 -0.00000000000E+00 -0.18250000000E+03  0.18250000000E+03  0.00000000000E+00 0.  1.
        -11    1    1    2    0    0  0.26697361186E+01  0.13231395773E+01  0.17938257793E+03  0.17940732274E+03  0.00000000000E+00 0. -1.
         11    1    1    2    0    0 -0.98834298536E+00  0.73411416312E+00 -0.88658206860E+02  0.88666754700E+02  0.00000000000E+00 0.  1.
        -15    1    1    2    0    0 -0.69470463446E+01 -0.95886586623E+00 -0.13343357428E+01  0.73565656075E+01  0.17770000000E+01 0. -1.
         15    1    1    2    0    0  0.52656532114E+01 -0.10983878742E+01 -0.89390035326E+02  0.89569356949E+02  0.17770000000E+01 0.  1.
</event>
<event>
 6    1  0.1059789E-002  0.1838119E+03  0.7546771E-02  0.1067415E+00
        -11   -1    0    0    0    0  0.00000000000E+00  0.00000000000E+00  0.18250000000E+03  0.18250000000E+03  0.00000000000E+00 0.  1.
         11   -1    0    0    0    0 -0.00000000000E+00 -0.00000000000E+00 -0.18250000000E+03  0.18250000000E+03  0.00000000000E+00 0.  1.
        -11    1    1    2    0    0  0.15848836608E+01 -0.30541969600E+01  0.18115539533E+03  0.18118807144E+03  0.00000000000E+00 0.  1.
         11    1    1    2    0    0 -0.66918987830E+00 -0.37780635907E+00 -0.48639541489E+02  0.48645611817E+02  0.00000000000E+00 0.  1.
        -15    1    1    2    0    0  0.93562865461E+01  0.25604406519E+01 -0.21444042158E+02  0.23602979204E+02  0.17770000000E+01 0. -1.
         15    1    1    2    0    0 -0.10271980329E+02  0.87156266715E+00 -0.11107181169E+03  0.11156333753E+03  0.17770000000E+01 0.  1.
</event>
<event>
 6    1  0.1059789E-002  0.1980836E+03  0.7546771E-02  0.1056685E+00
        -11   -1    0    0    0    0  0.00000000000E+00  0.00000000000E+00  0.18250000000E+03  0.18250000000E+03  0.00000000000E+00 0.  1.
         11   -1    0    0    0    0 -0.00000000000E+00 -0.00000000000E+00 -0.18250000000E+03  0.18250000000E+03  0.00000000000E+00 0.  1.
        -11    1    1    2    0    0 -0.75389002166E+01 -0.30475581260E+01  0.13977787843E+03  0.14001420615E+03  0.00000000000E+00 0.  1.
         11    1    1    2    0    0  0.31823511169E+01  0.36126395122E+01 -0.16684697187E+03  0.16691641784E+03  0.00000000000E+00 0.  1.
        -15    1    1    2    0    0 -0.26792179408E+01 -0.29466651487E+00 -0.15017650388E+02  0.15360748332E+02  0.17770000000E+01 0. -1.
         15    1    1    2    0    0  0.70357670405E+01 -0.27041487126E+00  0.42086743834E+02  0.42708627672E+02  0.17770000000E+01 0.  1.
</event>
<event>
 6    1  0.1059789E-002  0.1835411E+03  0.7546771E-02  0.1067629E+00
        -11   -1    0    0    0    0  0.00000000000E+00  0.00000000000E+00  0.18250000000E+03  0.18250000000E+03  0.00000000000E+00 0.  1.
         11   -1    0    0    0    0 -0.00000000000E+00 -0.00000000000E+00 -0.18250000000E+03  0.18250000000E+03  0.00000000000E+00 0. -1.
        -11    1    1    2    0    0 -0.24169867985E+01 -0.10061499078E+01  0.18143996362E+03  0.18145885087E+03  0.00000000000E+00 0.  1.
         11    1    1    2    0    0  0.29471189899E+01  0.11659694478E+00 -0.15980289953E+03  0.15983011545E+03  0.00000000000E+00 0. -1.
        -15    1    1    2    0    0  0.39509299929E+00  0.14803607777E+01 -0.41053165402E+00  0.23819806357E+01  0.17770000000E+01 0. -1.
         15    1    1    2    0    0 -0.92522519068E+00 -0.59080781468E+00 -0.21226532431E+02  0.21329053039E+02  0.17770000000E+01 0.  1.
</event>
<event>
 6    1  0.1059789E-002  0.1931484E+03  0.7546771E-02  0.1060281E+00
        -11   -1    0    0    0    0  0.00000000000E+00  0.00000000000E+00  0.18250000000E+03  0.18250000000E+03  0.00000000000E+00 0.  1.
         11   -1    0    0    0    0 -0.00000000000E+00 -0.00000000000E+00 -0.18250000000E+03  0.18250000000E+03  0.00000000000E+00 0. -1.
        -11    1    1    2    0    0  0.25240643603E+01  0.23363484469E+00  0.13548161719E+03  0.13550532862E+03  0.00000000000E+00 0.  1.
         11    1    1    2    0    0  0.11208117348E+02  0.34864024421E+01 -0.17145026220E+03  0.17185159093E+03  0.00000000000E+00 0. -1.
        -15    1    1    2    0    0 -0.32526467727E+01 -0.25331673834E+01  0.44024864102E+02  0.44253169788E+02  0.17770000000E+01 0. -1.
         15    1    1    2    0    0 -0.10479534936E+02 -0.11868699034E+01 -0.80562190982E+01  0.13389910672E+02  0.17770000000E+01 0.  1.
</event>
<event>
 6    1  0.1059789E-002  0.1826334E+03  0.7546771E-02  0.1068349E+00
        -11   -1    0    0    0    0  0.00000000000E+00  0.00000000000E+00  0.18250000000E+03  0.18250000000E+03  0.00000000000E+00 0.  1.
         11   -1    0    0    0    0 -0.00000000000E+00 -0.00000000000E+00 -0.18250000000E+03  0.18250000000E+03  0.00000000000E+00 0.  1.
        -11    1    1    2    0    0  0.15161385612E+01  0.96781891509E-01  0.71759451301E+02  0.71775531303E+02  0.00000000000E+00 0.  1.
         11    1    1    2    0    0 -0.27946979244E+01 -0.61466075262E+01 -0.18224156943E+03  0.18236661083E+03  0.00000000000E+00 0.  1.
        -15    1    1    2    0    0  0.31893770800E+00  0.66963790615E+01  0.89751281795E+02  0.90018850952E+02  0.17770000000E+01 0.  1.
         15    1    1    2    0    0  0.95962165523E+00 -0.64655342683E+00  0.20730836330E+02  0.20839006910E+02  0.17770000000E+01 0. -1.
</event>
<event>
 6    1  0.1059789E-002  0.1826824E+03  0.7546771E-02  0.1068310E+00
        -11   -1    0    0    0    0  0.00000000000E+00  0.00000000000E+00  0.18250000000E+03  0.18250000000E+03  0.00000000000E+00 0.  1.
         11   -1    0    0    0    0 -0.00000000000E+00 -0.00000000000E+00 -0.18250000000E+03  0.18250000000E+03  0.00000000000E+00 0. -1.
        -11    1    1    2    0    0  0.14023515621E+01 -0.35875707618E+00  0.48977272112E+02  0.48998657941E+02  0.00000000000E+00 0.  1.
         11    1    1    2    0    0 -0.39794618655E+01 -0.30886895524E+00 -0.18227388853E+03  0.18231758543E+03  0.00000000000E+00 0. -1.
        -15    1    1    2    0    0  0.15066944189E+01  0.10249138866E+01  0.12735212593E+03  0.12737755801E+03  0.17770000000E+01 0.  1.
         15    1    1    2    0    0  0.10704158846E+01 -0.35728785517E+00  0.59444904918E+01  0.63061986160E+01  0.17770000000E+01 0. -1.
</event>
<event>
 6    1  0.1105825E-002  0.1832593E+03  0.7546771E-02  0.1067852E+00
        -11   -1    0    0    0    0  0.00000000000E+00  0.00000000000E+00  0.18250000000E+03  0.18250000000E+03  0.00000000000E+00 0. -1.
         11   -1    0    0    0    0 -0.00000000000E+00 -0.00000000000E+00 -0.18250000000E+03  0.18250000000E+03  0.00000000000E+00 0.  1.
        -11    1    1    2    0    0  0.22922909932E+00 -0.15256286103E+01  0.10336835732E+03  0.10337986933E+03  0.00000000000E+00 0. -1.
         11    1    1    2    0    0  0.19713930758E+01 -0.64259912491E+01 -0.18161639538E+03  0.18174073518E+03  0.00000000000E+00 0.  1.
        -15    1    1    2    0    0 -0.10558501232E+00 -0.13007629657E+01  0.49604718973E+02  0.49653690758E+02  0.17770000000E+01 0. -1.
         15    1    1    2    0    0 -0.20950371628E+01  0.92523828251E+01  0.28643319093E+02  0.30225704728E+02  0.17770000000E+01 0. -1.
</event>
<event>
 6    1  0.1059789E-002  0.1852343E+03  0.7546771E-02  0.1066299E+00
        -11   -1    0    0    0    0  0.00000000000E+00  0.00000000000E+00  0.18250000000E+03  0.18250000000E+03  0.00000000000E+00 0. -1.
         11   -1    0    0    0    0 -0.00000000000E+00 -0.00000000000E+00 -0.18250000000E+03  0.18250000000E+03  0.00000000000E+00 0. -1.
        -11    1    1    2    0    0 -0.65792972833E+01  0.17798230455E+01  0.17963641193E+03  0.17976566807E+03  0.00000000000E+00 0. -1.
         11    1    1    2    0    0 -0.30931337738E+01  0.22329778323E+00 -0.11212794260E+03  0.11217081996E+03  0.00000000000E+00 0. -1.
        -15    1    1    2    0    0  0.10307163373E+02 -0.79534471696E+00 -0.72214620781E+01  0.12734890402E+02  0.17770000000E+01 0. -1.
         15    1    1    2    0    0 -0.63473231571E+00 -0.12077761118E+01 -0.60287007253E+02  0.60328621572E+02  0.17770000000E+01 0. -1.
</event>
<event>
 6    1  0.1059789E-002  0.1887968E+03  0.7546771E-02  0.1063550E+00
        -11   -1    0    0    0    0  0.00000000000E+00  0.00000000000E+00  0.18250000000E+03  0.18250000000E+03  0.00000000000E+00 0. -1.
         11   -1    0    0    0    0 -0.00000000000E+00 -0.00000000000E+00 -0.18250000000E+03  0.18250000000E+03  0.00000000000E+00 0.  1.
        -11    1    1    2    0    0 -0.62674826272E+01 -0.38189538477E+01  0.17081074229E+03  0.17096834628E+03  0.00000000000E+00 0. -1.
         11    1    1    2    0    0  0.45872965946E+01 -0.27201139519E+01 -0.17612242469E+03  0.17620315204E+03  0.00000000000E+00 0.  1.
        -15    1    1    2    0    0  0.14284575500E+01  0.32570322422E+01 -0.52720831211E+01  0.66031310327E+01  0.17770000000E+01 0. -1.
         15    1    1    2    0    0  0.25172848258E+00  0.32820355574E+01  0.10583765523E+02  0.11225370652E+02  0.17770000000E+01 0.  1.
</event>
<event>
 6    1  0.1059789E-002  0.1836837E+03  0.7546771E-02  0.1067516E+00
        -11   -1    0    0    0    0  0.00000000000E+00  0.00000000000E+00  0.18250000000E+03  0.18250000000E+03  0.00000000000E+00 0.  1.
         11   -1    0    0    0    0 -0.00000000000E+00 -0.00000000000E+00 -0.18250000000E+03  0.18250000000E+03  0.00000000000E+00 0.  1.
        -11    1    1    2    0    0 -0.42542655561E+00  0.22480835804E+01  0.14486063860E+03  0.14487870611E+03  0.00000000000E+00 0.  1.
         11    1    1    2    0    0 -0.61562100838E+01 -0.21657004884E+01 -0.18119877637E+03  0.18131625889E+03  0.00000000000E+00 0.  1.
        -15    1    1    2    0    0 -0.16875393250E+01  0.99351050969E+00  0.17249681310E+01  0.31572291902E+01  0.17770000000E+01 0.  1.
         15    1    1    2    0    0  0.82691759644E+01 -0.10758936017E+01  0.34613169636E+02  0.35647805815E+02  0.17770000000E+01 0.  1.
</event>
<event>
 6    1  0.1059789E-002  0.1826780E+03  0.7546771E-02  0.1068313E+00
        -11   -1    0    0    0    0  0.00000000000E+00  0.00000000000E+00  0.18250000000E+03  0.18250000000E+03  0.00000000000E+00 0. -1.
         11   -1    0    0    0    0 -0.00000000000E+00 -0.00000000000E+00 -0.18250000000E+03  0.18250000000E+03  0.00000000000E+00 0. -1.
        -11    1    1    2    0    0  0.19925819326E+00  0.14344924576E+01  0.10243872208E+03  0.10244895926E+03  0.00000000000E+00 0. -1.
         11    1    1    2    0    0 -0.26298519739E+01  0.41477590832E+01 -0.18225587769E+03  0.18232203646E+03  0.00000000000E+00 0. -1.
        -15    1    1    2    0    0  0.12998393067E+01 -0.55264331028E+01  0.54255041338E+02  0.54580200482E+02  0.17770000000E+01 0. -1.
         15    1    1    2    0    0  0.11307544739E+01 -0.55818438045E-01  0.25562114268E+02  0.25648803797E+02  0.17770000000E+01 0. -1.
</event>
<event>
 6    1  0.1059789E-002  0.1847229E+03  0.7546771E-02  0.1066699E+00
        -11   -1    0    0    0    0  0.00000000000E+00  0.00000000000E+00  0.18250000000E+03  0.18250000000E+03  0.00000000000E+00 0. -1.
         11   -1    0    0    0    0 -0.00000000000E+00 -0.00000000000E+00 -0.18250000000E+03  0.18250000000E+03  0.00000000000E+00 0. -1.
        -11    1    1    2    0    0  0.15156549594E+01  0.85628970293E+01  0.18006720063E+03  0.18027705666E+03  0.00000000000E+00 0. -1.
         11    1    1    2    0    0 -0.15076022869E+01  0.22758465943E+01 -0.14959872845E+03  0.14962363415E+03  0.00000000000E+00 0. -1.
        -15    1    1    2    0    0  0.11068571057E+01 -0.97194466559E+00  0.64081707615E+00  0.23954508157E+01  0.17770000000E+01 0.  1.
         15    1    1    2    0    0 -0.11149097782E+01 -0.98667989580E+01 -0.31109289261E+02  0.32703858378E+02  0.17770000000E+01 0. -1.
</event>
<event>
 6    1  0.1216445E-002  0.1961720E+03  0.7546771E-02  0.1058064E+00
        -11   -1    0    0    0    0  0.00000000000E+00  0.00000000000E+00  0.18250000000E+03  0.18250000000E+03  0.00000000000E+00 0.  1.
         11   -1    0    0    0    0 -0.00000000000E+00 -0.00000000000E+00 -0.18250000000E+03  0.18250000000E+03  0.00000000000E+00 0.  1.
        -11    1    1    2    0    0 -0.32437147930E+00  0.74832345554E+01  0.16866180101E+03  0.16882804013E+03  0.00000000000E+00 0.  1.
         11    1    1    2    0    0 -0.83990884639E+01 -0.41571553100E+01 -0.14326250178E+03  0.14356869799E+03  0.00000000000E+00 0.  1.
        -15    1    1    2    0    0  0.11652250153E+02  0.29414723595E+01 -0.37020322077E+02  0.38962663781E+02  0.17770000000E+01 0.  1.
         15    1    1    2    0    0 -0.29287902101E+01 -0.62675516049E+01  0.11621022849E+02  0.13640598091E+02  0.17770000000E+01 0.  1.
</event>
<event>
 6    1  0.1059789E-002  0.1643594E+03  0.7546771E-02  0.1083888E+00
        -11   -1    0    0    0    0  0.00000000000E+00  0.00000000000E+00  0.18250000000E+03  0.18250000000E+03  0.00000000000E+00 0. -1.
         11   -1    0    0    0    0 -0.00000000000E+00 -0.00000000000E+00 -0.18250000000E+03  0.18250000000E+03  0.00000000000E+00 0.  1.
        -11    1    1    2    0    0 -0.77868764650E+01  0.13724370110E+02  0.16843533687E+03  0.16917285978E+03  0.00000000000E+00 0. -1.
         11    1    1    2    0    0 -0.80741263328E+01 -0.50597892637E+01 -0.15987019216E+03  0.16015389887E+03  0.00000000000E+00 0.  1.
        -15    1    1    2    0    0  0.10451228714E+02 -0.19475737789E+02 -0.35115925684E+01  0.22450424393E+02  0.17770000000E+01 0.  1.
         15    1    1    2    0    0  0.54097740840E+01  0.10811156943E+02 -0.50535521385E+01  0.13222816958E+02  0.17770000000E+01 0.  1.
</event>
<event>
 6    1  0.1059789E-002  0.1827908E+03  0.7546771E-02  0.1068224E+00
        -11   -1    0    0    0    0  0.00000000000E+00  0.00000000000E+00  0.18250000000E+03  0.18250000000E+03  0.00000000000E+00 0.  1.
         11   -1    0    0    0    0 -0.00000000000E+00 -0.00000000000E+00 -0.18250000000E+03  0.18250000000E+03  0.00000000000E+00 0.  1.
        -11    1    1    2    0    0 -0.31524059096E+01 -0.13347598411E+01  0.13913987853E+03  0.13918198534E+03  0.00000000000E+00 0.  1.
         11    1    1    2    0    0 -0.39258848645E+00 -0.27440196888E+01 -0.18218815107E+03  0.18220923731E+03  0.00000000000E+00 0.  1.
        -15    1    1    2    0    0  0.68678647890E+00  0.22642704309E+01  0.13951750785E+02  0.14262106268E+02  0.17770000000E+01 0. -1.
         15    1    1    2    0    0  0.28582079171E+01  0.18145090990E+01  0.29096521761E+02  0.29346671078E+02  0.17770000000E+01 0.  1.
</event>
<event>
 6    1  0.1059789E-002  0.1843928E+03  0.7546771E-02  0.1066958E+00
        -11   -1    0    0    0    0  0.00000000000E+00  0.00000000000E+00  0.18250000000E+03  0.18250000000E+03  0.00000000000E+00 0.  1.
         11   -1    0    0    0    0 -0.00000000000E+00 -0.00000000000E+00 -0.18250000000E+03  0.18250000000E+03  0.00000000000E+00 0. -1.
        -11    1    1    2    0    0  0.22611365518E+01 -0.95463529132E+00  0.18059048410E+03  0.18060716213E+03  0.00000000000E+00 0.  1.
         11    1    1    2    0    0  0.12764410800E+01 -0.39878400544E+01 -0.17074076432E+03  0.17079209809E+03  0.00000000000E+00 0. -1.
        -15    1    1    2    0    0  0.72328073794E-01  0.81203894094E+00 -0.68044411491E+01  0.70797448360E+01  0.17770000000E+01 0. -1.
         15    1    1    2    0    0 -0.36099057056E+01  0.41304364047E+01 -0.30452786328E+01  0.65209949431E+01  0.17770000000E+01 0.  1.
</event>
<event>
 6    1  0.1059789E-002  0.1783248E+03  0.7546771E-02  0.1071828E+00
        -11   -1    0    0    0    0  0.00000000000E+00  0.00000000000E+00  0.18250000000E+03  0.18250000000E+03  0.00000000000E+00 0.  1.
         11   -1    0    0    0    0 -0.00000000000E+00 -0.00000000000E+00 -0.18250000000E+03  0.18250000000E+03  0.00000000000E+00 0. -1.
        -11    1    1    2    0    0  0.12638637192E+01  0.21479823252E+01  0.17924482761E+03  0.17926215274E+03  0.00000000000E+00 0.  1.
         11    1    1    2    0    0  0.50894298066E+01 -0.18626810111E+01 -0.17736629732E+03  0.17744907805E+03  0.00000000000E+00 0. -1.
        -15    1    1    2    0    0 -0.46047237878E+00  0.26209884406E+00 -0.78459784551E+00  0.20134680019E+01  0.17770000000E+01 0.  1.
         15    1    1    2    0    0 -0.58928211470E+01 -0.54740015814E+00 -0.10939324489E+01  0.62753012044E+01  0.17770000000E+01 0. -1.
</event>
<event>
 6    1  0.1509519E-002  0.1847456E+03  0.7546771E-02  0.1066681E+00
        -11   -1    0    0    0    0  0.00000000000E+00  0.00000000000E+00  0.18250000000E+03  0.18250000000E+03  0.00000000000E+00 0.  1.
         11   -1    0    0    0    0 -0.00000000000E+00 -0.00000000000E+00 -0.18250000000E+03  0.18250000000E+03  0.00000000000E+00 0. -1.
        -11    1    1    2    0    0  0.11829711064E+01 -0.33718978867E+01  0.16438730499E+03  0.16442613891E+03  0.00000000000E+00 0.  1.
         11    1    1    2    0    0  0.33571091288E+01  0.53010805506E+01 -0.18014512995E+03  0.18025437438E+03  0.00000000000E+00 0. -1.
        -15    1    1    2    0    0 -0.21265974193E+01  0.17544547311E+01  0.15186150793E+02  0.15536326236E+02  0.17770000000E+01 0. -1.
         15    1    1    2    0    0 -0.24134828160E+01 -0.36836373950E+01  0.57167416774E+00  0.47831604734E+01  0.17770000000E+01 0. -1.
</event>
<event>
 6    1  0.1059789E-002  0.1847787E+03  0.7546771E-02  0.1066655E+00
        -11   -1    0    0    0    0  0.00000000000E+00  0.00000000000E+00  0.18250000000E+03  0.18250000000E+03  0.00000000000E+00 0. -1.
         11   -1    0    0    0    0 -0.00000000000E+00 -0.00000000000E+00 -0.18250000000E+03  0.18250000000E+03  0.00000000000E+00 0. -1.
        -11    1    1    2    0    0  0.22549053315E+00 -0.30174606476E+01  0.18019593853E+03  0.18022134218E+03  0.00000000000E+00 0. -1.
         11    1    1    2    0    0  0.35908268011E+01 -0.63634941814E+00 -0.15780064524E+03  0.15784277815E+03  0.00000000000E+00 0. -1.
        -15    1    1    2    0    0  0.18002110964E+01  0.37796264029E+01 -0.88516654325E+00  0.46333124810E+01  0.17770000000E+01 0. -1.
         15    1    1    2    0    0 -0.56165284307E+01 -0.12581633712E+00 -0.21510126748E+02  0.22302567186E+02  0.17770000000E+01 0. -1.
</event>
<event>
 6    1  0.1059789E-002  0.1843185E+03  0.7546771E-02  0.1067016E+00
        -11   -1    0    0    0    0  0.00000000000E+00  0.00000000000E+00  0.18250000000E+03  0.18250000000E+03  0.00000000000E+00 0. -1.
         11   -1    0    0    0    0 -0.00000000000E+00 -0.00000000000E+00 -0.18250000000E+03  0.18250000000E+03  0.00000000000E+00 0. -1.
        -11    1    1    2    0    0  0.26486197852E+01 -0.28216030913E+01  0.69164937759E+02  0.69273120660E+02  0.00000000000E+00 0. -1.
         11    1    1    2    0    0  0.67435864956E+01 -0.77065420972E+01 -0.18039111436E+03  0.18068154551E+03  0.00000000000E+00 0. -1.
        -15    1    1    2    0    0  0.22088433117E+00  0.74169442177E+01  0.71238346625E+01  0.10438706851E+02  0.17770000000E+01 0.  1.
         15    1    1    2    0    0 -0.96130906119E+01  0.31112009708E+01  0.10410234193E+03  0.10460662698E+03  0.17770000000E+01 0. -1.
</event>
<event>
 6    1  0.1059789E-002  0.1837408E+03  0.7546771E-02  0.1067471E+00
        -11   -1    0    0    0    0  0.00000000000E+00  0.00000000000E+00  0.18250000000E+03  0.18250000000E+03  0.00000000000E+00 0.  1.
         11   -1    0    0    0    0 -0.00000000000E+00 -0.00000000000E+00 -0.18250000000E+03  0.18250000000E+03  0.00000000000E+00 0.  1.
        -11    1    1    2    0    0 -0.52318748264E+01  0.68863004472E+00  0.18118231956E+03  0.18125915052E+03  0.00000000000E+00 0.  1.
         11    1    1    2    0    0  0.21208448073E+01  0.28619571211E+01 -0.10844263862E+03  0.10850112742E+03  0.00000000000E+00 0.  1.
        -15    1    1    2    0    0  0.69181827525E+00 -0.97293392588E+01 -0.23251148468E+02  0.25276714364E+02  0.17770000000E+01 0. -1.
         15    1    1    2    0    0  0.24192117438E+01  0.61787520930E+01 -0.49488532469E+02  0.49963007694E+02  0.17770000000E+01 0.  1.
</event>
<event>
 6    1  0.1059789E-002  0.1838591E+03  0.7546771E-02  0.1067378E+00
        -11   -1    0    0    0    0  0.00000000000E+00  0.00000000000E+00  0.18250000000E+03  0.18250000000E+03  0.00000000000E+00 0.  1.
         11   -1    0    0    0    0 -0.00000000000E+00 -0.00000000000E+00 -0.18250000000E+03  0.18250000000E+03  0.00000000000E+00 0. -1.
        -11    1    1    2    0    0  0.94019878101E+00  0.31068314068E+01  0.19151066375E+02  0.19424204448E+02  0.00000000000E+00 0.  1.
         11    1    1    2    0    0  0.24815757676E+01 -0.59643693355E+00 -0.18112292539E+03  0.18114090664E+03  0.00000000000E+00 0. -1.
        -15    1    1    2    0    0 -0.27353038886E+00  0.50566539021E+01  0.14829199913E+03  0.14838908081E+03  0.17770000000E+01 0.  1.
         15    1    1    2    0    0 -0.31482441597E+01 -0.75670483754E+01  0.13679859886E+02  0.16045808110E+02  0.17770000000E+01 0. -1.
</event>
<event>
 6    1  0.1059789E-002  0.1829326E+03  0.7546771E-02  0.1068111E+00
        -11   -1    0    0    0    0  0.00000000000E+00  0.00000000000E+00  0.18250000000E+03  0.18250000000E+03  0.00000000000E+00 0. -1.
         11   -1    0    0    0    0 -0.00000000000E+00 -0.00000000000E+00 -0.18250000000E+03  0.18250000000E+03  0.00000000000E+00 0. -1.
        -11    1    1    2    0    0  0.63183534464E+00 -0.10608050574E+01  0.68573589273E+02  0.68584704338E+02  0.00000000000E+00 0. -1.
         11    1    1    2    0    0 -0.83902838871E+01  0.28316931303E+01 -0.18185194026E+03  0.18206741478E+03  0.00000000000E+00 0. -1.
        -15    1    1    2    0    0 -0.20252902135E+00  0.40332733065E+01  0.58207891111E+02  0.58374862982E+02  0.17770000000E+01 0.  1.
         15    1    1    2    0    0  0.79609775638E+01 -0.58041613794E+01  0.55070459873E+02  0.55973017899E+02  0.17770000000E+01 0. -1.
</event>
<event>
 6    1  0.1059789E-002  0.1847109E+03  0.7546771E-02  0.1066708E+00
        -11   -1    0    0    0    0  0.00000000000E+00  0.00000000000E+00  0.18250000000E+03  0.18250000000E+03  0.00000000000E+00 0. -1.
         11   -1    0    0    0    0 -0.00000000000E+00 -0.00000000000E+00 -0.18250000000E+03  0.18250000000E+03  0.00000000000E+00 0.  1.
        -11    1    1    2    0    0  0.67598627816E+01  0.75763402925E+00  0.16562293622E+03  0.16576256138E+03  0.00000000000E+00 0. -1.
         11    1    1    2    0    0  0.28195250303E+00 -0.71693425220E+01 -0.18014624505E+03  0.18028906948E+03  0.00000000000E+00 0.  1.
        -15    1    1    2    0    0 -0.39690684600E+01  0.62190807827E+00  0.96089824675E+01  0.10565535820E+02  0.17770000000E+01 0.  1.
         15    1    1    2    0    0 -0.30727468246E+01  0.57898004144E+01  0.49143263573E+01  0.83828333178E+01  0.17770000000E+01 0. -1.
</event>
<event>
 6    1  0.1059789E-002  0.1849962E+03  0.7546771E-02  0.1066485E+00
        -11   -1    0    0    0    0  0.00000000000E+00  0.00000000000E+00  0.18250000000E+03  0.18250000000E+03  0.00000000000E+00 0. -1.
         11   -1    0    0    0    0 -0.00000000000E+00 -0.00000000000E+00 -0.18250000000E+03  0.18250000000E+03  0.00000000000E+00 0.  1.
        -11    1    1    2    0    0  0.20877852851E+01 -0.17454880006E+01  0.17998319232E+03  0.18000376411E+03  0.00000000000E+00 0. -1.
         11    1    1    2    0    0 -0.38142093226E+01 -0.50790147943E+01 -0.16978433649E+03  0.16990310621E+03  0.00000000000E+00 0.  1.
        -15    1    1    2    0    0  0.37760637762E+00  0.36643635438E+01 -0.10444820176E+02  0.11217047038E+02  0.17770000000E+01 0. -1.
         15    1    1    2    0    0  0.13488176599E+01  0.31601392511E+01  0.24596434466E+00  0.38760826390E+01  0.17770000000E+01 0.  1.
</event>
<event>
 6    1  0.1059789E-002  0.1830659E+03  0.7546771E-02  0.1068005E+00
        -11   -1    0    0    0    0  0.00000000000E+00  0.00000000000E+00  0.18250000000E+03  0.18250000000E+03  0.00000000000E+00 0. -1.
         11   -1    0    0    0    0 -0.00000000000E+00 -0.00000000000E+00 -0.18250000000E+03  0.18250000000E+03  0.00000000000E+00 0. -1.
        -11    1    1    2    0    0  0.62956499452E+01 -0.21338177694E+00  0.18182498045E+03  0.18193406568E+03  0.00000000000E+00 0. -1.
         11    1    1    2    0    0 -0.22452743321E+01  0.41052469549E+00 -0.15327684623E+03  0.15329383998E+03  0.00000000000E+00 0. -1.
        -15    1    1    2    0    0 -0.54731994440E+01 -0.29108261717E+00 -0.15708194632E+02  0.16731579389E+02  0.17770000000E+01 0. -1.
         15    1    1    2    0    0  0.14228238309E+01  0.93939698620E-01 -0.12839939589E+02  0.13040514943E+02  0.17770000000E+01 0. -1.
</event>
<event>
 6    1  0.1059789E-002  0.1878407E+03  0.7546771E-02  0.1064281E+00
        -11   -1    0    0    0    0  0.00000000000E+00  0.00000000000E+00  0.18250000000E+03  0.18250000000E+03  0.00000000000E+00 0.  1.
         11   -1    0    0    0    0 -0.00000000000E+00 -0.00000000000E+00 -0.18250000000E+03  0.18250000000E+03  0.00000000000E+00 0. -1.
        -11    1    1    2    0    0  0.75823895385E+01 -0.61493369138E+00  0.17699591542E+03  0.17715932053E+03  0.00000000000E+00 0.  1.
         11    1    1    2    0    0  0.28562010415E+01 -0.33662635905E+00 -0.15168311590E+03  0.15171037819E+03  0.00000000000E+00 0. -1.
        -15    1    1    2    0    0 -0.93362541139E+01 -0.35930787792E+01 -0.28460494949E+02  0.30219751120E+02  0.17770000000E+01 0. -1.
         15    1    1    2    0    0 -0.11023364661E+01  0.45446388296E+01  0.31476954262E+01  0.59105501666E+01  0.17770000000E+01 0.  1.
</event>
<event>
 6    1  0.1059789E-002  0.1833140E+03  0.7546771E-02  0.1067809E+00
        -11   -1    0    0    0    0  0.00000000000E+00  0.00000000000E+00  0.18250000000E+03  0.18250000000E+03  0.00000000000E+00 0.  1.
         11   -1    0    0    0    0 -0.00000000000E+00 -0.00000000000E+00 -0.18250000000E+03  0.18250000000E+03  0.00000000000E+00 0.  1.
        -11    1    1    2    0    0  0.19897825574E+01  0.17130209112E+01  0.18166701752E+03  0.18168598991E+03  0.00000000000E+00 0.  1.
         11    1    1    2    0    0 -0.27716069730E+01  0.58274473532E+00 -0.15110774641E+03  0.15113428606E+03  0.00000000000E+00 0.  1.
        -15    1    1    2    0    0 -0.12724321942E+01 -0.27060076527E+01 -0.28587453773E+02  0.28798295146E+02  0.17770000000E+01 0.  1.
         15    1    1    2    0    0  0.20542566098E+01  0.41024200613E+00 -0.19718173300E+01  0.33814288852E+01  0.17770000000E+01 0.  1.
</event>
<event>
 6    1  0.1059789E-002  0.9399057E+02  0.7546771E-02  0.1174638E+00
        -11   -1    0    0    0    0  0.00000000000E+00  0.00000000000E+00  0.18250000000E+03  0.18250000000E+03  0.00000000000E+00 0. -1.
         11   -1    0    0    0    0 -0.00000000000E+00 -0.00000000000E+00 -0.18250000000E+03  0.18250000000E+03  0.00000000000E+00 0.  1.
        -11    1    1    2    0    0 -0.10300162762E+01 -0.10405847838E+01  0.10843301370E+03  0.10844289839E+03  0.00000000000E+00 0. -1.
         11    1    1    2    0    0 -0.31653236624E+00 -0.22473612523E+01 -0.11947420612E+03  0.11949576040E+03  0.00000000000E+00 0.  1.
        -15    1    1    2    0    0 -0.48491071712E+01  0.43627100358E+01  0.73726780670E+02  0.74036092524E+02  0.17770000000E+01 0. -1.
         15    1    1    2    0    0  0.61956558137E+01 -0.10747639997E+01 -0.62685588249E+02  0.63025248684E+02  0.17770000000E+01 0.  1.
</event>
<event>
 6    1  0.1059789E-002  0.1769039E+03  0.7546771E-02  0.1072999E+00
        -11   -1    0    0    0    0  0.00000000000E+00  0.00000000000E+00  0.18250000000E+03  0.18250000000E+03  0.00000000000E+00 0. -1.
         11   -1    0    0    0    0 -0.00000000000E+00 -0.00000000000E+00 -0.18250000000E+03  0.18250000000E+03  0.00000000000E+00 0.  1.
        -11    1    1    2    0    0  0.18892811574E+01  0.19870321041E+01  0.17588044567E+03  0.17590181593E+03  0.00000000000E+00 0. -1.
         11    1    1    2    0    0  0.34611078443E+01 -0.32632235663E+01 -0.17789088646E+03  0.17795447559E+03  0.00000000000E+00 0.  1.
        -15    1    1    2    0    0  0.79846046223E+00  0.91299806129E+00 -0.25051740972E+01  0.33022311892E+01  0.17770000000E+01 0. -1.
         15    1    1    2    0    0 -0.61488494638E+01  0.36319340094E+00  0.45156148933E+01  0.78414772868E+01  0.17770000000E+01 0.  1.
</event>
<event>
 6    1  0.1059789E-002  0.1840666E+03  0.7546771E-02  0.1067215E+00
        -11   -1    0    0    0    0  0.00000000000E+00  0.00000000000E+00  0.18250000000E+03  0.18250000000E+03  0.00000000000E+00 0. -1.
         11   -1    0    0    0    0 -0.00000000000E+00 -0.00000000000E+00 -0.18250000000E+03  0.18250000000E+03  0.00000000000E+00 0.  1.
        -11    1    1    2    0    0 -0.36306518932E+01  0.27515026087E+01  0.14688675237E+03  0.14695737621E+03  0.00000000000E+00 0. -1.
         11    1    1    2    0    0 -0.67099375581E+00  0.23632089270E+01 -0.18091676327E+03  0.18093344142E+03  0.00000000000E+00 0.  1.
        -15    1    1    2    0    0  0.22754141832E+01  0.41415561563E+01  0.96176401238E+01  0.10862169565E+02  0.17770000000E+01 0. -1.
         15    1    1    2    0    0  0.20262314658E+01 -0.92562676920E+01  0.24412370780E+02  0.26247012814E+02  0.17770000000E+01 0.  1.
</event>
<event>
 6    1  0.1059789E-002  0.1845986E+03  0.7546771E-02  0.1066796E+00
        -11   -1    0    0    0    0  0.00000000000E+00  0.00000000000E+00  0.18250000000E+03  0.18250000000E+03  0.00000000000E+00 0.  1.
         11   -1    0    0    0    0 -0.00000000000E+00 -0.00000000000E+00 -0.18250000000E+03  0.18250000000E+03  0.00000000000E+00 0. -1.
        -11    1    1    2    0    0 -0.11529469964E+01 -0.25540966039E+01  0.16669103161E+03  0.16671458459E+03  0.00000000000E+00 0.  1.
         11    1    1    2    0    0 -0.25670311179E+01  0.63359825886E+00 -0.18038197946E+03  0.18040135701E+03  0.00000000000E+00 0. -1.
        -15    1    1    2    0    0 -0.13860428655E+01  0.31437249307E+00 -0.73790324318E+00  0.23921068299E+01  0.17770000000E+01 0. -1.
         15    1    1    2    0    0  0.51060209798E+01  0.16061258520E+01  0.14428851094E+02  0.15491951568E+02  0.17770000000E+01 0.  1.
</event>
<event>
 6    1  0.1059789E-002  0.1838444E+03  0.7546771E-02  0.1067390E+00
        -11   -1    0    0    0    0  0.00000000000E+00  0.00000000000E+00  0.18250000000E+03  0.18250000000E+03  0.00000000000E+00 0. -1.
         11   -1    0    0    0    0 -0.00000000000E+00 -0.00000000000E+00 -0.18250000000E+03  0.18250000000E+03  0.00000000000E+00 0. -1.
        -11    1    1    2    0    0 -0.10740033940E+01 -0.39097710269E+00  0.61553622071E+02  0.61564232607E+02  0.00000000000E+00 0. -1.
         11    1    1    2    0    0  0.22345936240E+01 -0.67307034404E+01 -0.18101675531E+03  0.18115562779E+03  0.00000000000E+00 0. -1.
        -15    1    1    2    0    0 -0.36604657154E+01  0.63918552841E+01  0.89696443861E+01  0.11741680997E+02  0.17770000000E+01 0.  1.
         15    1    1    2    0    0  0.24998754855E+01  0.72982525894E+00  0.11049348885E+03  0.11053845860E+03  0.17770000000E+01 0. -1.
</event>
<event>
 6    1  0.1059789E-002  0.1855757E+03  0.7546771E-02  0.1066033E+00
        -11   -1    0    0    0    0  0.00000000000E+00  0.00000000000E+00  0.18250000000E+03  0.18250000000E+03  0.00000000000E+00 0.  1.
         11   -1    0    0    0    0 -0.00000000000E+00 -0.00000000000E+00 -0.18250000000E+03  0.18250000000E+03  0.00000000000E+00 0. -1.
        -11    1    1    2    0    0  0.13374263529E+01  0.23973128489E+01  0.17940324880E+03  0.17942425003E+03  0.00000000000E+00 0.  1.
         11    1    1    2    0    0  0.25864894635E+01 -0.31149915887E+01 -0.11457089292E+03  0.11464241189E+03  0.00000000000E+00 0. -1.
        -15    1    1    2    0    0 -0.61840580824E+01  0.62903986602E+01 -0.41176619918E+01  0.98956838546E+01  0.17770000000E+01 0.  1.
         15    1    1    2    0    0  0.22601422660E+01 -0.55727199205E+01 -0.60714693888E+02  0.61037654225E+02  0.17770000000E+01 0. -1.
</event>
<event>
 6    1  0.1059789E-002  0.1917986E+03  0.7546771E-02  0.1061285E+00
        -11   -1    0    0    0    0  0.00000000000E+00  0.00000000000E+00  0.18250000000E+03  0.18250000000E+03  0.00000000000E+00 0.  1.
         11   -1    0    0    0    0 -0.00000000000E+00 -0.00000000000E+00 -0.18250000000E+03  0.18250000000E+03  0.00000000000E+00 0.  1.
        -11    1    1    2    0    0  0.38622965501E+00 -0.65972924558E+01  0.11461061775E+03  0.11480098929E+03  0.00000000000E+00 0.  1.
         11    1    1    2    0    0  0.76014144925E+01  0.11035062163E+01 -0.17303104067E+03  0.17320144417E+03  0.00000000000E+00 0.  1.
        -15    1    1    2    0    0 -0.28104232102E+01 -0.24958287328E+01 -0.84563795465E+01  0.94231482912E+01  0.17770000000E+01 0. -1.
         15    1    1    2    0    0 -0.51772209373E+01  0.79896149724E+01  0.66876802464E+02  0.67574418243E+02  0.17770000000E+01 0.  1.
</event>
<event>
 6    1  0.1059789E-002  0.1852369E+03  0.7546771E-02  0.1066297E+00
        -11   -1    0    0    0    0  0.00000000000E+00  0.00000000000E+00  0.18250000000E+03  0.18250000000E+03  0.00000000000E+00 0.  1.
         11   -1    0    0    0    0 -0.00000000000E+00 -0.00000000000E+00 -0.18250000000E+03  0.18250000000E+03  0.00000000000E+00 0. -1.
        -11    1    1    2    0    0 -0.46449878074E+01  0.10058859313E+01  0.17970026821E+03  0.17976310554E+03  0.00000000000E+00 0.  1.
         11    1    1    2    0    0  0.19789859497E+01  0.18440584754E+01 -0.17145116608E+03  0.17147250301E+03  0.00000000000E+00 0. -1.
        -15    1    1    2    0    0  0.18383451961E+01 -0.33874659501E+01 -0.10137419238E+02  0.10989969810E+02  0.17770000000E+01 0.  1.
         15    1    1    2    0    0  0.82765666164E+00  0.53752154351E+00  0.18883171050E+01  0.27744216422E+01  0.17770000000E+01 0. -1.
</event>
<event>
 6    1  0.1059789E-002  0.1827601E+03  0.7546771E-02  0.1068248E+00
        -11   -1    0    0    0    0  0.00000000000E+00  0.00000000000E+00  0.18250000000E+03  0.18250000000E+03  0.00000000000E+00 0. -1.
         11   -1    0    0    0    0 -0.00000000000E+00 -0.00000000000E+00 -0.18250000000E+03  0.18250000000E+03  0.00000000000E+00 0.  1.
        -11    1    1    2    0    0 -0.15599253637E+01  0.30055734542E+01  0.11619580391E+03  0.11624513618E+03  0.00000000000E+00 0. -1.
         11    1    1    2    0    0 -0.17448356207E+01  0.26269756271E+01 -0.18221257955E+03  0.18223986830E+03  0.00000000000E+00 0.  1.
        -15    1    1    2    0    0  0.31487369427E+01 -0.48142810300E+01  0.54577621502E+02  0.54908709181E+02  0.17770000000E+01 0. -1.
         15    1    1    2    0    0  0.15602404167E+00 -0.81826805135E+00  0.11439154135E+02  0.11606286333E+02  0.17770000000E+01 0. -1.
</event>
<event>
 6    1  0.1059789E-002  0.1843287E+03  0.7546771E-02  0.1067008E+00
        -11   -1    0    0    0    0  0.00000000000E+00  0.00000000000E+00  0.18250000000E+03  0.18250000000E+03  0.00000000000E+00 0.  1.
         11   -1    0    0    0    0 -0.00000000000E+00 -0.00000000000E+00 -0.18250000000E+03  0.18250000000E+03  0.00000000000E+00 0.  1.
        -11    1    1    2    0    0  0.13759303827E+01  0.28946160300E+01  0.18064287350E+03  0.18067130301E+03  0.00000000000E+00 0.  1.
         11    1    1    2    0    0  0.16594078479E+01 -0.32923020830E+01 -0.16116660649E+03  0.16120877127E+03  0.00000000000E+00 0.  1.
        -15    1    1    2    0    0  0.27232361821E+01 -0.38024215400E+01 -0.94232403437E+01  0.10669096140E+02  0.17770000000E+01 0. -1.
         15    1    1    2    0    0 -0.57585744127E+01  0.42001075931E+01 -0.10053026663E+02  0.12450829576E+02  0.17770000000E+01 0.  1.
</event>
<event>
 6    1  0.1059789E-002  0.1839326E+03  0.7546771E-02  0.1067320E+00
        -11   -1    0    0    0    0  0.00000000000E+00  0.00000000000E+00  0.18250000000E+03  0.18250000000E+03  0.00000000000E+00 0. -1.
         11   -1    0    0    0    0 -0.00000000000E+00 -0.00000000000E+00 -0.18250000000E+03  0.18250000000E+03  0.00000000000E+00 0. -1.
        -11    1    1    2    0    0  0.14713486954E+01  0.32896223038E+01  0.13621651267E+03  0.13626417286E+03  0.00000000000E+00 0. -1.
         11    1    1    2    0    0  0.58005495521E+01 -0.13640536613E+02 -0.18045965264E+03  0.18106738205E+03  0.00000000000E+00 0. -1.
        -15    1    1    2    0    0 -0.55227314393E+00 -0.11549985304E+01  0.18479301638E+02  0.18608636308E+02  0.17770000000E+01 0. -1.
         15    1    1    2    0    0 -0.67196251036E+01  0.11505912839E+02  0.25763838328E+02  0.29059808777E+02  0.17770000000E+01 0. -1.
</event>
<event>
 6    1  0.1059789E-002  0.1688308E+03  0.7546771E-02  0.1079888E+00
        -11   -1    0    0    0    0  0.00000000000E+00  0.00000000000E+00  0.18250000000E+03  0.18250000000E+03  0.00000000000E+00 0. -1.
         11   -1    0    0    0    0 -0.00000000000E+00 -0.00000000000E+00 -0.18250000000E+03  0.18250000000E+03  0.00000000000E+00 0.  1.
        -11    1    1    2    0    0 -0.50447021618E+01  0.14371586444E+02  0.17088471237E+03  0.17156216494E+03  0.00000000000E+00 0. -1.
         11    1    1    2    0    0 -0.19599531085E+01  0.29968459221E+01 -0.16660697670E+03  0.16664545355E+03  0.00000000000E+00 0.  1.
        -15    1    1    2    0    0  0.53259101590E+01 -0.17644847560E+02  0.33150465062E+01  0.18810986863E+02  0.17770000000E+01 0.  1.
         15    1    1    2    0    0  0.16787451113E+01  0.27641519351E+00 -0.75927821720E+01  0.79813946537E+01  0.17770000000E+01 0.  1.
</event>
<event>
 6    1  0.1059789E-002  0.1217226E+03  0.7546771E-02  0.1130796E+00
        -11   -1    0    0    0    0  0.00000000000E+00  0.00000000000E+00  0.18250000000E+03  0.18250000000E+03  0.00000000000E+00 0.  1.
         11   -1    0    0    0    0 -0.00000000000E+00 -0.00000000000E+00 -0.18250000000E+03  0.18250000000E+03  0.00000000000E+00 0. -1.
        -11    1    1    2    0    0 -0.20450714599E+02 -0.31064445479E+02  0.11335805218E+03  0.11930330882E+03  0.00000000000E+00 0.  1.
         11    1    1    2    0    0  0.36681427082E+01 -0.19551845204E+02 -0.12886993102E+03  0.13039627695E+03  0.00000000000E+00 0. -1.
        -15    1    1    2    0    0 -0.15941151351E+02  0.56472746099E+02  0.42474237054E+02  0.72460402295E+02  0.17770000000E+01 0. -1.
         15    1    1    2    0    0  0.32723723242E+02 -0.58564554154E+01 -0.26962358218E+02  0.42840011935E+02  0.17770000000E+01 0.  1.
</event>
<event>
 6    1  0.1059789E-002  0.1850035E+03  0.7546771E-02  0.1066479E+00
        -11   -1    0    0    0    0  0.00000000000E+00  0.00000000000E+00  0.18250000000E+03  0.18250000000E+03  0.00000000000E+00 0. -1.
         11   -1    0    0    0    0 -0.00000000000E+00 -0.00000000000E+00 -0.18250000000E+03  0.18250000000E+03  0.00000000000E+00 0.  1.
        -11    1    1    2    0    0  0.37314963697E+01 -0.83393859769E+00  0.17500262688E+03  0.17504439132E+03  0.00000000000E+00 0. -1.
         11    1    1    2    0    0 -0.21583362519E+01  0.11764224382E+01 -0.17997966958E+03  0.17999645510E+03  0.00000000000E+00 0.  1.
        -15    1    1    2    0    0 -0.46625389373E+01  0.28821416889E+00  0.26616360383E+01  0.56625411389E+01  0.17770000000E+01 0. -1.
         15    1    1    2    0    0  0.30893788196E+01 -0.63069800936E+00  0.23154066670E+01  0.42966124451E+01  0.17770000000E+01 0.  1.
</event>
<event>
 6    1  0.1059789E-002  0.1839382E+03  0.7546771E-02  0.1067316E+00
        -11   -1    0    0    0    0  0.00000000000E+00  0.00000000000E+00  0.18250000000E+03  0.18250000000E+03  0.00000000000E+00 0.  1.
         11   -1    0    0    0    0 -0.00000000000E+00 -0.00000000000E+00 -0.18250000000E+03  0.18250000000E+03  0.00000000000E+00 0. -1.
        -11    1    1    2    0    0  0.21526194869E+01  0.14972899835E+01  0.18104284575E+03  0.18106183376E+03  0.00000000000E+00 0.  1.
         11    1    1    2    0    0 -0.17814711040E+01  0.37566011213E+01 -0.16929333932E+03  0.16934438411E+03  0.00000000000E+00 0. -1.
        -15    1    1    2    0    0  0.16679274896E+01  0.32225448337E+00 -0.32912460243E+01  0.41080237895E+01  0.17770000000E+01 0.  1.
         15    1    1    2    0    0 -0.20390758726E+01 -0.55761455882E+01 -0.84582604048E+01  0.10485758347E+02  0.17770000000E+01 0.  1.
</event>
<event>
 6    1  0.1059789E-002  0.1826658E+03  0.7546771E-02  0.1068323E+00
        -11   -1    0    0    0    0  0.00000000000E+00  0.00000000000E+00  0.18250000000E+03  0.18250000000E+03  0.00000000000E+00 0. -1.
         11   -1    0    0    0    0 -0.00000000000E+00 -0.00000000000E+00 -0.18250000000E+03  0.18250000000E+03  0.00000000000E+00 0. -1.
        -11    1    1    2    0    0  0.30276878474E+01  0.36146603610E+01  0.18227325918E+03  0.18233423616E+03  0.00000000000E+00 0. -1.
         11    1    1    2    0    0  0.61390166214E+00 -0.18122906882E+01 -0.63458938706E+02  0.63487779725E+02  0.00000000000E+00 0. -1.
        -15    1    1    2    0    0 -0.18989523863E+01 -0.78063672595E+00 -0.10799619067E+03  0.10803032140E+03  0.17770000000E+01 0. -1.
         15    1    1    2    0    0 -0.17426371233E+01 -0.10217329468E+01 -0.10818129811E+02  0.11147662713E+02  0.17770000000E+01 0.  1.
</event>
<event>
 6    1  0.1059789E-002  0.1772348E+03  0.7546771E-02  0.1072725E+00
        -11   -1    0    0    0    0  0.00000000000E+00  0.00000000000E+00  0.18250000000E+03  0.18250000000E+03  0.00000000000E+00 0. -1.
         11   -1    0    0    0    0 -0.00000000000E+00 -0.00000000000E+00 -0.18250000000E+03  0.18250000000E+03  0.00000000000E+00 0.  1.
        -11    1    1    2    0    0 -0.27968675338E+01  0.33147103882E+01  0.17730541004E+03  0.17735844553E+03  0.00000000000E+00 0. -1.
         11    1    1    2    0    0 -0.44404596813E+01 -0.41830751141E-01 -0.17714461157E+03  0.17720026196E+03  0.00000000000E+00 0.  1.
        -15    1    1    2    0    0  0.43144627707E+00 -0.20582989768E+01 -0.15641041574E+01  0.31665267066E+01  0.17770000000E+01 0.  1.
         15    1    1    2    0    0  0.68058809381E+01 -0.12145806602E+01  0.14033056867E+01  0.72747657951E+01  0.17770000000E+01 0. -1.
</event>
<event>
 6    1  0.2210443E-002  0.2239885E+03  0.7546771E-02  0.1039519E+00
        -11   -1    0    0    0    0  0.00000000000E+00  0.00000000000E+00  0.18250000000E+03  0.18250000000E+03  0.00000000000E+00 0.  1.
         11   -1    0    0    0    0 -0.00000000000E+00 -0.00000000000E+00 -0.18250000000E+03  0.18250000000E+03  0.00000000000E+00 0.  1.
        -11    1    1    2    0    0  0.14673681073E+01 -0.14546084413E+02  0.12007761608E+03  0.12096435684E+03  0.00000000000E+00 0.  1.
         11    1    1    2    0    0  0.57993835456E+01  0.28132246219E+01 -0.14086405897E+03  0.14101145412E+03  0.00000000000E+00 0.  1.
        -15    1    1    2    0    0 -0.70983128438E+01 -0.18887643661E+01 -0.39998471751E+02  0.40706129114E+02  0.17770000000E+01 0. -1.
         15    1    1    2    0    0 -0.16843880907E+00  0.13621624157E+02  0.60784914643E+02  0.62318059930E+02  0.17770000000E+01 0.  1.
</event>
<event>
 6    1  0.1059789E-002  0.1855523E+03  0.7546771E-02  0.1066051E+00
        -11   -1    0    0    0    0  0.00000000000E+00  0.00000000000E+00  0.18250000000E+03  0.18250000000E+03  0.00000000000E+00 0. -1.
         11   -1    0    0    0    0 -0.00000000000E+00 -0.00000000000E+00 -0.18250000000E+03  0.18250000000E+03  0.00000000000E+00 0.  1.
        -11    1    1    2    0    0  0.49495653065E+01  0.64591536454E-01  0.17937940600E+03  0.17944769061E+03  0.00000000000E+00 0. -1.
         11    1    1    2    0    0  0.11418577686E+01  0.24303491728E+01 -0.17357939649E+03  0.17360016510E+03  0.00000000000E+00 0.  1.
        -15    1    1    2    0    0  0.12386326977E+01 -0.16458214745E+01 -0.24297029318E+01  0.36474819564E+01  0.17770000000E+01 0. -1.
         15    1    1    2    0    0 -0.73300557728E+01 -0.84911923470E+00 -0.33703065749E+01  0.83046623360E+01  0.17770000000E+01 0.  1.
</event>
<event>
 6    1  0.1059789E-002  0.1652797E+03  0.7546771E-02  0.1083053E+00
        -11   -1    0    0    0    0  0.00000000000E+00  0.00000000000E+00  0.18250000000E+03  0.18250000000E+03  0.00000000000E+00 0. -1.
         11   -1    0    0    0    0 -0.00000000000E+00 -0.00000000000E+00 -0.18250000000E+03  0.18250000000E+03  0.00000000000E+00 0.  1.
        -11    1    1    2    0    0  0.30546971753E+01  0.84097493125E+01  0.16472234862E+03  0.16496516963E+03  0.00000000000E+00 0. -1.
         11    1    1    2    0    0 -0.12220864955E+01 -0.71732920884E+01 -0.16544242259E+03  0.16560236957E+03  0.00000000000E+00 0.  1.
        -15    1    1    2    0    0  0.11700312782E+02 -0.39518524993E+01  0.11391827690E+02  0.16895144998E+02  0.17770000000E+01 0. -1.
         15    1    1    2    0    0 -0.13532923462E+02  0.27153952753E+01 -0.10671753713E+02  0.17537315793E+02  0.17770000000E+01 0.  1.
</event>
<event>
 6    1  0.1059789E-002  0.2204757E+03  0.7546771E-02  0.1041695E+00
        -11   -1    0    0    0    0  0.00000000000E+00  0.00000000000E+00  0.18250000000E+03  0.18250000000E+03  0.00000000000E+00 0. -1.
         11   -1    0    0    0    0 -0.00000000000E+00 -0.00000000000E+00 -0.18250000000E+03  0.18250000000E+03  0.00000000000E+00 0. -1.
        -11    1    1    2    0    0 -0.12462396360E+02  0.13304959554E+02  0.14336994268E+03  0.14452430154E+03  0.00000000000E+00 0. -1.
         11    1    1    2    0    0 -0.64330861183E+00  0.89984761151E+00 -0.81882949012E+02  0.81890420140E+02  0.00000000000E+00 0. -1.
        -15    1    1    2    0    0  0.98542801382E+01 -0.16093821258E+02  0.36172218176E+02  0.40837544203E+02  0.17770000000E+01 0.  1.
         15    1    1    2    0    0  0.32514248335E+01  0.18890140919E+01 -0.97659211845E+02  0.97747734116E+02  0.17770000000E+01 0. -1.
</event>
<event>
 6    1  0.1059789E-002  0.1841628E+03  0.7546771E-02  0.1067139E+00
        -11   -1    0    0    0    0  0.00000000000E+00  0.00000000000E+00  0.18250000000E+03  0.18250000000E+03  0.00000000000E+00 0. -1.
         11   -1    0    0    0    0 -0.00000000000E+00 -0.00000000000E+00 -0.18250000000E+03  0.18250000000E+03  0.00000000000E+00 0. -1.
        -11    1    1    2    0    0  0.12269087473E+00  0.26918695869E+01  0.16136625628E+03  0.16138875388E+03  0.00000000000E+00 0. -1.
         11    1    1    2    0    0 -0.28359589480E+01 -0.78384293174E+01 -0.18064495362E+03  0.18083717236E+03  0.00000000000E+00 0. -1.
        -15    1    1    2    0    0  0.64399182546E+01  0.25997052194E+01  0.10002718099E+02  0.12306222520E+02  0.17770000000E+01 0. -1.
         15    1    1    2    0    0 -0.37266501813E+01  0.25468545111E+01  0.92759792477E+01  0.10467851235E+02  0.17770000000E+01 0. -1.
</event>
<event>
 6    1  0.1059789E-002  0.1831729E+03  0.7546771E-02  0.1067920E+00
        -11   -1    0    0    0    0  0.00000000000E+00  0.00000000000E+00  0.18250000000E+03  0.18250000000E+03  0.00000000000E+00 0. -1.
         11   -1    0    0    0    0 -0.00000000000E+00 -0.00000000000E+00 -0.18250000000E+03  0.18250000000E+03  0.00000000000E+00 0. -1.
        -11    1    1    2    0    0  0.11342516024E+01  0.31364833052E+01  0.16305102715E+03  0.16308513577E+03  0.00000000000E+00 0. -1.
         11    1    1    2    0    0 -0.59192591205E+01 -0.30884484414E+01 -0.18170446809E+03  0.18182708782E+03  0.00000000000E+00 0. -1.
        -15    1    1    2    0    0  0.42895790190E-01 -0.63141313275E+00  0.87314346871E+01  0.89328720626E+01  0.17770000000E+01 0. -1.
         15    1    1    2    0    0  0.47421117279E+01  0.58337826892E+00  0.99220062520E+01  0.11154904343E+02  0.17770000000E+01 0. -1.
</event>
<event>
 6    1  0.1059789E-002  0.1840180E+03  0.7546771E-02  0.1067253E+00
        -11   -1    0    0    0    0  0.00000000000E+00  0.00000000000E+00  0.18250000000E+03  0.18250000000E+03  0.00000000000E+00 0.  1.
         11   -1    0    0    0    0 -0.00000000000E+00 -0.00000000000E+00 -0.18250000000E+03  0.18250000000E+03  0.00000000000E+00 0. -1.
        -11    1    1    2    0    0  0.18721840612E+01 -0.20080823904E+01  0.18096121635E+03  0.18098204134E+03  0.00000000000E+00 0.  1.
         11    1    1    2    0    0  0.36130542707E+01 -0.12562232377E+01 -0.15991018279E+03  0.15995592774E+03  0.00000000000E+00 0. -1.
        -15    1    1    2    0    0  0.93471631561E-01  0.18538785363E+01 -0.46277822923E+00  0.26110333706E+01  0.17770000000E+01 0. -1.
         15    1    1    2    0    0 -0.55787099634E+01  0.14104270919E+01 -0.20588255324E+02  0.21450997546E+02  0.17770000000E+01 0.  1.
</event>
<event>
 6    1  0.1059789E-002  0.1863661E+03  0.7546771E-02  0.1065418E+00
        -11   -1    0    0    0    0  0.00000000000E+00  0.00000000000E+00  0.18250000000E+03  0.18250000000E+03  0.00000000000E+00 0. -1.
         11   -1    0    0    0    0 -0.00000000000E+00 -0.00000000000E+00 -0.18250000000E+03  0.18250000000E+03  0.00000000000E+00 0. -1.
        -11    1    1    2    0    0  0.48113409059E+01  0.56082588137E+01  0.17848098015E+03  0.17863387653E+03  0.00000000000E+00 0. -1.
         11    1    1    2    0    0  0.36855340869E+01 -0.71039365358E+01 -0.16459032458E+03  0.16478478092E+03  0.00000000000E+00 0. -1.
        -15    1    1    2    0    0 -0.92187307484E+01  0.62164101210E+01 -0.10907965627E+02  0.15677059499E+02  0.17770000000E+01 0.  1.
         15    1    1    2    0    0  0.72185575549E+00 -0.47207323989E+01 -0.29826899432E+01  0.59042830565E+01  0.17770000000E+01 0. -1.
</event>
<event>
 6    1  0.1059789E-002  0.1826762E+03  0.7546771E-02  0.1068315E+00
        -11   -1    0    0    0    0  0.00000000000E+00  0.00000000000E+00  0.18250000000E+03  0.18250000000E+03  0.00000000000E+00 0.  1.
         11   -1    0    0    0    0 -0.00000000000E+00 -0.00000000000E+00 -0.18250000000E+03  0.18250000000E+03  0.00000000000E+00 0.  1.
        -11    1    1    2    0    0 -0.16869035442E-01 -0.32895112644E+01  0.13560042719E+03  0.13564032226E+03  0.00000000000E+00 0.  1.
         11    1    1    2    0    0  0.24649430454E+01  0.10262346609E+01 -0.18230428992E+03  0.18232384163E+03  0.00000000000E+00 0.  1.
        -15    1    1    2    0    0 -0.61235573741E+00  0.36492103551E+00  0.91985949727E+01  0.93957450680E+01  0.17770000000E+01 0.  1.
         15    1    1    2    0    0 -0.18357182725E+01  0.18983555680E+01  0.37505267757E+02  0.37640091046E+02  0.17770000000E+01 0. -1.
</event>
<event>
 6    1  0.1059789E-002  0.1826006E+03  0.7546771E-02  0.1068375E+00
        -11   -1    0    0    0    0  0.00000000000E+00  0.00000000000E+00  0.18250000000E+03  0.18250000000E+03  0.00000000000E+00 0.  1.
         11   -1    0    0    0    0 -0.00000000000E+00 -0.00000000000E+00 -0.18250000000E+03  0.18250000000E+03  0.00000000000E+00 0. -1.
        -11    1    1    2    0    0 -0.11829253166E+01  0.14282983868E+01  0.65409472384E+02  0.65435758008E+02  0.00000000000E+00 0.  1.
         11    1    1    2    0    0 -0.13746772956E+01 -0.32023092256E+01 -0.18236607232E+03  0.18239936638E+03  0.00000000000E+00 0. -1.
        -15    1    1    2    0    0  0.90212823950E+00  0.61209425574E+00  0.12430480829E+02  0.12604089708E+02  0.17770000000E+01 0.  1.
         15    1    1    2    0    0  0.16554743727E+01  0.11619165830E+01  0.10452611910E+03  0.10456078591E+03  0.17770000000E+01 0. -1.
</event>
<event>
 6    1  0.1059789E-002  0.1840618E+03  0.7546771E-02  0.1067218E+00
        -11   -1    0    0    0    0  0.00000000000E+00  0.00000000000E+00  0.18250000000E+03  0.18250000000E+03  0.00000000000E+00 0. -1.
         11   -1    0    0    0    0 -0.00000000000E+00 -0.00000000000E+00 -0.18250000000E+03  0.18250000000E+03  0.00000000000E+00 0.  1.
        -11    1    1    2    0    0 -0.50197261797E+00 -0.27169707685E+01  0.17223636899E+03  0.17225852870E+03  0.00000000000E+00 0. -1.
         11    1    1    2    0    0 -0.23292745646E+01 -0.96165723714E+00 -0.18092065231E+03  0.18093820143E+03  0.00000000000E+00 0.  1.
        -15    1    1    2    0    0  0.11818118786E+01  0.46663895759E+01  0.42904987049E+01  0.66886455376E+01  0.17770000000E+01 0. -1.
         15    1    1    2    0    0  0.16494353040E+01 -0.98776157023E+00  0.43937846213E+01  0.51146243303E+01  0.17770000000E+01 0.  1.
</event>
<event>
 6    1  0.1059789E-002  0.1959457E+03  0.7546771E-02  0.1058229E+00
        -11   -1    0    0    0    0  0.00000000000E+00  0.00000000000E+00  0.18250000000E+03  0.18250000000E+03  0.00000000000E+00 0.  1.
         11   -1    0    0    0    0 -0.00000000000E+00 -0.00000000000E+00 -0.18250000000E+03  0.18250000000E+03  0.00000000000E+00 0. -1.
        -11    1    1    2    0    0  0.32353296251E+01 -0.49897179643E+01  0.16894965024E+03  0.16905427815E+03  0.00000000000E+00 0.  1.
         11    1    1    2    0    0  0.58125847124E+01  0.52879242042E+01 -0.16321894600E+03  0.16340799434E+03  0.00000000000E+00 0. -1.
        -15    1    1    2    0    0 -0.10592493113E+02  0.71443278194E+01  0.90943390844E+01  0.15783125885E+02  0.17770000000E+01 0.  1.
         15    1    1    2    0    0  0.15445787750E+01 -0.74425340593E+01 -0.14825043330E+02  0.16754601623E+02  0.17770000000E+01 0. -1.
</event>
<event>
 6    1  0.1059789E-002  0.1830326E+03  0.7546771E-02  0.1068032E+00
        -11   -1    0    0    0    0  0.00000000000E+00  0.00000000000E+00  0.18250000000E+03  0.18250000000E+03  0.00000000000E+00 0. -1.
         11   -1    0    0    0    0 -0.00000000000E+00 -0.00000000000E+00 -0.18250000000E+03  0.18250000000E+03  0.00000000000E+00 0. -1.
        -11    1    1    2    0    0  0.61267798501E+00  0.31834956015E+01  0.18193849854E+03  0.18196737969E+03  0.00000000000E+00 0. -1.
         11    1    1    2    0    0  0.22848733780E+01 -0.19903286071E+01 -0.78939793777E+02  0.78997930960E+02  0.00000000000E+00 0. -1.
        -15    1    1    2    0    0 -0.45665456060E+01  0.63183937440E+00 -0.98370253769E+02  0.98494249149E+02  0.17770000000E+01 0. -1.
         15    1    1    2    0    0  0.16689942430E+01 -0.18250063688E+01 -0.46284509962E+01  0.55404402040E+01  0.17770000000E+01 0.  1.
</event>
<event>
 6    1  0.1059789E-002  0.1828155E+03  0.7546771E-02  0.1068204E+00
        -11   -1    0    0    0    0  0.00000000000E+00  0.00000000000E+00  0.18250000000E+03  0.18250000000E+03  0.00000000000E+00 0.  1.
         11   -1    0    0    0    0 -0.00000000000E+00 -0.00000000000E+00 -0.18250000000E+03  0.18250000000E+03  0.00000000000E+00 0. -1.
        -11    1    1    2    0    0 -0.34066363800E+01 -0.27247037192E+01  0.18213228671E+03  0.18218451922E+03  0.00000000000E+00 0.  1.
         11    1    1    2    0    0 -0.13071111854E+01 -0.12542530410E+01 -0.10642661898E+03  0.10644203549E+03  0.00000000000E+00 0. -1.
        -15    1    1    2    0    0 -0.16739006394E+01  0.16908377116E+01 -0.27566850773E+02  0.27726338850E+02  0.17770000000E+01 0.  1.
         15    1    1    2    0    0  0.63876482048E+01  0.22881190487E+01 -0.48138816954E+02  0.48647106441E+02  0.17770000000E+01 0. -1.
</event>
<event>
 6    1  0.1059789E-002  0.1827660E+03  0.7546771E-02  0.1068243E+00
        -11   -1    0    0    0    0  0.00000000000E+00  0.00000000000E+00  0.18250000000E+03  0.18250000000E+03  0.00000000000E+00 0. -1.
         11   -1    0    0    0    0 -0.00000000000E+00 -0.00000000000E+00 -0.18250000000E+03  0.18250000000E+03  0.00000000000E+00 0.  1.
        -11    1    1    2    0    0 -0.39558397816E+01  0.61184716238E+00  0.60940115415E+02  0.61071439251E+02  0.00000000000E+00 0. -1.
         11    1    1    2    0    0 -0.32683265067E+00 -0.30135734000E+01 -0.18220875189E+03  0.18223396420E+03  0.00000000000E+00 0.  1.
        -15    1    1    2    0    0  0.97742194948E+00  0.18017588090E+01  0.10295864149E+03  0.10299437497E+03  0.17770000000E+01 0.  1.
         15    1    1    2    0    0  0.33052504828E+01  0.59996742866E+00  0.18309994981E+02  0.18700221572E+02  0.17770000000E+01 0. -1.
</event>
<event>
 6    1  0.1059789E-002  0.1886169E+03  0.7546771E-02  0.1063687E+00
        -11   -1    0    0    0    0  0.00000000000E+00  0.00000000000E+00  0.18250000000E+03  0.18250000000E+03  0.00000000000E+00 0. -1.
         11   -1    0    0    0    0 -0.00000000000E+00 -0.00000000000E+00 -0.18250000000E+03  0.18250000000E+03  0.00000000000E+00 0. -1.
        -11    1    1    2    0    0 -0.42939551879E+01  0.40270782033E+01  0.14342144412E+03  0.14354220997E+03  0.00000000000E+00 0. -1.
         11    1    1    2    0    0 -0.64642680482E+01  0.27827533493E+01 -0.17624265154E+03  0.17638311342E+03  0.00000000000E+00 0. -1.
        -15    1    1    2    0    0  0.11329435888E+02 -0.92362772669E+01  0.29130837750E+01  0.15010287185E+02  0.17770000000E+01 0. -1.
         15    1    1    2    0    0 -0.57121265208E+00  0.24264457142E+01  0.29908123643E+02  0.30064389426E+02  0.17770000000E+01 0.  1.
</event>
<event>
 6    1  0.1059789E-002  0.1855949E+03  0.7546771E-02  0.1066018E+00
        -11   -1    0    0    0    0  0.00000000000E+00  0.00000000000E+00  0.18250000000E+03  0.18250000000E+03  0.00000000000E+00 0.  1.
         11   -1    0    0    0    0 -0.00000000000E+00 -0.00000000000E+00 -0.18250000000E+03  0.18250000000E+03  0.00000000000E+00 0. -1.
        -11    1    1    2    0    0  0.32375753235E+01  0.23352689805E+01  0.17936069060E+03  0.17940510781E+03  0.00000000000E+00 0.  1.
         11    1    1    2    0    0  0.13768853711E+01 -0.38126155690E+01 -0.16870150938E+03  0.16875020331E+03  0.00000000000E+00 0. -1.
        -15    1    1    2    0    0 -0.79070907875E+01  0.85788773206E+00 -0.10152068306E+02  0.13018459047E+02  0.17770000000E+01 0. -1.
         15    1    1    2    0    0  0.32926300928E+01  0.61945885645E+00 -0.50711291539E+00  0.38262298300E+01  0.17770000000E+01 0. -1.
</event>
<event>
 6    1  0.1059789E-002  0.1855112E+03  0.7546771E-02  0.1066083E+00
        -11   -1    0    0    0    0  0.00000000000E+00  0.00000000000E+00  0.18250000000E+03  0.18250000000E+03  0.00000000000E+00 0.  1.
         11   -1    0    0    0    0 -0.00000000000E+00 -0.00000000000E+00 -0.18250000000E+03  0.18250000000E+03  0.00000000000E+00 0. -1.
        -11    1    1    2    0    0  0.11722892243E+02 -0.36457762260E+01  0.17906846886E+03  0.17948881421E+03  0.00000000000E+00 0.  1.
         11    1    1    2    0    0 -0.95018636509E+00  0.25795112293E+01 -0.15857788512E+03  0.15860170990E+03  0.00000000000E+00 0. -1.
        -15    1    1    2    0    0 -0.10741882904E+02  0.58228125672E+01 -0.15067510304E+02  0.19480266689E+02  0.17770000000E+01 0.  1.
         15    1    1    2    0    0 -0.30822974252E-01 -0.47565475705E+01 -0.54230734356E+01  0.74292091997E+01  0.17770000000E+01 0. -1.
</event>
<event>
 6    1  0.1059789E-002  0.1836212E+03  0.7546771E-02  0.1067566E+00
        -11   -1    0    0    0    0  0.00000000000E+00  0.00000000000E+00  0.18250000000E+03  0.18250000000E+03  0.00000000000E+00 0. -1.
         11   -1    0    0    0    0 -0.00000000000E+00 -0.00000000000E+00 -0.18250000000E+03  0.18250000000E+03  0.00000000000E+00 0.  1.
        -11    1    1    2    0    0  0.23468303518E+01  0.37219172466E+01  0.18132539718E+03  0.18137877479E+03  0.00000000000E+00 0. -1.
         11    1    1    2    0    0 -0.26491464679E+01 -0.80457871696E+00 -0.16478019156E+03  0.16480344915E+03  0.00000000000E+00 0.  1.
        -15    1    1    2    0    0 -0.59420613293E+00 -0.53395773437E+00 -0.15377321634E+02  0.15500256173E+02  0.17770000000E+01 0. -1.
         15    1    1    2    0    0  0.89652224903E+00 -0.23833807952E+01 -0.11678839925E+01  0.33175198836E+01  0.17770000000E+01 0.  1.
</event>
<event>
 6    1  0.1059789E-002  0.1881312E+03  0.7546771E-02  0.1064059E+00
        -11   -1    0    0    0    0  0.00000000000E+00  0.00000000000E+00  0.18250000000E+03  0.18250000000E+03  0.00000000000E+00 0. -1.
         11   -1    0    0    0    0 -0.00000000000E+00 -0.00000000000E+00 -0.18250000000E+03  0.18250000000E+03  0.00000000000E+00 0.  1.
        -11    1    1    2    0    0 -0.24377497634E+01 -0.62912701591E+00  0.17685083981E+03  0.17686875916E+03  0.00000000000E+00 0. -1.
         11    1    1    2    0    0 -0.14184154851E+02  0.51461584092E+01 -0.12426023809E+03  0.12517300015E+03  0.00000000000E+00 0.  1.
        -15    1    1    2    0    0  0.14281409670E+02  0.48602415705E+01 -0.50731727810E+02  0.52957025462E+02  0.17770000000E+01 0. -1.
         15    1    1    2    0    0  0.23404949447E+01 -0.93772729638E+01 -0.18588739103E+01  0.10001215228E+02  0.17770000000E+01 0.  1.
</event>
<event>
 6    1  0.1059789E-002  0.1826183E+03  0.7546771E-02  0.1068361E+00
        -11   -1    0    0    0    0  0.00000000000E+00  0.00000000000E+00  0.18250000000E+03  0.18250000000E+03  0.00000000000E+00 0. -1.
         11   -1    0    0    0    0 -0.00000000000E+00 -0.00000000000E+00 -0.18250000000E+03  0.18250000000E+03  0.00000000000E+00 0. -1.
        -11    1    1    2    0    0 -0.48550918281E+00 -0.33374105667E+01  0.18235051670E+03  0.18238170130E+03  0.00000000000E+00 0. -1.
         11    1    1    2    0    0 -0.79521930577E+00  0.25062884153E+00 -0.49958308926E+02  0.49965266128E+02  0.00000000000E+00 0. -1.
        -15    1    1    2    0    0 -0.52563394373E+00  0.10662940698E+01 -0.11064651443E+03  0.11066716839E+03  0.17770000000E+01 0. -1.
         15    1    1    2    0    0  0.18063624323E+01  0.20204876553E+01 -0.21745693348E+02  0.21985864181E+02  0.17770000000E+01 0.  1.
</event>
<event>
 6    1  0.1059789E-002  0.1875072E+03  0.7546771E-02  0.1064538E+00
        -11   -1    0    0    0    0  0.00000000000E+00  0.00000000000E+00  0.18250000000E+03  0.18250000000E+03  0.00000000000E+00 0. -1.
         11   -1    0    0    0    0 -0.00000000000E+00 -0.00000000000E+00 -0.18250000000E+03  0.18250000000E+03  0.00000000000E+00 0.  1.
        -11    1    1    2    0    0 -0.17626985024E+01 -0.26618107095E+01  0.17746412781E+03  0.17749284212E+03  0.00000000000E+00 0. -1.
         11    1    1    2    0    0 -0.13840250657E+02  0.61808348822E+01 -0.13546671462E+03  0.13631209054E+03  0.00000000000E+00 0.  1.
        -15    1    1    2    0    0  0.19618672853E+02 -0.92776599847E+01 -0.34288594054E+02  0.40618132780E+02  0.17770000000E+01 0. -1.
         15    1    1    2    0    0 -0.40157236939E+01  0.57586358120E+01 -0.77088191401E+01  0.10576934562E+02  0.17770000000E+01 0.  1.
</event>
<event>
 6    1  0.1059789E-002  0.1876757E+03  0.7546771E-02  0.1064408E+00
        -11   -1    0    0    0    0  0.00000000000E+00  0.00000000000E+00  0.18250000000E+03  0.18250000000E+03  0.00000000000E+00 0.  1.
         11   -1    0    0    0    0 -0.00000000000E+00 -0.00000000000E+00 -0.18250000000E+03  0.18250000000E+03  0.00000000000E+00 0.  1.
        -11    1    1    2    0    0 -0.21810808508E+00  0.51332451808E+01  0.16104014360E+03  0.16112208299E+03  0.00000000000E+00 0.  1.
         11    1    1    2    0    0 -0.44464235803E+01  0.78233075734E+01 -0.17709583611E+03  0.17732430739E+03  0.00000000000E+00 0.  1.
        -15    1    1    2    0    0  0.50510407449E+00 -0.92656091591E+01 -0.22861623740E-01  0.94480101010E+01  0.17770000000E+01 0. -1.
         15    1    1    2    0    0  0.41594275909E+01 -0.36909435952E+01  0.16078554136E+02  0.17105599510E+02  0.17770000000E+01 0.  1.
</event>
<event>
 6    1  0.1059789E-002  0.1921346E+03  0.7546771E-02  0.1061034E+00
        -11   -1    0    0    0    0  0.00000000000E+00  0.00000000000E+00  0.18250000000E+03  0.18250000000E+03  0.00000000000E+00 0. -1.
         11   -1    0    0    0    0 -0.00000000000E+00 -0.00000000000E+00 -0.18250000000E+03  0.18250000000E+03  0.00000000000E+00 0.  1.
        -11    1    1    2    0    0 -0.27935489859E+01  0.25835920214E+01  0.17282354966E+03  0.17286543373E+03  0.00000000000E+00 0. -1.
         11    1    1    2    0    0  0.12231323912E+02 -0.13646793589E+01 -0.13390315501E+03  0.13446755206E+03  0.00000000000E+00 0.  1.
        -15    1    1    2    0    0 -0.17186266364E+02  0.13800683778E+02 -0.10328477600E+02  0.24406183700E+02  0.17770000000E+01 0. -1.
         15    1    1    2    0    0  0.77484914376E+01 -0.15019596441E+02 -0.28591917044E+02  0.33260830507E+02  0.17770000000E+01 0.  1.
</event>
<event>
 6    1  0.1059789E-002  0.1841191E+03  0.7546771E-02  0.1067173E+00
        -11   -1    0    0    0    0  0.00000000000E+00  0.00000000000E+00  0.18250000000E+03  0.18250000000E+03  0.00000000000E+00 0.  1.
         11   -1    0    0    0    0 -0.00000000000E+00 -0.00000000000E+00 -0.18250000000E+03  0.18250000000E+03  0.00000000000E+00 0. -1.
        -11    1    1    2    0    0 -0.11819714299E+01  0.45286394294E+01  0.18082030682E+03  0.18088086961E+03  0.00000000000E+00 0.  1.
         11    1    1    2    0    0 -0.78264618856E+00  0.19493311434E+01 -0.13494951870E+03  0.13496586615E+03  0.00000000000E+00 0. -1.
        -15    1    1    2    0    0  0.64697265531E+01 -0.95896640432E+01 -0.34051980589E+02  0.36007139975E+02  0.17770000000E+01 0. -1.
         15    1    1    2    0    0 -0.45051089347E+01  0.31116934704E+01 -0.11818807534E+02  0.13146124269E+02  0.17770000000E+01 0.  1.
</event>
<event>
 6    1  0.2736968E-002  0.1730601E+03  0.7546771E-02  0.1076228E+00
        -11   -1    0    0    0    0  0.00000000000E+00  0.00000000000E+00  0.18250000000E+03  0.18250000000E+03  0.00000000000E+00 0. -1.
         11   -1    0    0    0    0 -0.00000000000E+00 -0.00000000000E+00 -0.18250000000E+03  0.18250000000E+03  0.00000000000E+00 0. -1.
        -11    1    1    2    0    0  0.34542591503E+01 -0.15549274141E+01  0.17158592568E+03  0.17162773551E+03  0.00000000000E+00 0. -1.
         11    1    1    2    0    0  0.10196522424E+01  0.75563946308E+01 -0.17441832338E+03  0.17458490863E+03  0.00000000000E+00 0. -1.
        -15    1    1    2    0    0 -0.20459927568E+01  0.53245815776E+00  0.89362510244E+01  0.93532833498E+01  0.17770000000E+01 0.  1.
         15    1    1    2    0    0 -0.24279186359E+01 -0.65339253745E+01 -0.61038533193E+01  0.94340725058E+01  0.17770000000E+01 0. -1.
</event>
<event>
 6    1  0.1059789E-002  0.1883547E+03  0.7546771E-02  0.1063888E+00
        -11   -1    0    0    0    0  0.00000000000E+00  0.00000000000E+00  0.18250000000E+03  0.18250000000E+03  0.00000000000E+00 0.  1.
         11   -1    0    0    0    0 -0.00000000000E+00 -0.00000000000E+00 -0.18250000000E+03  0.18250000000E+03  0.00000000000E+00 0.  1.
        -11    1    1    2    0    0  0.35149094359E+01  0.93952609119E+01  0.15671846425E+03  0.15703917522E+03  0.00000000000E+00 0.  1.
         11    1    1    2    0    0  0.10177160838E+01  0.40488296202E+01 -0.17659595414E+03  0.17664529369E+03  0.00000000000E+00 0.  1.
        -15    1    1    2    0    0 -0.38186008607E+01 -0.46157126480E+01  0.21275663970E+02  0.22174267116E+02  0.17770000000E+01 0. -1.
         15    1    1    2    0    0 -0.71402465900E+00 -0.88283778841E+01 -0.13981740832E+01  0.91412639742E+01  0.17770000000E+01 0.  1.
</event>
<event>
 6    1  0.1059789E-002  0.1852652E+03  0.7546771E-02  0.1066275E+00
        -11   -1    0    0    0    0  0.00000000000E+00  0.00000000000E+00  0.18250000000E+03  0.18250000000E+03  0.00000000000E+00 0. -1.
         11   -1    0    0    0    0 -0.00000000000E+00 -0.00000000000E+00 -0.18250000000E+03  0.18250000000E+03  0.00000000000E+00 0.  1.
        -11    1    1    2    0    0  0.44673416641E+01 -0.46312390303E+01  0.17961961540E+03  0.17973483734E+03  0.00000000000E+00 0. -1.
         11    1    1    2    0    0 -0.36855896045E+01  0.27781543571E+00 -0.96541577538E+02  0.96612302248E+02  0.00000000000E+00 0.  1.
        -15    1    1    2    0    0 -0.65541545766E+01  0.87033411852E+01 -0.79731381964E+02  0.80491962883E+02  0.17770000000E+01 0. -1.
         15    1    1    2    0    0  0.57724025170E+01 -0.43499175905E+01 -0.33466558952E+01  0.81608975330E+01  0.17770000000E+01 0.  1.
</event>
<event>
 6    1  0.1059789E-002  0.1854564E+03  0.7546771E-02  0.1066126E+00
        -11   -1    0    0    0    0  0.00000000000E+00  0.00000000000E+00  0.18250000000E+03  0.18250000000E+03  0.00000000000E+00 0.  1.
         11   -1    0    0    0    0 -0.00000000000E+00 -0.00000000000E+00 -0.18250000000E+03  0.18250000000E+03  0.00000000000E+00 0.  1.
        -11    1    1    2    0    0  0.12564124598E+02  0.90294114762E+01  0.17887565975E+03  0.17954355780E+03  0.00000000000E+00 0.  1.
         11    1    1    2    0    0  0.22278820640E+01 -0.81138980381E+00 -0.14038609284E+03  0.14040611410E+03  0.00000000000E+00 0.  1.
        -15    1    1    2    0    0 -0.39324565373E+01 -0.94060700057E+01 -0.27797580345E+02  0.29661449213E+02  0.17770000000E+01 0. -1.
         15    1    1    2    0    0 -0.10859550124E+02  0.11880483333E+01 -0.10691986558E+02  0.15388878884E+02  0.17770000000E+01 0.  1.
</event>
<event>
 6    1  0.1059789E-002  0.1844981E+03  0.7546771E-02  0.1066875E+00
        -11   -1    0    0    0    0  0.00000000000E+00  0.00000000000E+00  0.18250000000E+03  0.18250000000E+03  0.00000000000E+00 0. -1.
         11   -1    0    0    0    0 -0.00000000000E+00 -0.00000000000E+00 -0.18250000000E+03  0.18250000000E+03  0.00000000000E+00 0.  1.
        -11    1    1    2    0    0  0.13867487899E+02 -0.78052547067E+00  0.17996671944E+03  0.18050190178E+03  0.00000000000E+00 0. -1.
         11    1    1    2    0    0  0.25381593608E+01 -0.11353039010E+01 -0.63750056055E+02  0.63810663803E+02  0.00000000000E+00 0.  1.
        -15    1    1    2    0    0 -0.46200953716E-01  0.25569121618E+01 -0.87714456826E+02  0.87769719149E+02  0.17770000000E+01 0.  1.
         15    1    1    2    0    0 -0.16359446306E+02 -0.64108279012E+00 -0.28502206560E+02  0.32917715266E+02  0.17770000000E+01 0.  1.
</event>
<event>
 6    1  0.1059789E-002  0.1744964E+03  0.7546771E-02  0.1075010E+00
        -11   -1    0    0    0    0  0.00000000000E+00  0.00000000000E+00  0.18250000000E+03  0.18250000000E+03  0.00000000000E+00 0.  1.
         11   -1    0    0    0    0 -0.00000000000E+00 -0.00000000000E+00 -0.18250000000E+03  0.18250000000E+03  0.00000000000E+00 0.  1.
        -11    1    1    2    0    0  0.42756075477E+01  0.88465201287E+01  0.17489574199E+03  0.17517152252E+03  0.00000000000E+00 0.  1.
         11    1    1    2    0    0  0.39458407272E+01 -0.35905571982E+01 -0.17387731664E+03  0.17395914176E+03  0.00000000000E+00 0.  1.
        -15    1    1    2    0    0 -0.66055786477E+01 -0.29599610971E+01  0.50135996211E+01  0.89827027741E+01  0.17770000000E+01 0. -1.
         15    1    1    2    0    0 -0.16158696272E+01 -0.22960018334E+01 -0.60320249695E+01  0.68866329438E+01  0.17770000000E+01 0.  1.
</event>
<event>
 6    1  0.1059789E-002  0.1830068E+03  0.7546771E-02  0.1068052E+00
        -11   -1    0    0    0    0  0.00000000000E+00  0.00000000000E+00  0.18250000000E+03  0.18250000000E+03  0.00000000000E+00 0.  1.
         11   -1    0    0    0    0 -0.00000000000E+00 -0.00000000000E+00 -0.18250000000E+03  0.18250000000E+03  0.00000000000E+00 0. -1.
        -11    1    1    2    0    0 -0.36136838165E+01 -0.50058689070E+01  0.18188848954E+03  0.18199324181E+03  0.00000000000E+00 0.  1.
         11    1    1    2    0    0 -0.29924845996E+01  0.56463401349E+00 -0.13070207383E+03  0.13073754579E+03  0.00000000000E+00 0. -1.
        -15    1    1    2    0    0  0.17988702752E+01  0.18178075755E+01 -0.34035306020E+02  0.34177480064E+02  0.17770000000E+01 0.  1.
         15    1    1    2    0    0  0.48072981409E+01  0.26234273181E+01 -0.17151109692E+02  0.18091732338E+02  0.17770000000E+01 0. -1.
</event>
<event>
 6    1  0.1059789E-002  0.1843186E+03  0.7546771E-02  0.1067016E+00
        -11   -1    0    0    0    0  0.00000000000E+00  0.00000000000E+00  0.18250000000E+03  0.18250000000E+03  0.00000000000E+00 0. -1.
         11   -1    0    0    0    0 -0.00000000000E+00 -0.00000000000E+00 -0.18250000000E+03  0.18250000000E+03  0.00000000000E+00 0. -1.
        -11    1    1    2    0    0  0.39540626606E+01 -0.81862832074E+01  0.10733870999E+03  0.10772301753E+03  0.00000000000E+00 0. -1.
         11    1    1    2    0    0 -0.23921513170E+01  0.22803593406E+01 -0.18065113230E+03  0.18068136049E+03  0.00000000000E+00 0. -1.
        -15    1    1    2    0    0 -0.38033226834E+01 -0.58852774917E+01  0.11351647036E+02  0.13458059816E+02  0.17770000000E+01 0.  1.
         15    1    1    2    0    0  0.22414113398E+01  0.11791201358E+02  0.61960775278E+02  0.63137562166E+02  0.17770000000E+01 0. -1.
</event>
<event>
 6    1  0.1059789E-002  0.1775854E+03  0.7546771E-02  0.1072436E+00
        -11   -1    0    0    0    0  0.00000000000E+00  0.00000000000E+00  0.18250000000E+03  0.18250000000E+03  0.00000000000E+00 0.  1.
         11   -1    0    0    0    0 -0.00000000000E+00 -0.00000000000E+00 -0.18250000000E+03  0.18250000000E+03  0.00000000000E+00 0.  1.
        -11    1    1    2    0    0  0.13743696897E+01 -0.33673370656E+01  0.17857364676E+03  0.17861068044E+03  0.00000000000E+00 0.  1.
         11    1    1    2    0    0 -0.27999291358E+01 -0.13895708154E+01 -0.17657274515E+03  0.17660041008E+03  0.00000000000E+00 0.  1.
        -15    1    1    2    0    0 -0.10395130201E+00  0.60152311288E+01 -0.29911346266E+01  0.69497069550E+01  0.17770000000E+01 0.  1.
         15    1    1    2    0    0  0.15295107481E+01 -0.12583232478E+01  0.99023302156E+00  0.28392025221E+01  0.17770000000E+01 0. -1.
</event>
<event>
 6    1  0.1059789E-002  0.1834841E+03  0.7546771E-02  0.1067674E+00
        -11   -1    0    0    0    0  0.00000000000E+00  0.00000000000E+00  0.18250000000E+03  0.18250000000E+03  0.00000000000E+00 0.  1.
         11   -1    0    0    0    0 -0.00000000000E+00 -0.00000000000E+00 -0.18250000000E+03  0.18250000000E+03  0.00000000000E+00 0.  1.
        -11    1    1    2    0    0  0.35394010322E+01 -0.15959891294E+01  0.18147432571E+03  0.18151585450E+03  0.00000000000E+00 0.  1.
         11    1    1    2    0    0 -0.47022758453E+00  0.34411897398E+01 -0.16804210422E+03  0.16807799289E+03  0.00000000000E+00 0.  1.
        -15    1    1    2    0    0  0.12390145425E+00 -0.67969795554E+00 -0.57859769516E+00  0.19924470317E+01  0.17770000000E+01 0.  1.
         15    1    1    2    0    0 -0.31930749020E+01 -0.11655026549E+01 -0.12853623796E+02  0.13413705583E+02  0.17770000000E+01 0. -1.
</event>
<event>
 6    1  0.1059789E-002  0.1862427E+03  0.7546771E-02  0.1065514E+00
        -11   -1    0    0    0    0  0.00000000000E+00  0.00000000000E+00  0.18250000000E+03  0.18250000000E+03  0.00000000000E+00 0. -1.
         11   -1    0    0    0    0 -0.00000000000E+00 -0.00000000000E+00 -0.18250000000E+03  0.18250000000E+03  0.00000000000E+00 0. -1.
        -11    1    1    2    0    0  0.27234094307E-01  0.22872690736E+01  0.10998872882E+03  0.11001251206E+03  0.00000000000E+00 0. -1.
         11    1    1    2    0    0 -0.34722599542E+01 -0.49492155966E+01 -0.17865501027E+03  0.17875727683E+03  0.00000000000E+00 0. -1.
        -15    1    1    2    0    0  0.15832491692E+01 -0.20154087261E+01 -0.30224420085E+01  0.43429753579E+01  0.17770000000E+01 0.  1.
         15    1    1    2    0    0  0.18617766907E+01  0.46773552491E+01  0.71688723460E+02  0.71887235758E+02  0.17770000000E+01 0. -1.
</event>
<event>
 6    1  0.1059789E-002  0.1755150E+03  0.7546771E-02  0.1074155E+00
        -11   -1    0    0    0    0  0.00000000000E+00  0.00000000000E+00  0.18250000000E+03  0.18250000000E+03  0.00000000000E+00 0.  1.
         11   -1    0    0    0    0 -0.00000000000E+00 -0.00000000000E+00 -0.18250000000E+03  0.18250000000E+03  0.00000000000E+00 0.  1.
        -11    1    1    2    0    0 -0.32927218798E+01  0.38245885749E+00  0.17367200463E+03  0.17370363694E+03  0.00000000000E+00 0.  1.
         11    1    1    2    0    0 -0.81526785583E+00 -0.57756293092E+01 -0.17731489622E+03  0.17741080851E+03  0.00000000000E+00 0.  1.
        -15    1    1    2    0    0  0.93819632740E+00 -0.21747724686E+01 -0.21728546939E+01  0.36727202670E+01  0.17770000000E+01 0. -1.
         15    1    1    2    0    0  0.31697934082E+01  0.75679429202E+01  0.58157462832E+01  0.10212834285E+02  0.17770000000E+01 0. -1.
</event>
<event>
 6    1  0.1059789E-002  0.1854283E+03  0.7546771E-02  0.1066147E+00
        -11   -1    0    0    0    0  0.00000000000E+00  0.00000000000E+00  0.18250000000E+03  0.18250000000E+03  0.00000000000E+00 0. -1.
         11   -1    0    0    0    0 -0.00000000000E+00 -0.00000000000E+00 -0.18250000000E+03  0.18250000000E+03  0.00000000000E+00 0.  1.
        -11    1    1    2    0    0 -0.27944776882E+00 -0.35150971490E+01  0.17953706977E+03  0.17957169437E+03  0.00000000000E+00 0. -1.
         11    1    1    2    0    0  0.14528936779E+01 -0.19465654146E+01 -0.17511503703E+03  0.17513188234E+03  0.00000000000E+00 0.  1.
        -15    1    1    2    0    0  0.18606926366E+01  0.21205825367E+00  0.46721105534E-02  0.25816461066E+01  0.17770000000E+01 0. -1.
         15    1    1    2    0    0 -0.30341385457E+01  0.52496043099E+01 -0.44267048484E+01  0.77147771802E+01  0.17770000000E+01 0.  1.
</event>
<event>
 6    1  0.1059789E-002  0.1914599E+03  0.7546771E-02  0.1061538E+00
        -11   -1    0    0    0    0  0.00000000000E+00  0.00000000000E+00  0.18250000000E+03  0.18250000000E+03  0.00000000000E+00 0.  1.
         11   -1    0    0    0    0 -0.00000000000E+00 -0.00000000000E+00 -0.18250000000E+03  0.18250000000E+03  0.00000000000E+00 0. -1.
        -11    1    1    2    0    0  0.47254886873E+01 -0.47694694602E+01  0.12744733653E+03  0.12762406383E+03  0.00000000000E+00 0.  1.
         11    1    1    2    0    0  0.20192382395E+01 -0.23032243005E+01 -0.17351310973E+03  0.17354014352E+03  0.00000000000E+00 0. -1.
        -15    1    1    2    0    0 -0.13251795664E+02  0.13545072546E+02  0.24031636930E+01  0.19183638949E+02  0.17770000000E+01 0. -1.
         15    1    1    2    0    0  0.65070687377E+01 -0.64723787850E+01  0.43662609515E+02  0.44652153692E+02  0.17770000000E+01 0.  1.
</event>
<event>
 6    1  0.1059789E-002  0.1829164E+03  0.7546771E-02  0.1068124E+00
        -11   -1    0    0    0    0  0.00000000000E+00  0.00000000000E+00  0.18250000000E+03  0.18250000000E+03  0.00000000000E+00 0.  1.
         11   -1    0    0    0    0 -0.00000000000E+00 -0.00000000000E+00 -0.18250000000E+03  0.18250000000E+03  0.00000000000E+00 0.  1.
        -11    1    1    2    0    0  0.13784329873E+01 -0.10895542084E+01  0.23765936142E+02  0.23830797859E+02  0.00000000000E+00 0.  1.
         11    1    1    2    0    0 -0.30804311597E+01 -0.12539135654E+02 -0.18162523383E+03  0.18208361965E+03  0.00000000000E+00 0.  1.
        -15    1    1    2    0    0 -0.30218820444E+01  0.11654565929E+02  0.13679441148E+03  0.13733473493E+03  0.17770000000E+01 0.  1.
         15    1    1    2    0    0  0.47238802168E+01  0.19741239334E+01  0.21064886213E+02  0.21750847564E+02  0.17770000000E+01 0. -1.
</event>
<event>
 6    1  0.1059789E-002  0.1868155E+03  0.7546771E-02  0.1065071E+00
        -11   -1    0    0    0    0  0.00000000000E+00  0.00000000000E+00  0.18250000000E+03  0.18250000000E+03  0.00000000000E+00 0.  1.
         11   -1    0    0    0    0 -0.00000000000E+00 -0.00000000000E+00 -0.18250000000E+03  0.18250000000E+03  0.00000000000E+00 0. -1.
        -11    1    1    2    0    0  0.45164504668E+01 -0.20399492623E+01  0.17811560587E+03  0.17818453573E+03  0.00000000000E+00 0.  1.
         11    1    1    2    0    0 -0.27133271878E+01 -0.25206497800E+00 -0.15505633199E+03  0.15508027524E+03  0.00000000000E+00 0. -1.
        -15    1    1    2    0    0  0.86261328270E+01  0.59221998621E+01 -0.10880181281E+02  0.15199299078E+02  0.17770000000E+01 0. -1.
         15    1    1    2    0    0 -0.10429256106E+02 -0.36301856218E+01 -0.12179092607E+02  0.16535889946E+02  0.17770000000E+01 0.  1.
</event>
<event>
 6    1  0.1059789E-002  0.1886170E+03  0.7546771E-02  0.1063687E+00
        -11   -1    0    0    0    0  0.00000000000E+00  0.00000000000E+00  0.18250000000E+03  0.18250000000E+03  0.00000000000E+00 0.  1.
         11   -1    0    0    0    0 -0.00000000000E+00 -0.00000000000E+00 -0.18250000000E+03  0.18250000000E+03  0.00000000000E+00 0. -1.
        -11    1    1    2    0    0 -0.12021951125E+02  0.69243335081E+01  0.14256783434E+03  0.14324126881E+03  0.00000000000E+00 0.  1.
         11    1    1    2    0    0 -0.34179783344E+01 -0.65626015324E+01 -0.17622774922E+03  0.17638302047E+03  0.00000000000E+00 0. -1.
        -15    1    1    2    0    0  0.21167622752E+00  0.16843732596E+01 -0.39822700342E+01  0.46795431111E+01  0.17770000000E+01 0. -1.
         15    1    1    2    0    0  0.15228253232E+02 -0.20461052353E+01  0.37642184922E+02  0.40696167606E+02  0.17770000000E+01 0.  1.
</event>
<event>
 6    1  0.1059789E-002  0.1834208E+03  0.7546771E-02  0.1067724E+00
        -11   -1    0    0    0    0  0.00000000000E+00  0.00000000000E+00  0.18250000000E+03  0.18250000000E+03  0.00000000000E+00 0.  1.
         11   -1    0    0    0    0 -0.00000000000E+00 -0.00000000000E+00 -0.18250000000E+03  0.18250000000E+03  0.00000000000E+00 0. -1.
        -11    1    1    2    0    0 -0.25370281707E+01 -0.38807088691E+00  0.18156108659E+03  0.18157922589E+03  0.00000000000E+00 0.  1.
         11    1    1    2    0    0 -0.94728178432E+00  0.27751608808E+01 -0.16842121685E+03  0.16844674276E+03  0.00000000000E+00 0. -1.
        -15    1    1    2    0    0  0.41475347303E+01 -0.26213275084E+01 -0.87802041598E+01  0.10213868823E+02  0.17770000000E+01 0. -1.
         15    1    1    2    0    0 -0.66322477532E+00  0.23423751449E+00 -0.43596655841E+01  0.47601625309E+01  0.17770000000E+01 0.  1.
</event>
<event>
 6    1  0.1059789E-002  0.1830931E+03  0.7546771E-02  0.1067984E+00
        -11   -1    0    0    0    0  0.00000000000E+00  0.00000000000E+00  0.18250000000E+03  0.18250000000E+03  0.00000000000E+00 0. -1.
         11   -1    0    0    0    0 -0.00000000000E+00 -0.00000000000E+00 -0.18250000000E+03  0.18250000000E+03  0.00000000000E+00 0.  1.
        -11    1    1    2    0    0 -0.40000211149E+01 -0.45673675772E+00  0.18186231412E+03  0.18190687198E+03  0.00000000000E+00 0. -1.
         11    1    1    2    0    0  0.33968774468E+01 -0.35349419925E+01 -0.60405753394E+02  0.60604369763E+02  0.00000000000E+00 0.  1.
        -15    1    1    2    0    0 -0.11594819996E+01  0.55605621186E+01 -0.17389668746E+02  0.18379949882E+02  0.17770000000E+01 0. -1.
         15    1    1    2    0    0  0.17626256677E+01 -0.15688833683E+01 -0.10406689198E+03  0.10410880837E+03  0.17770000000E+01 0.  1.
</event>
<event>
 6    1  0.1059789E-002  0.1828398E+03  0.7546771E-02  0.1068185E+00
        -11   -1    0    0    0    0  0.00000000000E+00  0.00000000000E+00  0.18250000000E+03  0.18250000000E+03  0.00000000000E+00 0.  1.
         11   -1    0    0    0    0 -0.00000000000E+00 -0.00000000000E+00 -0.18250000000E+03  0.18250000000E+03  0.00000000000E+00 0.  1.
        -11    1    1    2    0    0 -0.68901102571E+01  0.69265915455E+01  0.18189798812E+03  0.18216017504E+03  0.00000000000E+00 0.  1.
         11    1    1    2    0    0 -0.18940364193E+00 -0.96466413542E+00 -0.47580307997E+02  0.47590462907E+02  0.00000000000E+00 0.  1.
        -15    1    1    2    0    0  0.39047951316E+01  0.35225765288E+01 -0.39273074797E+02  0.39663435346E+02  0.17770000000E+01 0. -1.
         15    1    1    2    0    0  0.31747187675E+01 -0.94845039389E+01 -0.95044605323E+02  0.95585926706E+02  0.17770000000E+01 0.  1.
</event>
<event>
 6    1  0.1059789E-002  0.1747487E+03  0.7546771E-02  0.1074798E+00
        -11   -1    0    0    0    0  0.00000000000E+00  0.00000000000E+00  0.18250000000E+03  0.18250000000E+03  0.00000000000E+00 0.  1.
         11   -1    0    0    0    0 -0.00000000000E+00 -0.00000000000E+00 -0.18250000000E+03  0.18250000000E+03  0.00000000000E+00 0.  1.
        -11    1    1    2    0    0  0.26185848775E+01 -0.33160571872E+01  0.17619776111E+03  0.17624841628E+03  0.00000000000E+00 0.  1.
         11    1    1    2    0    0  0.77275693381E+00 -0.39980078072E+01 -0.17330600310E+03  0.17335383449E+03  0.00000000000E+00 0.  1.
        -15    1    1    2    0    0 -0.14345987563E+01 -0.27807361079E+01  0.17207963181E+01  0.39886634180E+01  0.17770000000E+01 0. -1.
         15    1    1    2    0    0 -0.19567430551E+01  0.10094801102E+02 -0.46125543261E+01  0.11409085813E+02  0.17770000000E+01 0.  1.
</event>
<event>
 6    1  0.1059789E-002  0.1875696E+03  0.7546771E-02  0.1064490E+00
        -11   -1    0    0    0    0  0.00000000000E+00  0.00000000000E+00  0.18250000000E+03  0.18250000000E+03  0.00000000000E+00 0.  1.
         11   -1    0    0    0    0 -0.00000000000E+00 -0.00000000000E+00 -0.18250000000E+03  0.18250000000E+03  0.00000000000E+00 0.  1.
        -11    1    1    2    0    0 -0.12417266515E+01  0.42436054788E+01  0.15079786992E+03  0.15086267811E+03  0.00000000000E+00 0.  1.
         11    1    1    2    0    0  0.11444268208E+00  0.30153810493E+01 -0.17740475507E+03  0.17743041662E+03  0.00000000000E+00 0.  1.
        -15    1    1    2    0    0 -0.10728863232E+01 -0.18951173859E+01  0.29746175976E+02  0.29878675827E+02  0.17770000000E+01 0. -1.
         15    1    1    2    0    0  0.22001702926E+01 -0.53638691423E+01 -0.31392908316E+01  0.68282294496E+01  0.17770000000E+01 0. -1.
</event>
<event>
 6    1  0.1059789E-002  0.1836115E+03  0.7546771E-02  0.1067573E+00
        -11   -1    0    0    0    0  0.00000000000E+00  0.00000000000E+00  0.18250000000E+03  0.18250000000E+03  0.00000000000E+00 0.  1.
         11   -1    0    0    0    0 -0.00000000000E+00 -0.00000000000E+00 -0.18250000000E+03  0.18250000000E+03  0.00000000000E+00 0. -1.
        -11    1    1    2    0    0 -0.24801028449E+01  0.10568166800E+01  0.18136843072E+03  0.18138846554E+03  0.00000000000E+00 0.  1.
         11    1    1    2    0    0  0.17331859800E+01 -0.22410876300E+01 -0.16335566793E+03  0.16338023336E+03  0.00000000000E+00 0. -1.
        -15    1    1    2    0    0  0.14919656697E+01 -0.14791736482E+01 -0.10376560466E+01  0.29408120158E+01  0.17770000000E+01 0. -1.
         15    1    1    2    0    0 -0.74504880483E+00  0.26634445982E+01 -0.16975106737E+02  0.17290489079E+02  0.17770000000E+01 0. -1.
</event>
<event>
 6    1  0.1059789E-002  0.2114495E+03  0.7546771E-02  0.1047494E+00
        -11   -1    0    0    0    0  0.00000000000E+00  0.00000000000E+00  0.18250000000E+03  0.18250000000E+03  0.00000000000E+00 0. -1.
         11   -1    0    0    0    0 -0.00000000000E+00 -0.00000000000E+00 -0.18250000000E+03  0.18250000000E+03  0.00000000000E+00 0.  1.
        -11    1    1    2    0    0 -0.12701660215E+01 -0.15611240496E+01  0.13857429277E+03  0.13858890665E+03  0.00000000000E+00 0. -1.
         11    1    1    2    0    0 -0.13900843743E+02  0.44694843034E+00 -0.15291936890E+03  0.15355053437E+03  0.00000000000E+00 0.  1.
        -15    1    1    2    0    0  0.10105168054E+02  0.82206533628E+01 -0.27285586729E+02  0.30287861187E+02  0.17770000000E+01 0.  1.
         15    1    1    2    0    0  0.50658417101E+01 -0.71064777435E+01  0.41630662862E+02  0.42572697794E+02  0.17770000000E+01 0. -1.
</event>
<event>
 6    1  0.1059789E-002  0.1771642E+03  0.7546771E-02  0.1072783E+00
        -11   -1    0    0    0    0  0.00000000000E+00  0.00000000000E+00  0.18250000000E+03  0.18250000000E+03  0.00000000000E+00 0.  1.
         11   -1    0    0    0    0 -0.00000000000E+00 -0.00000000000E+00 -0.18250000000E+03  0.18250000000E+03  0.00000000000E+00 0. -1.
        -11    1    1    2    0    0  0.26521812540E+01 -0.43768282727E+01  0.17711618808E+03  0.17719010913E+03  0.00000000000E+00 0.  1.
         11    1    1    2    0    0 -0.57402755029E+01 -0.40242104048E+01 -0.17711266519E+03  0.17725135036E+03  0.00000000000E+00 0. -1.
        -15    1    1    2    0    0 -0.13470251795E+00  0.12395466724E+01  0.10964336453E+01  0.24319778905E+01  0.17770000000E+01 0.  1.
         15    1    1    2    0    0  0.32227967669E+01  0.71614920051E+01 -0.10999565358E+01  0.81265626264E+01  0.17770000000E+01 0. -1.
</event>
<event>
 6    1  0.1059789E-002  0.1896946E+03  0.7546771E-02  0.1062868E+00
        -11   -1    0    0    0    0  0.00000000000E+00  0.00000000000E+00  0.18250000000E+03  0.18250000000E+03  0.00000000000E+00 0.  1.
         11   -1    0    0    0    0 -0.00000000000E+00 -0.00000000000E+00 -0.18250000000E+03  0.18250000000E+03  0.00000000000E+00 0. -1.
        -11    1    1    2    0    0 -0.97740862550E+00 -0.66221502707E+01  0.16565627958E+03  0.16579146892E+03  0.00000000000E+00 0.  1.
         11    1    1    2    0    0 -0.24738894851E+01  0.33975146327E+01 -0.17525496966E+03  0.17530535538E+03  0.00000000000E+00 0. -1.
        -15    1    1    2    0    0  0.75486237667E+00  0.36785507546E+01  0.16101323249E+02  0.16628646735E+02  0.17770000000E+01 0.  1.
         15    1    1    2    0    0  0.26964357339E+01 -0.45391511651E+00 -0.65026331714E+01  0.72745289718E+01  0.17770000000E+01 0.  1.
</event>
<event>
 6    1  0.1059789E-002  0.1938748E+03  0.7546771E-02  0.1059745E+00
        -11   -1    0    0    0    0  0.00000000000E+00  0.00000000000E+00  0.18250000000E+03  0.18250000000E+03  0.00000000000E+00 0.  1.
         11   -1    0    0    0    0 -0.00000000000E+00 -0.00000000000E+00 -0.18250000000E+03  0.18250000000E+03  0.00000000000E+00 0. -1.
        -11    1    1    2    0    0  0.83121031966E+01  0.39959692537E+01  0.17087651956E+03  0.17112522831E+03  0.00000000000E+00 0.  1.
         11    1    1    2    0    0 -0.33235844469E+01 -0.52439327984E+01 -0.11761449588E+03  0.11777824368E+03  0.00000000000E+00 0. -1.
        -15    1    1    2    0    0 -0.23082366449E+02 -0.13784727305E+02 -0.42134871598E+02  0.50013193073E+02  0.17770000000E+01 0.  1.
         15    1    1    2    0    0  0.18093847700E+02  0.15032690849E+02 -0.11127152082E+02  0.26083334933E+02  0.17770000000E+01 0. -1.
</event>
<event>
 6    1  0.1059789E-002  0.1831490E+03  0.7546771E-02  0.1067939E+00
        -11   -1    0    0    0    0  0.00000000000E+00  0.00000000000E+00  0.18250000000E+03  0.18250000000E+03  0.00000000000E+00 0.  1.
         11   -1    0    0    0    0 -0.00000000000E+00 -0.00000000000E+00 -0.18250000000E+03  0.18250000000E+03  0.00000000000E+00 0. -1.
        -11    1    1    2    0    0  0.77810208053E-01  0.11225493372E+02  0.18150413789E+03  0.18185095498E+03  0.00000000000E+00 0.  1.
         11    1    1    2    0    0 -0.33315676736E+01 -0.19350224268E+00 -0.18654149721E+02  0.18950305752E+02  0.00000000000E+00 0. -1.
        -15    1    1    2    0    0 -0.14849563639E+01 -0.97531584187E+01 -0.39967761329E+02  0.41205689768E+02  0.17770000000E+01 0.  1.
         15    1    1    2    0    0  0.47387138295E+01 -0.12788327103E+01 -0.12288222684E+03  0.12299304950E+03  0.17770000000E+01 0. -1.
</event>
<event>
 6    1  0.1059789E-002  0.1907795E+03  0.7546771E-02  0.1062049E+00
        -11   -1    0    0    0    0  0.00000000000E+00  0.00000000000E+00  0.18250000000E+03  0.18250000000E+03  0.00000000000E+00 0.  1.
         11   -1    0    0    0    0 -0.00000000000E+00 -0.00000000000E+00 -0.18250000000E+03  0.18250000000E+03  0.00000000000E+00 0. -1.
        -11    1    1    2    0    0 -0.25880267674E+01 -0.61918839059E+01  0.17409115807E+03  0.17422045984E+03  0.00000000000E+00 0.  1.
         11    1    1    2    0    0 -0.34644788689E+01  0.15250867545E-02 -0.16626743461E+03  0.16630352500E+03  0.00000000000E+00 0. -1.
        -15    1    1    2    0    0  0.75698751834E+00  0.59053209973E+01  0.65647230066E+01  0.90387589489E+01  0.17770000000E+01 0. -1.
         15    1    1    2    0    0  0.52955181180E+01  0.28503782189E+00 -0.14388446469E+02  0.15437256216E+02  0.17770000000E+01 0. -1.
</event>
<event>
 6    1  0.1059789E-002  0.1836218E+03  0.7546771E-02  0.1067565E+00
        -11   -1    0    0    0    0  0.00000000000E+00  0.00000000000E+00  0.18250000000E+03  0.18250000000E+03  0.00000000000E+00 0.  1.
         11   -1    0    0    0    0 -0.00000000000E+00 -0.00000000000E+00 -0.18250000000E+03  0.18250000000E+03  0.00000000000E+00 0. -1.
        -11    1    1    2    0    0  0.14424535389E+01 -0.24346229051E+01 -0.12752002451E+01  0.31039002186E+01  0.00000000000E+00 0.  1.
         11    1    1    2    0    0 -0.12297170931E+02 -0.16022052539E+01 -0.17723479381E+03  0.17766811648E+03  0.00000000000E+00 0. -1.
        -15    1    1    2    0    0 -0.92369471163E+01 -0.21393968436E+01  0.13989243482E+03  0.14022463856E+03  0.17770000000E+01 0.  1.
         15    1    1    2    0    0  0.20091664508E+02  0.61762250026E+01  0.38617559240E+02  0.44003344744E+02  0.17770000000E+01 0. -1.
</event>
<event>
 6    1  0.1059789E-002  0.1826809E+03  0.7546771E-02  0.1068311E+00
        -11   -1    0    0    0    0  0.00000000000E+00  0.00000000000E+00  0.18250000000E+03  0.18250000000E+03  0.00000000000E+00 0. -1.
         11   -1    0    0    0    0 -0.00000000000E+00 -0.00000000000E+00 -0.18250000000E+03  0.18250000000E+03  0.00000000000E+00 0. -1.
        -11    1    1    2    0    0  0.12126475345E+01 -0.29441103398E+01  0.18229132655E+03  0.18231913239E+03  0.00000000000E+00 0. -1.
         11    1    1    2    0    0 -0.13675281881E+01 -0.71849632084E+00 -0.10385358183E+03  0.10386507031E+03  0.00000000000E+00 0. -1.
        -15    1    1    2    0    0  0.19300553732E+01  0.18794228338E+01 -0.17169709969E+02  0.17470375307E+02  0.17770000000E+01 0. -1.
         15    1    1    2    0    0 -0.17751747196E+01  0.17831838268E+01 -0.61268034744E+02  0.61345421999E+02  0.17770000000E+01 0.  1.
</event>
<event>
 6    1  0.1059789E-002  0.1460542E+03  0.7546771E-02  0.1101850E+00
        -11   -1    0    0    0    0  0.00000000000E+00  0.00000000000E+00  0.18250000000E+03  0.18250000000E+03  0.00000000000E+00 0.  1.
         11   -1    0    0    0    0 -0.00000000000E+00 -0.00000000000E+00 -0.18250000000E+03  0.18250000000E+03  0.00000000000E+00 0.  1.
        -11    1    1    2    0    0 -0.18983072822E+02  0.91313047506E+01  0.14614004359E+03  0.14765043217E+03  0.00000000000E+00 0.  1.
         11    1    1    2    0    0  0.11816285443E+02  0.38264376354E+02 -0.14287641499E+03  0.14838280580E+03  0.00000000000E+00 0.  1.
        -15    1    1    2    0    0 -0.11354515024E+02 -0.54913103820E+01 -0.16872330050E+02  0.21140311054E+02  0.17770000000E+01 0. -1.
         15    1    1    2    0    0  0.18521302403E+02 -0.41904370723E+02  0.13608701446E+02  0.47826450970E+02  0.17770000000E+01 0.  1.
</event>
<event>
 6    1  0.1059789E-002  0.2119905E+03  0.7546771E-02  0.1047138E+00
        -11   -1    0    0    0    0  0.00000000000E+00  0.00000000000E+00  0.18250000000E+03  0.18250000000E+03  0.00000000000E+00 0. -1.
         11   -1    0    0    0    0 -0.00000000000E+00 -0.00000000000E+00 -0.18250000000E+03  0.18250000000E+03  0.00000000000E+00 0.  1.
        -11    1    1    2    0    0  0.24592571191E+01  0.21561719498E+01  0.15297456188E+03  0.15300952129E+03  0.00000000000E+00 0. -1.
         11    1    1    2    0    0 -0.31964680865E+01 -0.13415709450E+02 -0.10163777168E+03  0.10256917324E+03  0.00000000000E+00 0.  1.
        -15    1    1    2    0    0 -0.13879384631E+02  0.37941543089E+02  0.93554003651E+01  0.41507580690E+02  0.17770000000E+01 0. -1.
         15    1    1    2    0    0  0.14616595598E+02 -0.26682005589E+02 -0.60692190563E+02  0.67913724780E+02  0.17770000000E+01 0.  1.
</event>
<event>
 6    1  0.1059789E-002  0.1831712E+03  0.7546771E-02  0.1067922E+00
        -11   -1    0    0    0    0  0.00000000000E+00  0.00000000000E+00  0.18250000000E+03  0.18250000000E+03  0.00000000000E+00 0.  1.
         11   -1    0    0    0    0 -0.00000000000E+00 -0.00000000000E+00 -0.18250000000E+03  0.18250000000E+03  0.00000000000E+00 0.  1.
        -11    1    1    2    0    0 -0.24355064000E+01  0.11475817046E+01  0.18180886290E+03  0.18182879658E+03  0.00000000000E+00 0.  1.
         11    1    1    2    0    0 -0.20226995742E+01  0.38575832119E+01 -0.13239188172E+03  0.13246351425E+03  0.00000000000E+00 0.  1.
        -15    1    1    2    0    0 -0.35904006828E+00 -0.31970021072E+01 -0.36580350455E+02  0.36764514149E+02  0.17770000000E+01 0.  1.
         15    1    1    2    0    0  0.48172460426E+01 -0.18081628094E+01 -0.12836630729E+02  0.13943175020E+02  0.17770000000E+01 0.  1.
</event>
<event>
 6    1  0.1059789E-002  0.1840899E+03  0.7546771E-02  0.1067196E+00
        -11   -1    0    0    0    0  0.00000000000E+00  0.00000000000E+00  0.18250000000E+03  0.18250000000E+03  0.00000000000E+00 0.  1.
         11   -1    0    0    0    0 -0.00000000000E+00 -0.00000000000E+00 -0.18250000000E+03  0.18250000000E+03  0.00000000000E+00 0. -1.
        -11    1    1    2    0    0 -0.38095692650E+01 -0.26230743531E+01  0.18085092904E+03  0.18091006570E+03  0.00000000000E+00 0.  1.
         11    1    1    2    0    0  0.15236815936E+01  0.25576362026E+01 -0.16966423086E+03  0.16969034841E+03  0.00000000000E+00 0. -1.
        -15    1    1    2    0    0  0.14272628683E+01  0.17399122781E+01 -0.11444798772E+02  0.11798538976E+02  0.17770000000E+01 0. -1.
         15    1    1    2    0    0  0.85862480307E+00 -0.16744741276E+01  0.25810059146E+00  0.26010469184E+01  0.17770000000E+01 0.  1.
</event>
<event>
 6    1  0.1059789E-002  0.1839058E+03  0.7546771E-02  0.1067341E+00
        -11   -1    0    0    0    0  0.00000000000E+00  0.00000000000E+00  0.18250000000E+03  0.18250000000E+03  0.00000000000E+00 0.  1.
         11   -1    0    0    0    0 -0.00000000000E+00 -0.00000000000E+00 -0.18250000000E+03  0.18250000000E+03  0.00000000000E+00 0.  1.
        -11    1    1    2    0    0 -0.97124385167E+00  0.22517566726E+01  0.11317757364E+03  0.11320413816E+03  0.00000000000E+00 0.  1.
         11    1    1    2    0    0 -0.24797788265E+01  0.60541644951E+00 -0.18107617121E+03  0.18109416228E+03  0.00000000000E+00 0.  1.
        -15    1    1    2    0    0  0.13213480894E+01 -0.72348056806E+00 -0.35668936653E+00  0.23567649883E+01  0.17770000000E+01 0.  1.
         15    1    1    2    0    0  0.21296745887E+01 -0.21336925541E+01  0.68255286935E+02  0.68344934570E+02  0.17770000000E+01 0. -1.
</event>
<event>
 6    1  0.1925699E-002  0.1833869E+03  0.7546771E-02  0.1067751E+00
        -11   -1    0    0    0    0  0.00000000000E+00  0.00000000000E+00  0.18250000000E+03  0.18250000000E+03  0.00000000000E+00 0. -1.
         11   -1    0    0    0    0 -0.00000000000E+00 -0.00000000000E+00 -0.18250000000E+03  0.18250000000E+03  0.00000000000E+00 0.  1.
        -11    1    1    2    0    0 -0.51825100433E+00 -0.27267750892E+01  0.18159188134E+03  0.18161309219E+03  0.00000000000E+00 0. -1.
         11    1    1    2    0    0  0.66272672077E+00  0.76465593478E+00 -0.57435578406E+02  0.57444491226E+02  0.00000000000E+00 0.  1.
        -15    1    1    2    0    0  0.10113434416E+01  0.14066558059E+00 -0.12283299225E+03  0.12285008879E+03  0.17770000000E+01 0.  1.
         15    1    1    2    0    0 -0.11558191581E+01  0.18214535738E+01 -0.13233106829E+01  0.30923277982E+01  0.17770000000E+01 0.  1.
</event>
<event>
 6    1  0.1059789E-002  0.1830488E+03  0.7546771E-02  0.1068019E+00
        -11   -1    0    0    0    0  0.00000000000E+00  0.00000000000E+00  0.18250000000E+03  0.18250000000E+03  0.00000000000E+00 0.  1.
         11   -1    0    0    0    0 -0.00000000000E+00 -0.00000000000E+00 -0.18250000000E+03  0.18250000000E+03  0.00000000000E+00 0. -1.
        -11    1    1    2    0    0 -0.16814388578E+01  0.18698431328E+01  0.18193381153E+03  0.18195118941E+03  0.00000000000E+00 0.  1.
         11    1    1    2    0    0  0.29603476641E+01  0.11504669458E+01 -0.14624943696E+03  0.14628391929E+03  0.00000000000E+00 0. -1.
        -15    1    1    2    0    0 -0.40366239453E+01 -0.31112657913E+01 -0.25493105610E+02  0.26058213107E+02  0.17770000000E+01 0.  1.
         15    1    1    2    0    0  0.27577151390E+01  0.90955712662E-01 -0.10191268962E+02  0.10706678186E+02  0.17770000000E+01 0. -1.
</event>
<event>
 6    1  0.1059789E-002  0.1858285E+03  0.7546771E-02  0.1065836E+00
        -11   -1    0    0    0    0  0.00000000000E+00  0.00000000000E+00  0.18250000000E+03  0.18250000000E+03  0.00000000000E+00 0.  1.
         11   -1    0    0    0    0 -0.00000000000E+00 -0.00000000000E+00 -0.18250000000E+03  0.18250000000E+03  0.00000000000E+00 0. -1.
        -11    1    1    2    0    0 -0.32453280066E+00 -0.35404080418E+01  0.17913625903E+03  0.17917153543E+03  0.00000000000E+00 0.  1.
         11    1    1    2    0    0 -0.34232404012E+01 -0.90040829988E+00 -0.17514950741E+03  0.17518527123E+03  0.00000000000E+00 0. -1.
        -15    1    1    2    0    0  0.20321943966E+01  0.27172638713E+01  0.17135441368E+01  0.41961052800E+01  0.17770000000E+01 0. -1.
         15    1    1    2    0    0  0.17155788052E+01  0.17235524704E+01 -0.57002957535E+01  0.64470880584E+01  0.17770000000E+01 0.  1.
</event>
<event>
 6    1  0.1059789E-002  0.1835332E+03  0.7546771E-02  0.1067635E+00
        -11   -1    0    0    0    0  0.00000000000E+00  0.00000000000E+00  0.18250000000E+03  0.18250000000E+03  0.00000000000E+00 0. -1.
         11   -1    0    0    0    0 -0.00000000000E+00 -0.00000000000E+00 -0.18250000000E+03  0.18250000000E+03  0.00000000000E+00 0.  1.
        -11    1    1    2    0    0  0.75370331151E-01  0.93676572636E+00  0.39133672360E+02  0.39144955270E+02  0.00000000000E+00 0. -1.
         11    1    1    2    0    0  0.59427793168E+01  0.81566735563E+01 -0.18118599102E+03  0.18146683248E+03  0.00000000000E+00 0.  1.
        -15    1    1    2    0    0 -0.10645031718E+01 -0.79541672156E+00  0.12236330753E+03  0.12238342459E+03  0.17770000000E+01 0. -1.
         15    1    1    2    0    0 -0.49536464762E+01 -0.82980225611E+01  0.19689011124E+02  0.22004787658E+02  0.17770000000E+01 0. -1.
</event>
<event>
 6    1  0.1059789E-002  0.1841611E+03  0.7546771E-02  0.1067140E+00
        -11   -1    0    0    0    0  0.00000000000E+00  0.00000000000E+00  0.18250000000E+03  0.18250000000E+03  0.00000000000E+00 0.  1.
         11   -1    0    0    0    0 -0.00000000000E+00 -0.00000000000E+00 -0.18250000000E+03  0.18250000000E+03  0.00000000000E+00 0.  1.
        -11    1    1    2    0    0 -0.69107921663E+01 -0.13273442366E+01  0.18070195074E+03  0.18083892250E+03  0.00000000000E+00 0.  1.
         11    1    1    2    0    0 -0.12522058006E+01 -0.20990807810E+01 -0.16510145226E+03  0.16511954366E+03  0.00000000000E+00 0.  1.
        -15    1    1    2    0    0  0.41555927922E+01  0.43127303852E+01 -0.72616695149E+01  0.95790483857E+01  0.17770000000E+01 0. -1.
         15    1    1    2    0    0  0.40074051746E+01 -0.88630536767E+00 -0.83388289661E+01  0.94624854538E+01  0.17770000000E+01 0.  1.
</event>
<event>
 6    1  0.1059789E-002  0.1853654E+03  0.7546771E-02  0.1066197E+00
        -11   -1    0    0    0    0  0.00000000000E+00  0.00000000000E+00  0.18250000000E+03  0.18250000000E+03  0.00000000000E+00 0.  1.
         11   -1    0    0    0    0 -0.00000000000E+00 -0.00000000000E+00 -0.18250000000E+03  0.18250000000E+03  0.00000000000E+00 0. -1.
        -11    1    1    2    0    0 -0.42736907436E+01 -0.15671345845E+01  0.17957693524E+03  0.17963461808E+03  0.00000000000E+00 0.  1.
         11    1    1    2    0    0 -0.33655513824E+01  0.15132239871E+01 -0.17390811728E+03  0.17394726223E+03  0.00000000000E+00 0. -1.
        -15    1    1    2    0    0  0.11376442685E+01 -0.10323429294E+00 -0.39201852838E+01  0.44531419762E+01  0.17770000000E+01 0.  1.
         15    1    1    2    0    0  0.65015978575E+01  0.15714489029E+00 -0.17486326757E+01  0.69649777065E+01  0.17770000000E+01 0. -1.
</event>
<event>
 6    1  0.1059789E-002  0.1910136E+03  0.7546771E-02  0.1061873E+00
        -11   -1    0    0    0    0  0.00000000000E+00  0.00000000000E+00  0.18250000000E+03  0.18250000000E+03  0.00000000000E+00 0. -1.
         11   -1    0    0    0    0 -0.00000000000E+00 -0.00000000000E+00 -0.18250000000E+03  0.18250000000E+03  0.00000000000E+00 0. -1.
        -11    1    1    2    0    0  0.27727347638E+01  0.36565393838E+01  0.14714690468E+03  0.14721844279E+03  0.00000000000E+00 0. -1.
         11    1    1    2    0    0 -0.74940679657E+01 -0.92133469564E+01 -0.17358062396E+03  0.17398643577E+03  0.00000000000E+00 0. -1.
        -15    1    1    2    0    0  0.19017804032E+01  0.10614950366E+02 -0.48306530438E+01  0.11949346334E+02  0.17770000000E+01 0. -1.
         15    1    1    2    0    0  0.28195527987E+01 -0.50581427935E+01  0.31264372323E+02  0.31845775109E+02  0.17770000000E+01 0.  1.
</event>
<event>
 6    1  0.1059789E-002  0.1827927E+03  0.7546771E-02  0.1068222E+00
        -11   -1    0    0    0    0  0.00000000000E+00  0.00000000000E+00  0.18250000000E+03  0.18250000000E+03  0.00000000000E+00 0. -1.
         11   -1    0    0    0    0 -0.00000000000E+00 -0.00000000000E+00 -0.18250000000E+03  0.18250000000E+03  0.00000000000E+00 0. -1.
        -11    1    1    2    0    0  0.70366345296E+00 -0.29127760706E+00  0.18087454189E+02  0.18103479885E+02  0.00000000000E+00 0. -1.
         11    1    1    2    0    0  0.61569928939E+01  0.20567999442E+01 -0.18209166607E+03  0.18220733750E+03  0.00000000000E+00 0. -1.
        -15    1    1    2    0    0 -0.62108390335E+00  0.27434931002E+00  0.30717380592E+01  0.36130757622E+01  0.17770000000E+01 0. -1.
         15    1    1    2    0    0 -0.62395724435E+01 -0.20398716471E+01  0.16093247382E+03  0.16107610685E+03  0.17770000000E+01 0. -1.
</event>
<event>
 6    1  0.1059789E-002  0.1843799E+03  0.7546771E-02  0.1066968E+00
        -11   -1    0    0    0    0  0.00000000000E+00  0.00000000000E+00  0.18250000000E+03  0.18250000000E+03  0.00000000000E+00 0.  1.
         11   -1    0    0    0    0 -0.00000000000E+00 -0.00000000000E+00 -0.18250000000E+03  0.18250000000E+03  0.00000000000E+00 0.  1.
        -11    1    1    2    0    0 -0.13046458482E+01 -0.29960387694E+01  0.18059055229E+03  0.18062011495E+03  0.00000000000E+00 0.  1.
         11    1    1    2    0    0  0.27983877876E+01 -0.25690636979E+01 -0.15722128447E+03  0.15726717189E+03  0.00000000000E+00 0.  1.
        -15    1    1    2    0    0  0.17664282654E+01 -0.55787491612E+00 -0.17949482858E+02  0.18132102943E+02  0.17770000000E+01 0. -1.
         15    1    1    2    0    0 -0.32601702048E+01  0.61229773833E+01 -0.54197849583E+01  0.89806102129E+01  0.17770000000E+01 0.  1.
</event>
<event>
 6    1  0.1059789E-002  0.1831154E+03  0.7546771E-02  0.1067966E+00
        -11   -1    0    0    0    0  0.00000000000E+00  0.00000000000E+00  0.18250000000E+03  0.18250000000E+03  0.00000000000E+00 0.  1.
         11   -1    0    0    0    0 -0.00000000000E+00 -0.00000000000E+00 -0.18250000000E+03  0.18250000000E+03  0.00000000000E+00 0.  1.
        -11    1    1    2    0    0 -0.61142416831E+01 -0.20495328783E+01  0.18177029655E+03  0.18188464818E+03  0.00000000000E+00 0.  1.
         11    1    1    2    0    0 -0.17250727071E+01  0.18459673268E+01 -0.64380381353E+02  0.64429938494E+02  0.00000000000E+00 0.  1.
        -15    1    1    2    0    0  0.50278075394E+01 -0.22466132461E+01 -0.11050381775E+03  0.11065521942E+03  0.17770000000E+01 0.  1.
         15    1    1    2    0    0  0.28115068508E+01  0.24501787977E+01 -0.68860974516E+01  0.80301938971E+01  0.17770000000E+01 0. -1.
</event>
<event>
 6    1  0.1059789E-002  0.1853027E+03  0.7546771E-02  0.1066245E+00
        -11   -1    0    0    0    0  0.00000000000E+00  0.00000000000E+00  0.18250000000E+03  0.18250000000E+03  0.00000000000E+00 0. -1.
         11   -1    0    0    0    0 -0.00000000000E+00 -0.00000000000E+00 -0.18250000000E+03  0.18250000000E+03  0.00000000000E+00 0. -1.
        -11    1    1    2    0    0 -0.14046086536E+01 -0.18336324952E+01  0.14613343059E+03  0.14615168378E+03  0.00000000000E+00 0. -1.
         11    1    1    2    0    0 -0.18552889304E+01 -0.58175860172E+01 -0.17959347383E+03  0.17969725164E+03  0.00000000000E+00 0. -1.
        -15    1    1    2    0    0  0.22744066845E+01  0.73046643515E+00  0.31549183096E+02  0.31689354522E+02  0.17770000000E+01 0. -1.
         15    1    1    2    0    0  0.98549089953E+00  0.69207520773E+01  0.19108601370E+01  0.74617100648E+01  0.17770000000E+01 0. -1.
</event>
<event>
 6    1  0.1059789E-002  0.1839085E+03  0.7546771E-02  0.1067339E+00
        -11   -1    0    0    0    0  0.00000000000E+00  0.00000000000E+00  0.18250000000E+03  0.18250000000E+03  0.00000000000E+00 0.  1.
         11   -1    0    0    0    0 -0.00000000000E+00 -0.00000000000E+00 -0.18250000000E+03  0.18250000000E+03  0.00000000000E+00 0. -1.
        -11    1    1    2    0    0 -0.11481219629E+01 -0.78777766803E+00  0.92007109079E+02  0.92017644497E+02  0.00000000000E+00 0.  1.
         11    1    1    2    0    0 -0.46336838597E+01  0.12601436583E+01 -0.18102779503E+03  0.18109147291E+03  0.00000000000E+00 0. -1.
        -15    1    1    2    0    0  0.69397135422E+01 -0.54559258269E+01  0.13815893791E+02  0.16491312892E+02  0.17770000000E+01 0. -1.
         15    1    1    2    0    0 -0.11579077195E+01  0.49835598367E+01  0.75204792157E+02  0.75399569702E+02  0.17770000000E+01 0.  1.
</event>
<event>
 6    1  0.1059789E-002  0.1879080E+03  0.7546771E-02  0.1064230E+00
        -11   -1    0    0    0    0  0.00000000000E+00  0.00000000000E+00  0.18250000000E+03  0.18250000000E+03  0.00000000000E+00 0. -1.
         11   -1    0    0    0    0 -0.00000000000E+00 -0.00000000000E+00 -0.18250000000E+03  0.18250000000E+03  0.00000000000E+00 0.  1.
        -11    1    1    2    0    0  0.42371930265E+01  0.46648752625E+01  0.16773467100E+03  0.16785301523E+03  0.00000000000E+00 0. -1.
         11    1    1    2    0    0  0.19065455880E+01  0.47518478437E+01 -0.17701801320E+03  0.17709204379E+03  0.00000000000E+00 0.  1.
        -15    1    1    2    0    0 -0.18218195576E+01  0.20574947841E+01 -0.15279613743E+01  0.36117455958E+01  0.17770000000E+01 0. -1.
         15    1    1    2    0    0 -0.43219190568E+01 -0.11474217890E+02  0.10811303573E+02  0.16443195385E+02  0.17770000000E+01 0.  1.
</event>
<event>
 6    1  0.1059789E-002  0.1827950E+03  0.7546771E-02  0.1068220E+00
        -11   -1    0    0    0    0  0.00000000000E+00  0.00000000000E+00  0.18250000000E+03  0.18250000000E+03  0.00000000000E+00 0.  1.
         11   -1    0    0    0    0 -0.00000000000E+00 -0.00000000000E+00 -0.18250000000E+03  0.18250000000E+03  0.00000000000E+00 0.  1.
        -11    1    1    2    0    0 -0.14389034229E+01  0.26068385783E+01  0.18218064588E+03  0.18220497738E+03  0.00000000000E+00 0.  1.
         11    1    1    2    0    0  0.33638895286E+01 -0.35988555557E+01 -0.95533739397E+02  0.95660665256E+02  0.00000000000E+00 0.  1.
        -15    1    1    2    0    0  0.12026613437E+01  0.39666170327E+01 -0.39295534465E+02  0.39553472703E+02  0.17770000000E+01 0. -1.
         15    1    1    2    0    0 -0.31276474495E+01 -0.29746000554E+01 -0.47351372016E+02  0.47580884658E+02  0.17770000000E+01 0.  1.
</event>
<event>
 6    1  0.1059789E-002  0.1829602E+03  0.7546771E-02  0.1068089E+00
        -11   -1    0    0    0    0  0.00000000000E+00  0.00000000000E+00  0.18250000000E+03  0.18250000000E+03  0.00000000000E+00 0. -1.
         11   -1    0    0    0    0 -0.00000000000E+00 -0.00000000000E+00 -0.18250000000E+03  0.18250000000E+03  0.00000000000E+00 0. -1.
        -11    1    1    2    0    0  0.50756680046E-01 -0.24649098549E+01  0.19157894971E+02  0.19315881977E+02  0.00000000000E+00 0. -1.
         11    1    1    2    0    0 -0.23237989949E+01 -0.51635942115E+01 -0.18195168637E+03  0.18203977291E+03  0.00000000000E+00 0. -1.
        -15    1    1    2    0    0  0.57225604286E+01 -0.92094916757E+00  0.96343406372E+02  0.96533960478E+02  0.17770000000E+01 0. -1.
         15    1    1    2    0    0 -0.34495181137E+01  0.85494532340E+01  0.66450385033E+02  0.67110384634E+02  0.17770000000E+01 0.  1.
</event>
<event>
 6    1  0.1059789E-002  0.1922130E+03  0.7546771E-02  0.1060976E+00
        -11   -1    0    0    0    0  0.00000000000E+00  0.00000000000E+00  0.18250000000E+03  0.18250000000E+03  0.00000000000E+00 0.  1.
         11   -1    0    0    0    0 -0.00000000000E+00 -0.00000000000E+00 -0.18250000000E+03  0.18250000000E+03  0.00000000000E+00 0. -1.
        -11    1    1    2    0    0  0.15628197520E+01 -0.18048789160E+01  0.17277046438E+03  0.17278695944E+03  0.00000000000E+00 0.  1.
         11    1    1    2    0    0 -0.14190484876E+01 -0.14232943268E+01 -0.80359104744E+02  0.80384234652E+02  0.00000000000E+00 0. -1.
        -15    1    1    2    0    0 -0.47178131884E+01  0.13107251438E+02 -0.98318247618E+02  0.99316128324E+02  0.17770000000E+01 0. -1.
         15    1    1    2    0    0  0.45740419240E+01 -0.98790781952E+01  0.59068879877E+01  0.12512677580E+02  0.17770000000E+01 0.  1.
</event>
<event>
 6    1  0.1059789E-002  0.1920874E+03  0.7546771E-02  0.1061069E+00
        -11   -1    0    0    0    0  0.00000000000E+00  0.00000000000E+00  0.18250000000E+03  0.18250000000E+03  0.00000000000E+00 0.  1.
         11   -1    0    0    0    0 -0.00000000000E+00 -0.00000000000E+00 -0.18250000000E+03  0.18250000000E+03  0.00000000000E+00 0. -1.
        -11    1    1    2    0    0  0.42361762208E+01 -0.56531067973E+01  0.13744296580E+03  0.13762438611E+03  0.00000000000E+00 0.  1.
         11    1    1    2    0    0 -0.19306302378E+02 -0.22086612656E+02 -0.17040607691E+03  0.17291264505E+03  0.00000000000E+00 0. -1.
        -15    1    1    2    0    0  0.15002361346E+02  0.16900748704E+01  0.20525330082E+02  0.25541615121E+02  0.17770000000E+01 0.  1.
         15    1    1    2    0    0  0.67764811174E-01  0.26049644583E+02  0.12437781032E+02  0.28921353720E+02  0.17770000000E+01 0. -1.
</event>
<event>
 6    1  0.1059789E-002  0.1833522E+03  0.7546771E-02  0.1067778E+00
        -11   -1    0    0    0    0  0.00000000000E+00  0.00000000000E+00  0.18250000000E+03  0.18250000000E+03  0.00000000000E+00 0.  1.
         11   -1    0    0    0    0 -0.00000000000E+00 -0.00000000000E+00 -0.18250000000E+03  0.18250000000E+03  0.00000000000E+00 0. -1.
        -11    1    1    2    0    0 -0.23430537687E+01 -0.11020195677E+01  0.15748385032E+03  0.15750513471E+03  0.00000000000E+00 0.  1.
         11    1    1    2    0    0  0.20081430374E+00 -0.37983416203E+01 -0.18160794408E+03  0.18164777201E+03  0.00000000000E+00 0. -1.
        -15    1    1    2    0    0  0.28426225199E+00 -0.11028550852E+01  0.10851531542E+02  0.11054888519E+02  0.17770000000E+01 0. -1.
         15    1    1    2    0    0  0.18579772130E+01  0.60032162732E+01  0.13272562211E+02  0.14792204757E+02  0.17770000000E+01 0. -1.
</event>
<event>
 6    1  0.1059789E-002  0.1846448E+03  0.7546771E-02  0.1066760E+00
        -11   -1    0    0    0    0  0.00000000000E+00  0.00000000000E+00  0.18250000000E+03  0.18250000000E+03  0.00000000000E+00 0. -1.
         11   -1    0    0    0    0 -0.00000000000E+00 -0.00000000000E+00 -0.18250000000E+03  0.18250000000E+03  0.00000000000E+00 0.  1.
        -11    1    1    2    0    0 -0.23479163724E+01 -0.67974371207E+00  0.18033867418E+03  0.18035523882E+03  0.00000000000E+00 0. -1.
         11    1    1    2    0    0 -0.22023537533E+01  0.56886113319E+00 -0.72532537509E+02  0.72568195255E+02  0.00000000000E+00 0.  1.
        -15    1    1    2    0    0  0.15587313951E+02  0.73302764450E+01 -0.62907462416E+02  0.65247251786E+02  0.17770000000E+01 0.  1.
         15    1    1    2    0    0 -0.11037043826E+02 -0.72193938661E+01 -0.44898674256E+02  0.46829314144E+02  0.17770000000E+01 0. -1.
</event>
<event>
 6    1  0.1059789E-002  0.1780530E+03  0.7546771E-02  0.1072051E+00
        -11   -1    0    0    0    0  0.00000000000E+00  0.00000000000E+00  0.18250000000E+03  0.18250000000E+03  0.00000000000E+00 0.  1.
         11   -1    0    0    0    0 -0.00000000000E+00 -0.00000000000E+00 -0.18250000000E+03  0.18250000000E+03  0.00000000000E+00 0. -1.
        -11    1    1    2    0    0  0.43172083715E+00 -0.29684707496E+01  0.17903008113E+03  0.17905520978E+03  0.00000000000E+00 0.  1.
         11    1    1    2    0    0  0.16330501419E+01 -0.21887688207E+01 -0.17707840377E+03  0.17709945975E+03  0.00000000000E+00 0. -1.
        -15    1    1    2    0    0  0.14350656718E+01  0.22130167814E+00 -0.82824981517E+00  0.24396956104E+01  0.17770000000E+01 0.  1.
         15    1    1    2    0    0 -0.34998366509E+01  0.49359378922E+01 -0.11234275380E+01  0.64056348546E+01  0.17770000000E+01 0. -1.
</event>
<event>
 6    1  0.1059789E-002  0.1859136E+03  0.7546771E-02  0.1065770E+00
        -11   -1    0    0    0    0  0.00000000000E+00  0.00000000000E+00  0.18250000000E+03  0.18250000000E+03  0.00000000000E+00 0.  1.
         11   -1    0    0    0    0 -0.00000000000E+00 -0.00000000000E+00 -0.18250000000E+03  0.18250000000E+03  0.00000000000E+00 0. -1.
        -11    1    1    2    0    0 -0.13137995140E+01  0.31231791861E+01  0.17517547754E+03  0.17520824252E+03  0.00000000000E+00 0.  1.
         11    1    1    2    0    0 -0.16108478965E+01 -0.27879177030E+01 -0.17905747046E+03  0.17908641781E+03  0.00000000000E+00 0. -1.
        -15    1    1    2    0    0  0.33373067636E+01  0.38047145155E+01  0.28126619334E+01  0.60565885720E+01  0.17770000000E+01 0.  1.
         15    1    1    2    0    0 -0.41265935310E+00 -0.41399759986E+01  0.10693309875E+01  0.46487510980E+01  0.17770000000E+01 0. -1.
</event>
<event>
 6    1  0.1059789E-002  0.1830990E+03  0.7546771E-02  0.1067979E+00
        -11   -1    0    0    0    0  0.00000000000E+00  0.00000000000E+00  0.18250000000E+03  0.18250000000E+03  0.00000000000E+00 0.  1.
         11   -1    0    0    0    0 -0.00000000000E+00 -0.00000000000E+00 -0.18250000000E+03  0.18250000000E+03  0.00000000000E+00 0. -1.
        -11    1    1    2    0    0 -0.23425108848E+00  0.24769541740E+01  0.16741837284E+03  0.16743685896E+03  0.00000000000E+00 0.  1.
         11    1    1    2    0    0 -0.27569461476E+01 -0.15969989515E+01 -0.18187314142E+03  0.18190104652E+03  0.00000000000E+00 0. -1.
        -15    1    1    2    0    0  0.18944821105E+01 -0.19537835185E+01  0.53544439562E+01  0.62637154776E+01  0.17770000000E+01 0. -1.
         15    1    1    2    0    0  0.10967151256E+01  0.10738282960E+01  0.91003246242E+01  0.93983790380E+01  0.17770000000E+01 0.  1.
</event>
<event>
 6    1  0.1059789E-002  0.1828069E+03  0.7546771E-02  0.1068211E+00
        -11   -1    0    0    0    0  0.00000000000E+00  0.00000000000E+00  0.18250000000E+03  0.18250000000E+03  0.00000000000E+00 0.  1.
         11   -1    0    0    0    0 -0.00000000000E+00 -0.00000000000E+00 -0.18250000000E+03  0.18250000000E+03  0.00000000000E+00 0.  1.
        -11    1    1    2    0    0  0.49815639373E+00 -0.24817727862E+01  0.18217556509E+03  0.18219314990E+03  0.00000000000E+00 0.  1.
         11    1    1    2    0    0  0.91694929615E+00  0.26927365848E+01 -0.89264386690E+02  0.89309699123E+02  0.00000000000E+00 0.  1.
        -15    1    1    2    0    0  0.68348112083E+00  0.31514573352E+01 -0.14311382375E+02  0.14777422788E+02  0.17770000000E+01 0.  1.
         15    1    1    2    0    0 -0.20985868107E+01 -0.33624211337E+01 -0.78599796022E+02  0.78719728189E+02  0.17770000000E+01 0.  1.
</event>
<event>
 6    1  0.1059789E-002  0.1833208E+03  0.7546771E-02  0.1067803E+00
        -11   -1    0    0    0    0  0.00000000000E+00  0.00000000000E+00  0.18250000000E+03  0.18250000000E+03  0.00000000000E+00 0.  1.
         11   -1    0    0    0    0 -0.00000000000E+00 -0.00000000000E+00 -0.18250000000E+03  0.18250000000E+03  0.00000000000E+00 0. -1.
        -11    1    1    2    0    0 -0.93464285855E+00  0.27281173566E+01  0.18165632981E+03  0.18167921824E+03  0.00000000000E+00 0.  1.
         11    1    1    2    0    0 -0.47794095945E-01  0.13164570966E+01 -0.26318767711E+02  0.26351714885E+02  0.00000000000E+00 0. -1.
        -15    1    1    2    0    0  0.89812215738E+01 -0.80252004186E+01 -0.61718230683E+02  0.62907582296E+02  0.17770000000E+01 0. -1.
         15    1    1    2    0    0 -0.79987846193E+01  0.39806259654E+01 -0.93619331411E+02  0.94061484580E+02  0.17770000000E+01 0.  1.
</event>
<event>
 6    1  0.1059789E-002  0.1825569E+03  0.7546771E-02  0.1068410E+00
        -11   -1    0    0    0    0  0.00000000000E+00  0.00000000000E+00  0.18250000000E+03  0.18250000000E+03  0.00000000000E+00 0.  1.
         11   -1    0    0    0    0 -0.00000000000E+00 -0.00000000000E+00 -0.18250000000E+03  0.18250000000E+03  0.00000000000E+00 0.  1.
        -11    1    1    2    0    0  0.49778108758E+00 -0.42095859231E+00  0.13764875525E+02  0.13780304436E+02  0.00000000000E+00 0.  1.
         11    1    1    2    0    0 -0.25272265324E+01  0.77817416887E+00 -0.18242398347E+03  0.18244314778E+03  0.00000000000E+00 0.  1.
        -15    1    1    2    0    0  0.54866937754E+00  0.18672912178E+00  0.17640465762E+02  0.17739212698E+02  0.17770000000E+01 0. -1.
         15    1    1    2    0    0  0.14807760673E+01 -0.54394469834E+00  0.15101864218E+03  0.15103733508E+03  0.17770000000E+01 0.  1.
</event>
<event>
 6    1  0.1059789E-002  0.1833240E+03  0.7546771E-02  0.1067801E+00
        -11   -1    0    0    0    0  0.00000000000E+00  0.00000000000E+00  0.18250000000E+03  0.18250000000E+03  0.00000000000E+00 0. -1.
         11   -1    0    0    0    0 -0.00000000000E+00 -0.00000000000E+00 -0.18250000000E+03  0.18250000000E+03  0.00000000000E+00 0. -1.
        -11    1    1    2    0    0 -0.35331221573E+01 -0.19293743997E+01  0.18163136842E+03  0.18167597373E+03  0.00000000000E+00 0. -1.
         11    1    1    2    0    0 -0.11193992005E+01 -0.17733517059E+01 -0.13584851623E+03  0.13586470179E+03  0.00000000000E+00 0. -1.
        -15    1    1    2    0    0  0.23605437012E+01 -0.32757372327E+01 -0.10736338082E+02  0.11607295352E+02  0.17770000000E+01 0. -1.
         15    1    1    2    0    0  0.22919776566E+01  0.69784633383E+01 -0.35046514107E+02  0.35852029123E+02  0.17770000000E+01 0.  1.
</event>
<event>
 6    1  0.1059789E-002  0.1846021E+03  0.7546771E-02  0.1066794E+00
        -11   -1    0    0    0    0  0.00000000000E+00  0.00000000000E+00  0.18250000000E+03  0.18250000000E+03  0.00000000000E+00 0. -1.
         11   -1    0    0    0    0 -0.00000000000E+00 -0.00000000000E+00 -0.18250000000E+03  0.18250000000E+03  0.00000000000E+00 0.  1.
        -11    1    1    2    0    0 -0.30232306652E+01  0.54948003280E+01  0.18028888826E+03  0.18039793786E+03  0.00000000000E+00 0. -1.
         11    1    1    2    0    0  0.25659920524E+01 -0.14117269599E+01 -0.12472894898E+03  0.12476332796E+03  0.00000000000E+00 0.  1.
        -15    1    1    2    0    0  0.29342476452E+01 -0.27489171390E+01 -0.22272281027E+00  0.44015553082E+01  0.17770000000E+01 0.  1.
         15    1    1    2    0    0 -0.24770090324E+01 -0.13341562291E+01 -0.55337216464E+02  0.55437178875E+02  0.17770000000E+01 0. -1.
</event>
<event>
 6    1  0.1059789E-002  0.1903554E+03  0.7546771E-02  0.1062368E+00
        -11   -1    0    0    0    0  0.00000000000E+00  0.00000000000E+00  0.18250000000E+03  0.18250000000E+03  0.00000000000E+00 0.  1.
         11   -1    0    0    0    0 -0.00000000000E+00 -0.00000000000E+00 -0.18250000000E+03  0.18250000000E+03  0.00000000000E+00 0. -1.
        -11    1    1    2    0    0 -0.38196948344E+01 -0.10990400846E+01  0.17459940424E+03  0.17464463896E+03  0.00000000000E+00 0.  1.
         11    1    1    2    0    0 -0.59688455230E+01  0.17976235948E+01 -0.16302983808E+03  0.16314897080E+03  0.00000000000E+00 0. -1.
        -15    1    1    2    0    0  0.10648525541E+02  0.77688710834E+01 -0.12759017024E+02  0.18430862664E+02  0.17770000000E+01 0. -1.
         15    1    1    2    0    0 -0.85998518357E+00 -0.84674545936E+01  0.11894508682E+01  0.87755275727E+01  0.17770000000E+01 0.  1.
</event>
<event>
 6    1  0.1059789E-002  0.1829173E+03  0.7546771E-02  0.1068123E+00
        -11   -1    0    0    0    0  0.00000000000E+00  0.00000000000E+00  0.18250000000E+03  0.18250000000E+03  0.00000000000E+00 0.  1.
         11   -1    0    0    0    0 -0.00000000000E+00 -0.00000000000E+00 -0.18250000000E+03  0.18250000000E+03  0.00000000000E+00 0.  1.
        -11    1    1    2    0    0 -0.45889498534E+01  0.16225893785E+01  0.18201767070E+03  0.18208273862E+03  0.00000000000E+00 0.  1.
         11    1    1    2    0    0  0.38598910130E+01  0.16444472969E+01 -0.40811743334E+02  0.41026837064E+02  0.00000000000E+00 0.  1.
        -15    1    1    2    0    0 -0.30456900532E+01  0.40703544950E+01 -0.63263861175E+02  0.63492659996E+02  0.17770000000E+01 0.  1.
         15    1    1    2    0    0  0.37747488936E+01 -0.73373911705E+01 -0.77942066193E+02  0.78397764316E+02  0.17770000000E+01 0. -1.
</event>
<event>
 6    1  0.1059789E-002  0.1743333E+03  0.7546771E-02  0.1075148E+00
        -11   -1    0    0    0    0  0.00000000000E+00  0.00000000000E+00  0.18250000000E+03  0.18250000000E+03  0.00000000000E+00 0.  1.
         11   -1    0    0    0    0 -0.00000000000E+00 -0.00000000000E+00 -0.18250000000E+03  0.18250000000E+03  0.00000000000E+00 0. -1.
        -11    1    1    2    0    0 -0.43257246648E+01 -0.73779765924E+00  0.17638737373E+03  0.17644195037E+03  0.00000000000E+00 0.  1.
         11    1    1    2    0    0 -0.33154501423E+01 -0.33777276815E+01 -0.17229165056E+03  0.17235664799E+03  0.00000000000E+00 0. -1.
        -15    1    1    2    0    0  0.54008097473E+01  0.85691209405E+01 -0.35565464487E+01  0.10881421381E+02  0.17770000000E+01 0. -1.
         15    1    1    2    0    0  0.22403650599E+01 -0.44535955997E+01 -0.53917672136E+00  0.53199802541E+01  0.17770000000E+01 0.  1.
</event>
<event>
 6    1  0.1059789E-002  0.1758884E+03  0.7546771E-02  0.1073843E+00
        -11   -1    0    0    0    0  0.00000000000E+00  0.00000000000E+00  0.18250000000E+03  0.18250000000E+03  0.00000000000E+00 0. -1.
         11   -1    0    0    0    0 -0.00000000000E+00 -0.00000000000E+00 -0.18250000000E+03  0.18250000000E+03  0.00000000000E+00 0. -1.
        -11    1    1    2    0    0  0.15854011136E+01 -0.54303995288E+01  0.17520103681E+03  0.17529234448E+03  0.00000000000E+00 0. -1.
         11    1    1    2    0    0 -0.43612450719E+01 -0.96667982755E+00 -0.17649935344E+03  0.17655587414E+03  0.00000000000E+00 0. -1.
        -15    1    1    2    0    0  0.11286520047E+01  0.52302143070E+01 -0.42003879652E+01  0.70306461370E+01  0.17770000000E+01 0.  1.
         15    1    1    2    0    0  0.16471919536E+01  0.11668650493E+01  0.54987046002E+01  0.61211352423E+01  0.17770000000E+01 0. -1.
</event>
<event>
 6    1  0.1059789E-002  0.1830800E+03  0.7546771E-02  0.1067994E+00
        -11   -1    0    0    0    0  0.00000000000E+00  0.00000000000E+00  0.18250000000E+03  0.18250000000E+03  0.00000000000E+00 0.  1.
         11   -1    0    0    0    0 -0.00000000000E+00 -0.00000000000E+00 -0.18250000000E+03  0.18250000000E+03  0.00000000000E+00 0. -1.
        -11    1    1    2    0    0 -0.39147208945E+01  0.75039641299E+00  0.18187633396E+03  0.18192000711E+03  0.00000000000E+00 0.  1.
         11    1    1    2    0    0 -0.59618332310E+00  0.21679205985E+01 -0.14260113341E+03  0.14261885767E+03  0.00000000000E+00 0. -1.
        -15    1    1    2    0    0 -0.15174448118E+00 -0.20703735603E+01 -0.27614439739E+02  0.27749315021E+02  0.17770000000E+01 0.  1.
         15    1    1    2    0    0  0.46626486987E+01 -0.84794345111E+00 -0.11660760811E+02  0.12711820195E+02  0.17770000000E+01 0.  1.
</event>
<event>
 6    1  0.1059789E-002  0.1912143E+03  0.7546771E-02  0.1061722E+00
        -11   -1    0    0    0    0  0.00000000000E+00  0.00000000000E+00  0.18250000000E+03  0.18250000000E+03  0.00000000000E+00 0. -1.
         11   -1    0    0    0    0 -0.00000000000E+00 -0.00000000000E+00 -0.18250000000E+03  0.18250000000E+03  0.00000000000E+00 0.  1.
        -11    1    1    2    0    0 -0.18104841501E+01  0.51294452351E+01  0.56691437596E+02  0.56951805572E+02  0.00000000000E+00 0. -1.
         11    1    1    2    0    0 -0.18319146616E+02 -0.14977074239E+02 -0.17216725726E+03  0.17378569664E+03  0.00000000000E+00 0.  1.
        -15    1    1    2    0    0  0.21910752607E+02  0.15866666474E+02  0.10482492893E+02  0.29066691781E+02  0.17770000000E+01 0. -1.
         15    1    1    2    0    0 -0.17811218412E+01 -0.60190374710E+01  0.10499332677E+03  0.10519580601E+03  0.17770000000E+01 0.  1.
</event>
<event>
 6    1  0.1059789E-002  0.1854505E+03  0.7546771E-02  0.1066130E+00
        -11   -1    0    0    0    0  0.00000000000E+00  0.00000000000E+00  0.18250000000E+03  0.18250000000E+03  0.00000000000E+00 0.  1.
         11   -1    0    0    0    0 -0.00000000000E+00 -0.00000000000E+00 -0.18250000000E+03  0.18250000000E+03  0.00000000000E+00 0. -1.
        -11    1    1    2    0    0 -0.82471439199E+01 -0.38996446385E+00  0.72072873969E+02  0.72544239036E+02  0.00000000000E+00 0.  1.
         11    1    1    2    0    0  0.29392184461E+01  0.49146692801E+01 -0.17945819500E+03  0.17954953838E+03  0.00000000000E+00 0. -1.
        -15    1    1    2    0    0 -0.23728809211E+01 -0.25297136234E+01 -0.11526466452E+01  0.40640297946E+01  0.17770000000E+01 0. -1.
         15    1    1    2    0    0  0.76808063949E+01 -0.19949911928E+01  0.10853796767E+03  0.10884219279E+03  0.17770000000E+01 0.  1.
</event>
<event>
 6    1  0.1059789E-002  0.1839713E+03  0.7546771E-02  0.1067290E+00
        -11   -1    0    0    0    0  0.00000000000E+00  0.00000000000E+00  0.18250000000E+03  0.18250000000E+03  0.00000000000E+00 0. -1.
         11   -1    0    0    0    0 -0.00000000000E+00 -0.00000000000E+00 -0.18250000000E+03  0.18250000000E+03  0.00000000000E+00 0.  1.
        -11    1    1    2    0    0  0.13387044985E+02  0.18691905549E+01  0.55627463909E+02  0.57246149108E+02  0.00000000000E+00 0. -1.
         11    1    1    2    0    0  0.60538008217E+00  0.10087907452E+02 -0.18074643562E+03  0.18102874454E+03  0.00000000000E+00 0.  1.
        -15    1    1    2    0    0 -0.67596209240E+01 -0.79138037914E+01  0.89059008661E+02  0.89682693527E+02  0.17770000000E+01 0. -1.
         15    1    1    2    0    0 -0.72328041434E+01 -0.40432942155E+01  0.36059963047E+02  0.37042412824E+02  0.17770000000E+01 0.  1.
</event>
<event>
 6    1  0.1059789E-002  0.1838057E+03  0.7546771E-02  0.1067420E+00
        -11   -1    0    0    0    0  0.00000000000E+00  0.00000000000E+00  0.18250000000E+03  0.18250000000E+03  0.00000000000E+00 0. -1.
         11   -1    0    0    0    0 -0.00000000000E+00 -0.00000000000E+00 -0.18250000000E+03  0.18250000000E+03  0.00000000000E+00 0.  1.
        -11    1    1    2    0    0 -0.61232922559E+01  0.86243825994E+00  0.14091858623E+03  0.14105419687E+03  0.00000000000E+00 0. -1.
         11    1    1    2    0    0 -0.25603511512E+00  0.39111708529E+01 -0.18115193063E+03  0.18119432878E+03  0.00000000000E+00 0.  1.
        -15    1    1    2    0    0  0.48374087162E+00 -0.28518936924E+01  0.19225609586E+01  0.39014449251E+01  0.17770000000E+01 0.  1.
         15    1    1    2    0    0  0.58955864994E+01 -0.19217154204E+01  0.38310783434E+02  0.38850029429E+02  0.17770000000E+01 0. -1.
</event>
<event>
 6    1  0.1059789E-002  0.1876928E+03  0.7546771E-02  0.1064395E+00
        -11   -1    0    0    0    0  0.00000000000E+00  0.00000000000E+00  0.18250000000E+03  0.18250000000E+03  0.00000000000E+00 0. -1.
         11   -1    0    0    0    0 -0.00000000000E+00 -0.00000000000E+00 -0.18250000000E+03  0.18250000000E+03  0.00000000000E+00 0. -1.
        -11    1    1    2    0    0  0.41218058926E+01  0.39746777577E+01  0.74368038380E+02  0.74588152408E+02  0.00000000000E+00 0. -1.
         11    1    1    2    0    0 -0.21146962793E+01  0.97794470162E+01 -0.17702469378E+03  0.17730722414E+03  0.00000000000E+00 0. -1.
        -15    1    1    2    0    0 -0.16949616915E+02 -0.22926469221E+02  0.50101622852E+02  0.57673588808E+02  0.17770000000E+01 0. -1.
         15    1    1    2    0    0  0.14942507302E+02  0.91723444474E+01  0.52555032546E+02  0.55431034647E+02  0.17770000000E+01 0.  1.
</event>
<event>
 6    1  0.1059789E-002  0.1826327E+03  0.7546771E-02  0.1068349E+00
        -11   -1    0    0    0    0  0.00000000000E+00  0.00000000000E+00  0.18250000000E+03  0.18250000000E+03  0.00000000000E+00 0.  1.
         11   -1    0    0    0    0 -0.00000000000E+00 -0.00000000000E+00 -0.18250000000E+03  0.18250000000E+03  0.00000000000E+00 0. -1.
        -11    1    1    2    0    0  0.41773999841E+00 -0.18614678549E+01  0.87097851378E+02  0.87118742437E+02  0.00000000000E+00 0.  1.
         11    1    1    2    0    0  0.28382469006E+01  0.41466333092E+01 -0.18229802351E+03  0.18236726567E+03  0.00000000000E+00 0. -1.
        -15    1    1    2    0    0 -0.10912776072E+01  0.15183123929E+01  0.50291170360E+02  0.50357280552E+02  0.17770000000E+01 0.  1.
         15    1    1    2    0    0 -0.21647092919E+01 -0.38034778472E+01  0.44909001770E+02  0.45156711340E+02  0.17770000000E+01 0. -1.
</event>
<event>
 6    1  0.1059789E-002  0.1844949E+03  0.7546771E-02  0.1066878E+00
        -11   -1    0    0    0    0  0.00000000000E+00  0.00000000000E+00  0.18250000000E+03  0.18250000000E+03  0.00000000000E+00 0.  1.
         11   -1    0    0    0    0 -0.00000000000E+00 -0.00000000000E+00 -0.18250000000E+03  0.18250000000E+03  0.00000000000E+00 0.  1.
        -11    1    1    2    0    0 -0.27002176789E+01 -0.85916872412E+01  0.70104015136E+02  0.70680133018E+02  0.00000000000E+00 0.  1.
         11    1    1    2    0    0  0.62662811904E+00 -0.24398290325E+01 -0.18048754598E+03  0.18050512370E+03  0.00000000000E+00 0.  1.
        -15    1    1    2    0    0  0.13538308966E+01  0.10376069469E+02  0.11114468014E+03  0.11165031719E+03  0.17770000000E+01 0.  1.
         15    1    1    2    0    0  0.71975866322E+00  0.65544680478E+00 -0.76114929577E+00  0.21644260897E+01  0.17770000000E+01 0. -1.
</event>
<event>
 6    1  0.1059789E-002  0.1901861E+03  0.7546771E-02  0.1062496E+00
        -11   -1    0    0    0    0  0.00000000000E+00  0.00000000000E+00  0.18250000000E+03  0.18250000000E+03  0.00000000000E+00 0.  1.
         11   -1    0    0    0    0 -0.00000000000E+00 -0.00000000000E+00 -0.18250000000E+03  0.18250000000E+03  0.00000000000E+00 0. -1.
        -11    1    1    2    0    0  0.20716374431E+01 -0.10083477819E+01  0.16863145756E+03  0.16864719661E+03  0.00000000000E+00 0.  1.
         11    1    1    2    0    0 -0.26524534204E+01 -0.57932254513E+01 -0.17469778993E+03  0.17481394331E+03  0.00000000000E+00 0. -1.
        -15    1    1    2    0    0  0.11531699595E+01 -0.56443692712E+01 -0.22712451789E+01  0.64424365801E+01  0.17770000000E+01 0. -1.
         15    1    1    2    0    0 -0.57235398225E+00  0.12445942504E+02  0.83375775532E+01  0.15096423496E+02  0.17770000000E+01 0.  1.
</event>
<event>
 6    1  0.1059789E-002  0.1871032E+03  0.7546771E-02  0.1064849E+00
        -11   -1    0    0    0    0  0.00000000000E+00  0.00000000000E+00  0.18250000000E+03  0.18250000000E+03  0.00000000000E+00 0.  1.
         11   -1    0    0    0    0 -0.00000000000E+00 -0.00000000000E+00 -0.18250000000E+03  0.18250000000E+03  0.00000000000E+00 0.  1.
        -11    1    1    2    0    0  0.18158982215E+01  0.71690384270E+01  0.15528202300E+03  0.15545803056E+03  0.00000000000E+00 0.  1.
         11    1    1    2    0    0 -0.63380062686E+00  0.54507498369E+01 -0.17781216061E+03  0.17789681515E+03  0.00000000000E+00 0.  1.
        -15    1    1    2    0    0  0.14830822613E+01 -0.58045014078E+00 -0.26412056657E+01  0.35595156593E+01  0.17770000000E+01 0.  1.
         15    1    1    2    0    0 -0.26651798559E+01 -0.12039338123E+02  0.25171343278E+02  0.28085638635E+02  0.17770000000E+01 0.  1.
</event>
<event>
 6    1  0.1059789E-002  0.1849588E+03  0.7546771E-02  0.1066514E+00
        -11   -1    0    0    0    0  0.00000000000E+00  0.00000000000E+00  0.18250000000E+03  0.18250000000E+03  0.00000000000E+00 0.  1.
         11   -1    0    0    0    0 -0.00000000000E+00 -0.00000000000E+00 -0.18250000000E+03  0.18250000000E+03  0.00000000000E+00 0. -1.
        -11    1    1    2    0    0  0.53478049648E+01  0.17455862374E+01  0.17995334072E+03  0.18004124784E+03  0.00000000000E+00 0.  1.
         11    1    1    2    0    0  0.24274366591E+01 -0.14502114997E+01 -0.16813421872E+03  0.16815799435E+03  0.00000000000E+00 0. -1.
        -15    1    1    2    0    0 -0.11263915148E+01 -0.36871759600E+01 -0.47112624872E+01  0.63417464178E+01  0.17770000000E+01 0.  1.
         15    1    1    2    0    0 -0.66488501091E+01  0.33918012223E+01 -0.71078595144E+01  0.10459011386E+02  0.17770000000E+01 0. -1.
</event>
<event>
 6    1  0.1059789E-002  0.1317385E+03  0.7546771E-02  0.1118047E+00
        -11   -1    0    0    0    0  0.00000000000E+00  0.00000000000E+00  0.18250000000E+03  0.18250000000E+03  0.00000000000E+00 0.  1.
         11   -1    0    0    0    0 -0.00000000000E+00 -0.00000000000E+00 -0.18250000000E+03  0.18250000000E+03  0.00000000000E+00 0.  1.
        -11    1    1    2    0    0  0.36664956294E+00  0.22854645058E+01  0.61099343524E+02  0.61143172628E+02  0.00000000000E+00 0.  1.
         11    1    1    2    0    0  0.88347832336E+01  0.17267469364E+02 -0.14685347094E+03  0.14812886558E+03  0.00000000000E+00 0.  1.
        -15    1    1    2    0    0 -0.97838863595E+01 -0.18438099469E+02 -0.31840153958E+02  0.38113528797E+02  0.17770000000E+01 0.  1.
         15    1    1    2    0    0  0.58245356301E+00 -0.11148344003E+01  0.11759428137E+03  0.11761443299E+03  0.17770000000E+01 0.  1.
</event>
<event>
 6    1  0.1059789E-002  0.1829434E+03  0.7546771E-02  0.1068102E+00
        -11   -1    0    0    0    0  0.00000000000E+00  0.00000000000E+00  0.18250000000E+03  0.18250000000E+03  0.00000000000E+00 0. -1.
         11   -1    0    0    0    0 -0.00000000000E+00 -0.00000000000E+00 -0.18250000000E+03  0.18250000000E+03  0.00000000000E+00 0.  1.
        -11    1    1    2    0    0 -0.53072776773E+01  0.81796916551E+00  0.18197736949E+03  0.18205658262E+03  0.00000000000E+00 0. -1.
         11    1    1    2    0    0 -0.42170610389E+00  0.67922275009E+00 -0.57131909560E+02  0.57137503180E+02  0.00000000000E+00 0.  1.
        -15    1    1    2    0    0  0.21560136069E+01 -0.11949463566E+01 -0.11661018115E+03  0.11664976798E+03  0.17770000000E+01 0.  1.
         15    1    1    2    0    0  0.35729701744E+01 -0.30224555903E+00 -0.82352787724E+01  0.91561462256E+01  0.17770000000E+01 0. -1.
</event>
<event>
 6    1  0.1059789E-002  0.1839958E+03  0.7546771E-02  0.1067270E+00
        -11   -1    0    0    0    0  0.00000000000E+00  0.00000000000E+00  0.18250000000E+03  0.18250000000E+03  0.00000000000E+00 0.  1.
         11   -1    0    0    0    0 -0.00000000000E+00 -0.00000000000E+00 -0.18250000000E+03  0.18250000000E+03  0.00000000000E+00 0.  1.
        -11    1    1    2    0    0 -0.13943464486E+01 -0.30235481855E+01  0.18097357118E+03  0.18100419749E+03  0.00000000000E+00 0.  1.
         11    1    1    2    0    0 -0.28491183364E+01 -0.15945663894E+01 -0.12871193154E+03  0.12875333563E+03  0.00000000000E+00 0.  1.
        -15    1    1    2    0    0 -0.33560113699E+01  0.36188842781E+01 -0.47277037143E+01  0.70617311718E+01  0.17770000000E+01 0. -1.
         15    1    1    2    0    0  0.75994761549E+01  0.99923029678E+00 -0.47533935927E+02  0.48180735702E+02  0.17770000000E+01 0.  1.
</event>
<event>
 6    1  0.1059789E-002  0.1830741E+03  0.7546771E-02  0.1067999E+00
        -11   -1    0    0    0    0  0.00000000000E+00  0.00000000000E+00  0.18250000000E+03  0.18250000000E+03  0.00000000000E+00 0.  1.
         11   -1    0    0    0    0 -0.00000000000E+00 -0.00000000000E+00 -0.18250000000E+03  0.18250000000E+03  0.00000000000E+00 0.  1.
        -11    1    1    2    0    0 -0.55433738915E+00  0.47131922781E+01  0.18186399032E+03  0.18192589823E+03  0.00000000000E+00 0.  1.
         11    1    1    2    0    0 -0.11544304380E+01  0.67236333795E-01 -0.16326872970E+02  0.16367773561E+02  0.00000000000E+00 0.  1.
        -15    1    1    2    0    0 -0.81183815506E+00 -0.18344860180E+01 -0.26686958404E+01  0.37820743817E+01  0.17770000000E+01 0.  1.
         15    1    1    2    0    0  0.25206059822E+01 -0.29459425939E+01 -0.16286842151E+03  0.16292425383E+03  0.17770000000E+01 0.  1.
</event>
<event>
 6    1  0.1059789E-002  0.1589888E+03  0.7546771E-02  0.1088881E+00
        -11   -1    0    0    0    0  0.00000000000E+00  0.00000000000E+00  0.18250000000E+03  0.18250000000E+03  0.00000000000E+00 0.  1.
         11   -1    0    0    0    0 -0.00000000000E+00 -0.00000000000E+00 -0.18250000000E+03  0.18250000000E+03  0.00000000000E+00 0. -1.
        -11    1    1    2    0    0  0.78105876717E+00 -0.62189394200E+01  0.15640408776E+03  0.15652962636E+03  0.00000000000E+00 0.  1.
         11    1    1    2    0    0  0.69450160015E+01 -0.22841493373E+00 -0.16149845750E+03  0.16164788027E+03  0.00000000000E+00 0. -1.
        -15    1    1    2    0    0 -0.99793541136E+01  0.19420477860E+01 -0.19280589290E+02  0.21869108589E+02  0.17770000000E+01 0. -1.
         15    1    1    2    0    0  0.22532793450E+01  0.45053065677E+01  0.24374959031E+02  0.24953384777E+02  0.17770000000E+01 0.  1.
</event>
<event>
 6    1  0.1059789E-002  0.1866049E+03  0.7546771E-02  0.1065233E+00
        -11   -1    0    0    0    0  0.00000000000E+00  0.00000000000E+00  0.18250000000E+03  0.18250000000E+03  0.00000000000E+00 0. -1.
         11   -1    0    0    0    0 -0.00000000000E+00 -0.00000000000E+00 -0.18250000000E+03  0.18250000000E+03  0.00000000000E+00 0. -1.
        -11    1    1    2    0    0  0.61449193804E+00  0.48011377906E+01  0.17086458825E+03  0.17093313325E+03  0.00000000000E+00 0. -1.
         11    1    1    2    0    0 -0.63669360014E+01  0.21893351850E+01 -0.17826800625E+03  0.17839510395E+03  0.00000000000E+00 0. -1.
        -15    1    1    2    0    0  0.51515953751E+01 -0.19290988196E+01 -0.81625753655E+00  0.58381814403E+01  0.17770000000E+01 0. -1.
         15    1    1    2    0    0  0.60084868831E+00 -0.50613741560E+01  0.82196755371E+01  0.98335813633E+01  0.17770000000E+01 0.  1.
</event>
<event>
 6    1  0.1059789E-002  0.1855509E+03  0.7546771E-02  0.1066052E+00
        -11   -1    0    0    0    0  0.00000000000E+00  0.00000000000E+00  0.18250000000E+03  0.18250000000E+03  0.00000000000E+00 0. -1.
         11   -1    0    0    0    0 -0.00000000000E+00 -0.00000000000E+00 -0.18250000000E+03  0.18250000000E+03  0.00000000000E+00 0. -1.
        -11    1    1    2    0    0 -0.53552115142E+01  0.39176199314E+01  0.15082846851E+03  0.15097434534E+03  0.00000000000E+00 0. -1.
         11    1    1    2    0    0 -0.39448657126E+01  0.44921249357E+01 -0.17934952690E+03  0.17944914029E+03  0.00000000000E+00 0. -1.
        -15    1    1    2    0    0 -0.77983692497E+00 -0.13257292887E+01 -0.98804937165E+00  0.25494458883E+01  0.17770000000E+01 0.  1.
         15    1    1    2    0    0  0.10079914152E+02 -0.70840155784E+01  0.29509107755E+02  0.32027068482E+02  0.17770000000E+01 0.  1.
</event>
<event>
 6    1  0.1059789E-002  0.1845104E+03  0.7546771E-02  0.1066866E+00
        -11   -1    0    0    0    0  0.00000000000E+00  0.00000000000E+00  0.18250000000E+03  0.18250000000E+03  0.00000000000E+00 0.  1.
         11   -1    0    0    0    0 -0.00000000000E+00 -0.00000000000E+00 -0.18250000000E+03  0.18250000000E+03  0.00000000000E+00 0. -1.
        -11    1    1    2    0    0 -0.80579737070E+00 -0.41369584679E+01  0.18044036573E+03  0.18048958230E+03  0.00000000000E+00 0.  1.
         11    1    1    2    0    0  0.36018494884E+01  0.23405348454E+01 -0.17324513782E+03  0.17329838199E+03  0.00000000000E+00 0. -1.
        -15    1    1    2    0    0 -0.29595666841E+01  0.42570992060E+01 -0.53332891601E+01  0.76474591122E+01  0.17770000000E+01 0.  1.
         15    1    1    2    0    0  0.16351456638E+00 -0.24606755835E+01 -0.18619387513E+01  0.35645765884E+01  0.17770000000E+01 0. -1.
</event>
<event>
 6    1  0.1059789E-002  0.1829846E+03  0.7546771E-02  0.1068070E+00
        -11   -1    0    0    0    0  0.00000000000E+00  0.00000000000E+00  0.18250000000E+03  0.18250000000E+03  0.00000000000E+00 0. -1.
         11   -1    0    0    0    0 -0.00000000000E+00 -0.00000000000E+00 -0.18250000000E+03  0.18250000000E+03  0.00000000000E+00 0. -1.
        -11    1    1    2    0    0  0.39445557786E+01  0.83610337065E+01  0.18178048838E+03  0.18201541792E+03  0.00000000000E+00 0. -1.
         11    1    1    2    0    0  0.72714043901E+00  0.11932978975E+01 -0.66132766946E+02  0.66147528729E+02  0.00000000000E+00 0. -1.
        -15    1    1    2    0    0  0.24653495645E+01 -0.60581526781E+01 -0.27866366535E+02  0.28678760001E+02  0.17770000000E+01 0. -1.
         15    1    1    2    0    0 -0.71370457821E+01 -0.34961789259E+01 -0.87781354898E+02  0.88158293350E+02  0.17770000000E+01 0.  1.
</event>
<event>
 6    1  0.1059789E-002  0.1922552E+03  0.7546771E-02  0.1060944E+00
        -11   -1    0    0    0    0  0.00000000000E+00  0.00000000000E+00  0.18250000000E+03  0.18250000000E+03  0.00000000000E+00 0. -1.
         11   -1    0    0    0    0 -0.00000000000E+00 -0.00000000000E+00 -0.18250000000E+03  0.18250000000E+03  0.00000000000E+00 0. -1.
        -11    1    1    2    0    0  0.19412409134E+01 -0.45783046256E+01  0.17267324425E+03  0.17274483659E+03  0.00000000000E+00 0. -1.
         11    1    1    2    0    0  0.28786901579E+01 -0.80073482223E+00 -0.14239539806E+03  0.14242674405E+03  0.00000000000E+00 0. -1.
        -15    1    1    2    0    0 -0.10238829351E+02  0.10610766764E+02 -0.36814990863E+02  0.39697900184E+02  0.17770000000E+01 0. -1.
         15    1    1    2    0    0  0.54188982795E+01 -0.52317273159E+01  0.65371446671E+01  0.10130519171E+02  0.17770000000E+01 0.  1.
</event>
<event>
 6    1  0.1059789E-002  0.1776776E+03  0.7546771E-02  0.1072360E+00
        -11   -1    0    0    0    0  0.00000000000E+00  0.00000000000E+00  0.18250000000E+03  0.18250000000E+03  0.00000000000E+00 0. -1.
         11   -1    0    0    0    0 -0.00000000000E+00 -0.00000000000E+00 -0.18250000000E+03  0.18250000000E+03  0.00000000000E+00 0. -1.
        -11    1    1    2    0    0 -0.19839221613E+01  0.15274343837E+01 -0.22485560931E+00  0.25138740986E+01  0.00000000000E+00 0. -1.
         11    1    1    2    0    0 -0.22750846164E+01  0.62408263373E+00 -0.17432623546E+03  0.17434219758E+03  0.00000000000E+00 0. -1.
        -15    1    1    2    0    0  0.21404010984E+01 -0.45162957428E+00 -0.64890675146E+01  0.70746740097E+01  0.17770000000E+01 0. -1.
         15    1    1    2    0    0  0.21186056792E+01 -0.16998874431E+01  0.18104015858E+03  0.18106925431E+03  0.17770000000E+01 0. -1.
</event>
<event>
 6    1  0.1059789E-002  0.1840922E+03  0.7546771E-02  0.1067194E+00
        -11   -1    0    0    0    0  0.00000000000E+00  0.00000000000E+00  0.18250000000E+03  0.18250000000E+03  0.00000000000E+00 0.  1.
         11   -1    0    0    0    0 -0.00000000000E+00 -0.00000000000E+00 -0.18250000000E+03  0.18250000000E+03  0.00000000000E+00 0. -1.
        -11    1    1    2    0    0 -0.13433605241E+02  0.14458515544E+02  0.17982804013E+03  0.18090780646E+03  0.00000000000E+00 0.  1.
         11    1    1    2    0    0 -0.52146599685E+01 -0.40363240404E+01 -0.78887075048E+02  0.79162208155E+02  0.00000000000E+00 0. -1.
        -15    1    1    2    0    0  0.17002071882E+02 -0.27233280062E+01 -0.87940214690E+02  0.89627708062E+02  0.17770000000E+01 0.  1.
         15    1    1    2    0    0  0.16461933268E+01 -0.76988634975E+01 -0.13000750389E+02  0.15302277324E+02  0.17770000000E+01 0. -1.
</event>
<event>
 6    1  0.1059789E-002  0.1848096E+03  0.7546771E-02  0.1066631E+00
        -11   -1    0    0    0    0  0.00000000000E+00  0.00000000000E+00  0.18250000000E+03  0.18250000000E+03  0.00000000000E+00 0. -1.
         11   -1    0    0    0    0 -0.00000000000E+00 -0.00000000000E+00 -0.18250000000E+03  0.18250000000E+03  0.00000000000E+00 0. -1.
        -11    1    1    2    0    0  0.47703425462E+01  0.23703904356E+01  0.18011167832E+03  0.18019043145E+03  0.00000000000E+00 0. -1.
         11    1    1    2    0    0  0.42225239627E+01 -0.90496171242E+00 -0.14983146340E+03  0.14989368262E+03  0.00000000000E+00 0. -1.
        -15    1    1    2    0    0 -0.44436380557E+00  0.80302484962E+00  0.10876278639E+01  0.22766140365E+01  0.17770000000E+01 0.  1.
         15    1    1    2    0    0 -0.85485027033E+01 -0.22684535728E+01 -0.31367842782E+02  0.32639271896E+02  0.17770000000E+01 0. -1.
</event>
<event>
 6    1  0.1059789E-002  0.2028144E+03  0.7546771E-02  0.1053344E+00
        -11   -1    0    0    0    0  0.00000000000E+00  0.00000000000E+00  0.18250000000E+03  0.18250000000E+03  0.00000000000E+00 0.  1.
         11   -1    0    0    0    0 -0.00000000000E+00 -0.00000000000E+00 -0.18250000000E+03  0.18250000000E+03  0.00000000000E+00 0.  1.
        -11    1    1    2    0    0  0.81517753913E-01 -0.28122840577E+01  0.16216119438E+03  0.16218559909E+03  0.00000000000E+00 0.  1.
         11    1    1    2    0    0 -0.89796962277E+01  0.64316808450E+01 -0.64026368715E+02  0.64972127514E+02  0.00000000000E+00 0.  1.
        -15    1    1    2    0    0  0.11297059796E+02 -0.13598032641E+02 -0.11589725216E+03  0.11725127223E+03  0.17770000000E+01 0.  1.
         15    1    1    2    0    0 -0.23988813221E+01  0.99786358536E+01  0.17762426496E+02  0.20591001168E+02  0.17770000000E+01 0. -1.
</event>
<event>
 6    1  0.1059789E-002  0.1826248E+03  0.7546771E-02  0.1068355E+00
        -11   -1    0    0    0    0  0.00000000000E+00  0.00000000000E+00  0.18250000000E+03  0.18250000000E+03  0.00000000000E+00 0.  1.
         11   -1    0    0    0    0 -0.00000000000E+00 -0.00000000000E+00 -0.18250000000E+03  0.18250000000E+03  0.00000000000E+00 0.  1.
        -11    1    1    2    0    0 -0.11265690951E+01  0.25612903253E+01  0.18235369720E+03  0.18237516346E+03  0.00000000000E+00 0.  1.
         11    1    1    2    0    0 -0.23642347616E+01 -0.13462097321E+01 -0.84229258478E+02  0.84273185952E+02  0.00000000000E+00 0.  1.
        -15    1    1    2    0    0 -0.54234477520E+00 -0.11723617709E+01 -0.40045862538E+02  0.40106076914E+02  0.17770000000E+01 0. -1.
         15    1    1    2    0    0  0.40331486318E+01 -0.42718822385E-01 -0.58078576179E+02  0.58245573675E+02  0.17770000000E+01 0.  1.
</event>
<event>
 6    1  0.1059789E-002  0.1693652E+03  0.7546771E-02  0.1079419E+00
        -11   -1    0    0    0    0  0.00000000000E+00  0.00000000000E+00  0.18250000000E+03  0.18250000000E+03  0.00000000000E+00 0. -1.
         11   -1    0    0    0    0 -0.00000000000E+00 -0.00000000000E+00 -0.18250000000E+03  0.18250000000E+03  0.00000000000E+00 0. -1.
        -11    1    1    2    0    0  0.13932816366E+02 -0.19622730929E+01  0.16631416672E+03  0.16690828601E+03  0.00000000000E+00 0. -1.
         11    1    1    2    0    0 -0.45770433331E+01 -0.34505311573E+01 -0.17194578282E+03  0.17204129656E+03  0.00000000000E+00 0. -1.
        -15    1    1    2    0    0  0.17235250809E+01  0.25337388842E+01  0.12220355992E+02  0.12723411532E+02  0.17770000000E+01 0. -1.
         15    1    1    2    0    0 -0.11079298114E+02  0.28790653660E+01 -0.65887398879E+01  0.13327005905E+02  0.17770000000E+01 0.  1.
</event>
<event>
 6    1  0.1059789E-002  0.1851781E+03  0.7546771E-02  0.1066343E+00
        -11   -1    0    0    0    0  0.00000000000E+00  0.00000000000E+00  0.18250000000E+03  0.18250000000E+03  0.00000000000E+00 0. -1.
         11   -1    0    0    0    0 -0.00000000000E+00 -0.00000000000E+00 -0.18250000000E+03  0.18250000000E+03  0.00000000000E+00 0.  1.
        -11    1    1    2    0    0  0.40046162607E-01 -0.21862842517E+01  0.14204384580E+03  0.14206067567E+03  0.00000000000E+00 0. -1.
         11    1    1    2    0    0 -0.60630013240E+01  0.24295562419E+01 -0.17970325040E+03  0.17982191450E+03  0.00000000000E+00 0.  1.
        -15    1    1    2    0    0 -0.41440724207E+01 -0.32053932022E+01  0.28414740480E+02  0.28948282977E+02  0.17770000000E+01 0. -1.
         15    1    1    2    0    0  0.10167027582E+02  0.29621212121E+01  0.92446641209E+01  0.14169126848E+02  0.17770000000E+01 0.  1.
</event>
<event>
 6    1  0.1059789E-002  0.1828492E+03  0.7546771E-02  0.1068177E+00
        -11   -1    0    0    0    0  0.00000000000E+00  0.00000000000E+00  0.18250000000E+03  0.18250000000E+03  0.00000000000E+00 0.  1.
         11   -1    0    0    0    0 -0.00000000000E+00 -0.00000000000E+00 -0.18250000000E+03  0.18250000000E+03  0.00000000000E+00 0. -1.
        -11    1    1    2    0    0  0.36994456018E+00 -0.27094985134E+01  0.18213025274E+03  0.18215078151E+03  0.00000000000E+00 0.  1.
         11    1    1    2    0    0  0.29332187106E+01 -0.30241970277E+01 -0.11122813873E+03  0.11130789903E+03  0.00000000000E+00 0. -1.
        -15    1    1    2    0    0 -0.10313833824E+01 -0.50707310159E+00 -0.29172678359E+02  0.29249337880E+02  0.17770000000E+01 0.  1.
         15    1    1    2    0    0 -0.22717798883E+01  0.62407686427E+01 -0.41729435653E+02  0.42291981580E+02  0.17770000000E+01 0.  1.
</event>
<event>
 6    1  0.1059789E-002  0.1866438E+03  0.7546771E-02  0.1065203E+00
        -11   -1    0    0    0    0  0.00000000000E+00  0.00000000000E+00  0.18250000000E+03  0.18250000000E+03  0.00000000000E+00 0.  1.
         11   -1    0    0    0    0 -0.00000000000E+00 -0.00000000000E+00 -0.18250000000E+03  0.18250000000E+03  0.00000000000E+00 0. -1.
        -11    1    1    2    0    0 -0.21894396953E+01 -0.17014456685E+01  0.17833462350E+03  0.17835617877E+03  0.00000000000E+00 0.  1.
         11    1    1    2    0    0 -0.22423587606E+01 -0.54416950481E+01 -0.15798148792E+03  0.15809108369E+03  0.00000000000E+00 0. -1.
        -15    1    1    2    0    0 -0.61158112119E+00  0.57258319381E+01 -0.21976299137E+02  0.22787598285E+02  0.17770000000E+01 0. -1.
         15    1    1    2    0    0  0.50433795771E+01  0.14173087785E+01  0.16231635510E+01  0.57651392563E+01  0.17770000000E+01 0.  1.
</event>
<event>
 6    1  0.1059789E-002  0.1828560E+03  0.7546771E-02  0.1068172E+00
        -11   -1    0    0    0    0  0.00000000000E+00  0.00000000000E+00  0.18250000000E+03  0.18250000000E+03  0.00000000000E+00 0.  1.
         11   -1    0    0    0    0 -0.00000000000E+00 -0.00000000000E+00 -0.18250000000E+03  0.18250000000E+03  0.00000000000E+00 0.  1.
        -11    1    1    2    0    0 -0.16857559409E+01 -0.16695286624E+01  0.35648586648E+02  0.35727452037E+02  0.00000000000E+00 0.  1.
         11    1    1    2    0    0  0.24924787847E+01 -0.20163592199E+01 -0.18211573800E+03  0.18214395455E+03  0.00000000000E+00 0.  1.
        -15    1    1    2    0    0  0.17759168769E+01  0.26050579260E+01  0.13781876184E+03  0.13786627235E+03  0.17770000000E+01 0.  1.
         15    1    1    2    0    0 -0.25826397207E+01  0.10808299564E+01  0.86483895047E+01  0.92623210561E+01  0.17770000000E+01 0. -1.
</event>
<event>
 6    1  0.1059789E-002  0.1890896E+03  0.7546771E-02  0.1063327E+00
        -11   -1    0    0    0    0  0.00000000000E+00  0.00000000000E+00  0.18250000000E+03  0.18250000000E+03  0.00000000000E+00 0. -1.
         11   -1    0    0    0    0 -0.00000000000E+00 -0.00000000000E+00 -0.18250000000E+03  0.18250000000E+03  0.00000000000E+00 0. -1.
        -11    1    1    2    0    0 -0.13513550199E+00 -0.10676661121E+02  0.14669461638E+03  0.14708269725E+03  0.00000000000E+00 0. -1.
         11    1    1    2    0    0 -0.37996239101E+01  0.68931777226E+01 -0.17573420629E+03  0.17591038713E+03  0.00000000000E+00 0. -1.
        -15    1    1    2    0    0  0.13775759948E+02 -0.43194430926E+01  0.24241444082E+02  0.28270735593E+02  0.17770000000E+01 0. -1.
         15    1    1    2    0    0 -0.98410005360E+01  0.81029264913E+01  0.47981458272E+01  0.13736180024E+02  0.17770000000E+01 0.  1.
</event>
<event>
 6    1  0.1059789E-002  0.1827854E+03  0.7546771E-02  0.1068228E+00
        -11   -1    0    0    0    0  0.00000000000E+00  0.00000000000E+00  0.18250000000E+03  0.18250000000E+03  0.00000000000E+00 0.  1.
         11   -1    0    0    0    0 -0.00000000000E+00 -0.00000000000E+00 -0.18250000000E+03  0.18250000000E+03  0.00000000000E+00 0.  1.
        -11    1    1    2    0    0  0.22495562422E+01  0.18047544041E+01  0.38437310880E+02  0.38545356523E+02  0.00000000000E+00 0.  1.
         11    1    1    2    0    0 -0.77273915543E+01 -0.35224504456E+01 -0.18201661579E+03  0.18221462252E+03  0.00000000000E+00 0.  1.
        -15    1    1    2    0    0  0.74938519421E+01  0.26864291015E+01  0.53757253351E+02  0.54372554980E+02  0.17770000000E+01 0. -1.
         15    1    1    2    0    0 -0.20160166300E+01 -0.96873306006E+00  0.89822051555E+02  0.89867465978E+02  0.17770000000E+01 0.  1.
</event>
<event>
 6    1  0.1059789E-002  0.1711445E+03  0.7546771E-02  0.1077871E+00
        -11   -1    0    0    0    0  0.00000000000E+00  0.00000000000E+00  0.18250000000E+03  0.18250000000E+03  0.00000000000E+00 0. -1.
         11   -1    0    0    0    0 -0.00000000000E+00 -0.00000000000E+00 -0.18250000000E+03  0.18250000000E+03  0.00000000000E+00 0. -1.
        -11    1    1    2    0    0  0.41266280589E+01 -0.24415536340E+01  0.17332070499E+03  0.17338701514E+03  0.00000000000E+00 0. -1.
         11    1    1    2    0    0  0.26957767311E+01 -0.15446188420E+01 -0.16899206688E+03  0.16902062515E+03  0.00000000000E+00 0. -1.
        -15    1    1    2    0    0  0.20779986860E+01  0.20606500416E+01  0.70936552919E+01  0.78766764269E+01  0.17770000000E+01 0. -1.
         15    1    1    2    0    0 -0.89004034761E+01  0.19255224344E+01 -0.11422293400E+02  0.14715683274E+02  0.17770000000E+01 0.  1.
</event>
<event>
 6    1  0.1059789E-002  0.1865195E+03  0.7546771E-02  0.1065300E+00
        -11   -1    0    0    0    0  0.00000000000E+00  0.00000000000E+00  0.18250000000E+03  0.18250000000E+03  0.00000000000E+00 0.  1.
         11   -1    0    0    0    0 -0.00000000000E+00 -0.00000000000E+00 -0.18250000000E+03  0.18250000000E+03  0.00000000000E+00 0. -1.
        -11    1    1    2    0    0  0.38296788428E+01  0.13307797255E+00  0.17843934039E+03  0.17848048170E+03  0.00000000000E+00 0.  1.
         11    1    1    2    0    0 -0.36545612188E+01  0.22910284588E+01 -0.17058388168E+03  0.17063840516E+03  0.00000000000E+00 0. -1.
        -15    1    1    2    0    0 -0.16325105698E+01  0.30902208166E+01 -0.89831920234E+01  0.98015316857E+01  0.17770000000E+01 0. -1.
         15    1    1    2    0    0  0.14573929458E+01 -0.55143272479E+01  0.11277333106E+01  0.60795814507E+01  0.17770000000E+01 0.  1.
</event>
<event>
 6    1  0.1059789E-002  0.1833099E+03  0.7546771E-02  0.1067812E+00
        -11   -1    0    0    0    0  0.00000000000E+00  0.00000000000E+00  0.18250000000E+03  0.18250000000E+03  0.00000000000E+00 0.  1.
         11   -1    0    0    0    0 -0.00000000000E+00 -0.00000000000E+00 -0.18250000000E+03  0.18250000000E+03  0.00000000000E+00 0. -1.
        -11    1    1    2    0    0  0.48467755576E+01  0.24642706915E+01  0.18160869473E+03  0.18169007090E+03  0.00000000000E+00 0.  1.
         11    1    1    2    0    0 -0.34305888026E+01  0.18439793083E+01 -0.16456791584E+03  0.16461399735E+03  0.00000000000E+00 0. -1.
        -15    1    1    2    0    0  0.83544329237E-01 -0.41561121974E+01 -0.66106273300E+01  0.80086435149E+01  0.17770000000E+01 0.  1.
         15    1    1    2    0    0 -0.14997310842E+01 -0.15213780239E+00 -0.10430151556E+02  0.10687288231E+02  0.17770000000E+01 0. -1.
</event>
<event>
 6    1  0.1059789E-002  0.1849704E+03  0.7546771E-02  0.1066505E+00
        -11   -1    0    0    0    0  0.00000000000E+00  0.00000000000E+00  0.18250000000E+03  0.18250000000E+03  0.00000000000E+00 0.  1.
         11   -1    0    0    0    0 -0.00000000000E+00 -0.00000000000E+00 -0.18250000000E+03  0.18250000000E+03  0.00000000000E+00 0.  1.
        -11    1    1    2    0    0 -0.19037460116E+01 -0.72562435964E+01  0.12638988379E+03  0.12661232185E+03  0.00000000000E+00 0.  1.
         11    1    1    2    0    0 -0.40715110302E+01  0.13534525316E+00 -0.17998350192E+03  0.18002959891E+03  0.00000000000E+00 0.  1.
        -15    1    1    2    0    0  0.60278070887E+01  0.28199239772E+01  0.29367843481E+01  0.74879143186E+01  0.17770000000E+01 0. -1.
         15    1    1    2    0    0 -0.52550046869E-01  0.43009743661E+01  0.50656833781E+02  0.50870164927E+02  0.17770000000E+01 0.  1.
</event>
<event>
 6    1  0.1059789E-002  0.1852104E+03  0.7546771E-02  0.1066318E+00
        -11   -1    0    0    0    0  0.00000000000E+00  0.00000000000E+00  0.18250000000E+03  0.18250000000E+03  0.00000000000E+00 0.  1.
         11   -1    0    0    0    0 -0.00000000000E+00 -0.00000000000E+00 -0.18250000000E+03  0.18250000000E+03  0.00000000000E+00 0. -1.
        -11    1    1    2    0    0  0.10609782908E+02  0.18890350117E+01  0.17946636030E+03  0.17978962824E+03  0.00000000000E+00 0.  1.
         11    1    1    2    0    0  0.16515656621E+01 -0.10667123807E+01 -0.19458754739E+02  0.19557829134E+02  0.00000000000E+00 0. -1.
        -15    1    1    2    0    0  0.88600893319E+01 -0.12410707657E+01 -0.78768696548E+01  0.12051731999E+02  0.17770000000E+01 0. -1.
         15    1    1    2    0    0 -0.21121437902E+02  0.41874813467E+00 -0.15213073590E+03  0.15360081062E+03  0.17770000000E+01 0. -1.
</event>
<event>
 6    1  0.1059789E-002  0.1826412E+03  0.7546771E-02  0.1068342E+00
        -11   -1    0    0    0    0  0.00000000000E+00  0.00000000000E+00  0.18250000000E+03  0.18250000000E+03  0.00000000000E+00 0. -1.
         11   -1    0    0    0    0 -0.00000000000E+00 -0.00000000000E+00 -0.18250000000E+03  0.18250000000E+03  0.00000000000E+00 0. -1.
        -11    1    1    2    0    0 -0.11722398317E+01 -0.52689664607E+00  0.74904937852E+02  0.74915962791E+02  0.00000000000E+00 0. -1.
         11    1    1    2    0    0  0.37793439745E+01 -0.86136754340E-02 -0.18231959789E+03  0.18235876533E+03  0.00000000000E+00 0. -1.
        -15    1    1    2    0    0  0.17246040164E+01 -0.13524804596E+01  0.53641249978E+02  0.53715406455E+02  0.17770000000E+01 0. -1.
         15    1    1    2    0    0 -0.43317081593E+01  0.18879907811E+01  0.53773410063E+02  0.54009865428E+02  0.17770000000E+01 0. -1.
</event>
<event>
 6    1  0.1059789E-002  0.1847647E+03  0.7546771E-02  0.1066666E+00
        -11   -1    0    0    0    0  0.00000000000E+00  0.00000000000E+00  0.18250000000E+03  0.18250000000E+03  0.00000000000E+00 0.  1.
         11   -1    0    0    0    0 -0.00000000000E+00 -0.00000000000E+00 -0.18250000000E+03  0.18250000000E+03  0.00000000000E+00 0. -1.
        -11    1    1    2    0    0  0.67118229193E+00 -0.26565783127E+01  0.18021442773E+03  0.18023525697E+03  0.00000000000E+00 0.  1.
         11    1    1    2    0    0  0.87751700783E+01 -0.38144560089E+01 -0.95056922736E+02  0.95537281962E+02  0.00000000000E+00 0. -1.
        -15    1    1    2    0    0 -0.97228804824E+00  0.88688945997E+01 -0.99371399829E+01  0.13472457664E+02  0.17770000000E+01 0.  1.
         15    1    1    2    0    0 -0.84740643220E+01 -0.23978602780E+01 -0.75220365007E+02  0.75755003405E+02  0.17770000000E+01 0. -1.
</event>
<event>
 6    1  0.1059789E-002  0.1833957E+03  0.7546771E-02  0.1067744E+00
        -11   -1    0    0    0    0  0.00000000000E+00  0.00000000000E+00  0.18250000000E+03  0.18250000000E+03  0.00000000000E+00 0.  1.
         11   -1    0    0    0    0 -0.00000000000E+00 -0.00000000000E+00 -0.18250000000E+03  0.18250000000E+03  0.00000000000E+00 0.  1.
        -11    1    1    2    0    0 -0.11380823786E+02  0.89502304392E+01  0.18102622233E+03  0.18160430322E+03  0.00000000000E+00 0.  1.
         11    1    1    2    0    0 -0.11956521541E+01 -0.11817641576E+02 -0.93261216001E+02  0.94014576777E+02  0.00000000000E+00 0.  1.
        -15    1    1    2    0    0  0.46201590649E+01  0.79409200679E+00 -0.10243223865E+02  0.11404289371E+02  0.17770000000E+01 0. -1.
         15    1    1    2    0    0  0.79563168751E+01  0.20733191303E+01 -0.77521782465E+02  0.77976830636E+02  0.17770000000E+01 0.  1.
</event>
<event>
 6    1  0.1059789E-002  0.1830641E+03  0.7546771E-02  0.1068007E+00
        -11   -1    0    0    0    0  0.00000000000E+00  0.00000000000E+00  0.18250000000E+03  0.18250000000E+03  0.00000000000E+00 0.  1.
         11   -1    0    0    0    0 -0.00000000000E+00 -0.00000000000E+00 -0.18250000000E+03  0.18250000000E+03  0.00000000000E+00 0. -1.
        -11    1    1    2    0    0  0.12585677102E+01 -0.11138231559E+00  0.77267535321E+02  0.77277864963E+02  0.00000000000E+00 0.  1.
         11    1    1    2    0    0  0.23617919220E+01  0.87442365478E+00 -0.18191847669E+03  0.18193590860E+03  0.00000000000E+00 0. -1.
        -15    1    1    2    0    0 -0.45398565030E+01  0.21900511562E+01  0.12864938408E+02  0.13930936450E+02  0.17770000000E+01 0. -1.
         15    1    1    2    0    0  0.91949687072E+00 -0.29530924954E+01  0.91786002961E+02  0.91855289986E+02  0.17770000000E+01 0.  1.
</event>
<event>
 6    1  0.1059789E-002  0.1832366E+03  0.7546771E-02  0.1067870E+00
        -11   -1    0    0    0    0  0.00000000000E+00  0.00000000000E+00  0.18250000000E+03  0.18250000000E+03  0.00000000000E+00 0.  1.
         11   -1    0    0    0    0 -0.00000000000E+00 -0.00000000000E+00 -0.18250000000E+03  0.18250000000E+03  0.00000000000E+00 0.  1.
        -11    1    1    2    0    0 -0.15164055176E+00 -0.31751586349E+01  0.18173561254E+03  0.18176341077E+03  0.00000000000E+00 0.  1.
         11    1    1    2    0    0  0.14500364076E+01  0.21580709505E+01 -0.98434426331E+02  0.98468757294E+02  0.00000000000E+00 0.  1.
        -15    1    1    2    0    0  0.87294504367E+00  0.31662998834E+01 -0.79461269568E+02  0.79548969688E+02  0.17770000000E+01 0.  1.
         15    1    1    2    0    0 -0.21713408995E+01 -0.21492121991E+01 -0.38399166427E+01  0.52188622516E+01  0.17770000000E+01 0.  1.
</event>
<event>
 6    1  0.1059789E-002  0.1836238E+03  0.7546771E-02  0.1067564E+00
        -11   -1    0    0    0    0  0.00000000000E+00  0.00000000000E+00  0.18250000000E+03  0.18250000000E+03  0.00000000000E+00 0. -1.
         11   -1    0    0    0    0 -0.00000000000E+00 -0.00000000000E+00 -0.18250000000E+03  0.18250000000E+03  0.00000000000E+00 0.  1.
        -11    1    1    2    0    0  0.37790874039E+01  0.37462881915E+01  0.77836973801E+02  0.78018655892E+02  0.00000000000E+00 0. -1.
         11    1    1    2    0    0 -0.12983119053E+00  0.74663869261E+01 -0.18122240689E+03  0.18137619620E+03  0.00000000000E+00 0.  1.
        -15    1    1    2    0    0  0.17062382883E+01 -0.14176206256E+02  0.83274468526E+02  0.84508407334E+02  0.17770000000E+01 0.  1.
         15    1    1    2    0    0 -0.53554945017E+01  0.29635311382E+01  0.20110964562E+02  0.21096740572E+02  0.17770000000E+01 0.  1.
</event>
<event>
 6    1  0.1059789E-002  0.1971322E+03  0.7546771E-02  0.1057370E+00
        -11   -1    0    0    0    0  0.00000000000E+00  0.00000000000E+00  0.18250000000E+03  0.18250000000E+03  0.00000000000E+00 0. -1.
         11   -1    0    0    0    0 -0.00000000000E+00 -0.00000000000E+00 -0.18250000000E+03  0.18250000000E+03  0.00000000000E+00 0.  1.
        -11    1    1    2    0    0  0.83102187079E+01 -0.26084659182E+02  0.16562048043E+03  0.16786784302E+03  0.00000000000E+00 0. -1.
         11    1    1    2    0    0  0.18271443814E+01  0.65884415647E+00 -0.13959136718E+03  0.13960487930E+03  0.00000000000E+00 0.  1.
        -15    1    1    2    0    0 -0.13691859601E+02  0.40033962612E+01 -0.31876793147E+02  0.34968298090E+02  0.17770000000E+01 0.  1.
         15    1    1    2    0    0  0.35544965121E+01  0.21422418764E+02  0.58476798954E+01  0.22558979594E+02  0.17770000000E+01 0. -1.
</event>
<event>
 6    1  0.1059789E-002  0.1827805E+03  0.7546771E-02  0.1068232E+00
        -11   -1    0    0    0    0  0.00000000000E+00  0.00000000000E+00  0.18250000000E+03  0.18250000000E+03  0.00000000000E+00 0. -1.
         11   -1    0    0    0    0 -0.00000000000E+00 -0.00000000000E+00 -0.18250000000E+03  0.18250000000E+03  0.00000000000E+00 0. -1.
        -11    1    1    2    0    0 -0.35929943541E+00 -0.19512856628E+01  0.12136308046E+03  0.12137929770E+03  0.00000000000E+00 0. -1.
         11    1    1    2    0    0  0.32466330864E+01  0.11984695815E+01 -0.18218665733E+03  0.18221952438E+03  0.00000000000E+00 0. -1.
        -15    1    1    2    0    0 -0.30528769026E+01  0.19610059053E+01  0.55652425918E+02  0.55798887454E+02  0.17770000000E+01 0. -1.
         15    1    1    2    0    0  0.16554325155E+00 -0.12081898240E+01  0.51711509562E+01  0.56022904630E+01  0.17770000000E+01 0.  1.
</event>
<event>
 6    1  0.1059789E-002  0.1894911E+03  0.7546771E-02  0.1063022E+00
        -11   -1    0    0    0    0  0.00000000000E+00  0.00000000000E+00  0.18250000000E+03  0.18250000000E+03  0.00000000000E+00 0. -1.
         11   -1    0    0    0    0 -0.00000000000E+00 -0.00000000000E+00 -0.18250000000E+03  0.18250000000E+03  0.00000000000E+00 0. -1.
        -11    1    1    2    0    0 -0.47402391411E+01 -0.20836831907E+01  0.14902703774E+03  0.14911696610E+03  0.00000000000E+00 0. -1.
         11    1    1    2    0    0  0.34488700329E+01 -0.16838218140E+02 -0.17466525800E+03  0.17550889620E+03  0.00000000000E+00 0. -1.
        -15    1    1    2    0    0 -0.70397412780E+01  0.33915333055E+01  0.20376959547E+02  0.21896087888E+02  0.17770000000E+01 0.  1.
         15    1    1    2    0    0  0.83311103862E+01  0.15530368025E+02  0.52612607114E+01  0.18478049803E+02  0.17770000000E+01 0. -1.
</event>
<event>
 6    1  0.1059789E-002  0.2075997E+03  0.7546771E-02  0.1050064E+00
        -11   -1    0    0    0    0  0.00000000000E+00  0.00000000000E+00  0.18250000000E+03  0.18250000000E+03  0.00000000000E+00 0.  1.
         11   -1    0    0    0    0 -0.00000000000E+00 -0.00000000000E+00 -0.18250000000E+03  0.18250000000E+03  0.00000000000E+00 0.  1.
        -11    1    1    2    0    0  0.12101459744E+02  0.31798350386E+01 -0.12289260957E+02  0.17538033347E+02  0.00000000000E+00 0.  1.
         11    1    1    2    0    0 -0.15265868493E+02 -0.28161882828E+02 -0.13614448072E+03  0.13986228232E+03  0.00000000000E+00 0.  1.
        -15    1    1    2    0    0  0.63010349594E+02  0.46687221273E+02  0.60682646698E+02  0.99174301739E+02  0.17770000000E+01 0. -1.
         15    1    1    2    0    0 -0.59845940845E+02 -0.21705173483E+02  0.87751094979E+02  0.10842538259E+03  0.17770000000E+01 0.  1.
</event>
<event>
 6    1  0.1059789E-002  0.1831590E+03  0.7546771E-02  0.1067931E+00
        -11   -1    0    0    0    0  0.00000000000E+00  0.00000000000E+00  0.18250000000E+03  0.18250000000E+03  0.00000000000E+00 0. -1.
         11   -1    0    0    0    0 -0.00000000000E+00 -0.00000000000E+00 -0.18250000000E+03  0.18250000000E+03  0.00000000000E+00 0.  1.
        -11    1    1    2    0    0  0.17304202626E+01  0.19552459274E+01  0.14402580204E+03  0.14404946717E+03  0.00000000000E+00 0. -1.
         11    1    1    2    0    0 -0.17162576779E+01  0.60305700052E+01 -0.18173283252E+03  0.18184096274E+03  0.00000000000E+00 0.  1.
        -15    1    1    2    0    0  0.19182344111E+01 -0.33657425789E+01  0.95848726402E+01  0.10489774015E+02  0.17770000000E+01 0.  1.
         15    1    1    2    0    0 -0.19323969957E+01 -0.46200733536E+01  0.28122157846E+02  0.28619796066E+02  0.17770000000E+01 0. -1.
</event>
<event>
 6    1  0.1059789E-002  0.1832750E+03  0.7546771E-02  0.1067840E+00
        -11   -1    0    0    0    0  0.00000000000E+00  0.00000000000E+00  0.18250000000E+03  0.18250000000E+03  0.00000000000E+00 0.  1.
         11   -1    0    0    0    0 -0.00000000000E+00 -0.00000000000E+00 -0.18250000000E+03  0.18250000000E+03  0.00000000000E+00 0. -1.
        -11    1    1    2    0    0  0.12568568633E+01  0.36728605870E+01  0.18168352552E+03  0.18172499289E+03  0.00000000000E+00 0.  1.
         11    1    1    2    0    0 -0.61866268305E+00  0.28273734598E+01 -0.15545889714E+03  0.15548583692E+03  0.00000000000E+00 0. -1.
        -15    1    1    2    0    0 -0.20015636856E+01 -0.58096567187E+01 -0.14744443348E+02  0.16072171820E+02  0.17770000000E+01 0. -1.
         15    1    1    2    0    0  0.13633695054E+01 -0.69057732808E+00 -0.11480185032E+02  0.11716998371E+02  0.17770000000E+01 0.  1.
</event>
<event>
 6    1  0.1059789E-002  0.1831565E+03  0.7546771E-02  0.1067933E+00
        -11   -1    0    0    0    0  0.00000000000E+00  0.00000000000E+00  0.18250000000E+03  0.18250000000E+03  0.00000000000E+00 0.  1.
         11   -1    0    0    0    0 -0.00000000000E+00 -0.00000000000E+00 -0.18250000000E+03  0.18250000000E+03  0.00000000000E+00 0.  1.
        -11    1    1    2    0    0 -0.16042276342E+01  0.36586301380E+01  0.18179964945E+03  0.18184353621E+03  0.00000000000E+00 0.  1.
         11    1    1    2    0    0  0.36085159674E+01  0.75184003420E+00 -0.14965591248E+03  0.14970129856E+03  0.00000000000E+00 0.  1.
        -15    1    1    2    0    0  0.40675224119E+00 -0.73099358219E+00 -0.15670952654E+01  0.25126312053E+01  0.17770000000E+01 0. -1.
         15    1    1    2    0    0 -0.24110405744E+01 -0.36794765900E+01 -0.30576641706E+02  0.30942534021E+02  0.17770000000E+01 0.  1.
</event>
<event>
 6    1  0.1059789E-002  0.1787794E+03  0.7546771E-02  0.1071456E+00
        -11   -1    0    0    0    0  0.00000000000E+00  0.00000000000E+00  0.18250000000E+03  0.18250000000E+03  0.00000000000E+00 0. -1.
         11   -1    0    0    0    0 -0.00000000000E+00 -0.00000000000E+00 -0.18250000000E+03  0.18250000000E+03  0.00000000000E+00 0. -1.
        -11    1    1    2    0    0  0.32581118770E-02 -0.16225150091E+01  0.15823918047E+02  0.15906883665E+02  0.00000000000E+00 0. -1.
         11    1    1    2    0    0  0.40791330183E+01 -0.28843477869E+00 -0.17778489141E+03  0.17783191540E+03  0.00000000000E+00 0. -1.
        -15    1    1    2    0    0 -0.20279803463E+02 -0.39233941689E+01  0.21982326323E+02  0.30216615460E+02  0.17770000000E+01 0.  1.
         15    1    1    2    0    0  0.16197412332E+02  0.58343439567E+01  0.13997864704E+03  0.14104458548E+03  0.17770000000E+01 0. -1.
</event>
<event>
 6    1  0.1059789E-002  0.1837336E+03  0.7546771E-02  0.1067477E+00
        -11   -1    0    0    0    0  0.00000000000E+00  0.00000000000E+00  0.18250000000E+03  0.18250000000E+03  0.00000000000E+00 0. -1.
         11   -1    0    0    0    0 -0.00000000000E+00 -0.00000000000E+00 -0.18250000000E+03  0.18250000000E+03  0.00000000000E+00 0.  1.
        -11    1    1    2    0    0 -0.25702634103E+01  0.18179525341E+01  0.18123909286E+03  0.18126643370E+03  0.00000000000E+00 0. -1.
         11    1    1    2    0    0 -0.18419691390E+01  0.18073495230E+01 -0.12320730608E+03  0.12323432815E+03  0.00000000000E+00 0.  1.
        -15    1    1    2    0    0  0.52597767600E+01 -0.29156604444E+01 -0.58068534963E+02  0.58406153864E+02  0.17770000000E+01 0. -1.
         15    1    1    2    0    0 -0.84754421071E+00 -0.70964161272E+00  0.36748188468E-01  0.20930842881E+01  0.17770000000E+01 0.  1.
</event>
<event>
 6    1  0.1059789E-002  0.1750343E+03  0.7546771E-02  0.1074558E+00
        -11   -1    0    0    0    0  0.00000000000E+00  0.00000000000E+00  0.18250000000E+03  0.18250000000E+03  0.00000000000E+00 0.  1.
         11   -1    0    0    0    0 -0.00000000000E+00 -0.00000000000E+00 -0.18250000000E+03  0.18250000000E+03  0.00000000000E+00 0. -1.
        -11    1    1    2    0    0  0.15156139581E+01 -0.20796350693E+01  0.17533931771E+03  0.17535819999E+03  0.00000000000E+00 0.  1.
         11    1    1    2    0    0  0.59287524728E+00  0.36420359901E+01 -0.17468189970E+03  0.17472086884E+03  0.00000000000E+00 0. -1.
        -15    1    1    2    0    0 -0.58377990243E+01 -0.57838830249E+00  0.49557525404E+01  0.78823627624E+01  0.17770000000E+01 0.  1.
         15    1    1    2    0    0  0.37293098189E+01 -0.98401261824E+00 -0.56131705542E+01  0.70385684076E+01  0.17770000000E+01 0. -1.
</event>
<event>
 6    1  0.1059789E-002  0.1832827E+03  0.7546771E-02  0.1067833E+00
        -11   -1    0    0    0    0  0.00000000000E+00  0.00000000000E+00  0.18250000000E+03  0.18250000000E+03  0.00000000000E+00 0. -1.
         11   -1    0    0    0    0 -0.00000000000E+00 -0.00000000000E+00 -0.18250000000E+03  0.18250000000E+03  0.00000000000E+00 0. -1.
        -11    1    1    2    0    0 -0.46321242603E+01 -0.29938526419E+01  0.18163358308E+03  0.18171730306E+03  0.00000000000E+00 0. -1.
         11    1    1    2    0    0  0.67684222040E+01  0.59757187690E+00 -0.15838975587E+03  0.15853543262E+03  0.00000000000E+00 0. -1.
        -15    1    1    2    0    0 -0.36734542782E+01  0.23521996922E+00 -0.63312771618E+01  0.75360728677E+01  0.17770000000E+01 0.  1.
         15    1    1    2    0    0  0.15371563346E+01  0.21610607957E+01 -0.16912550041E+02  0.17211191453E+02  0.17770000000E+01 0. -1.
</event>
<event>
 6    1  0.1059789E-002  0.1919566E+03  0.7546771E-02  0.1061167E+00
        -11   -1    0    0    0    0  0.00000000000E+00  0.00000000000E+00  0.18250000000E+03  0.18250000000E+03  0.00000000000E+00 0.  1.
         11   -1    0    0    0    0 -0.00000000000E+00 -0.00000000000E+00 -0.18250000000E+03  0.18250000000E+03  0.00000000000E+00 0. -1.
        -11    1    1    2    0    0  0.20189593739E+01 -0.16450779249E+01  0.17302381737E+03  0.17304341610E+03  0.00000000000E+00 0.  1.
         11    1    1    2    0    0  0.23183346903E+01  0.65589632071E+00 -0.15019524235E+03  0.15021456554E+03  0.00000000000E+00 0. -1.
        -15    1    1    2    0    0 -0.84777939008E+01  0.62069327550E+01  0.59118515549E+01  0.12186333389E+02  0.17770000000E+01 0. -1.
         15    1    1    2    0    0  0.41404998366E+01 -0.52177511508E+01 -0.28740426572E+02  0.29555684978E+02  0.17770000000E+01 0.  1.
</event>
<event>
 6    1  0.1059789E-002  0.1832081E+03  0.7546771E-02  0.1067893E+00
        -11   -1    0    0    0    0  0.00000000000E+00  0.00000000000E+00  0.18250000000E+03  0.18250000000E+03  0.00000000000E+00 0.  1.
         11   -1    0    0    0    0 -0.00000000000E+00 -0.00000000000E+00 -0.18250000000E+03  0.18250000000E+03  0.00000000000E+00 0.  1.
        -11    1    1    2    0    0  0.21867559496E+01  0.12035755058E+01  0.18177474102E+03  0.18179187817E+03  0.00000000000E+00 0.  1.
         11    1    1    2    0    0  0.59999713404E+01 -0.29470993906E+01 -0.37657320867E+02  0.38246030719E+02  0.00000000000E+00 0.  1.
        -15    1    1    2    0    0 -0.80638929586E+01  0.61271012016E+01 -0.77872672315E+02  0.78548574533E+02  0.17770000000E+01 0.  1.
         15    1    1    2    0    0 -0.12283433135E+00 -0.43835773168E+01 -0.66244747841E+02  0.66413516575E+02  0.17770000000E+01 0. -1.
</event>
<event>
 6    1  0.1059789E-002  0.1902476E+03  0.7546771E-02  0.1062450E+00
        -11   -1    0    0    0    0  0.00000000000E+00  0.00000000000E+00  0.18250000000E+03  0.18250000000E+03  0.00000000000E+00 0. -1.
         11   -1    0    0    0    0 -0.00000000000E+00 -0.00000000000E+00 -0.18250000000E+03  0.18250000000E+03  0.00000000000E+00 0.  1.
        -11    1    1    2    0    0  0.25514904084E+01 -0.14857746271E+01  0.16506837293E+03  0.16509477694E+03  0.00000000000E+00 0. -1.
         11    1    1    2    0    0 -0.29782473254E+01 -0.55840518850E+01 -0.17463781171E+03  0.17475244453E+03  0.00000000000E+00 0.  1.
        -15    1    1    2    0    0 -0.14236573947E+01 -0.73371565966E+01  0.26293821391E-01  0.76823881485E+01  0.17770000000E+01 0. -1.
         15    1    1    2    0    0  0.18504143117E+01  0.14406983109E+02  0.95431449545E+01  0.17470390380E+02  0.17770000000E+01 0.  1.
</event>
<event>
 6    1  0.1059789E-002  0.1844596E+03  0.7546771E-02  0.1066906E+00
        -11   -1    0    0    0    0  0.00000000000E+00  0.00000000000E+00  0.18250000000E+03  0.18250000000E+03  0.00000000000E+00 0. -1.
         11   -1    0    0    0    0 -0.00000000000E+00 -0.00000000000E+00 -0.18250000000E+03  0.18250000000E+03  0.00000000000E+00 0. -1.
        -11    1    1    2    0    0 -0.11363410856E+02 -0.78130007773E+01  0.18001294190E+03  0.18054038147E+03  0.00000000000E+00 0. -1.
         11    1    1    2    0    0  0.39102955779E+01 -0.16304592531E+01 -0.12776977332E+03  0.12783999290E+03  0.00000000000E+00 0. -1.
        -15    1    1    2    0    0 -0.25757983236E+01 -0.13369333334E+00 -0.31192128020E+02  0.31348990260E+02  0.17770000000E+01 0. -1.
         15    1    1    2    0    0  0.10028913602E+02  0.95771533637E+01 -0.21051040562E+02  0.25270635376E+02  0.17770000000E+01 0.  1.
</event>
<event>
 6    1  0.1059789E-002  0.1834216E+03  0.7546771E-02  0.1067724E+00
        -11   -1    0    0    0    0  0.00000000000E+00  0.00000000000E+00  0.18250000000E+03  0.18250000000E+03  0.00000000000E+00 0.  1.
         11   -1    0    0    0    0 -0.00000000000E+00 -0.00000000000E+00 -0.18250000000E+03  0.18250000000E+03  0.00000000000E+00 0.  1.
        -11    1    1    2    0    0 -0.38807966381E+01  0.18366370298E+01  0.14952953552E+03  0.14959116221E+03  0.00000000000E+00 0.  1.
         11    1    1    2    0    0  0.53954940647E+01 -0.40983896417E+01 -0.18145198811E+03  0.18157844625E+03  0.00000000000E+00 0.  1.
        -15    1    1    2    0    0 -0.14245645127E+01  0.91825718507E+00  0.31457105101E+02  0.31552809235E+02  0.17770000000E+01 0.  1.
         15    1    1    2    0    0 -0.90132913907E-01  0.13434954268E+01  0.46534748735E+00  0.22775823120E+01  0.17770000000E+01 0. -1.
</event>
<event>
 6    1  0.1059789E-002  0.1839027E+03  0.7546771E-02  0.1067344E+00
        -11   -1    0    0    0    0  0.00000000000E+00  0.00000000000E+00  0.18250000000E+03  0.18250000000E+03  0.00000000000E+00 0.  1.
         11   -1    0    0    0    0 -0.00000000000E+00 -0.00000000000E+00 -0.18250000000E+03  0.18250000000E+03  0.00000000000E+00 0. -1.
        -11    1    1    2    0    0  0.13434397456E+01 -0.11084418650E+02  0.12370989243E+03  0.12421274754E+03  0.00000000000E+00 0.  1.
         11    1    1    2    0    0 -0.32361027148E+01  0.18711901879E+01 -0.18105867871E+03  0.18109726351E+03  0.00000000000E+00 0. -1.
        -15    1    1    2    0    0 -0.14386072894E+00 -0.28788108795E+01  0.21389933341E+02  0.21656297590E+02  0.17770000000E+01 0.  1.
         15    1    1    2    0    0  0.20365236982E+01  0.12092039341E+02  0.35958852941E+02  0.38033691354E+02  0.17770000000E+01 0. -1.
</event>
<event>
 6    1  0.1059789E-002  0.2088936E+03  0.7546771E-02  0.1049193E+00
        -11   -1    0    0    0    0  0.00000000000E+00  0.00000000000E+00  0.18250000000E+03  0.18250000000E+03  0.00000000000E+00 0.  1.
         11   -1    0    0    0    0 -0.00000000000E+00 -0.00000000000E+00 -0.18250000000E+03  0.18250000000E+03  0.00000000000E+00 0. -1.
        -11    1    1    2    0    0  0.28993847958E+01 -0.45899055966E+01  0.15308372976E+03  0.15317996600E+03  0.00000000000E+00 0.  1.
         11    1    1    2    0    0 -0.28675181162E+00  0.27824434182E+01 -0.15608135977E+03  0.15610642231E+03  0.00000000000E+00 0. -1.
        -15    1    1    2    0    0  0.10529823340E+02  0.89025478231E+01  0.25267826833E+02  0.28840134174E+02  0.17770000000E+01 0. -1.
         15    1    1    2    0    0 -0.13142456324E+02 -0.70950856447E+01 -0.22270196819E+02  0.26873477518E+02  0.17770000000E+01 0.  1.
</event>
<event>
 6    1  0.1059789E-002  0.1857917E+03  0.7546771E-02  0.1065864E+00
        -11   -1    0    0    0    0  0.00000000000E+00  0.00000000000E+00  0.18250000000E+03  0.18250000000E+03  0.00000000000E+00 0. -1.
         11   -1    0    0    0    0 -0.00000000000E+00 -0.00000000000E+00 -0.18250000000E+03  0.18250000000E+03  0.00000000000E+00 0. -1.
        -11    1    1    2    0    0  0.28371092793E+01  0.44919667813E+01  0.17912947867E+03  0.17920825060E+03  0.00000000000E+00 0. -1.
         11    1    1    2    0    0  0.76869783013E+01 -0.45250320968E+01 -0.15969869028E+03  0.15994760776E+03  0.00000000000E+00 0. -1.
        -15    1    1    2    0    0 -0.44244754062E+01 -0.39048573043E+01 -0.13921672176E+01  0.63182079539E+01  0.17770000000E+01 0.  1.
         15    1    1    2    0    0 -0.60996121745E+01  0.39379226197E+01 -0.18038621173E+02  0.19525933680E+02  0.17770000000E+01 0. -1.
</event>
<event>
 6    1  0.1207897E-002  0.1920055E+03  0.7546771E-02  0.1061131E+00
        -11   -1    0    0    0    0  0.00000000000E+00  0.00000000000E+00  0.18250000000E+03  0.18250000000E+03  0.00000000000E+00 0.  1.
         11   -1    0    0    0    0 -0.00000000000E+00 -0.00000000000E+00 -0.18250000000E+03  0.18250000000E+03  0.00000000000E+00 0.  1.
        -11    1    1    2    0    0  0.43055932102E+01 -0.20963455731E+02  0.11312793527E+03  0.11513441861E+03  0.00000000000E+00 0.  1.
         11    1    1    2    0    0  0.37835268955E+01  0.30552772667E+01 -0.17292617807E+03  0.17299454574E+03  0.00000000000E+00 0.  1.
        -15    1    1    2    0    0 -0.74350971478E+00 -0.23728780683E+01 -0.64712802295E+01  0.71567138989E+01  0.17770000000E+01 0.  1.
         15    1    1    2    0    0 -0.73456103909E+01  0.20281056533E+02  0.66269523025E+02  0.69714321750E+02  0.17770000000E+01 0. -1.
</event>
<event>
 6    1  0.1059789E-002  0.1831881E+03  0.7546771E-02  0.1067908E+00
        -11   -1    0    0    0    0  0.00000000000E+00  0.00000000000E+00  0.18250000000E+03  0.18250000000E+03  0.00000000000E+00 0. -1.
         11   -1    0    0    0    0 -0.00000000000E+00 -0.00000000000E+00 -0.18250000000E+03  0.18250000000E+03  0.00000000000E+00 0.  1.
        -11    1    1    2    0    0  0.28191547535E+01 -0.44505376643E+01  0.13839937686E+03  0.13849961168E+03  0.00000000000E+00 0. -1.
         11    1    1    2    0    0 -0.16231758438E+01 -0.45242550641E+01 -0.18174837252E+03  0.18181192067E+03  0.00000000000E+00 0.  1.
        -15    1    1    2    0    0  0.16215864994E+00  0.80680237160E+01  0.29712991614E+02  0.30840539907E+02  0.17770000000E+01 0.  1.
         15    1    1    2    0    0 -0.13581375596E+01  0.90676901250E+00  0.13636004040E+02  0.13847927746E+02  0.17770000000E+01 0. -1.
</event>
<event>
 6    1  0.1059789E-002  0.1832514E+03  0.7546771E-02  0.1067858E+00
        -11   -1    0    0    0    0  0.00000000000E+00  0.00000000000E+00  0.18250000000E+03  0.18250000000E+03  0.00000000000E+00 0.  1.
         11   -1    0    0    0    0 -0.00000000000E+00 -0.00000000000E+00 -0.18250000000E+03  0.18250000000E+03  0.00000000000E+00 0.  1.
        -11    1    1    2    0    0 -0.12063415873E+01  0.29016771006E+01  0.18172145202E+03  0.18174862067E+03  0.00000000000E+00 0.  1.
         11    1    1    2    0    0 -0.45192052183E+01  0.27002203260E+01 -0.14381534380E+03  0.14391166568E+03  0.00000000000E+00 0.  1.
        -15    1    1    2    0    0  0.50613006680E+01 -0.44945100647E+01 -0.35021881689E+02  0.35714245214E+02  0.17770000000E+01 0.  1.
         15    1    1    2    0    0  0.66424613762E+00 -0.11073873619E+01 -0.28842265350E+01  0.36254684395E+01  0.17770000000E+01 0. -1.
</event>
<event>
 6    1  0.1059789E-002  0.1831492E+03  0.7546771E-02  0.1067939E+00
        -11   -1    0    0    0    0  0.00000000000E+00  0.00000000000E+00  0.18250000000E+03  0.18250000000E+03  0.00000000000E+00 0. -1.
         11   -1    0    0    0    0 -0.00000000000E+00 -0.00000000000E+00 -0.18250000000E+03  0.18250000000E+03  0.00000000000E+00 0.  1.
        -11    1    1    2    0    0  0.20533130292E+01  0.40540899356E+01  0.18179396365E+03  0.18185075463E+03  0.00000000000E+00 0. -1.
         11    1    1    2    0    0  0.31209247869E+01  0.69949948004E+00 -0.86705839831E+02  0.86764809294E+02  0.00000000000E+00 0.  1.
        -15    1    1    2    0    0  0.23081934312E+01 -0.51159342706E+01 -0.67065954708E+02  0.67323848302E+02  0.17770000000E+01 0.  1.
         15    1    1    2    0    0 -0.74824312473E+01  0.36234485498E+00 -0.28022169111E+02  0.29060587775E+02  0.17770000000E+01 0. -1.
</event>
<event>
 6    1  0.1059789E-002  0.1740595E+03  0.7546771E-02  0.1075379E+00
        -11   -1    0    0    0    0  0.00000000000E+00  0.00000000000E+00  0.18250000000E+03  0.18250000000E+03  0.00000000000E+00 0.  1.
         11   -1    0    0    0    0 -0.00000000000E+00 -0.00000000000E+00 -0.18250000000E+03  0.18250000000E+03  0.00000000000E+00 0.  1.
        -11    1    1    2    0    0  0.44108913282E+01 -0.80540724930E+01  0.17423118246E+03  0.17447300360E+03  0.00000000000E+00 0.  1.
         11    1    1    2    0    0 -0.12261085694E+01 -0.27003528983E+01 -0.17380166171E+03  0.17382696241E+03  0.00000000000E+00 0.  1.
        -15    1    1    2    0    0 -0.60384698179E+01  0.81404489961E+01  0.35363758199E+01  0.10880887397E+02  0.17770000000E+01 0. -1.
         15    1    1    2    0    0  0.28536870591E+01  0.26139763951E+01 -0.39658965672E+01  0.58191465876E+01  0.17770000000E+01 0.  1.
</event>
<event>
 6    1  0.1059789E-002  0.1901316E+03  0.7546771E-02  0.1062537E+00
        -11   -1    0    0    0    0  0.00000000000E+00  0.00000000000E+00  0.18250000000E+03  0.18250000000E+03  0.00000000000E+00 0. -1.
         11   -1    0    0    0    0 -0.00000000000E+00 -0.00000000000E+00 -0.18250000000E+03  0.18250000000E+03  0.00000000000E+00 0.  1.
        -11    1    1    2    0    0  0.38922328930E+01 -0.44475738272E+01  0.17476854110E+03  0.17486844584E+03  0.00000000000E+00 0. -1.
         11    1    1    2    0    0 -0.40759668563E+01 -0.97713965170E+01 -0.16247058060E+03  0.16281518128E+03  0.00000000000E+00 0.  1.
        -15    1    1    2    0    0 -0.45006399197E+01  0.46697153481E+01 -0.14791280916E+02  0.16248129777E+02  0.17770000000E+01 0.  1.
         15    1    1    2    0    0  0.46843738830E+01  0.95492549961E+01  0.24933204123E+01  0.11068243101E+02  0.17770000000E+01 0. -1.
</event>
<event>
 6    1  0.1059789E-002  0.1854992E+03  0.7546771E-02  0.1066092E+00
        -11   -1    0    0    0    0  0.00000000000E+00  0.00000000000E+00  0.18250000000E+03  0.18250000000E+03  0.00000000000E+00 0.  1.
         11   -1    0    0    0    0 -0.00000000000E+00 -0.00000000000E+00 -0.18250000000E+03  0.18250000000E+03  0.00000000000E+00 0.  1.
        -11    1    1    2    0    0 -0.27182192290E+01  0.11045489356E+01  0.17947682811E+03  0.17950080939E+03  0.00000000000E+00 0.  1.
         11    1    1    2    0    0  0.39092226326E+01  0.28567923909E+01 -0.16169656387E+03  0.16176903923E+03  0.00000000000E+00 0.  1.
        -15    1    1    2    0    0  0.47335983985E+01 -0.66212933385E+01 -0.63930669352E+01  0.10501310066E+02  0.17770000000E+01 0.  1.
         15    1    1    2    0    0 -0.59246018020E+01  0.26599520120E+01 -0.11387197301E+02  0.13228841317E+02  0.17770000000E+01 0. -1.
</event>
<event>
 6    1  0.1059789E-002  0.1886698E+03  0.7546771E-02  0.1063647E+00
        -11   -1    0    0    0    0  0.00000000000E+00  0.00000000000E+00  0.18250000000E+03  0.18250000000E+03  0.00000000000E+00 0. -1.
         11   -1    0    0    0    0 -0.00000000000E+00 -0.00000000000E+00 -0.18250000000E+03  0.18250000000E+03  0.00000000000E+00 0. -1.
        -11    1    1    2    0    0  0.87141045906E+00  0.15131072331E+01  0.69603402681E+02  0.69625300821E+02  0.00000000000E+00 0. -1.
         11    1    1    2    0    0  0.54826444559E+01  0.45295868399E+01 -0.17618668492E+03  0.17633015763E+03  0.00000000000E+00 0. -1.
        -15    1    1    2    0    0 -0.16558168503E+01 -0.38010784109E+01  0.11154537609E+03  0.11163654681E+03  0.17770000000E+01 0.  1.
         15    1    1    2    0    0 -0.46982380647E+01 -0.22416156621E+01 -0.49620938579E+01  0.74079947452E+01  0.17770000000E+01 0. -1.
</event>
<event>
 6    1  0.1059789E-002  0.1860634E+03  0.7546771E-02  0.1065653E+00
        -11   -1    0    0    0    0  0.00000000000E+00  0.00000000000E+00  0.18250000000E+03  0.18250000000E+03  0.00000000000E+00 0. -1.
         11   -1    0    0    0    0 -0.00000000000E+00 -0.00000000000E+00 -0.18250000000E+03  0.18250000000E+03  0.00000000000E+00 0. -1.
        -11    1    1    2    0    0  0.52070164931E+01 -0.16366543532E-01  0.17886080346E+03  0.17893658179E+03  0.00000000000E+00 0. -1.
         11    1    1    2    0    0  0.33145583957E+00  0.25002769146E+01 -0.17399995499E+03  0.17401823348E+03  0.00000000000E+00 0. -1.
        -15    1    1    2    0    0 -0.39681552297E+01  0.23436643177E+01 -0.22493658988E+00  0.49444255309E+01  0.17770000000E+01 0.  1.
         15    1    1    2    0    0 -0.15703171030E+01 -0.48275746887E+01 -0.46359118811E+01  0.71007591952E+01  0.17770000000E+01 0. -1.
</event>
<event>
 6    1  0.1059789E-002  0.1834110E+03  0.7546771E-02  0.1067732E+00
        -11   -1    0    0    0    0  0.00000000000E+00  0.00000000000E+00  0.18250000000E+03  0.18250000000E+03  0.00000000000E+00 0.  1.
         11   -1    0    0    0    0 -0.00000000000E+00 -0.00000000000E+00 -0.18250000000E+03  0.18250000000E+03  0.00000000000E+00 0. -1.
        -11    1    1    2    0    0 -0.48915779646E+01  0.11568812958E+01  0.15289787451E+03  0.15298047568E+03  0.00000000000E+00 0.  1.
         11    1    1    2    0    0  0.36659981573E+01 -0.32794188816E+01 -0.18152237959E+03  0.18158900964E+03  0.00000000000E+00 0. -1.
        -15    1    1    2    0    0 -0.19686317466E+01  0.13360433212E+01  0.20837736373E+01  0.36277216378E+01  0.17770000000E+01 0.  1.
         15    1    1    2    0    0  0.31942115539E+01  0.78649426462E+00  0.26540731437E+02  0.26802793043E+02  0.17770000000E+01 0. -1.
</event>
<event>
 6    1  0.1059789E-002  0.1980225E+03  0.7546771E-02  0.1056729E+00
        -11   -1    0    0    0    0  0.00000000000E+00  0.00000000000E+00  0.18250000000E+03  0.18250000000E+03  0.00000000000E+00 0. -1.
         11   -1    0    0    0    0 -0.00000000000E+00 -0.00000000000E+00 -0.18250000000E+03  0.18250000000E+03  0.00000000000E+00 0. -1.
        -11    1    1    2    0    0  0.27684026530E+01 -0.58090202459E+01  0.11672115583E+03  0.11689840456E+03  0.00000000000E+00 0. -1.
         11    1    1    2    0    0  0.13193632617E+01 -0.22171321910E+01 -0.16695759635E+03  0.16697752955E+03  0.00000000000E+00 0. -1.
        -15    1    1    2    0    0 -0.97158199938E+01 -0.23503048127E+02  0.55074002570E+01  0.26082170462E+02  0.17770000000E+01 0.  1.
         15    1    1    2    0    0  0.56280540791E+01  0.31529200564E+02  0.44729040261E+02  0.55041895430E+02  0.17770000000E+01 0. -1.
</event>
<event>
 6    1  0.1059789E-002  0.1838687E+03  0.7546771E-02  0.1067371E+00
        -11   -1    0    0    0    0  0.00000000000E+00  0.00000000000E+00  0.18250000000E+03  0.18250000000E+03  0.00000000000E+00 0.  1.
         11   -1    0    0    0    0 -0.00000000000E+00 -0.00000000000E+00 -0.18250000000E+03  0.18250000000E+03  0.00000000000E+00 0.  1.
        -11    1    1    2    0    0 -0.79230211543E+00  0.23877266792E+01  0.18111387751E+03  0.18113134905E+03  0.00000000000E+00 0.  1.
         11    1    1    2    0    0 -0.16632444934E+01 -0.52676937326E+01 -0.17212603436E+03  0.17221465293E+03  0.00000000000E+00 0.  1.
        -15    1    1    2    0    0  0.70265210182E-01 -0.50098408480E+00 -0.30460389428E+00  0.18725476724E+01  0.17770000000E+01 0.  1.
         15    1    1    2    0    0  0.23852813987E+01  0.33809511382E+01 -0.86832392551E+01  0.97814503481E+01  0.17770000000E+01 0. -1.
</event>
<event>
 6    1  0.1059789E-002  0.1839371E+03  0.7546771E-02  0.1067317E+00
        -11   -1    0    0    0    0  0.00000000000E+00  0.00000000000E+00  0.18250000000E+03  0.18250000000E+03  0.00000000000E+00 0. -1.
         11   -1    0    0    0    0 -0.00000000000E+00 -0.00000000000E+00 -0.18250000000E+03  0.18250000000E+03  0.00000000000E+00 0. -1.
        -11    1    1    2    0    0 -0.21318929516E+01 -0.13342833981E+01  0.20844692183E+02  0.20995867974E+02  0.00000000000E+00 0. -1.
         11    1    1    2    0    0  0.21099265998E+01 -0.52328693677E+01 -0.18097496059E+03  0.18106289259E+03  0.00000000000E+00 0. -1.
        -15    1    1    2    0    0  0.51106828317E+01  0.48696126771E+01  0.15540368482E+03  0.15557408264E+03  0.17770000000E+01 0. -1.
         15    1    1    2    0    0 -0.50887164799E+01  0.16975400887E+01  0.47265835916E+01  0.73671567931E+01  0.17770000000E+01 0.  1.
</event>
<event>
 6    1  0.1059789E-002  0.1835029E+03  0.7546771E-02  0.1067659E+00
        -11   -1    0    0    0    0  0.00000000000E+00  0.00000000000E+00  0.18250000000E+03  0.18250000000E+03  0.00000000000E+00 0.  1.
         11   -1    0    0    0    0 -0.00000000000E+00 -0.00000000000E+00 -0.18250000000E+03  0.18250000000E+03  0.00000000000E+00 0.  1.
        -11    1    1    2    0    0  0.19373055843E+00 -0.21638013732E+01  0.15812701478E+03  0.15814193742E+03  0.00000000000E+00 0.  1.
         11    1    1    2    0    0 -0.92015715856E+00  0.22759149007E+01 -0.18148051267E+03  0.18149711556E+03  0.00000000000E+00 0.  1.
        -15    1    1    2    0    0 -0.20110368075E+01 -0.37812268269E+01  0.80617246049E+01  0.93000579548E+01  0.17770000000E+01 0.  1.
         15    1    1    2    0    0  0.27374634076E+01  0.36691132994E+01  0.15291773285E+02  0.16060889063E+02  0.17770000000E+01 0. -1.
</event>
<event>
 6    1  0.1059789E-002  0.1825501E+03  0.7546771E-02  0.1068415E+00
        -11   -1    0    0    0    0  0.00000000000E+00  0.00000000000E+00  0.18250000000E+03  0.18250000000E+03  0.00000000000E+00 0.  1.
         11   -1    0    0    0    0 -0.00000000000E+00 -0.00000000000E+00 -0.18250000000E+03  0.18250000000E+03  0.00000000000E+00 0. -1.
        -11    1    1    2    0    0 -0.16655989535E+01  0.35426366858E+01  0.18240791268E+03  0.18244991396E+03  0.00000000000E+00 0.  1.
         11    1    1    2    0    0  0.92574395011E+00 -0.77144050986E+00 -0.46479617706E+02  0.46495236148E+02  0.00000000000E+00 0. -1.
        -15    1    1    2    0    0  0.88315860992E+00  0.57638882970E+00 -0.44631938057E+02  0.44679747279E+02  0.17770000000E+01 0. -1.
         15    1    1    2    0    0 -0.14330360653E+00 -0.33475850057E+01 -0.91296356921E+02  0.91375102612E+02  0.17770000000E+01 0. -1.
</event>
<event>
 6    1  0.1059789E-002  0.1826932E+03  0.7546771E-02  0.1068301E+00
        -11   -1    0    0    0    0  0.00000000000E+00  0.00000000000E+00  0.18250000000E+03  0.18250000000E+03  0.00000000000E+00 0. -1.
         11   -1    0    0    0    0 -0.00000000000E+00 -0.00000000000E+00 -0.18250000000E+03  0.18250000000E+03  0.00000000000E+00 0.  1.
        -11    1    1    2    0    0  0.81608629562E+00 -0.27816423963E+00  0.54399436267E+02  0.54406268374E+02  0.00000000000E+00 0. -1.
         11    1    1    2    0    0  0.20732513571E+01  0.20200747431E+01 -0.18228377562E+03  0.18230675776E+03  0.00000000000E+00 0.  1.
        -15    1    1    2    0    0 -0.42893749702E+00 -0.25923673261E+01  0.11421146738E+03  0.11425550913E+03  0.17770000000E+01 0. -1.
         15    1    1    2    0    0 -0.24604001557E+01  0.85045682260E+00  0.13672871969E+02  0.14031464735E+02  0.17770000000E+01 0.  1.
</event>
<event>
 6    1  0.1059789E-002  0.1841806E+03  0.7546771E-02  0.1067125E+00
        -11   -1    0    0    0    0  0.00000000000E+00  0.00000000000E+00  0.18250000000E+03  0.18250000000E+03  0.00000000000E+00 0.  1.
         11   -1    0    0    0    0 -0.00000000000E+00 -0.00000000000E+00 -0.18250000000E+03  0.18250000000E+03  0.00000000000E+00 0.  1.
        -11    1    1    2    0    0  0.51514971569E+00  0.26690211242E+01  0.18079899811E+03  0.18081943139E+03  0.00000000000E+00 0.  1.
         11    1    1    2    0    0  0.29072981068E+01  0.76263727189E+00 -0.17175704177E+03  0.17178333853E+03  0.00000000000E+00 0.  1.
        -15    1    1    2    0    0 -0.35466766738E+01 -0.17573203451E+01 -0.89553018264E+01  0.99509924141E+01  0.17770000000E+01 0.  1.
         15    1    1    2    0    0  0.12422885131E+00 -0.16743380510E+01 -0.86654512573E-01  0.24462376665E+01  0.17770000000E+01 0. -1.
</event>
<event>
 6    1  0.1059789E-002  0.1892372E+03  0.7546771E-02  0.1063215E+00
        -11   -1    0    0    0    0  0.00000000000E+00  0.00000000000E+00  0.18250000000E+03  0.18250000000E+03  0.00000000000E+00 0.  1.
         11   -1    0    0    0    0 -0.00000000000E+00 -0.00000000000E+00 -0.18250000000E+03  0.18250000000E+03  0.00000000000E+00 0.  1.
        -11    1    1    2    0    0  0.58099818832E+01 -0.21030487796E+01  0.16901373888E+03  0.16912664673E+03  0.00000000000E+00 0.  1.
         11    1    1    2    0    0 -0.14126431779E+01 -0.33827097776E+01 -0.17572454488E+03  0.17576277751E+03  0.00000000000E+00 0.  1.
        -15    1    1    2    0    0 -0.57939141932E+01  0.15177563150E+01  0.11751506365E+02  0.13308969034E+02  0.17770000000E+01 0.  1.
         15    1    1    2    0    0  0.13965754879E+01  0.39680022422E+01 -0.50407003665E+01  0.68016067273E+01  0.17770000000E+01 0.  1.
</event>
<event>
 6    1  0.1059789E-002  0.1834271E+03  0.7546771E-02  0.1067719E+00
        -11   -1    0    0    0    0  0.00000000000E+00  0.00000000000E+00  0.18250000000E+03  0.18250000000E+03  0.00000000000E+00 0. -1.
         11   -1    0    0    0    0 -0.00000000000E+00 -0.00000000000E+00 -0.18250000000E+03  0.18250000000E+03  0.00000000000E+00 0.  1.
        -11    1    1    2    0    0  0.61490069911E+00 -0.11743908175E+01  0.96445565924E+02  0.96454675797E+02  0.00000000000E+00 0. -1.
         11    1    1    2    0    0 -0.23010727247E+01  0.50760603616E+01 -0.18148730972E+03  0.18157286392E+03  0.00000000000E+00 0.  1.
        -15    1    1    2    0    0  0.20775907255E+01  0.11120635144E+01  0.78393798747E+02  0.78449337024E+02  0.17770000000E+01 0. -1.
         15    1    1    2    0    0 -0.39141869994E+00 -0.50137330585E+01  0.66479450444E+01  0.85231232594E+01  0.17770000000E+01 0.  1.
</event>
<event>
 6    1  0.1059789E-002  0.1889123E+03  0.7546771E-02  0.1063462E+00
        -11   -1    0    0    0    0  0.00000000000E+00  0.00000000000E+00  0.18250000000E+03  0.18250000000E+03  0.00000000000E+00 0.  1.
         11   -1    0    0    0    0 -0.00000000000E+00 -0.00000000000E+00 -0.18250000000E+03  0.18250000000E+03  0.00000000000E+00 0. -1.
        -11    1    1    2    0    0  0.17628630577E+01  0.48668311842E+01  0.14362695489E+03  0.14372020006E+03  0.00000000000E+00 0.  1.
         11    1    1    2    0    0 -0.67382268430E+01  0.53935499133E+01 -0.17587603437E+03  0.17608768710E+03  0.00000000000E+00 0. -1.
        -15    1    1    2    0    0  0.99673050490E+01 -0.97409487683E+01  0.16648157086E+01  0.14147882993E+02  0.17770000000E+01 0.  1.
         15    1    1    2    0    0 -0.49919412637E+01 -0.51943232914E+00  0.30584263771E+02  0.31044229849E+02  0.17770000000E+01 0. -1.
</event>
<event>
 6    1  0.1059789E-002  0.1828006E+03  0.7546771E-02  0.1068216E+00
        -11   -1    0    0    0    0  0.00000000000E+00  0.00000000000E+00  0.18250000000E+03  0.18250000000E+03  0.00000000000E+00 0. -1.
         11   -1    0    0    0    0 -0.00000000000E+00 -0.00000000000E+00 -0.18250000000E+03  0.18250000000E+03  0.00000000000E+00 0.  1.
        -11    1    1    2    0    0  0.39473177652E+01  0.57137938224E+01  0.18206699781E+03  0.18219939750E+03  0.00000000000E+00 0. -1.
         11    1    1    2    0    0  0.22707758642E+01 -0.24073896527E+01 -0.12289043255E+03  0.12293498428E+03  0.00000000000E+00 0.  1.
        -15    1    1    2    0    0 -0.55252448415E+01 -0.39363843252E+01 -0.48073009394E+02  0.48581842424E+02  0.17770000000E+01 0. -1.
         15    1    1    2    0    0 -0.69284878780E+00  0.62998015551E+00 -0.11103555862E+02  0.11283775796E+02  0.17770000000E+01 0. -1.
</event>
<event>
 6    1  0.1059789E-002  0.2003974E+03  0.7546771E-02  0.1055039E+00
        -11   -1    0    0    0    0  0.00000000000E+00  0.00000000000E+00  0.18250000000E+03  0.18250000000E+03  0.00000000000E+00 0. -1.
         11   -1    0    0    0    0 -0.00000000000E+00 -0.00000000000E+00 -0.18250000000E+03  0.18250000000E+03  0.00000000000E+00 0. -1.
        -11    1    1    2    0    0  0.91232031162E+01 -0.58252615455E+01  0.13676093178E+03  0.13718862551E+03  0.00000000000E+00 0. -1.
         11    1    1    2    0    0 -0.84750646817E+01  0.20437151213E+02 -0.16310892777E+03  0.16460263118E+03  0.00000000000E+00 0. -1.
        -15    1    1    2    0    0  0.25080004605E+02  0.36834601000E+01  0.15572450159E+02  0.29803245499E+02  0.17770000000E+01 0. -1.
         15    1    1    2    0    0 -0.25728143040E+02 -0.18295349767E+02  0.10775545829E+02  0.33405497816E+02  0.17770000000E+01 0.  1.
</event>
<event>
 6    1  0.1059789E-002  0.1848915E+03  0.7546771E-02  0.1066567E+00
        -11   -1    0    0    0    0  0.00000000000E+00  0.00000000000E+00  0.18250000000E+03  0.18250000000E+03  0.00000000000E+00 0. -1.
         11   -1    0    0    0    0 -0.00000000000E+00 -0.00000000000E+00 -0.18250000000E+03  0.18250000000E+03  0.00000000000E+00 0.  1.
        -11    1    1    2    0    0  0.36557009649E+01 -0.21639402552E+01  0.18005839640E+03  0.18010850313E+03  0.00000000000E+00 0. -1.
         11    1    1    2    0    0  0.21356096365E+01  0.20978944045E+01 -0.16323116279E+03  0.16325861232E+03  0.00000000000E+00 0.  1.
        -15    1    1    2    0    0 -0.25136074653E+01 -0.10765145894E+01 -0.17389822952E+02  0.17692958414E+02  0.17770000000E+01 0.  1.
         15    1    1    2    0    0 -0.32777031361E+01  0.11425604401E+01  0.56258934695E+00  0.39399261390E+01  0.17770000000E+01 0.  1.
</event>
<event>
 6    1  0.1059789E-002  0.1830502E+03  0.7546771E-02  0.1068018E+00
        -11   -1    0    0    0    0  0.00000000000E+00  0.00000000000E+00  0.18250000000E+03  0.18250000000E+03  0.00000000000E+00 0.  1.
         11   -1    0    0    0    0 -0.00000000000E+00 -0.00000000000E+00 -0.18250000000E+03  0.18250000000E+03  0.00000000000E+00 0.  1.
        -11    1    1    2    0    0 -0.12761360687E+01  0.14324671323E+01  0.83946739559E+02  0.83968658248E+02  0.00000000000E+00 0.  1.
         11    1    1    2    0    0 -0.50358364281E-01 -0.32338290608E+01 -0.18192106869E+03  0.18194981566E+03  0.00000000000E+00 0.  1.
        -15    1    1    2    0    0 -0.43682853947E+00  0.34602745439E+01  0.67135357386E+01  0.77713325888E+01  0.17770000000E+01 0.  1.
         15    1    1    2    0    0  0.17633229724E+01 -0.16589126154E+01  0.91260793389E+02  0.91310193505E+02  0.17770000000E+01 0.  1.
</event>
<event>
 6    1  0.1059789E-002  0.1827465E+03  0.7546771E-02  0.1068259E+00
        -11   -1    0    0    0    0  0.00000000000E+00  0.00000000000E+00  0.18250000000E+03  0.18250000000E+03  0.00000000000E+00 0. -1.
         11   -1    0    0    0    0 -0.00000000000E+00 -0.00000000000E+00 -0.18250000000E+03  0.18250000000E+03  0.00000000000E+00 0.  1.
        -11    1    1    2    0    0  0.27503051887E+01  0.18293372676E+01  0.18222358320E+03  0.18225351829E+03  0.00000000000E+00 0. -1.
         11    1    1    2    0    0  0.19201678535E+01 -0.14830962831E+01 -0.10757457509E+03  0.10760193225E+03  0.00000000000E+00 0.  1.
        -15    1    1    2    0    0 -0.47579256174E+01 -0.20597340130E+01 -0.35800383915E+02  0.36217476138E+02  0.17770000000E+01 0. -1.
         15    1    1    2    0    0  0.87452575285E-01  0.17134930285E+01 -0.38848624200E+02  0.38927073324E+02  0.17770000000E+01 0.  1.
</event>
<event>
 6    1  0.1059789E-002  0.1840295E+03  0.7546771E-02  0.1067244E+00
        -11   -1    0    0    0    0  0.00000000000E+00  0.00000000000E+00  0.18250000000E+03  0.18250000000E+03  0.00000000000E+00 0.  1.
         11   -1    0    0    0    0 -0.00000000000E+00 -0.00000000000E+00 -0.18250000000E+03  0.18250000000E+03  0.00000000000E+00 0. -1.
        -11    1    1    2    0    0  0.14267489732E+00 -0.39371336819E+01  0.18092756739E+03  0.18097045621E+03  0.00000000000E+00 0.  1.
         11    1    1    2    0    0  0.45374957802E+01 -0.26064813802E+01 -0.13639428597E+03  0.13649462941E+03  0.00000000000E+00 0. -1.
        -15    1    1    2    0    0 -0.20822801440E+00 -0.57002526808E+00 -0.33502106768E+02  0.33554689309E+02  0.17770000000E+01 0. -1.
         15    1    1    2    0    0 -0.44719426631E+01  0.71136403302E+01 -0.11031174651E+02  0.13980225074E+02  0.17770000000E+01 0.  1.
</event>
<event>
 6    1  0.1059789E-002  0.1933060E+03  0.7546771E-02  0.1060164E+00
        -11   -1    0    0    0    0  0.00000000000E+00  0.00000000000E+00  0.18250000000E+03  0.18250000000E+03  0.00000000000E+00 0.  1.
         11   -1    0    0    0    0 -0.00000000000E+00 -0.00000000000E+00 -0.18250000000E+03  0.18250000000E+03  0.00000000000E+00 0. -1.
        -11    1    1    2    0    0  0.91343907362E+00 -0.57752975256E+00  0.61401355418E+02  0.61410865152E+02  0.00000000000E+00 0.  1.
         11    1    1    2    0    0 -0.85847816579E+01  0.28452105294E+01 -0.17145566316E+03  0.17169402473E+03  0.00000000000E+00 0. -1.
        -15    1    1    2    0    0  0.10732244512E+02 -0.21021158886E+02  0.38384651619E+01  0.23978359764E+02  0.17770000000E+01 0. -1.
         15    1    1    2    0    0 -0.30609019275E+01  0.18753478109E+02  0.10621584258E+03  0.10791675035E+03  0.17770000000E+01 0.  1.
</event>
<event>
 6    1  0.1059789E-002  0.1844667E+03  0.7546771E-02  0.1066900E+00
        -11   -1    0    0    0    0  0.00000000000E+00  0.00000000000E+00  0.18250000000E+03  0.18250000000E+03  0.00000000000E+00 0. -1.
         11   -1    0    0    0    0 -0.00000000000E+00 -0.00000000000E+00 -0.18250000000E+03  0.18250000000E+03  0.00000000000E+00 0. -1.
        -11    1    1    2    0    0  0.28465898253E+01  0.66679393176E+00  0.13924012186E+03  0.13927081253E+03  0.00000000000E+00 0. -1.
         11    1    1    2    0    0 -0.19752650495E+01  0.23624525684E+01 -0.18050701860E+03  0.18053328396E+03  0.00000000000E+00 0. -1.
        -15    1    1    2    0    0 -0.15363820523E+01 -0.44716992003E+01  0.13778581291E+01  0.52357220679E+01  0.17770000000E+01 0. -1.
         15    1    1    2    0    0  0.66505727654E+00  0.14424527001E+01  0.39889038611E+02  0.39960181447E+02  0.17770000000E+01 0.  1.
</event>
<event>
 6    1  0.1059789E-002  0.1977188E+03  0.7546771E-02  0.1056947E+00
        -11   -1    0    0    0    0  0.00000000000E+00  0.00000000000E+00  0.18250000000E+03  0.18250000000E+03  0.00000000000E+00 0.  1.
         11   -1    0    0    0    0 -0.00000000000E+00 -0.00000000000E+00 -0.18250000000E+03  0.18250000000E+03  0.00000000000E+00 0.  1.
        -11    1    1    2    0    0  0.56926295787E+01  0.93558944122E+01  0.16692229551E+03  0.16728117506E+03  0.00000000000E+00 0.  1.
         11    1    1    2    0    0 -0.58223799286E+01  0.58148209343E+01 -0.14635652973E+03  0.14658767358E+03  0.00000000000E+00 0.  1.
        -15    1    1    2    0    0 -0.19508251141E+02  0.27876225818E+01 -0.56691784228E+01  0.20582517223E+02  0.17770000000E+01 0. -1.
         15    1    1    2    0    0  0.19638001491E+02 -0.17958337928E+02 -0.14896587353E+02  0.30548634135E+02  0.17770000000E+01 0.  1.
</event>
<event>
 6    1  0.1059789E-002  0.1843358E+03  0.7546771E-02  0.1067003E+00
        -11   -1    0    0    0    0  0.00000000000E+00  0.00000000000E+00  0.18250000000E+03  0.18250000000E+03  0.00000000000E+00 0.  1.
         11   -1    0    0    0    0 -0.00000000000E+00 -0.00000000000E+00 -0.18250000000E+03  0.18250000000E+03  0.00000000000E+00 0.  1.
        -11    1    1    2    0    0  0.25162476671E+01  0.25655980584E+00  0.18064648756E+03  0.18066419345E+03  0.00000000000E+00 0.  1.
         11    1    1    2    0    0  0.36960703955E+01  0.19348072592E+01 -0.16721953080E+03  0.16727156332E+03  0.00000000000E+00 0.  1.
        -15    1    1    2    0    0 -0.62611702162E+01  0.12746319627E+01 -0.86780808914E+01  0.10922168103E+02  0.17770000000E+01 0.  1.
         15    1    1    2    0    0  0.48852153635E-01 -0.34659990277E+01 -0.47488758709E+01  0.61420751241E+01  0.17770000000E+01 0. -1.
</event>
<event>
 6    1  0.1059789E-002  0.1874786E+03  0.7546771E-02  0.1064560E+00
        -11   -1    0    0    0    0  0.00000000000E+00  0.00000000000E+00  0.18250000000E+03  0.18250000000E+03  0.00000000000E+00 0.  1.
         11   -1    0    0    0    0 -0.00000000000E+00 -0.00000000000E+00 -0.18250000000E+03  0.18250000000E+03  0.00000000000E+00 0.  1.
        -11    1    1    2    0    0  0.15098866061E+01  0.30594123126E-01  0.99449906939E+02  0.99461372823E+02  0.00000000000E+00 0.  1.
         11    1    1    2    0    0 -0.13447127693E+01  0.20455631642E+01 -0.17750453497E+03  0.17752141425E+03  0.00000000000E+00 0.  1.
        -15    1    1    2    0    0 -0.48902445756E+01  0.18141881975E+01  0.80864481710E+02  0.81052007391E+02  0.17770000000E+01 0.  1.
         15    1    1    2    0    0  0.47250707388E+01 -0.38903454848E+01 -0.28098536758E+01  0.69652055359E+01  0.17770000000E+01 0. -1.
</event>
<event>
 6    1  0.1059789E-002  0.1886926E+03  0.7546771E-02  0.1063630E+00
        -11   -1    0    0    0    0  0.00000000000E+00  0.00000000000E+00  0.18250000000E+03  0.18250000000E+03  0.00000000000E+00 0.  1.
         11   -1    0    0    0    0 -0.00000000000E+00 -0.00000000000E+00 -0.18250000000E+03  0.18250000000E+03  0.00000000000E+00 0. -1.
        -11    1    1    2    0    0 -0.28386208684E+00 -0.25254475729E+01  0.17628910552E+03  0.17630742238E+03  0.00000000000E+00 0.  1.
         11    1    1    2    0    0  0.18794045634E+01 -0.19803876753E+01 -0.16439738742E+03  0.16442005683E+03  0.00000000000E+00 0. -1.
        -15    1    1    2    0    0  0.61711482410E+01  0.72285536005E+01 -0.12531852415E+02  0.15828458918E+02  0.17770000000E+01 0. -1.
         15    1    1    2    0    0 -0.77666907176E+01 -0.27227183523E+01  0.64013431445E+00  0.84440618703E+01  0.17770000000E+01 0.  1.
</event>
<event>
 6    1  0.1059789E-002  0.1826530E+03  0.7546771E-02  0.1068333E+00
        -11   -1    0    0    0    0  0.00000000000E+00  0.00000000000E+00  0.18250000000E+03  0.18250000000E+03  0.00000000000E+00 0. -1.
         11   -1    0    0    0    0 -0.00000000000E+00 -0.00000000000E+00 -0.18250000000E+03  0.18250000000E+03  0.00000000000E+00 0. -1.
        -11    1    1    2    0    0 -0.20993152904E+01  0.10593616071E+01  0.11200099714E+03  0.11202567889E+03  0.00000000000E+00 0. -1.
         11    1    1    2    0    0 -0.20610911023E+01 -0.28702136863E+01 -0.18231271891E+03  0.18234695966E+03  0.00000000000E+00 0. -1.
        -15    1    1    2    0    0  0.68881847595E+00  0.11800383962E+00  0.36419148865E+02  0.36469172308E+02  0.17770000000E+01 0. -1.
         15    1    1    2    0    0  0.34715879168E+01  0.16928482397E+01  0.33892572905E+02  0.34158189134E+02  0.17770000000E+01 0.  1.
</event>
<event>
 6    1  0.1059789E-002  0.1901113E+03  0.7546771E-02  0.1062553E+00
        -11   -1    0    0    0    0  0.00000000000E+00  0.00000000000E+00  0.18250000000E+03  0.18250000000E+03  0.00000000000E+00 0.  1.
         11   -1    0    0    0    0 -0.00000000000E+00 -0.00000000000E+00 -0.18250000000E+03  0.18250000000E+03  0.00000000000E+00 0. -1.
        -11    1    1    2    0    0  0.77439746526E+01 -0.16360461947E+01  0.18462283386E+02  0.20087351702E+02  0.00000000000E+00 0.  1.
         11    1    1    2    0    0 -0.48967687543E+00 -0.52979246132E+01 -0.17480770189E+03  0.17488865152E+03  0.00000000000E+00 0. -1.
        -15    1    1    2    0    0 -0.54770749454E+01  0.18126273742E+02  0.15736281940E+03  0.15850796450E+03  0.17770000000E+01 0.  1.
         15    1    1    2    0    0 -0.17772228318E+01 -0.11192302935E+02 -0.10174008943E+01  0.11516032283E+02  0.17770000000E+01 0. -1.
</event>
<event>
 6    1  0.1059789E-002  0.1873232E+03  0.7546771E-02  0.1064679E+00
        -11   -1    0    0    0    0  0.00000000000E+00  0.00000000000E+00  0.18250000000E+03  0.18250000000E+03  0.00000000000E+00 0.  1.
         11   -1    0    0    0    0 -0.00000000000E+00 -0.00000000000E+00 -0.18250000000E+03  0.18250000000E+03  0.00000000000E+00 0. -1.
        -11    1    1    2    0    0 -0.11760341708E+02 -0.17476819222E+01  0.16319348468E+03  0.16362601710E+03  0.00000000000E+00 0.  1.
         11    1    1    2    0    0 -0.11233820717E+01  0.28766144189E+01 -0.17764996844E+03  0.17767680824E+03  0.00000000000E+00 0. -1.
        -15    1    1    2    0    0  0.69895376462E+01  0.59777886393E+01  0.68883784858E+01  0.11627341944E+02  0.17770000000E+01 0. -1.
         15    1    1    2    0    0  0.58941861336E+01 -0.71067211360E+01  0.75681052757E+01  0.12069832722E+02  0.17770000000E+01 0.  1.
</event>
<event>
 6    1  0.1059789E-002  0.1826408E+03  0.7546771E-02  0.1068343E+00
        -11   -1    0    0    0    0  0.00000000000E+00  0.00000000000E+00  0.18250000000E+03  0.18250000000E+03  0.00000000000E+00 0. -1.
         11   -1    0    0    0    0 -0.00000000000E+00 -0.00000000000E+00 -0.18250000000E+03  0.18250000000E+03  0.00000000000E+00 0. -1.
        -11    1    1    2    0    0  0.21708309870E+01 -0.33961114091E+01  0.18231460634E+03  0.18235915597E+03  0.00000000000E+00 0. -1.
         11    1    1    2    0    0 -0.96263644814E+00 -0.12210669641E+01 -0.89365230865E+02  0.89378756766E+02  0.00000000000E+00 0. -1.
        -15    1    1    2    0    0  0.63780542892E-01  0.38270042595E+01 -0.79613728054E+02  0.79725488103E+02  0.17770000000E+01 0. -1.
         15    1    1    2    0    0 -0.12719750818E+01  0.79017411372E+00 -0.13335647423E+02  0.13536599164E+02  0.17770000000E+01 0.  1.
</event>
<event>
 6    1  0.1059789E-002  0.1832906E+03  0.7546771E-02  0.1067827E+00
        -11   -1    0    0    0    0  0.00000000000E+00  0.00000000000E+00  0.18250000000E+03  0.18250000000E+03  0.00000000000E+00 0. -1.
         11   -1    0    0    0    0 -0.00000000000E+00 -0.00000000000E+00 -0.18250000000E+03  0.18250000000E+03  0.00000000000E+00 0.  1.
        -11    1    1    2    0    0 -0.17823091836E+01 -0.18439702380E+01  0.12653771106E+03  0.12656369610E+03  0.00000000000E+00 0. -1.
         11    1    1    2    0    0 -0.26886934229E+01 -0.60996301930E+01 -0.18158707145E+03  0.18170938082E+03  0.00000000000E+00 0.  1.
        -15    1    1    2    0    0  0.55565879356E+01  0.59132734447E+01  0.21454819031E+02  0.23006726428E+02  0.17770000000E+01 0. -1.
         15    1    1    2    0    0 -0.10855853291E+01  0.20303269863E+01  0.33594541365E+02  0.33720196644E+02  0.17770000000E+01 0.  1.
</event>
<event>
 6    1  0.1059789E-002  0.1900449E+03  0.7546771E-02  0.1062603E+00
        -11   -1    0    0    0    0  0.00000000000E+00  0.00000000000E+00  0.18250000000E+03  0.18250000000E+03  0.00000000000E+00 0. -1.
         11   -1    0    0    0    0 -0.00000000000E+00 -0.00000000000E+00 -0.18250000000E+03  0.18250000000E+03  0.00000000000E+00 0. -1.
        -11    1    1    2    0    0  0.45644124442E+01  0.67093276348E+01  0.17476682655E+03  0.17495511596E+03  0.00000000000E+00 0. -1.
         11    1    1    2    0    0  0.31206146285E+01 -0.14290749330E+02 -0.16585168147E+03  0.16649547741E+03  0.00000000000E+00 0. -1.
        -15    1    1    2    0    0 -0.87831289800E+01  0.15535512973E+01  0.33761068667E+01  0.97011701814E+01  0.17770000000E+01 0. -1.
         15    1    1    2    0    0  0.10981019072E+01  0.60278703979E+01 -0.12291251950E+02  0.13848236452E+02  0.17770000000E+01 0.  1.
</event>
<event>
 6    1  0.1059789E-002  0.1862011E+03  0.7546771E-02  0.1065546E+00
        -11   -1    0    0    0    0  0.00000000000E+00  0.00000000000E+00  0.18250000000E+03  0.18250000000E+03  0.00000000000E+00 0.  1.
         11   -1    0    0    0    0 -0.00000000000E+00 -0.00000000000E+00 -0.18250000000E+03  0.18250000000E+03  0.00000000000E+00 0. -1.
        -11    1    1    2    0    0 -0.53687176737E+01 -0.45052445233E+01  0.16845461770E+03  0.16860035167E+03  0.00000000000E+00 0.  1.
         11    1    1    2    0    0 -0.20733961276E+01 -0.36804783827E+01 -0.17874901647E+03  0.17879892557E+03  0.00000000000E+00 0. -1.
        -15    1    1    2    0    0  0.87699519806E+01  0.78800444017E+01  0.77965572824E+01  0.14246093920E+02  0.17770000000E+01 0. -1.
         15    1    1    2    0    0 -0.13278381793E+01  0.30567850424E+00  0.24978414883E+01  0.33546288437E+01  0.17770000000E+01 0. -1.
</event>
<event>
 6    1  0.1059789E-002  0.1829825E+03  0.7546771E-02  0.1068071E+00
        -11   -1    0    0    0    0  0.00000000000E+00  0.00000000000E+00  0.18250000000E+03  0.18250000000E+03  0.00000000000E+00 0.  1.
         11   -1    0    0    0    0 -0.00000000000E+00 -0.00000000000E+00 -0.18250000000E+03  0.18250000000E+03  0.00000000000E+00 0.  1.
        -11    1    1    2    0    0 -0.38985133151E+01 -0.29769102380E+01  0.18195135462E+03  0.18201746029E+03  0.00000000000E+00 0.  1.
         11    1    1    2    0    0 -0.31336435987E+01 -0.61165111657E+00 -0.85574563967E+02  0.85634104406E+02  0.00000000000E+00 0.  1.
        -15    1    1    2    0    0  0.69619401248E+00  0.28962117491E+01 -0.79408478319E+01  0.86653056431E+01  0.17770000000E+01 0. -1.
         15    1    1    2    0    0  0.63359629014E+01  0.69234960549E+00 -0.88435942827E+02  0.88683129661E+02  0.17770000000E+01 0.  1.
</event>
<event>
 6    1  0.1059789E-002  0.1835744E+03  0.7546771E-02  0.1067603E+00
        -11   -1    0    0    0    0  0.00000000000E+00  0.00000000000E+00  0.18250000000E+03  0.18250000000E+03  0.00000000000E+00 0.  1.
         11   -1    0    0    0    0 -0.00000000000E+00 -0.00000000000E+00 -0.18250000000E+03  0.18250000000E+03  0.00000000000E+00 0. -1.
        -11    1    1    2    0    0  0.18922303859E-01  0.23079936441E+01  0.13827116857E+03  0.13829043080E+03  0.00000000000E+00 0.  1.
         11    1    1    2    0    0 -0.41767138245E+01 -0.74660807078E+01 -0.18122375800E+03  0.18142557087E+03  0.00000000000E+00 0. -1.
        -15    1    1    2    0    0  0.55177574460E+01  0.84191621498E+01  0.27661910513E+02  0.29490116324E+02  0.17770000000E+01 0.  1.
         15    1    1    2    0    0 -0.13599659254E+01 -0.32610750860E+01  0.15290678918E+02  0.15793882006E+02  0.17770000000E+01 0.  1.
</event>
<event>
 6    1  0.1059789E-002  0.1909458E+03  0.7546771E-02  0.1061924E+00
        -11   -1    0    0    0    0  0.00000000000E+00  0.00000000000E+00  0.18250000000E+03  0.18250000000E+03  0.00000000000E+00 0.  1.
         11   -1    0    0    0    0 -0.00000000000E+00 -0.00000000000E+00 -0.18250000000E+03  0.18250000000E+03  0.00000000000E+00 0. -1.
        -11    1    1    2    0    0 -0.21805966132E+01  0.94808224556E+00  0.16754240765E+03  0.16755927973E+03  0.00000000000E+00 0.  1.
         11    1    1    2    0    0 -0.31230441540E+01 -0.42458431931E+01 -0.17397439561E+03  0.17405421833E+03  0.00000000000E+00 0. -1.
        -15    1    1    2    0    0  0.30902166137E+01  0.39964209806E+01 -0.74639895381E+01  0.91863860249E+01  0.17770000000E+01 0. -1.
         15    1    1    2    0    0  0.22134241536E+01 -0.69866003298E+00  0.13895977503E+02  0.14200115918E+02  0.17770000000E+01 0. -1.
</event>
<event>
 6    1  0.1059789E-002  0.1856400E+03  0.7546771E-02  0.1065983E+00
        -11   -1    0    0    0    0  0.00000000000E+00  0.00000000000E+00  0.18250000000E+03  0.18250000000E+03  0.00000000000E+00 0. -1.
         11   -1    0    0    0    0 -0.00000000000E+00 -0.00000000000E+00 -0.18250000000E+03  0.18250000000E+03  0.00000000000E+00 0.  1.
        -11    1    1    2    0    0  0.78983000301E+00  0.29445412461E+01  0.17933413599E+03  0.17936004707E+03  0.00000000000E+00 0. -1.
         11    1    1    2    0    0  0.64348607870E+01  0.36578532657E+01 -0.16452990805E+03  0.16469632044E+03  0.00000000000E+00 0.  1.
        -15    1    1    2    0    0 -0.90857691390E+01 -0.67356358804E+01 -0.14299333276E+02  0.18317987136E+02  0.17770000000E+01 0. -1.
         15    1    1    2    0    0  0.18610783490E+01  0.13324136867E+00 -0.50489466886E+00  0.26256453511E+01  0.17770000000E+01 0.  1.
</event>
<event>
 6    1  0.1059789E-002  0.1839670E+03  0.7546771E-02  0.1067293E+00
        -11   -1    0    0    0    0  0.00000000000E+00  0.00000000000E+00  0.18250000000E+03  0.18250000000E+03  0.00000000000E+00 0.  1.
         11   -1    0    0    0    0 -0.00000000000E+00 -0.00000000000E+00 -0.18250000000E+03  0.18250000000E+03  0.00000000000E+00 0.  1.
        -11    1    1    2    0    0 -0.78155553554E+01 -0.28643608113E+01  0.16595920932E+03  0.16616782669E+03  0.00000000000E+00 0.  1.
         11    1    1    2    0    0  0.27892417245E+01 -0.14914268529E+01 -0.18100540757E+03  0.18103304061E+03  0.00000000000E+00 0.  1.
        -15    1    1    2    0    0  0.91744718876E+00  0.29757273060E+01  0.24033527548E+01  0.43163058057E+01  0.17770000000E+01 0. -1.
         15    1    1    2    0    0  0.41088664422E+01  0.13800603582E+01  0.12642845495E+02  0.13482826901E+02  0.17770000000E+01 0.  1.
</event>
<event>
 6    1  0.1059789E-002  0.1872345E+03  0.7546771E-02  0.1064747E+00
        -11   -1    0    0    0    0  0.00000000000E+00  0.00000000000E+00  0.18250000000E+03  0.18250000000E+03  0.00000000000E+00 0. -1.
         11   -1    0    0    0    0 -0.00000000000E+00 -0.00000000000E+00 -0.18250000000E+03  0.18250000000E+03  0.00000000000E+00 0. -1.
        -11    1    1    2    0    0  0.65238804337E+01  0.51755412958E+01  0.17757030284E+03  0.17776546260E+03  0.00000000000E+00 0. -1.
         11    1    1    2    0    0 -0.31324418955E+01  0.14088725463E+00 -0.14969479825E+03  0.14972763494E+03  0.00000000000E+00 0. -1.
        -15    1    1    2    0    0 -0.20294088696E+01 -0.39882525319E+01 -0.32146498840E+02  0.32505073070E+02  0.17770000000E+01 0. -1.
         15    1    1    2    0    0 -0.13620296686E+01 -0.13281760185E+01  0.42709942485E+01  0.50018293879E+01  0.17770000000E+01 0.  1.
</event>
<event>
 6    1  0.1059789E-002  0.1833240E+03  0.7546771E-02  0.1067801E+00
        -11   -1    0    0    0    0  0.00000000000E+00  0.00000000000E+00  0.18250000000E+03  0.18250000000E+03  0.00000000000E+00 0.  1.
         11   -1    0    0    0    0 -0.00000000000E+00 -0.00000000000E+00 -0.18250000000E+03  0.18250000000E+03  0.00000000000E+00 0.  1.
        -11    1    1    2    0    0 -0.84458080954E+00  0.11914383609E+01  0.10826350572E+03  0.10827335551E+03  0.00000000000E+00 0.  1.
         11    1    1    2    0    0 -0.23357459606E+01 -0.13553453918E+01 -0.18165592489E+03  0.18167599654E+03  0.00000000000E+00 0.  1.
        -15    1    1    2    0    0  0.26249069856E+01  0.26715212133E+01  0.70988489471E+02  0.71109426440E+02  0.17770000000E+01 0.  1.
         15    1    1    2    0    0  0.55541978456E+00 -0.25076141824E+01  0.24039297015E+01  0.39412215155E+01  0.17770000000E+01 0. -1.
</event>
<event>
 6    1  0.1059789E-002  0.1838303E+03  0.7546771E-02  0.1067401E+00
        -11   -1    0    0    0    0  0.00000000000E+00  0.00000000000E+00  0.18250000000E+03  0.18250000000E+03  0.00000000000E+00 0. -1.
         11   -1    0    0    0    0 -0.00000000000E+00 -0.00000000000E+00 -0.18250000000E+03  0.18250000000E+03  0.00000000000E+00 0.  1.
        -11    1    1    2    0    0 -0.52171041818E+01  0.18165237588E+01  0.83825325903E+02  0.84007161584E+02  0.00000000000E+00 0. -1.
         11    1    1    2    0    0  0.12031845897E+02 -0.10606522536E+02 -0.18045826785E+03  0.18116967205E+03  0.00000000000E+00 0.  1.
        -15    1    1    2    0    0 -0.11431033664E+02  0.10133663140E+02  0.38401468199E+02  0.41366534156E+02  0.17770000000E+01 0. -1.
         15    1    1    2    0    0  0.46162919491E+01 -0.13436643620E+01  0.58231473748E+02  0.58456632208E+02  0.17770000000E+01 0. -1.
</event>
<event>
 6    1  0.1059789E-002  0.1951820E+03  0.7546771E-02  0.1058785E+00
        -11   -1    0    0    0    0  0.00000000000E+00  0.00000000000E+00  0.18250000000E+03  0.18250000000E+03  0.00000000000E+00 0. -1.
         11   -1    0    0    0    0 -0.00000000000E+00 -0.00000000000E+00 -0.18250000000E+03  0.18250000000E+03  0.00000000000E+00 0.  1.
        -11    1    1    2    0    0 -0.27108470335E+01  0.67798558888E+01  0.14660829524E+03  0.14679001114E+03  0.00000000000E+00 0. -1.
         11    1    1    2    0    0  0.19198239329E+01 -0.40406715509E+01 -0.16975910653E+03  0.16981804086E+03  0.00000000000E+00 0.  1.
        -15    1    1    2    0    0 -0.44021951413E+01  0.15276107258E+01 -0.11771518501E+02  0.12784337817E+02  0.17770000000E+01 0. -1.
         15    1    1    2    0    0  0.51932182418E+01 -0.42667950637E+01  0.34922329795E+02  0.35607610186E+02  0.17770000000E+01 0.  1.
</event>
<event>
 6    1  0.1059789E-002  0.1887417E+03  0.7546771E-02  0.1063592E+00
        -11   -1    0    0    0    0  0.00000000000E+00  0.00000000000E+00  0.18250000000E+03  0.18250000000E+03  0.00000000000E+00 0.  1.
         11   -1    0    0    0    0 -0.00000000000E+00 -0.00000000000E+00 -0.18250000000E+03  0.18250000000E+03  0.00000000000E+00 0. -1.
        -11    1    1    2    0    0  0.92097893952E+01 -0.89902984866E+01  0.17578779989E+03  0.17625832258E+03  0.00000000000E+00 0.  1.
         11    1    1    2    0    0 -0.58717621763E+01 -0.36432262787E+01 -0.16495199015E+03  0.16509666788E+03  0.00000000000E+00 0. -1.
        -15    1    1    2    0    0  0.28977483658E+01 -0.18204709756E+01  0.86348456911E+00  0.39515053797E+01  0.17770000000E+01 0.  1.
         15    1    1    2    0    0 -0.62357755848E+01  0.14453995741E+02 -0.11699294307E+02  0.19693504165E+02  0.17770000000E+01 0. -1.
</event>
<event>
 6    1  0.1059789E-002  0.1842914E+03  0.7546771E-02  0.1067038E+00
        -11   -1    0    0    0    0  0.00000000000E+00  0.00000000000E+00  0.18250000000E+03  0.18250000000E+03  0.00000000000E+00 0. -1.
         11   -1    0    0    0    0 -0.00000000000E+00 -0.00000000000E+00 -0.18250000000E+03  0.18250000000E+03  0.00000000000E+00 0.  1.
        -11    1    1    2    0    0 -0.34330589250E+01  0.13816495724E+01  0.16443265808E+03  0.16447429554E+03  0.00000000000E+00 0. -1.
         11    1    1    2    0    0 -0.83188552138E-01 -0.55216061343E+01 -0.18062422554E+03  0.18070862156E+03  0.00000000000E+00 0.  1.
        -15    1    1    2    0    0 -0.13730505502E+01  0.41381256177E+01  0.28656131496E+01  0.55116983920E+01  0.17770000000E+01 0.  1.
         15    1    1    2    0    0  0.48892980273E+01  0.18309442268E-02  0.13325954313E+02  0.14305384507E+02  0.17770000000E+01 0. -1.
</event>
<event>
 6    1  0.1059789E-002  0.1855441E+03  0.7546771E-02  0.1066057E+00
        -11   -1    0    0    0    0  0.00000000000E+00  0.00000000000E+00  0.18250000000E+03  0.18250000000E+03  0.00000000000E+00 0.  1.
         11   -1    0    0    0    0 -0.00000000000E+00 -0.00000000000E+00 -0.18250000000E+03  0.18250000000E+03  0.00000000000E+00 0. -1.
        -11    1    1    2    0    0  0.21285431277E+01  0.57008114067E+01  0.80093955483E+02  0.80324788524E+02  0.00000000000E+00 0.  1.
         11    1    1    2    0    0 -0.10857151254E+02 -0.78338340236E+01 -0.17895574149E+03  0.17945585558E+03  0.00000000000E+00 0. -1.
        -15    1    1    2    0    0  0.29074786543E+01  0.15658964766E+02  0.23709437908E+02  0.28617333638E+02  0.17770000000E+01 0.  1.
         15    1    1    2    0    0  0.58211294721E+01 -0.13525942150E+02  0.75152348103E+02  0.76602022256E+02  0.17770000000E+01 0. -1.
</event>
<event>
 6    1  0.1059789E-002  0.1581486E+03  0.7546771E-02  0.1089681E+00
        -11   -1    0    0    0    0  0.00000000000E+00  0.00000000000E+00  0.18250000000E+03  0.18250000000E+03  0.00000000000E+00 0. -1.
         11   -1    0    0    0    0 -0.00000000000E+00 -0.00000000000E+00 -0.18250000000E+03  0.18250000000E+03  0.00000000000E+00 0.  1.
        -11    1    1    2    0    0 -0.18233029785E+01  0.17413990394E+01  0.15469932559E+03  0.15471987023E+03  0.00000000000E+00 0. -1.
         11    1    1    2    0    0  0.22481656248E+00  0.13227096748E+02 -0.16146671273E+03  0.16200773423E+03  0.00000000000E+00 0.  1.
        -15    1    1    2    0    0 -0.76962852190E+01 -0.67615175757E-01  0.22983272299E+02  0.24302796393E+02  0.17770000000E+01 0. -1.
         15    1    1    2    0    0  0.92947716350E+01 -0.14900880612E+02 -0.16215885160E+02  0.23969599147E+02  0.17770000000E+01 0.  1.
</event>
<event>
 6    1  0.1059789E-002  0.1853628E+03  0.7546771E-02  0.1066199E+00
        -11   -1    0    0    0    0  0.00000000000E+00  0.00000000000E+00  0.18250000000E+03  0.18250000000E+03  0.00000000000E+00 0.  1.
         11   -1    0    0    0    0 -0.00000000000E+00 -0.00000000000E+00 -0.18250000000E+03  0.18250000000E+03  0.00000000000E+00 0.  1.
        -11    1    1    2    0    0 -0.39924446363E+00  0.37326476825E+01  0.17038810135E+03  0.17042944915E+03  0.00000000000E+00 0.  1.
         11    1    1    2    0    0 -0.47784114701E+01  0.12570599109E+01 -0.17956928430E+03  0.17963724914E+03  0.00000000000E+00 0.  1.
        -15    1    1    2    0    0  0.16768514769E+01  0.23638653934E+01  0.21020094474E+01  0.39969817601E+01  0.17770000000E+01 0. -1.
         15    1    1    2    0    0  0.35008044568E+01 -0.73535729868E+01  0.70791735052E+01  0.10936319949E+02  0.17770000000E+01 0.  1.
</event>
<event>
 6    1  0.1059789E-002  0.1768002E+03  0.7546771E-02  0.1073085E+00
        -11   -1    0    0    0    0  0.00000000000E+00  0.00000000000E+00  0.18250000000E+03  0.18250000000E+03  0.00000000000E+00 0.  1.
         11   -1    0    0    0    0 -0.00000000000E+00 -0.00000000000E+00 -0.18250000000E+03  0.18250000000E+03  0.00000000000E+00 0. -1.
        -11    1    1    2    0    0 -0.31393944269E+01  0.23979651267E+00  0.17501121822E+03  0.17503953783E+03  0.00000000000E+00 0.  1.
         11    1    1    2    0    0 -0.34670925488E+01  0.25797577407E+00 -0.17860733936E+03  0.17864117374E+03  0.00000000000E+00 0. -1.
        -15    1    1    2    0    0  0.90154752723E+00  0.11865838732E+01 -0.19228804429E+01  0.30126346326E+01  0.17770000000E+01 0. -1.
         15    1    1    2    0    0  0.57049394485E+01 -0.16843561600E+01  0.55190015861E+01  0.83066537963E+01  0.17770000000E+01 0.  1.
</event>
<event>
 6    1  0.1059789E-002  0.1841870E+03  0.7546771E-02  0.1067120E+00
        -11   -1    0    0    0    0  0.00000000000E+00  0.00000000000E+00  0.18250000000E+03  0.18250000000E+03  0.00000000000E+00 0. -1.
         11   -1    0    0    0    0 -0.00000000000E+00 -0.00000000000E+00 -0.18250000000E+03  0.18250000000E+03  0.00000000000E+00 0. -1.
        -11    1    1    2    0    0  0.40792653450E+01  0.29898317939E+01  0.17159301522E+03  0.17166753442E+03  0.00000000000E+00 0. -1.
         11    1    1    2    0    0 -0.91081759730E+00 -0.39767583451E+01 -0.18076691885E+03  0.18081295071E+03  0.00000000000E+00 0. -1.
        -15    1    1    2    0    0  0.10543823652E+01  0.18081336806E+01  0.67166845858E+01  0.72562146057E+01  0.17770000000E+01 0. -1.
         15    1    1    2    0    0 -0.42228301129E+01 -0.82120712939E+00  0.24572190392E+01  0.52633002687E+01  0.17770000000E+01 0.  1.
</event>
<event>
 6    1  0.1059789E-002  0.1829476E+03  0.7546771E-02  0.1068099E+00
        -11   -1    0    0    0    0  0.00000000000E+00  0.00000000000E+00  0.18250000000E+03  0.18250000000E+03  0.00000000000E+00 0. -1.
         11   -1    0    0    0    0 -0.00000000000E+00 -0.00000000000E+00 -0.18250000000E+03  0.18250000000E+03  0.00000000000E+00 0.  1.
        -11    1    1    2    0    0  0.38769459646E-01  0.77839847681E+01  0.12946124126E+03  0.12969504582E+03  0.00000000000E+00 0. -1.
         11    1    1    2    0    0  0.22190439466E+01 -0.11138827036E+01 -0.18203542212E+03  0.18205235455E+03  0.00000000000E+00 0.  1.
        -15    1    1    2    0    0 -0.24780812084E+01 -0.29783671168E+01  0.22546961205E+02  0.22946344932E+02  0.17770000000E+01 0.  1.
         15    1    1    2    0    0  0.22026780221E+00 -0.36917349478E+01  0.30027219654E+02  0.30306254701E+02  0.17770000000E+01 0. -1.
</event>
<event>
 6    1  0.1059789E-002  0.1869243E+03  0.7546771E-02  0.1064987E+00
        -11   -1    0    0    0    0  0.00000000000E+00  0.00000000000E+00  0.18250000000E+03  0.18250000000E+03  0.00000000000E+00 0.  1.
         11   -1    0    0    0    0 -0.00000000000E+00 -0.00000000000E+00 -0.18250000000E+03  0.18250000000E+03  0.00000000000E+00 0.  1.
        -11    1    1    2    0    0  0.79615295692E-01 -0.40009740101E+01  0.14077915337E+03  0.14083601867E+03  0.00000000000E+00 0.  1.
         11    1    1    2    0    0  0.17437024422E+02  0.12696365786E+02 -0.17676458385E+03  0.17807573003E+03  0.00000000000E+00 0.  1.
        -15    1    1    2    0    0 -0.32612936357E+01  0.40601548485E+01  0.21041304948E+02  0.21748911157E+02  0.17770000000E+01 0. -1.
         15    1    1    2    0    0 -0.14255346082E+02 -0.12755546624E+02  0.14944125527E+02  0.24339340139E+02  0.17770000000E+01 0.  1.
</event>
<event>
 6    1  0.1059789E-002  0.1730413E+03  0.7546771E-02  0.1076244E+00
        -11   -1    0    0    0    0  0.00000000000E+00  0.00000000000E+00  0.18250000000E+03  0.18250000000E+03  0.00000000000E+00 0. -1.
         11   -1    0    0    0    0 -0.00000000000E+00 -0.00000000000E+00 -0.18250000000E+03  0.18250000000E+03  0.00000000000E+00 0.  1.
        -11    1    1    2    0    0  0.34737687221E+01  0.70046183068E+01  0.17515042625E+03  0.17532485152E+03  0.00000000000E+00 0. -1.
         11    1    1    2    0    0  0.30752087993E+01  0.30688147241E+01 -0.17093662699E+03  0.17099182723E+03  0.00000000000E+00 0.  1.
        -15    1    1    2    0    0 -0.36405031066E+01  0.26616998501E+01 -0.22878914634E+01  0.53600452712E+01  0.17770000000E+01 0. -1.
         15    1    1    2    0    0 -0.29084744149E+01 -0.12735132881E+02 -0.19259077906E+01  0.13323275976E+02  0.17770000000E+01 0.  1.
</event>
<event>
 6    1  0.1059789E-002  0.1869403E+03  0.7546771E-02  0.1064974E+00
        -11   -1    0    0    0    0  0.00000000000E+00  0.00000000000E+00  0.18250000000E+03  0.18250000000E+03  0.00000000000E+00 0. -1.
         11   -1    0    0    0    0 -0.00000000000E+00 -0.00000000000E+00 -0.18250000000E+03  0.18250000000E+03  0.00000000000E+00 0. -1.
        -11    1    1    2    0    0  0.24186705948E+01 -0.23420131217E+01  0.17437791283E+03  0.17441041103E+03  0.00000000000E+00 0. -1.
         11    1    1    2    0    0 -0.22012182121E+01 -0.28239596130E+01 -0.17802369013E+03  0.17805969325E+03  0.00000000000E+00 0. -1.
        -15    1    1    2    0    0  0.23246810891E+01  0.88764378161E+00 -0.28336396251E+01  0.41688483030E+01  0.17770000000E+01 0.  1.
         15    1    1    2    0    0 -0.25421334718E+01  0.42783289531E+01  0.64794169256E+01  0.83610474173E+01  0.17770000000E+01 0. -1.
</event>
<event>
 6    1  0.1059789E-002  0.1826148E+03  0.7546771E-02  0.1068363E+00
        -11   -1    0    0    0    0  0.00000000000E+00  0.00000000000E+00  0.18250000000E+03  0.18250000000E+03  0.00000000000E+00 0.  1.
         11   -1    0    0    0    0 -0.00000000000E+00 -0.00000000000E+00 -0.18250000000E+03  0.18250000000E+03  0.00000000000E+00 0.  1.
        -11    1    1    2    0    0  0.18349849209E+01  0.10421109268E+01  0.12514298862E+03  0.12516077966E+03  0.00000000000E+00 0.  1.
         11    1    1    2    0    0 -0.27250611025E+01  0.73167910919E+00 -0.18236335782E+03  0.18238518467E+03  0.00000000000E+00 0.  1.
        -15    1    1    2    0    0  0.16728654745E+01 -0.76053628254E+00  0.19031799319E+02  0.19202708368E+02  0.17770000000E+01 0.  1.
         15    1    1    2    0    0 -0.78278929287E+00 -0.10132537534E+01  0.38188569878E+02  0.38251327305E+02  0.17770000000E+01 0. -1.
</event>
<event>
 6    1  0.1059789E-002  0.1869816E+03  0.7546771E-02  0.1064942E+00
        -11   -1    0    0    0    0  0.00000000000E+00  0.00000000000E+00  0.18250000000E+03  0.18250000000E+03  0.00000000000E+00 0.  1.
         11   -1    0    0    0    0 -0.00000000000E+00 -0.00000000000E+00 -0.18250000000E+03  0.18250000000E+03  0.00000000000E+00 0. -1.
        -11    1    1    2    0    0  0.42145728945E+01 -0.18161482301E+02  0.17703943331E+03  0.17801843447E+03  0.00000000000E+00 0.  1.
         11    1    1    2    0    0 -0.33316835013E+01 -0.29750954889E+01 -0.13880324831E+03  0.13887509874E+03  0.00000000000E+00 0. -1.
        -15    1    1    2    0    0  0.90039503894E+01  0.58409308431E+01 -0.13516295472E+02  0.17350376596E+02  0.17770000000E+01 0. -1.
         15    1    1    2    0    0 -0.98868397825E+01  0.15295646947E+02 -0.24719889533E+02  0.30756090192E+02  0.17770000000E+01 0. -1.
</event>
<event>
 6    1  0.1059789E-002  0.1393569E+03  0.7546771E-02  0.1109160E+00
        -11   -1    0    0    0    0  0.00000000000E+00  0.00000000000E+00  0.18250000000E+03  0.18250000000E+03  0.00000000000E+00 0. -1.
         11   -1    0    0    0    0 -0.00000000000E+00 -0.00000000000E+00 -0.18250000000E+03  0.18250000000E+03  0.00000000000E+00 0. -1.
        -11    1    1    2    0    0 -0.32383224364E+01 -0.94936918068E-01  0.16269506265E+03  0.16272731533E+03  0.00000000000E+00 0. -1.
         11    1    1    2    0    0  0.46407885180E+01 -0.87563864671E+01 -0.37224927798E+02  0.38521506611E+02  0.00000000000E+00 0. -1.
        -15    1    1    2    0    0  0.28798251959E+02  0.33732304339E+02 -0.11490544482E+03  0.12318127557E+03  0.17770000000E+01 0. -1.
         15    1    1    2    0    0 -0.30200718040E+02 -0.24880980953E+02 -0.10564690027E+02  0.40569902486E+02  0.17770000000E+01 0.  1.
</event>
<event>
 6    1  0.1059789E-002  0.1829223E+03  0.7546771E-02  0.1068119E+00
        -11   -1    0    0    0    0  0.00000000000E+00  0.00000000000E+00  0.18250000000E+03  0.18250000000E+03  0.00000000000E+00 0. -1.
         11   -1    0    0    0    0 -0.00000000000E+00 -0.00000000000E+00 -0.18250000000E+03  0.18250000000E+03  0.00000000000E+00 0.  1.
        -11    1    1    2    0    0 -0.10626237347E+01 -0.29532486432E+01  0.18205065192E+03  0.18207770515E+03  0.00000000000E+00 0. -1.
         11    1    1    2    0    0 -0.16483107286E+01  0.29408361464E+01 -0.14264722052E+03  0.14268705256E+03  0.00000000000E+00 0.  1.
        -15    1    1    2    0    0 -0.15733932959E+01  0.18231593453E+01 -0.11059976422E+02  0.11457760859E+02  0.17770000000E+01 0.  1.
         15    1    1    2    0    0  0.42843277592E+01 -0.18107468486E+01 -0.28343454978E+02  0.28777481432E+02  0.17770000000E+01 0. -1.
</event>
<event>
 6    1  0.1059789E-002  0.1653598E+03  0.7546771E-02  0.1082981E+00
        -11   -1    0    0    0    0  0.00000000000E+00  0.00000000000E+00  0.18250000000E+03  0.18250000000E+03  0.00000000000E+00 0.  1.
         11   -1    0    0    0    0 -0.00000000000E+00 -0.00000000000E+00 -0.18250000000E+03  0.18250000000E+03  0.00000000000E+00 0. -1.
        -11    1    1    2    0    0 -0.29027544990E+01 -0.50363860792E+01  0.16823860408E+03  0.16833900044E+03  0.00000000000E+00 0.  1.
         11    1    1    2    0    0  0.10823238761E+02 -0.12658015885E+02 -0.16215120893E+03  0.16300424050E+03  0.00000000000E+00 0. -1.
        -15    1    1    2    0    0 -0.12628712235E+02  0.16218296256E+02 -0.13441540528E+02  0.24624180127E+02  0.17770000000E+01 0. -1.
         15    1    1    2    0    0  0.47082279732E+01  0.14761057080E+01  0.73541453830E+01  0.90325789242E+01  0.17770000000E+01 0.  1.
</event>
<event>
 6    1  0.1059789E-002  0.1844948E+03  0.7546771E-02  0.1066878E+00
        -11   -1    0    0    0    0  0.00000000000E+00  0.00000000000E+00  0.18250000000E+03  0.18250000000E+03  0.00000000000E+00 0. -1.
         11   -1    0    0    0    0 -0.00000000000E+00 -0.00000000000E+00 -0.18250000000E+03  0.18250000000E+03  0.00000000000E+00 0. -1.
        -11    1    1    2    0    0  0.47856622262E+01  0.57985590712E+01  0.18034858769E+03  0.18050523243E+03  0.00000000000E+00 0. -1.
         11    1    1    2    0    0 -0.24554660696E+01  0.25894181572E+01 -0.14836294350E+03  0.14840585367E+03  0.00000000000E+00 0. -1.
        -15    1    1    2    0    0  0.50019773362E+01 -0.22020220681E+00 -0.74387848365E+01  0.91411987796E+01  0.17770000000E+01 0.  1.
         15    1    1    2    0    0 -0.73321734928E+01 -0.81677750216E+01 -0.24546859358E+02  0.26947715122E+02  0.17770000000E+01 0. -1.
</event>
<event>
 6    1  0.1059789E-002  0.1844462E+03  0.7546771E-02  0.1066916E+00
        -11   -1    0    0    0    0  0.00000000000E+00  0.00000000000E+00  0.18250000000E+03  0.18250000000E+03  0.00000000000E+00 0.  1.
         11   -1    0    0    0    0 -0.00000000000E+00 -0.00000000000E+00 -0.18250000000E+03  0.18250000000E+03  0.00000000000E+00 0. -1.
        -11    1    1    2    0    0  0.43984317278E+01 -0.23257941921E+01  0.17363741204E+03  0.17370868251E+03  0.00000000000E+00 0.  1.
         11    1    1    2    0    0  0.24323389716E+01  0.34019119719E+01 -0.18050533449E+03  0.18055377331E+03  0.00000000000E+00 0. -1.
        -15    1    1    2    0    0 -0.41483446239E+01 -0.29260156982E+00  0.22399022875E+01  0.50467088340E+01  0.17770000000E+01 0. -1.
         15    1    1    2    0    0 -0.26824260755E+01 -0.78351620996E+00  0.46280201592E+01  0.56908353425E+01  0.17770000000E+01 0.  1.
</event>
<event>
 6    1  0.1059789E-002  0.1672519E+03  0.7546771E-02  0.1081285E+00
        -11   -1    0    0    0    0  0.00000000000E+00  0.00000000000E+00  0.18250000000E+03  0.18250000000E+03  0.00000000000E+00 0.  1.
         11   -1    0    0    0    0 -0.00000000000E+00 -0.00000000000E+00 -0.18250000000E+03  0.18250000000E+03  0.00000000000E+00 0. -1.
        -11    1    1    2    0    0 -0.44288817687E+00  0.45601179491E+01  0.16694920669E+03  0.16701206077E+03  0.00000000000E+00 0.  1.
         11    1    1    2    0    0  0.10754738027E+02 -0.52436028689E+01 -0.16722399150E+03  0.16765149297E+03  0.00000000000E+00 0. -1.
        -15    1    1    2    0    0 -0.81534379491E+01  0.13900259755E+02  0.31717122086E+01  0.16520086531E+02  0.17770000000E+01 0. -1.
         15    1    1    2    0    0 -0.21584119010E+01 -0.13216774835E+02 -0.28969274045E+01  0.13816359737E+02  0.17770000000E+01 0.  1.
</event>
<event>
 6    1  0.1059789E-002  0.1826668E+03  0.7546771E-02  0.1068322E+00
        -11   -1    0    0    0    0  0.00000000000E+00  0.00000000000E+00  0.18250000000E+03  0.18250000000E+03  0.00000000000E+00 0.  1.
         11   -1    0    0    0    0 -0.00000000000E+00 -0.00000000000E+00 -0.18250000000E+03  0.18250000000E+03  0.00000000000E+00 0.  1.
        -11    1    1    2    0    0 -0.26942695364E+01  0.20429426711E+00  0.18231314258E+03  0.18233316424E+03  0.00000000000E+00 0.  1.
         11    1    1    2    0    0 -0.19592170878E+01 -0.69589594039E+00 -0.11401341451E+03  0.11403237037E+03  0.00000000000E+00 0.  1.
        -15    1    1    2    0    0  0.41337579344E+01  0.31951680419E+00 -0.36040563085E+02  0.36321756044E+02  0.17770000000E+01 0. -1.
         15    1    1    2    0    0  0.51972868970E+00  0.17208486909E+00 -0.32259164980E+02  0.32312709347E+02  0.17770000000E+01 0.  1.
</event>
<event>
 6    1  0.1059789E-002  0.1845781E+03  0.7546771E-02  0.1066813E+00
        -11   -1    0    0    0    0  0.00000000000E+00  0.00000000000E+00  0.18250000000E+03  0.18250000000E+03  0.00000000000E+00 0.  1.
         11   -1    0    0    0    0 -0.00000000000E+00 -0.00000000000E+00 -0.18250000000E+03  0.18250000000E+03  0.00000000000E+00 0.  1.
        -11    1    1    2    0    0  0.20529116196E+00 -0.36441893395E+01  0.18038496034E+03  0.18042188386E+03  0.00000000000E+00 0.  1.
         11    1    1    2    0    0 -0.23676200696E+01 -0.65028636993E+01 -0.15133584208E+03  0.15149399315E+03  0.00000000000E+00 0.  1.
        -15    1    1    2    0    0 -0.60102309000E+00  0.39411151805E+00  0.33858219310E+00  0.19465147174E+01  0.17770000000E+01 0.  1.
         15    1    1    2    0    0  0.27633519976E+01  0.97529415207E+01 -0.29387700448E+02  0.31137608277E+02  0.17770000000E+01 0.  1.
</event>
<event>
 6    1  0.1059789E-002  0.1831279E+03  0.7546771E-02  0.1067956E+00
        -11   -1    0    0    0    0  0.00000000000E+00  0.00000000000E+00  0.18250000000E+03  0.18250000000E+03  0.00000000000E+00 0. -1.
         11   -1    0    0    0    0 -0.00000000000E+00 -0.00000000000E+00 -0.18250000000E+03  0.18250000000E+03  0.00000000000E+00 0.  1.
        -11    1    1    2    0    0  0.26033100123E+01  0.57262893296E+00  0.18185252275E+03  0.18187205711E+03  0.00000000000E+00 0. -1.
         11    1    1    2    0    0  0.12693802980E+01  0.30354626081E+01 -0.16220043219E+03  0.16223379908E+03  0.00000000000E+00 0.  1.
        -15    1    1    2    0    0 -0.15407556759E+01 -0.12957371599E+01 -0.12917664899E+02  0.13193811363E+02  0.17770000000E+01 0. -1.
         15    1    1    2    0    0 -0.23319346344E+01 -0.23123543812E+01 -0.67344256578E+01  0.77003324515E+01  0.17770000000E+01 0.  1.
</event>
<event>
 6    1  0.1059789E-002  0.1942340E+03  0.7546771E-02  0.1059480E+00
        -11   -1    0    0    0    0  0.00000000000E+00  0.00000000000E+00  0.18250000000E+03  0.18250000000E+03  0.00000000000E+00 0.  1.
         11   -1    0    0    0    0 -0.00000000000E+00 -0.00000000000E+00 -0.18250000000E+03  0.18250000000E+03  0.00000000000E+00 0. -1.
        -11    1    1    2    0    0  0.36629453468E+01 -0.17837834239E+02  0.16979228362E+03  0.17076599508E+03  0.00000000000E+00 0.  1.
         11    1    1    2    0    0 -0.22447385074E+02  0.11753999654E+02 -0.14308273041E+03  0.14530901330E+03  0.00000000000E+00 0. -1.
        -15    1    1    2    0    0  0.20079013170E+02 -0.44571318788E+01 -0.56751474870E+00  0.20652181397E+02  0.17770000000E+01 0.  1.
         15    1    1    2    0    0 -0.12945734432E+01  0.10540966464E+02 -0.26142038454E+02  0.28272810224E+02  0.17770000000E+01 0. -1.
</event>
<event>
 6    1  0.1059789E-002  0.2132326E+03  0.7546771E-02  0.1046324E+00
        -11   -1    0    0    0    0  0.00000000000E+00  0.00000000000E+00  0.18250000000E+03  0.18250000000E+03  0.00000000000E+00 0.  1.
         11   -1    0    0    0    0 -0.00000000000E+00 -0.00000000000E+00 -0.18250000000E+03  0.18250000000E+03  0.00000000000E+00 0. -1.
        -11    1    1    2    0    0  0.28315022647E+01 -0.32315611901E+01  0.15170657321E+03  0.15176740345E+03  0.00000000000E+00 0.  1.
         11    1    1    2    0    0 -0.16054947735E+01  0.26647204078E+01 -0.12515314367E+03  0.12519180372E+03  0.00000000000E+00 0. -1.
        -15    1    1    2    0    0  0.61411549023E+01  0.20771069689E+02  0.24418703327E+02  0.32689171307E+02  0.17770000000E+01 0.  1.
         15    1    1    2    0    0 -0.73671623935E+01 -0.20204228906E+02 -0.50972132865E+02  0.55351621523E+02  0.17770000000E+01 0. -1.
</event>
<event>
 6    1  0.1059789E-002  0.1869964E+03  0.7546771E-02  0.1064931E+00
        -11   -1    0    0    0    0  0.00000000000E+00  0.00000000000E+00  0.18250000000E+03  0.18250000000E+03  0.00000000000E+00 0.  1.
         11   -1    0    0    0    0 -0.00000000000E+00 -0.00000000000E+00 -0.18250000000E+03  0.18250000000E+03  0.00000000000E+00 0. -1.
        -11    1    1    2    0    0  0.10831496836E+02  0.71243298708E+01  0.17753085622E+03  0.17800360196E+03  0.00000000000E+00 0.  1.
         11    1    1    2    0    0 -0.90356583330E+00 -0.18088906935E+01 -0.13005600407E+03  0.13007172141E+03  0.00000000000E+00 0. -1.
        -15    1    1    2    0    0 -0.17135319146E+02 -0.19203445142E+01 -0.13465893394E+02  0.21949826860E+02  0.17770000000E+01 0.  1.
         15    1    1    2    0    0  0.72073881438E+01 -0.33950946631E+01 -0.34008958756E+02  0.34974849768E+02  0.17770000000E+01 0. -1.
</event>
<event>
 6    1  0.1059789E-002  0.1845229E+03  0.7546771E-02  0.1066856E+00
        -11   -1    0    0    0    0  0.00000000000E+00  0.00000000000E+00  0.18250000000E+03  0.18250000000E+03  0.00000000000E+00 0. -1.
         11   -1    0    0    0    0 -0.00000000000E+00 -0.00000000000E+00 -0.18250000000E+03  0.18250000000E+03  0.00000000000E+00 0. -1.
        -11    1    1    2    0    0 -0.72954966025E+01 -0.17029578369E+01  0.18032149739E+03  0.18047705327E+03  0.00000000000E+00 0. -1.
         11    1    1    2    0    0 -0.20307525876E+01 -0.99906008987E+00 -0.15519348190E+03  0.15520998326E+03  0.00000000000E+00 0. -1.
        -15    1    1    2    0    0 -0.10491654073E+00 -0.18003374320E+01 -0.12826686842E+02  0.13074167151E+02  0.17770000000E+01 0. -1.
         15    1    1    2    0    0  0.94311657309E+01  0.45023553587E+01 -0.12301328639E+02  0.16238796325E+02  0.17770000000E+01 0.  1.
</event>
<event>
 6    1  0.1059789E-002  0.1826496E+03  0.7546771E-02  0.1068336E+00
        -11   -1    0    0    0    0  0.00000000000E+00  0.00000000000E+00  0.18250000000E+03  0.18250000000E+03  0.00000000000E+00 0.  1.
         11   -1    0    0    0    0 -0.00000000000E+00 -0.00000000000E+00 -0.18250000000E+03  0.18250000000E+03  0.00000000000E+00 0. -1.
        -11    1    1    2    0    0 -0.19408282282E+01  0.45065997111E+01  0.18228436977E+03  0.18235039819E+03  0.00000000000E+00 0.  1.
         11    1    1    2    0    0 -0.89483781262E+00  0.64919926856E+00 -0.80121773397E+02  0.80129400140E+02  0.00000000000E+00 0. -1.
        -15    1    1    2    0    0  0.30696353160E+01 -0.14625737626E+01 -0.30538280283E+02  0.30778337749E+02  0.17770000000E+01 0.  1.
         15    1    1    2    0    0 -0.23396927522E+00 -0.36932252170E+01 -0.71624316095E+02  0.71741863923E+02  0.17770000000E+01 0. -1.
</event>
<event>
 6    1  0.1059789E-002  0.1755366E+03  0.7546771E-02  0.1074137E+00
        -11   -1    0    0    0    0  0.00000000000E+00  0.00000000000E+00  0.18250000000E+03  0.18250000000E+03  0.00000000000E+00 0.  1.
         11   -1    0    0    0    0 -0.00000000000E+00 -0.00000000000E+00 -0.18250000000E+03  0.18250000000E+03  0.00000000000E+00 0. -1.
        -11    1    1    2    0    0  0.31041465025E+01 -0.35953588580E+01  0.17720775270E+03  0.17727140195E+03  0.00000000000E+00 0.  1.
         11    1    1    2    0    0 -0.15995157032E+01 -0.34452218901E+01 -0.17385027030E+03  0.17389176084E+03  0.00000000000E+00 0. -1.
        -15    1    1    2    0    0 -0.41037150200E+01  0.38798203673E+01  0.25397723124E+01  0.64421778496E+01  0.17770000000E+01 0. -1.
         15    1    1    2    0    0  0.25990842207E+01  0.31607603808E+01 -0.58972547092E+01  0.73946593618E+01  0.17770000000E+01 0.  1.
</event>
<event>
 6    1  0.1059789E-002  0.1868443E+03  0.7546771E-02  0.1065048E+00
        -11   -1    0    0    0    0  0.00000000000E+00  0.00000000000E+00  0.18250000000E+03  0.18250000000E+03  0.00000000000E+00 0.  1.
         11   -1    0    0    0    0 -0.00000000000E+00 -0.00000000000E+00 -0.18250000000E+03  0.18250000000E+03  0.00000000000E+00 0. -1.
        -11    1    1    2    0    0  0.16332014961E+01 -0.95715456150E+01  0.17789093410E+03  0.17815573600E+03  0.00000000000E+00 0.  1.
         11    1    1    2    0    0 -0.49573462063E+01 -0.26360181648E+01 -0.14610981255E+03  0.14621765009E+03  0.00000000000E+00 0. -1.
        -15    1    1    2    0    0  0.91390843713E+01  0.14560728473E+02 -0.28492186980E+02  0.33324167277E+02  0.17770000000E+01 0.  1.
         15    1    1    2    0    0 -0.58149396612E+01 -0.23531646929E+01 -0.32889345718E+01  0.73024466415E+01  0.17770000000E+01 0. -1.
</event>
<event>
 6    1  0.1059789E-002  0.1902788E+03  0.7546771E-02  0.1062426E+00
        -11   -1    0    0    0    0  0.00000000000E+00  0.00000000000E+00  0.18250000000E+03  0.18250000000E+03  0.00000000000E+00 0. -1.
         11   -1    0    0    0    0 -0.00000000000E+00 -0.00000000000E+00 -0.18250000000E+03  0.18250000000E+03  0.00000000000E+00 0.  1.
        -11    1    1    2    0    0  0.26042190669E+02  0.36166007809E+02  0.16894174741E+03  0.17472117741E+03  0.00000000000E+00 0. -1.
         11    1    1    2    0    0 -0.11416544486E+01  0.42972015857E+00 -0.66392279466E+02  0.66403484900E+02  0.00000000000E+00 0.  1.
        -15    1    1    2    0    0 -0.21101484513E+01 -0.18049467233E+02 -0.11564426245E+01  0.18295657474E+02  0.17770000000E+01 0.  1.
         15    1    1    2    0    0 -0.22790387769E+02 -0.18546260735E+02 -0.10139302532E+03  0.10557968022E+03  0.17770000000E+01 0. -1.
</event>
<event>
 6    1  0.1059789E-002  0.1845253E+03  0.7546771E-02  0.1066854E+00
        -11   -1    0    0    0    0  0.00000000000E+00  0.00000000000E+00  0.18250000000E+03  0.18250000000E+03  0.00000000000E+00 0.  1.
         11   -1    0    0    0    0 -0.00000000000E+00 -0.00000000000E+00 -0.18250000000E+03  0.18250000000E+03  0.00000000000E+00 0. -1.
        -11    1    1    2    0    0 -0.25203693296E+01  0.80427146801E+01  0.18027778993E+03  0.18047470477E+03  0.00000000000E+00 0.  1.
         11    1    1    2    0    0 -0.60295771654E+00 -0.29869267707E+01 -0.14169703790E+03  0.14172979870E+03  0.00000000000E+00 0. -1.
        -15    1    1    2    0    0  0.15721272184E+01 -0.78291680405E+01 -0.38277631310E+02  0.39142077664E+02  0.17770000000E+01 0. -1.
         15    1    1    2    0    0  0.15511998277E+01  0.27733801312E+01 -0.30312071697E+00  0.36534188682E+01  0.17770000000E+01 0.  1.
</event>
<event>
 6    1  0.1059789E-002  0.1860858E+03  0.7546771E-02  0.1065636E+00
        -11   -1    0    0    0    0  0.00000000000E+00  0.00000000000E+00  0.18250000000E+03  0.18250000000E+03  0.00000000000E+00 0. -1.
         11   -1    0    0    0    0 -0.00000000000E+00 -0.00000000000E+00 -0.18250000000E+03  0.18250000000E+03  0.00000000000E+00 0.  1.
        -11    1    1    2    0    0 -0.28117051176E+01  0.13967616401E+00  0.17600694015E+03  0.17602945258E+03  0.00000000000E+00 0. -1.
         11    1    1    2    0    0 -0.57451803393E+00 -0.23837601881E+01 -0.17889739543E+03  0.17891419864E+03  0.00000000000E+00 0.  1.
        -15    1    1    2    0    0  0.25184664335E+01  0.30013961233E+01 -0.19871188845E+01  0.47389262841E+01  0.17770000000E+01 0. -1.
         15    1    1    2    0    0  0.86775671805E+00 -0.75731209914E+00  0.48775741598E+01  0.53174224980E+01  0.17770000000E+01 0. -1.
</event>
<event>
 6    1  0.1059789E-002  0.1834244E+03  0.7546771E-02  0.1067721E+00
        -11   -1    0    0    0    0  0.00000000000E+00  0.00000000000E+00  0.18250000000E+03  0.18250000000E+03  0.00000000000E+00 0. -1.
         11   -1    0    0    0    0 -0.00000000000E+00 -0.00000000000E+00 -0.18250000000E+03  0.18250000000E+03  0.00000000000E+00 0. -1.
        -11    1    1    2    0    0 -0.17209141438E+01 -0.21497403096E+01  0.10872596372E+03  0.10876082988E+03  0.00000000000E+00 0. -1.
         11    1    1    2    0    0 -0.29865813839E+01 -0.49040684402E+00 -0.18155037921E+03  0.18157560507E+03  0.00000000000E+00 0. -1.
        -15    1    1    2    0    0  0.20199912016E+01  0.11039222589E+01  0.70132851080E+02  0.70193116033E+02  0.17770000000E+01 0. -1.
         15    1    1    2    0    0  0.26875043261E+01  0.15362248948E+01  0.26915644074E+01  0.44704490143E+01  0.17770000000E+01 0. -1.
</event>
<event>
 6    1  0.1059789E-002  0.1835780E+03  0.7546771E-02  0.1067600E+00
        -11   -1    0    0    0    0  0.00000000000E+00  0.00000000000E+00  0.18250000000E+03  0.18250000000E+03  0.00000000000E+00 0. -1.
         11   -1    0    0    0    0 -0.00000000000E+00 -0.00000000000E+00 -0.18250000000E+03  0.18250000000E+03  0.00000000000E+00 0.  1.
        -11    1    1    2    0    0  0.26839841355E+01  0.73173499384E+00  0.18140062841E+03  0.18142195896E+03  0.00000000000E+00 0. -1.
         11    1    1    2    0    0 -0.98042322723E+00  0.29614548803E+01 -0.13605482748E+03  0.13609058574E+03  0.00000000000E+00 0.  1.
        -15    1    1    2    0    0 -0.20720317839E+01 -0.32017769295E+01 -0.45411652428E+02  0.45606146477E+02  0.17770000000E+01 0. -1.
         15    1    1    2    0    0  0.36847087568E+00 -0.49141294462E+00  0.65851506858E-01  0.18813088235E+01  0.17770000000E+01 0.  1.
</event>
<event>
 6    1  0.1059789E-002  0.1849253E+03  0.7546771E-02  0.1066540E+00
        -11   -1    0    0    0    0  0.00000000000E+00  0.00000000000E+00  0.18250000000E+03  0.18250000000E+03  0.00000000000E+00 0.  1.
         11   -1    0    0    0    0 -0.00000000000E+00 -0.00000000000E+00 -0.18250000000E+03  0.18250000000E+03  0.00000000000E+00 0. -1.
        -11    1    1    2    0    0 -0.37969907435E+00  0.39221132537E+01  0.10144780913E+03  0.10152430803E+03  0.00000000000E+00 0.  1.
         11    1    1    2    0    0  0.50976758539E+01  0.51385596329E+01 -0.17992913554E+03  0.18007466482E+03  0.00000000000E+00 0. -1.
        -15    1    1    2    0    0  0.28809901246E+00 -0.11858194157E+01  0.71693719981E+02  0.71726120643E+02  0.17770000000E+01 0. -1.
         15    1    1    2    0    0 -0.50060757920E+01 -0.78748534709E+01  0.67876064312E+01  0.11674906513E+02  0.17770000000E+01 0.  1.
</event>
<event>
 6    1  0.1059789E-002  0.2276594E+03  0.7546771E-02  0.1037291E+00
        -11   -1    0    0    0    0  0.00000000000E+00  0.00000000000E+00  0.18250000000E+03  0.18250000000E+03  0.00000000000E+00 0. -1.
         11   -1    0    0    0    0 -0.00000000000E+00 -0.00000000000E+00 -0.18250000000E+03  0.18250000000E+03  0.00000000000E+00 0. -1.
        -11    1    1    2    0    0 -0.37231580823E+00  0.24474568997E+01  0.13731828690E+03  0.13734060063E+03  0.00000000000E+00 0. -1.
         11    1    1    2    0    0  0.71690166421E+01 -0.79128944552E+01 -0.10830209396E+03  0.10882716689E+03  0.00000000000E+00 0. -1.
        -15    1    1    2    0    0 -0.52562700789E-01 -0.11773005916E+01  0.44568699555E+02  0.44619676248E+02  0.17770000000E+01 0. -1.
         15    1    1    2    0    0 -0.67441381330E+01  0.66427381472E+01 -0.73584892495E+02  0.74212556227E+02  0.17770000000E+01 0. -1.
</event>
<event>
 6    1  0.1059789E-002  0.2039404E+03  0.7546771E-02  0.1052563E+00
        -11   -1    0    0    0    0  0.00000000000E+00  0.00000000000E+00  0.18250000000E+03  0.18250000000E+03  0.00000000000E+00 0. -1.
         11   -1    0    0    0    0 -0.00000000000E+00 -0.00000000000E+00 -0.18250000000E+03  0.18250000000E+03  0.00000000000E+00 0. -1.
        -11    1    1    2    0    0  0.14080864875E+01  0.67856905886E-02  0.10416723019E+03  0.10417674692E+03  0.00000000000E+00 0. -1.
         11    1    1    2    0    0 -0.30213488313E+01  0.19759534662E+02 -0.15981430775E+03  0.16105955644E+03  0.00000000000E+00 0. -1.
        -15    1    1    2    0    0  0.69860219542E+00 -0.18199115413E+02 -0.18237636497E+02  0.25835343250E+02  0.17770000000E+01 0. -1.
         15    1    1    2    0    0  0.91466014846E+00 -0.15672049391E+01  0.73884714055E+02  0.73928353387E+02  0.17770000000E+01 0. -1.
</event>
<event>
 6    1  0.1059789E-002  0.1846383E+03  0.7546771E-02  0.1066765E+00
        -11   -1    0    0    0    0  0.00000000000E+00  0.00000000000E+00  0.18250000000E+03  0.18250000000E+03  0.00000000000E+00 0. -1.
         11   -1    0    0    0    0 -0.00000000000E+00 -0.00000000000E+00 -0.18250000000E+03  0.18250000000E+03  0.00000000000E+00 0. -1.
        -11    1    1    2    0    0  0.49122528821E+01 -0.38544797817E+01  0.11638838033E+03  0.11655574768E+03  0.00000000000E+00 0. -1.
         11    1    1    2    0    0 -0.12039408198E+01 -0.32226678092E+01 -0.18032885071E+03  0.18036166294E+03  0.00000000000E+00 0. -1.
        -15    1    1    2    0    0  0.52937876277E+01  0.11678788711E+02  0.39733937391E+02  0.41789493928E+02  0.17770000000E+01 0. -1.
         15    1    1    2    0    0 -0.90020996899E+01 -0.46016411203E+01  0.24206532991E+02  0.26293095449E+02  0.17770000000E+01 0.  1.
</event>
<event>
 6    1  0.1059789E-002  0.1840955E+03  0.7546771E-02  0.1067192E+00
        -11   -1    0    0    0    0  0.00000000000E+00  0.00000000000E+00  0.18250000000E+03  0.18250000000E+03  0.00000000000E+00 0.  1.
         11   -1    0    0    0    0 -0.00000000000E+00 -0.00000000000E+00 -0.18250000000E+03  0.18250000000E+03  0.00000000000E+00 0.  1.
        -11    1    1    2    0    0 -0.43101096668E+01 -0.23439212434E+01  0.17121754364E+03  0.17128782286E+03  0.00000000000E+00 0.  1.
         11    1    1    2    0    0 -0.24330460231E+01  0.19676417633E+01 -0.18087747275E+03  0.18090453691E+03  0.00000000000E+00 0.  1.
        -15    1    1    2    0    0  0.33503373090E+01 -0.52159698910E+00  0.23097582194E+01  0.44709658392E+01  0.17770000000E+01 0.  1.
         15    1    1    2    0    0  0.33928183809E+01  0.89787646921E+00  0.73501708896E+01  0.83366743865E+01  0.17770000000E+01 0. -1.
</event>
<event>
 6    1  0.1059789E-002  0.1722551E+03  0.7546771E-02  0.1076915E+00
        -11   -1    0    0    0    0  0.00000000000E+00  0.00000000000E+00  0.18250000000E+03  0.18250000000E+03  0.00000000000E+00 0. -1.
         11   -1    0    0    0    0 -0.00000000000E+00 -0.00000000000E+00 -0.18250000000E+03  0.18250000000E+03  0.00000000000E+00 0.  1.
        -11    1    1    2    0    0 -0.76887158962E+01 -0.91887512685E+01  0.17396413768E+03  0.17437623318E+03  0.00000000000E+00 0. -1.
         11    1    1    2    0    0 -0.15094460749E+00 -0.45779577533E+01 -0.17045441833E+03  0.17051595001E+03  0.00000000000E+00 0.  1.
        -15    1    1    2    0    0  0.58591634587E+01  0.10530821820E+02  0.28329642777E+01  0.12506455142E+02  0.17770000000E+01 0. -1.
         15    1    1    2    0    0  0.19804970450E+01  0.32358872021E+01 -0.63426836275E+01  0.76013616628E+01  0.17770000000E+01 0.  1.
</event>
<event>
 6    1  0.1059789E-002  0.1891006E+03  0.7546771E-02  0.1063319E+00
        -11   -1    0    0    0    0  0.00000000000E+00  0.00000000000E+00  0.18250000000E+03  0.18250000000E+03  0.00000000000E+00 0.  1.
         11   -1    0    0    0    0 -0.00000000000E+00 -0.00000000000E+00 -0.18250000000E+03  0.18250000000E+03  0.00000000000E+00 0. -1.
        -11    1    1    2    0    0 -0.23219379913E+01 -0.13836017316E+01  0.17587861547E+03  0.17589938354E+03  0.00000000000E+00 0.  1.
         11    1    1    2    0    0  0.23804395589E+01  0.27233135052E+00 -0.14166560730E+03  0.14168586715E+03  0.00000000000E+00 0. -1.
        -15    1    1    2    0    0 -0.11030797135E+02  0.12289094641E+02 -0.21471469279E+02  0.27145571546E+02  0.17770000000E+01 0.  1.
         15    1    1    2    0    0  0.10972295567E+02 -0.11177824260E+02 -0.12741538887E+02  0.20269177768E+02  0.17770000000E+01 0. -1.
</event>
<event>
 6    1  0.1059789E-002  0.1860417E+03  0.7546771E-02  0.1065670E+00
        -11   -1    0    0    0    0  0.00000000000E+00  0.00000000000E+00  0.18250000000E+03  0.18250000000E+03  0.00000000000E+00 0.  1.
         11   -1    0    0    0    0 -0.00000000000E+00 -0.00000000000E+00 -0.18250000000E+03  0.18250000000E+03  0.00000000000E+00 0.  1.
        -11    1    1    2    0    0  0.94188431390E+01  0.34140225920E+01  0.14893585223E+03  0.14927242959E+03  0.00000000000E+00 0.  1.
         11    1    1    2    0    0 -0.20731363153E+01  0.13179087642E+01 -0.17894147330E+03  0.17895833494E+03  0.00000000000E+00 0.  1.
        -15    1    1    2    0    0 -0.87356737239E+00  0.21872771066E+00 -0.25080512432E+01  0.32029692168E+01  0.17770000000E+01 0.  1.
         15    1    1    2    0    0 -0.64721394514E+01 -0.49506590669E+01  0.32513672313E+02  0.33566266259E+02  0.17770000000E+01 0. -1.
</event>
<event>
 6    1  0.1059789E-002  0.1835078E+03  0.7546771E-02  0.1067655E+00
        -11   -1    0    0    0    0  0.00000000000E+00  0.00000000000E+00  0.18250000000E+03  0.18250000000E+03  0.00000000000E+00 0. -1.
         11   -1    0    0    0    0 -0.00000000000E+00 -0.00000000000E+00 -0.18250000000E+03  0.18250000000E+03  0.00000000000E+00 0.  1.
        -11    1    1    2    0    0  0.26991567097E+01  0.22555039738E+01  0.18145813157E+03  0.18149222093E+03  0.00000000000E+00 0. -1.
         11    1    1    2    0    0 -0.29161764832E+01 -0.95979942191E+00 -0.15712027358E+03  0.15715026462E+03  0.00000000000E+00 0.  1.
        -15    1    1    2    0    0 -0.33604168668E+01 -0.69805784773E+00 -0.20232887196E+02  0.20598716940E+02  0.17770000000E+01 0. -1.
         15    1    1    2    0    0  0.35774366403E+01 -0.59764670416E+00 -0.41049708004E+01  0.57587975108E+01  0.17770000000E+01 0.  1.
</event>
<event>
 6    1  0.1059789E-002  0.1778542E+03  0.7546771E-02  0.1072214E+00
        -11   -1    0    0    0    0  0.00000000000E+00  0.00000000000E+00  0.18250000000E+03  0.18250000000E+03  0.00000000000E+00 0. -1.
         11   -1    0    0    0    0 -0.00000000000E+00 -0.00000000000E+00 -0.18250000000E+03  0.18250000000E+03  0.00000000000E+00 0.  1.
        -11    1    1    2    0    0 -0.91540559950E-01 -0.31504379892E+01  0.17651957988E+03  0.17654771514E+03  0.00000000000E+00 0. -1.
         11    1    1    2    0    0 -0.17477819475E+01 -0.20379628866E+01 -0.17919313988E+03  0.17921325122E+03  0.00000000000E+00 0.  1.
        -15    1    1    2    0    0 -0.37378694958E+00  0.43381462172E+01  0.38233123581E+01  0.60609137655E+01  0.17770000000E+01 0. -1.
         15    1    1    2    0    0  0.22131094570E+01  0.85025465862E+00 -0.11497523632E+01  0.31781198766E+01  0.17770000000E+01 0.  1.
</event>
<event>
 6    1  0.1059789E-002  0.1841142E+03  0.7546771E-02  0.1067177E+00
        -11   -1    0    0    0    0  0.00000000000E+00  0.00000000000E+00  0.18250000000E+03  0.18250000000E+03  0.00000000000E+00 0.  1.
         11   -1    0    0    0    0 -0.00000000000E+00 -0.00000000000E+00 -0.18250000000E+03  0.18250000000E+03  0.00000000000E+00 0.  1.
        -11    1    1    2    0    0  0.86175902581E+01  0.61411649394E+01  0.12785025014E+03  0.12828742429E+03  0.00000000000E+00 0.  1.
         11    1    1    2    0    0  0.63582094069E+01 -0.41890932047E+01 -0.18072548378E+03  0.18088580877E+03  0.00000000000E+00 0.  1.
        -15    1    1    2    0    0 -0.54402360242E+01  0.35736536912E+01  0.19573988514E+02  0.20704248937E+02  0.17770000000E+01 0.  1.
         15    1    1    2    0    0 -0.95355636408E+01 -0.55257254260E+01  0.33301245121E+02  0.35122518005E+02  0.17770000000E+01 0. -1.
</event>
<event>
 6    1  0.1059789E-002  0.1867278E+03  0.7546771E-02  0.1065138E+00
        -11   -1    0    0    0    0  0.00000000000E+00  0.00000000000E+00  0.18250000000E+03  0.18250000000E+03  0.00000000000E+00 0.  1.
         11   -1    0    0    0    0 -0.00000000000E+00 -0.00000000000E+00 -0.18250000000E+03  0.18250000000E+03  0.00000000000E+00 0. -1.
        -11    1    1    2    0    0 -0.65890412463E+00  0.74988065075E+00  0.47793238050E+02  0.47803661773E+02  0.00000000000E+00 0.  1.
         11    1    1    2    0    0  0.11907955290E+01 -0.27421935875E+01 -0.17824711799E+03  0.17827218709E+03  0.00000000000E+00 0. -1.
        -15    1    1    2    0    0  0.73103694142E+00  0.43467674633E+01 -0.28764452977E+01  0.55552199723E+01  0.17770000000E+01 0.  1.
         15    1    1    2    0    0 -0.12629283458E+01 -0.23544545266E+01  0.13333032523E+03  0.13336893116E+03  0.17770000000E+01 0.  1.
</event>
<event>
 6    1  0.1059789E-002  0.1852144E+03  0.7546771E-02  0.1066314E+00
        -11   -1    0    0    0    0  0.00000000000E+00  0.00000000000E+00  0.18250000000E+03  0.18250000000E+03  0.00000000000E+00 0. -1.
         11   -1    0    0    0    0 -0.00000000000E+00 -0.00000000000E+00 -0.18250000000E+03  0.18250000000E+03  0.00000000000E+00 0. -1.
        -11    1    1    2    0    0  0.15111467283E+00  0.28982704141E+01  0.17976218613E+03  0.17978561224E+03  0.00000000000E+00 0. -1.
         11    1    1    2    0    0 -0.42339405609E+01  0.39014601101E+01 -0.17306940355E+03  0.17316514109E+03  0.00000000000E+00 0. -1.
        -15    1    1    2    0    0  0.11887148914E+01 -0.13732003097E+01 -0.47029723078E+01  0.53455027557E+01  0.17770000000E+01 0.  1.
         15    1    1    2    0    0  0.28941109967E+01 -0.54265302145E+01 -0.19898102733E+01  0.67037439206E+01  0.17770000000E+01 0. -1.
</event>
<event>
 6    1  0.1059789E-002  0.1373544E+03  0.7546771E-02  0.1111434E+00
        -11   -1    0    0    0    0  0.00000000000E+00  0.00000000000E+00  0.18250000000E+03  0.18250000000E+03  0.00000000000E+00 0. -1.
         11   -1    0    0    0    0 -0.00000000000E+00 -0.00000000000E+00 -0.18250000000E+03  0.18250000000E+03  0.00000000000E+00 0.  1.
        -11    1    1    2    0    0 -0.17661138667E+02 -0.28042830760E+02  0.12350006872E+03  0.12786939880E+03  0.00000000000E+00 0. -1.
         11    1    1    2    0    0 -0.18123922471E+01  0.11315908962E+01 -0.15010102610E+03  0.15011623263E+03  0.00000000000E+00 0.  1.
        -15    1    1    2    0    0  0.42496838832E+02 -0.52886959395E+01  0.17883207780E+02  0.46442636284E+02  0.17770000000E+01 0. -1.
         15    1    1    2    0    0 -0.23023307918E+02  0.32199935803E+02  0.87177496016E+01  0.40571732281E+02  0.17770000000E+01 0.  1.
</event>
<event>
 6    1  0.1059789E-002  0.1894041E+03  0.7546771E-02  0.1063088E+00
        -11   -1    0    0    0    0  0.00000000000E+00  0.00000000000E+00  0.18250000000E+03  0.18250000000E+03  0.00000000000E+00 0. -1.
         11   -1    0    0    0    0 -0.00000000000E+00 -0.00000000000E+00 -0.18250000000E+03  0.18250000000E+03  0.00000000000E+00 0. -1.
        -11    1    1    2    0    0  0.31071546279E+01  0.91237077543E+01  0.17533113864E+03  0.17559585596E+03  0.00000000000E+00 0. -1.
         11    1    1    2    0    0 -0.21543030099E+01  0.69763715958E+00 -0.11080845789E+03  0.11083159323E+03  0.00000000000E+00 0. -1.
        -15    1    1    2    0    0 -0.67148702025E+01 -0.50676897394E+01  0.40971597679E+01  0.95244636749E+01  0.17770000000E+01 0.  1.
         15    1    1    2    0    0  0.57620185845E+01 -0.47536551745E+01 -0.68619840518E+02  0.69048087138E+02  0.17770000000E+01 0. -1.
</event>
<event>
 6    1  0.1059789E-002  0.1829239E+03  0.7546771E-02  0.1068118E+00
        -11   -1    0    0    0    0  0.00000000000E+00  0.00000000000E+00  0.18250000000E+03  0.18250000000E+03  0.00000000000E+00 0.  1.
         11   -1    0    0    0    0 -0.00000000000E+00 -0.00000000000E+00 -0.18250000000E+03  0.18250000000E+03  0.00000000000E+00 0.  1.
        -11    1    1    2    0    0 -0.34267084123E+00  0.26516215204E+01  0.18205643876E+03  0.18207607041E+03  0.00000000000E+00 0.  1.
         11    1    1    2    0    0  0.13418854239E+01  0.21954124599E+00 -0.91650736617E+02  0.91660822477E+02  0.00000000000E+00 0.  1.
        -15    1    1    2    0    0 -0.54063485847E+01 -0.24281838389E+01 -0.71391360657E+02  0.71658975623E+02  0.17770000000E+01 0. -1.
         15    1    1    2    0    0  0.44071340020E+01 -0.44297892750E+00 -0.19014341487E+02  0.19604131494E+02  0.17770000000E+01 0.  1.
</event>
<event>
 6    1  0.1059789E-002  0.1826527E+03  0.7546771E-02  0.1068333E+00
        -11   -1    0    0    0    0  0.00000000000E+00  0.00000000000E+00  0.18250000000E+03  0.18250000000E+03  0.00000000000E+00 0. -1.
         11   -1    0    0    0    0 -0.00000000000E+00 -0.00000000000E+00 -0.18250000000E+03  0.18250000000E+03  0.00000000000E+00 0. -1.
        -11    1    1    2    0    0 -0.23780308374E+00  0.10904731227E+01  0.54242396503E+02  0.54253877836E+02  0.00000000000E+00 0. -1.
         11    1    1    2    0    0  0.39530012769E+01  0.90436693079E+00 -0.18230216592E+03  0.18234726156E+03  0.00000000000E+00 0. -1.
        -15    1    1    2    0    0  0.49492851348E+00 -0.37113907379E+01  0.75216305023E+02  0.75330403197E+02  0.17770000000E+01 0. -1.
         15    1    1    2    0    0 -0.42101267067E+01  0.17165506844E+01  0.52843464396E+02  0.53068457407E+02  0.17770000000E+01 0.  1.
</event>
<event>
 6    1  0.1059789E-002  0.1828331E+03  0.7546771E-02  0.1068190E+00
        -11   -1    0    0    0    0  0.00000000000E+00  0.00000000000E+00  0.18250000000E+03  0.18250000000E+03  0.00000000000E+00 0. -1.
         11   -1    0    0    0    0 -0.00000000000E+00 -0.00000000000E+00 -0.18250000000E+03  0.18250000000E+03  0.00000000000E+00 0.  1.
        -11    1    1    2    0    0  0.24593540247E+01 -0.23046295847E+01  0.46012263320E+02  0.46135540699E+02  0.00000000000E+00 0. -1.
         11    1    1    2    0    0  0.79332760248E+00 -0.38991959608E+01 -0.18212338877E+03  0.18216685164E+03  0.00000000000E+00 0.  1.
        -15    1    1    2    0    0 -0.37558979549E+01  0.47149263278E+01  0.35070133219E+02  0.35628770294E+02  0.17770000000E+01 0. -1.
         15    1    1    2    0    0  0.50321632773E+00  0.14888992177E+01  0.10104099223E+03  0.10106883737E+03  0.17770000000E+01 0.  1.
</event>
<event>
 6    1  0.1059789E-002  0.1783932E+03  0.7546771E-02  0.1071772E+00
        -11   -1    0    0    0    0  0.00000000000E+00  0.00000000000E+00  0.18250000000E+03  0.18250000000E+03  0.00000000000E+00 0.  1.
         11   -1    0    0    0    0 -0.00000000000E+00 -0.00000000000E+00 -0.18250000000E+03  0.18250000000E+03  0.00000000000E+00 0.  1.
        -11    1    1    2    0    0  0.68208506590E+00 -0.29363016517E+01  0.17896040320E+03  0.17898579000E+03  0.00000000000E+00 0.  1.
         11    1    1    2    0    0 -0.24804358924E+01  0.11104286589E+01 -0.17779095631E+03  0.17781172560E+03  0.00000000000E+00 0.  1.
        -15    1    1    2    0    0  0.28823705157E+01 -0.52815862373E+00 -0.30096215651E+01  0.45609826010E+01  0.17770000000E+01 0. -1.
         15    1    1    2    0    0 -0.10840196892E+01  0.23540316166E+01  0.18401746742E+01  0.36415018015E+01  0.17770000000E+01 0. -1.
</event>
<event>
 6    1  0.1059789E-002  0.1826828E+03  0.7546771E-02  0.1068309E+00
        -11   -1    0    0    0    0  0.00000000000E+00  0.00000000000E+00  0.18250000000E+03  0.18250000000E+03  0.00000000000E+00 0.  1.
         11   -1    0    0    0    0 -0.00000000000E+00 -0.00000000000E+00 -0.18250000000E+03  0.18250000000E+03  0.00000000000E+00 0. -1.
        -11    1    1    2    0    0 -0.25155614725E+01 -0.10768951825E+01  0.47731824895E+02  0.47810196199E+02  0.00000000000E+00 0.  1.
         11    1    1    2    0    0 -0.33110494567E+01  0.15296500600E+01 -0.18228074514E+03  0.18231723157E+03  0.00000000000E+00 0. -1.
        -15    1    1    2    0    0  0.98593548331E+00 -0.11488242877E+01  0.12710560326E+02  0.12923155142E+02  0.17770000000E+01 0. -1.
         15    1    1    2    0    0  0.48406754459E+01  0.69606941025E+00  0.12183835992E+03  0.12194941709E+03  0.17770000000E+01 0.  1.
</event>
<event>
 6    1  0.1059789E-002  0.1867257E+03  0.7546771E-02  0.1065140E+00
        -11   -1    0    0    0    0  0.00000000000E+00  0.00000000000E+00  0.18250000000E+03  0.18250000000E+03  0.00000000000E+00 0. -1.
         11   -1    0    0    0    0 -0.00000000000E+00 -0.00000000000E+00 -0.18250000000E+03  0.18250000000E+03  0.00000000000E+00 0. -1.
        -11    1    1    2    0    0  0.43074430954E+01  0.41231311507E-01  0.13840676232E+03  0.13847377955E+03  0.00000000000E+00 0. -1.
         11    1    1    2    0    0 -0.98008383004E+00 -0.23536343322E+01 -0.17825604371E+03  0.17827427542E+03  0.00000000000E+00 0. -1.
        -15    1    1    2    0    0  0.43709983751E+01  0.56653429776E+01 -0.11765459364E+00  0.73738259711E+01  0.17770000000E+01 0.  1.
         15    1    1    2    0    0 -0.76983576405E+01 -0.33529399569E+01  0.39966935982E+02  0.40878119056E+02  0.17770000000E+01 0. -1.
</event>
<event>
 6    1  0.1059789E-002  0.1776698E+03  0.7546771E-02  0.1072366E+00
        -11   -1    0    0    0    0  0.00000000000E+00  0.00000000000E+00  0.18250000000E+03  0.18250000000E+03  0.00000000000E+00 0. -1.
         11   -1    0    0    0    0 -0.00000000000E+00 -0.00000000000E+00 -0.18250000000E+03  0.18250000000E+03  0.00000000000E+00 0. -1.
        -11    1    1    2    0    0  0.35886813132E+01 -0.36871970124E+01  0.17612420214E+03  0.17619934346E+03  0.00000000000E+00 0. -1.
         11    1    1    2    0    0  0.29621976491E+01  0.11253616530E+01 -0.17919511391E+03  0.17922312881E+03  0.00000000000E+00 0. -1.
        -15    1    1    2    0    0 -0.38164767085E+01  0.18478751073E+01 -0.57584509156E+00  0.46335152367E+01  0.17770000000E+01 0.  1.
         15    1    1    2    0    0 -0.27344022538E+01  0.71396025204E+00  0.36467568610E+01  0.49440124929E+01  0.17770000000E+01 0. -1.
</event>
<event>
 6    1  0.1059789E-002  0.1836986E+03  0.7546771E-02  0.1067505E+00
        -11   -1    0    0    0    0  0.00000000000E+00  0.00000000000E+00  0.18250000000E+03  0.18250000000E+03  0.00000000000E+00 0.  1.
         11   -1    0    0    0    0 -0.00000000000E+00 -0.00000000000E+00 -0.18250000000E+03  0.18250000000E+03  0.00000000000E+00 0.  1.
        -11    1    1    2    0    0 -0.98904722307E+00 -0.62965277107E-01  0.53412960060E+02  0.53422153471E+02  0.00000000000E+00 0.  1.
         11    1    1    2    0    0  0.15357922132E+01 -0.21895682193E+01 -0.18128168053E+03  0.18130140805E+03  0.00000000000E+00 0.  1.
        -15    1    1    2    0    0 -0.12726455788E+01  0.14735035331E+01  0.25767358771E+00  0.26485777521E+01  0.17770000000E+01 0.  1.
         15    1    1    2    0    0  0.72590058861E+00  0.77902996335E+00  0.12761104688E+03  0.12762786073E+03  0.17770000000E+01 0. -1.
</event>
<event>
 6    1  0.1059789E-002  0.1839804E+03  0.7546771E-02  0.1067282E+00
        -11   -1    0    0    0    0  0.00000000000E+00  0.00000000000E+00  0.18250000000E+03  0.18250000000E+03  0.00000000000E+00 0. -1.
         11   -1    0    0    0    0 -0.00000000000E+00 -0.00000000000E+00 -0.18250000000E+03  0.18250000000E+03  0.00000000000E+00 0. -1.
        -11    1    1    2    0    0  0.27502791517E+01  0.52703096012E+00  0.18099790616E+03  0.18101956753E+03  0.00000000000E+00 0. -1.
         11    1    1    2    0    0 -0.19218387332E+01 -0.13993863263E+01 -0.16209575053E+03  0.16211318295E+03  0.00000000000E+00 0. -1.
        -15    1    1    2    0    0 -0.25125879156E+01 -0.35250288661E+01 -0.40607538634E+01  0.61956740940E+01  0.17770000000E+01 0. -1.
         15    1    1    2    0    0  0.16841474971E+01  0.43973842323E+01 -0.14841401767E+02  0.15671575424E+02  0.17770000000E+01 0.  1.
</event>
<event>
 6    1  0.1059789E-002  0.1829751E+03  0.7546771E-02  0.1068077E+00
        -11   -1    0    0    0    0  0.00000000000E+00  0.00000000000E+00  0.18250000000E+03  0.18250000000E+03  0.00000000000E+00 0.  1.
         11   -1    0    0    0    0 -0.00000000000E+00 -0.00000000000E+00 -0.18250000000E+03  0.18250000000E+03  0.00000000000E+00 0. -1.
        -11    1    1    2    0    0 -0.34580603747E+01  0.32840661169E+01  0.84447444224E+02  0.84581996358E+02  0.00000000000E+00 0.  1.
         11    1    1    2    0    0  0.26083285157E+00 -0.35573224776E+01 -0.18198993478E+03  0.18202488550E+03  0.00000000000E+00 0. -1.
        -15    1    1    2    0    0  0.20582441855E+01  0.32647939221E+01  0.11291381579E+02  0.12064338997E+02  0.17770000000E+01 0. -1.
         15    1    1    2    0    0  0.11389833377E+01 -0.29915375614E+01  0.86251108981E+02  0.86328779150E+02  0.17770000000E+01 0.  1.
</event>
<event>
 6    1  0.1059789E-002  0.1721674E+03  0.7546771E-02  0.1076991E+00
        -11   -1    0    0    0    0  0.00000000000E+00  0.00000000000E+00  0.18250000000E+03  0.18250000000E+03  0.00000000000E+00 0.  1.
         11   -1    0    0    0    0 -0.00000000000E+00 -0.00000000000E+00 -0.18250000000E+03  0.18250000000E+03  0.00000000000E+00 0.  1.
        -11    1    1    2    0    0  0.46742681489E+01 -0.49199952467E+01  0.17680080036E+03  0.17693099825E+03  0.00000000000E+00 0.  1.
         11    1    1    2    0    0 -0.52081605547E+00 -0.93629458090E+00 -0.11977307977E+02  0.12025132152E+02  0.00000000000E+00 0.  1.
        -15    1    1    2    0    0  0.34400460662E+01  0.41424007757E+01 -0.16752011583E+03  0.16761605036E+03  0.17770000000E+01 0.  1.
         15    1    1    2    0    0 -0.75934981596E+01  0.17138890519E+01  0.26966234553E+01  0.84278192341E+01  0.17770000000E+01 0. -1.
</event>
<event>
 6    1  0.1059789E-002  0.1827537E+03  0.7546771E-02  0.1068253E+00
        -11   -1    0    0    0    0  0.00000000000E+00  0.00000000000E+00  0.18250000000E+03  0.18250000000E+03  0.00000000000E+00 0. -1.
         11   -1    0    0    0    0 -0.00000000000E+00 -0.00000000000E+00 -0.18250000000E+03  0.18250000000E+03  0.00000000000E+00 0.  1.
        -11    1    1    2    0    0 -0.36280246803E+00  0.29672268686E+01  0.18222177581E+03  0.18224629390E+03  0.00000000000E+00 0. -1.
         11    1    1    2    0    0 -0.28045816982E+01  0.35234821163E+00 -0.12961911576E+03  0.12964993250E+03  0.00000000000E+00 0.  1.
        -15    1    1    2    0    0 -0.63561762864E+00 -0.34793169201E+00 -0.92401978286E+01  0.94373752253E+01  0.17770000000E+01 0.  1.
         15    1    1    2    0    0  0.38030017949E+01 -0.29716433883E+01 -0.43362462230E+02  0.43666398372E+02  0.17770000000E+01 0.  1.
</event>
<event>
 6    1  0.1059789E-002  0.1862566E+03  0.7546771E-02  0.1065503E+00
        -11   -1    0    0    0    0  0.00000000000E+00  0.00000000000E+00  0.18250000000E+03  0.18250000000E+03  0.00000000000E+00 0. -1.
         11   -1    0    0    0    0 -0.00000000000E+00 -0.00000000000E+00 -0.18250000000E+03  0.18250000000E+03  0.00000000000E+00 0. -1.
        -11    1    1    2    0    0  0.46923375009E+01 -0.51074926350E+00  0.16116640392E+03  0.16123550679E+03  0.00000000000E+00 0. -1.
         11    1    1    2    0    0 -0.12862509913E+00  0.27883923986E+01 -0.17872157001E+03  0.17874336705E+03  0.00000000000E+00 0. -1.
        -15    1    1    2    0    0 -0.38233407589E+00 -0.25178838670E+01 -0.27892734217E+01  0.41741698258E+01  0.17770000000E+01 0.  1.
         15    1    1    2    0    0 -0.41813783259E+01  0.24024073187E+00  0.20344439513E+02  0.20846956335E+02  0.17770000000E+01 0.  1.
</event>
<event>
 6    1  0.1059789E-002  0.1842746E+03  0.7546771E-02  0.1067051E+00
        -11   -1    0    0    0    0  0.00000000000E+00  0.00000000000E+00  0.18250000000E+03  0.18250000000E+03  0.00000000000E+00 0. -1.
         11   -1    0    0    0    0 -0.00000000000E+00 -0.00000000000E+00 -0.18250000000E+03  0.18250000000E+03  0.00000000000E+00 0. -1.
        -11    1    1    2    0    0 -0.25625634893E+01 -0.33890504387E+01  0.18067547609E+03  0.18072542725E+03  0.00000000000E+00 0. -1.
         11    1    1    2    0    0 -0.29888031603E+01 -0.10038060708E+01 -0.16159293122E+03  0.16162368636E+03  0.00000000000E+00 0. -1.
        -15    1    1    2    0    0 -0.13985689848E+01  0.36108246703E+00 -0.52311416831E+00  0.23489898225E+01  0.17770000000E+01 0. -1.
         15    1    1    2    0    0  0.69499356344E+01  0.40317740425E+01 -0.18559430701E+02  0.20301896566E+02  0.17770000000E+01 0. -1.
</event>
<event>
 6    1  0.1059789E-002  0.1830255E+03  0.7546771E-02  0.1068037E+00
        -11   -1    0    0    0    0  0.00000000000E+00  0.00000000000E+00  0.18250000000E+03  0.18250000000E+03  0.00000000000E+00 0. -1.
         11   -1    0    0    0    0 -0.00000000000E+00 -0.00000000000E+00 -0.18250000000E+03  0.18250000000E+03  0.00000000000E+00 0. -1.
        -11    1    1    2    0    0  0.21942807859E+00 -0.60907033022E+00  0.37908012723E+02  0.37913540378E+02  0.00000000000E+00 0. -1.
         11    1    1    2    0    0 -0.32450307899E+01  0.66087884078E+01 -0.18182550315E+03  0.18197450345E+03  0.00000000000E+00 0. -1.
        -15    1    1    2    0    0 -0.17239227135E+01 -0.19932239304E+01  0.43115042343E+01  0.53564586175E+01  0.17770000000E+01 0. -1.
         15    1    1    2    0    0  0.47495254248E+01 -0.40064941472E+01  0.13960598619E+03  0.13975549756E+03  0.17770000000E+01 0. -1.
</event>
<event>
 6    1  0.1059789E-002  0.1853306E+03  0.7546771E-02  0.1066224E+00
        -11   -1    0    0    0    0  0.00000000000E+00  0.00000000000E+00  0.18250000000E+03  0.18250000000E+03  0.00000000000E+00 0.  1.
         11   -1    0    0    0    0 -0.00000000000E+00 -0.00000000000E+00 -0.18250000000E+03  0.18250000000E+03  0.00000000000E+00 0.  1.
        -11    1    1    2    0    0 -0.37681298532E+01  0.78914640143E+00  0.13312880682E+03  0.13318446140E+03  0.00000000000E+00 0.  1.
         11    1    1    2    0    0 -0.75157008408E+01  0.12025335060E+02 -0.17910894112E+03  0.17966943878E+03  0.00000000000E+00 0.  1.
        -15    1    1    2    0    0  0.16842591208E+01  0.86229647138E-02  0.27569062605E+02  0.27677567542E+02  0.17770000000E+01 0. -1.
         15    1    1    2    0    0  0.95995715732E+01 -0.12823104426E+02  0.18411071699E+02  0.24468532274E+02  0.17770000000E+01 0.  1.
</event>
<event>
 6    1  0.1059789E-002  0.1842979E+03  0.7546771E-02  0.1067033E+00
        -11   -1    0    0    0    0  0.00000000000E+00  0.00000000000E+00  0.18250000000E+03  0.18250000000E+03  0.00000000000E+00 0. -1.
         11   -1    0    0    0    0 -0.00000000000E+00 -0.00000000000E+00 -0.18250000000E+03  0.18250000000E+03  0.00000000000E+00 0.  1.
        -11    1    1    2    0    0  0.90044759298E+00 -0.23710804661E+01  0.17492925499E+03  0.17494764097E+03  0.00000000000E+00 0. -1.
         11    1    1    2    0    0  0.33995031076E+01 -0.72468707609E+00 -0.18066870897E+03  0.18070214219E+03  0.00000000000E+00 0.  1.
        -15    1    1    2    0    0 -0.20390292801E+01 -0.18304354649E+00  0.94970107252E+00  0.28724217086E+01  0.17770000000E+01 0.  1.
         15    1    1    2    0    0 -0.22609214205E+01  0.32788110887E+01  0.47897529033E+01  0.64777951264E+01  0.17770000000E+01 0.  1.
</event>
<event>
 6    1  0.1059789E-002  0.1840854E+03  0.7546771E-02  0.1067200E+00
        -11   -1    0    0    0    0  0.00000000000E+00  0.00000000000E+00  0.18250000000E+03  0.18250000000E+03  0.00000000000E+00 0. -1.
         11   -1    0    0    0    0 -0.00000000000E+00 -0.00000000000E+00 -0.18250000000E+03  0.18250000000E+03  0.00000000000E+00 0. -1.
        -11    1    1    2    0    0 -0.20955725230E+00  0.31728184406E+01  0.18088665757E+03  0.18091460300E+03  0.00000000000E+00 0. -1.
         11    1    1    2    0    0 -0.19985655871E+01  0.22964069269E+01 -0.17336172016E+03  0.17338844762E+03  0.00000000000E+00 0. -1.
        -15    1    1    2    0    0  0.17425635735E+01 -0.50738093687E+01 -0.49730246770E+01  0.75278664145E+01  0.17770000000E+01 0.  1.
         15    1    1    2    0    0  0.46555926593E+00 -0.39541599884E+00 -0.25519127353E+01  0.31690829669E+01  0.17770000000E+01 0. -1.
</event>
<event>
 6    1  0.1059789E-002  0.1845206E+03  0.7546771E-02  0.1066858E+00
        -11   -1    0    0    0    0  0.00000000000E+00  0.00000000000E+00  0.18250000000E+03  0.18250000000E+03  0.00000000000E+00 0. -1.
         11   -1    0    0    0    0 -0.00000000000E+00 -0.00000000000E+00 -0.18250000000E+03  0.18250000000E+03  0.00000000000E+00 0. -1.
        -11    1    1    2    0    0 -0.52747983853E+01 -0.41099149214E+01  0.15239714230E+03  0.15254377693E+03  0.00000000000E+00 0. -1.
         11    1    1    2    0    0  0.25357566816E+01  0.14490604257E+01 -0.18045581416E+03  0.18047944676E+03  0.00000000000E+00 0. -1.
        -15    1    1    2    0    0  0.18970226431E+01 -0.41540909859E+01  0.22324160103E+02  0.22855656196E+02  0.17770000000E+01 0. -1.
         15    1    1    2    0    0  0.84201906058E+00  0.68149454816E+01  0.57345117588E+01  0.91211201136E+01  0.17770000000E+01 0.  1.
</event>
<event>
 6    1  0.1059789E-002  0.1892984E+03  0.7546771E-02  0.1063168E+00
        -11   -1    0    0    0    0  0.00000000000E+00  0.00000000000E+00  0.18250000000E+03  0.18250000000E+03  0.00000000000E+00 0.  1.
         11   -1    0    0    0    0 -0.00000000000E+00 -0.00000000000E+00 -0.18250000000E+03  0.18250000000E+03  0.00000000000E+00 0.  1.
        -11    1    1    2    0    0 -0.25195200454E+01 -0.30738223159E+00  0.11837528220E+03  0.11840249111E+03  0.00000000000E+00 0.  1.
         11    1    1    2    0    0  0.18931771333E+02 -0.63072827216E+01 -0.17456474775E+03  0.17570157921E+03  0.00000000000E+00 0.  1.
        -15    1    1    2    0    0 -0.24831706221E+02  0.15858298679E+02  0.31527113754E+02  0.43188145382E+02  0.17770000000E+01 0.  1.
         15    1    1    2    0    0  0.84194549340E+01 -0.92436337263E+01  0.24662351791E+02  0.27707784298E+02  0.17770000000E+01 0. -1.
</event>
<event>
 6    1  0.1059789E-002  0.1923396E+03  0.7546771E-02  0.1060882E+00
        -11   -1    0    0    0    0  0.00000000000E+00  0.00000000000E+00  0.18250000000E+03  0.18250000000E+03  0.00000000000E+00 0. -1.
         11   -1    0    0    0    0 -0.00000000000E+00 -0.00000000000E+00 -0.18250000000E+03  0.18250000000E+03  0.00000000000E+00 0.  1.
        -11    1    1    2    0    0 -0.24482680918E+01 -0.65070959920E+01  0.17252040554E+03  0.17266043740E+03  0.00000000000E+00 0. -1.
         11    1    1    2    0    0  0.22867787431E+01 -0.79580576096E+01 -0.16179648376E+03  0.16200821645E+03  0.00000000000E+00 0.  1.
        -15    1    1    2    0    0 -0.57973148909E+01  0.18513262535E+01 -0.14452793627E+02  0.15782181138E+02  0.17770000000E+01 0.  1.
         15    1    1    2    0    0  0.59588042396E+01  0.12613827348E+02  0.37288718493E+01  0.14549165014E+02  0.17770000000E+01 0. -1.
</event>
<event>
 6    1  0.1059789E-002  0.1772412E+03  0.7546771E-02  0.1072720E+00
        -11   -1    0    0    0    0  0.00000000000E+00  0.00000000000E+00  0.18250000000E+03  0.18250000000E+03  0.00000000000E+00 0. -1.
         11   -1    0    0    0    0 -0.00000000000E+00 -0.00000000000E+00 -0.18250000000E+03  0.18250000000E+03  0.00000000000E+00 0. -1.
        -11    1    1    2    0    0 -0.57655210376E+00  0.39662167466E+01  0.17897640965E+03  0.17902127945E+03  0.00000000000E+00 0. -1.
         11    1    1    2    0    0 -0.76164280613E+00  0.27685017831E+01 -0.17552088832E+03  0.17554437314E+03  0.00000000000E+00 0. -1.
        -15    1    1    2    0    0  0.25296014531E+01 -0.68986027230E+01 -0.19313427406E+01  0.78023981456E+01  0.17770000000E+01 0.  1.
         15    1    1    2    0    0 -0.11914065432E+01  0.16388419322E+00 -0.15241785805E+01  0.26319492634E+01  0.17770000000E+01 0. -1.
</event>
<event>
 6    1  0.1059789E-002  0.1844459E+03  0.7546771E-02  0.1066916E+00
        -11   -1    0    0    0    0  0.00000000000E+00  0.00000000000E+00  0.18250000000E+03  0.18250000000E+03  0.00000000000E+00 0. -1.
         11   -1    0    0    0    0 -0.00000000000E+00 -0.00000000000E+00 -0.18250000000E+03  0.18250000000E+03  0.00000000000E+00 0. -1.
        -11    1    1    2    0    0  0.45297905304E+01  0.79577641795E+00  0.16891051193E+03  0.16897311415E+03  0.00000000000E+00 0. -1.
         11    1    1    2    0    0  0.43476697636E+01 -0.18093332813E+01 -0.18049266459E+03  0.18055408577E+03  0.00000000000E+00 0. -1.
        -15    1    1    2    0    0 -0.15848740973E+01  0.42306506380E+00  0.46362188253E+01  0.52290595664E+01  0.17770000000E+01 0.  1.
         15    1    1    2    0    0 -0.72925861967E+01  0.59049179956E+00  0.69459338289E+01  0.10243740516E+02  0.17770000000E+01 0. -1.
</event>
<event>
 6    1  0.1059789E-002  0.1849455E+03  0.7546771E-02  0.1066525E+00
        -11   -1    0    0    0    0  0.00000000000E+00  0.00000000000E+00  0.18250000000E+03  0.18250000000E+03  0.00000000000E+00 0.  1.
         11   -1    0    0    0    0 -0.00000000000E+00 -0.00000000000E+00 -0.18250000000E+03  0.18250000000E+03  0.00000000000E+00 0. -1.
        -11    1    1    2    0    0 -0.19813599915E+00  0.25353883921E+01  0.16770911258E+03  0.16772839323E+03  0.00000000000E+00 0.  1.
         11    1    1    2    0    0 -0.20650148368E+01 -0.35563289688E+01 -0.18000748792E+03  0.18005445696E+03  0.00000000000E+00 0. -1.
        -15    1    1    2    0    0  0.30001070147E+01 -0.54804217442E+00  0.13847986280E+02  0.14290746843E+02  0.17770000000E+01 0. -1.
         15    1    1    2    0    0 -0.73695617878E+00  0.15689827511E+01 -0.15496109384E+01  0.29264029701E+01  0.17770000000E+01 0.  1.
</event>
<event>
 6    1  0.1059789E-002  0.1635348E+03  0.7546771E-02  0.1084641E+00
        -11   -1    0    0    0    0  0.00000000000E+00  0.00000000000E+00  0.18250000000E+03  0.18250000000E+03  0.00000000000E+00 0. -1.
         11   -1    0    0    0    0 -0.00000000000E+00 -0.00000000000E+00 -0.18250000000E+03  0.18250000000E+03  0.00000000000E+00 0.  1.
        -11    1    1    2    0    0 -0.89838376119E+01 -0.10219891775E+02  0.16067702627E+03  0.16125216990E+03  0.00000000000E+00 0. -1.
         11    1    1    2    0    0 -0.27553787331E+01 -0.98579765892E+00 -0.16624139963E+03  0.16626715509E+03  0.00000000000E+00 0.  1.
        -15    1    1    2    0    0  0.67231941582E+00 -0.17843534131E+01  0.16780984225E+02  0.16982199241E+02  0.17770000000E+01 0. -1.
         15    1    1    2    0    0  0.11066896929E+02  0.12990042847E+02 -0.11216610859E+02  0.20498475772E+02  0.17770000000E+01 0.  1.
</event>
<event>
 6    1  0.1059789E-002  0.1870691E+03  0.7546771E-02  0.1064875E+00
        -11   -1    0    0    0    0  0.00000000000E+00  0.00000000000E+00  0.18250000000E+03  0.18250000000E+03  0.00000000000E+00 0. -1.
         11   -1    0    0    0    0 -0.00000000000E+00 -0.00000000000E+00 -0.18250000000E+03  0.18250000000E+03  0.00000000000E+00 0.  1.
        -11    1    1    2    0    0 -0.25510449990E+00  0.26723003309E+01  0.17252384933E+03  0.17254473291E+03  0.00000000000E+00 0. -1.
         11    1    1    2    0    0 -0.28188836623E+01 -0.12821499422E+01 -0.17790395274E+03  0.17793090348E+03  0.00000000000E+00 0.  1.
        -15    1    1    2    0    0  0.76951264936E+00  0.15621936800E+01 -0.37482297983E+01  0.44988392316E+01  0.17770000000E+01 0.  1.
         15    1    1    2    0    0  0.23044755129E+01 -0.29523440687E+01  0.91283332035E+01  0.10025524374E+02  0.17770000000E+01 0. -1.
</event>
<event>
 6    1  0.1059789E-002  0.1892921E+03  0.7546771E-02  0.1063173E+00
        -11   -1    0    0    0    0  0.00000000000E+00  0.00000000000E+00  0.18250000000E+03  0.18250000000E+03  0.00000000000E+00 0. -1.
         11   -1    0    0    0    0 -0.00000000000E+00 -0.00000000000E+00 -0.18250000000E+03  0.18250000000E+03  0.00000000000E+00 0.  1.
        -11    1    1    2    0    0 -0.10591592801E+01  0.27210612874E+01  0.14819097087E+03  0.14821973499E+03  0.00000000000E+00 0. -1.
         11    1    1    2    0    0 -0.47576872909E+01 -0.11298937650E+02 -0.17527972501E+03  0.17570794968E+03  0.00000000000E+00 0.  1.
        -15    1    1    2    0    0 -0.37709707640E+01  0.12702953913E+02  0.15911420522E+01  0.13463830088E+02  0.17770000000E+01 0. -1.
         15    1    1    2    0    0  0.95878173350E+01 -0.41250775498E+01  0.25497612093E+02  0.27608485244E+02  0.17770000000E+01 0.  1.
</event>
<event>
 6    1  0.1059789E-002  0.1858570E+03  0.7546771E-02  0.1065814E+00
        -11   -1    0    0    0    0  0.00000000000E+00  0.00000000000E+00  0.18250000000E+03  0.18250000000E+03  0.00000000000E+00 0. -1.
         11   -1    0    0    0    0 -0.00000000000E+00 -0.00000000000E+00 -0.18250000000E+03  0.18250000000E+03  0.00000000000E+00 0. -1.
        -11    1    1    2    0    0 -0.36888739764E+01  0.33410556090E+01  0.87899975941E+02  0.88040764503E+02  0.00000000000E+00 0. -1.
         11    1    1    2    0    0  0.66921849503E+00 -0.53734277140E+01 -0.17906117196E+03  0.17914302912E+03  0.00000000000E+00 0. -1.
        -15    1    1    2    0    0 -0.63323379434E+01  0.82067221302E+01  0.64261014359E+01  0.12324824567E+02  0.17770000000E+01 0.  1.
         15    1    1    2    0    0  0.93519934248E+01 -0.61743500251E+01  0.84735094587E+02  0.85491381805E+02  0.17770000000E+01 0. -1.
</event>
<event>
 6    1  0.1059789E-002  0.1837881E+03  0.7546771E-02  0.1067434E+00
        -11   -1    0    0    0    0  0.00000000000E+00  0.00000000000E+00  0.18250000000E+03  0.18250000000E+03  0.00000000000E+00 0.  1.
         11   -1    0    0    0    0 -0.00000000000E+00 -0.00000000000E+00 -0.18250000000E+03  0.18250000000E+03  0.00000000000E+00 0.  1.
        -11    1    1    2    0    0  0.36263210438E+01 -0.35459044177E+01  0.18114090570E+03  0.18121189629E+03  0.00000000000E+00 0.  1.
         11    1    1    2    0    0  0.40451317076E+01 -0.35064397114E+01 -0.15597388675E+03  0.15606572833E+03  0.00000000000E+00 0.  1.
        -15    1    1    2    0    0 -0.50063820998E+01  0.50732048215E+01 -0.20167208170E+02  0.21463347438E+02  0.17770000000E+01 0.  1.
         15    1    1    2    0    0 -0.26650706516E+01  0.19791393075E+01 -0.49998107730E+01  0.62590279391E+01  0.17770000000E+01 0. -1.
</event>
<event>
 6    1  0.1059789E-002  0.1876960E+03  0.7546771E-02  0.1064392E+00
        -11   -1    0    0    0    0  0.00000000000E+00  0.00000000000E+00  0.18250000000E+03  0.18250000000E+03  0.00000000000E+00 0.  1.
         11   -1    0    0    0    0 -0.00000000000E+00 -0.00000000000E+00 -0.18250000000E+03  0.18250000000E+03  0.00000000000E+00 0.  1.
        -11    1    1    2    0    0  0.17325569788E+00 -0.28199677409E+01  0.13306225792E+03  0.13309224890E+03  0.00000000000E+00 0.  1.
         11    1    1    2    0    0 -0.42146660717E+01  0.28228132913E+01 -0.17723146582E+03  0.17730404440E+03  0.00000000000E+00 0.  1.
        -15    1    1    2    0    0  0.18770756501E+01  0.70773012528E+00  0.48947001214E+02  0.49020311624E+02  0.17770000000E+01 0.  1.
         15    1    1    2    0    0  0.21643347238E+01 -0.71057567574E+00 -0.47777933149E+01  0.55833950736E+01  0.17770000000E+01 0. -1.
</event>
<event>
 6    1  0.1059789E-002  0.1831607E+03  0.7546771E-02  0.1067930E+00
        -11   -1    0    0    0    0  0.00000000000E+00  0.00000000000E+00  0.18250000000E+03  0.18250000000E+03  0.00000000000E+00 0. -1.
         11   -1    0    0    0    0 -0.00000000000E+00 -0.00000000000E+00 -0.18250000000E+03  0.18250000000E+03  0.00000000000E+00 0. -1.
        -11    1    1    2    0    0 -0.29386542381E+01 -0.19270001707E+01  0.18180538277E+03  0.18183934179E+03  0.00000000000E+00 0. -1.
         11    1    1    2    0    0  0.80227745300E+01 -0.73890842265E+00 -0.68451603349E+02  0.68924109700E+02  0.00000000000E+00 0. -1.
        -15    1    1    2    0    0  0.10945438885E+01 -0.53928086493E+00 -0.32574255719E+01  0.39060722640E+01  0.17770000000E+01 0.  1.
         15    1    1    2    0    0 -0.61786641804E+01  0.32051894582E+01 -0.11009635385E+03  0.11033047625E+03  0.17770000000E+01 0. -1.
</event>
<event>
 6    1  0.1059789E-002  0.1673253E+03  0.7546771E-02  0.1081220E+00
        -11   -1    0    0    0    0  0.00000000000E+00  0.00000000000E+00  0.18250000000E+03  0.18250000000E+03  0.00000000000E+00 0.  1.
         11   -1    0    0    0    0 -0.00000000000E+00 -0.00000000000E+00 -0.18250000000E+03  0.18250000000E+03  0.00000000000E+00 0. -1.
        -11    1    1    2    0    0 -0.33404779455E+01  0.44743505883E+01  0.16790935281E+03  0.16800217072E+03  0.00000000000E+00 0.  1.
         11    1    1    2    0    0  0.63821323880E+01 -0.15268488528E+02 -0.16601881133E+03  0.16684155379E+03  0.00000000000E+00 0. -1.
        -15    1    1    2    0    0 -0.49666946566E+01 -0.73000281051E+01  0.53684923829E+01  0.10485080143E+02  0.17770000000E+01 0.  1.
         15    1    1    2    0    0  0.19250402142E+01  0.18094166045E+02 -0.72590338642E+01  0.19671195346E+02  0.17770000000E+01 0. -1.
</event>
<event>
 6    1  0.1059789E-002  0.1840647E+03  0.7546771E-02  0.1067216E+00
        -11   -1    0    0    0    0  0.00000000000E+00  0.00000000000E+00  0.18250000000E+03  0.18250000000E+03  0.00000000000E+00 0.  1.
         11   -1    0    0    0    0 -0.00000000000E+00 -0.00000000000E+00 -0.18250000000E+03  0.18250000000E+03  0.00000000000E+00 0.  1.
        -11    1    1    2    0    0 -0.11553705890E+02 -0.40030679280E+01  0.18052164297E+03  0.18093528195E+03  0.00000000000E+00 0.  1.
         11    1    1    2    0    0  0.21652960680E+01  0.19281601859E+01 -0.10642564167E+03  0.10646512815E+03  0.00000000000E+00 0.  1.
        -15    1    1    2    0    0  0.11332018933E+02  0.38445311945E+01 -0.19747201179E+02  0.23158254610E+02  0.17770000000E+01 0. -1.
         15    1    1    2    0    0 -0.19436091115E+01 -0.17696234524E+01 -0.54348800126E+02  0.54441335286E+02  0.17770000000E+01 0. -1.
</event>
<event>
 6    1  0.1059789E-002  0.1831031E+03  0.7546771E-02  0.1067976E+00
        -11   -1    0    0    0    0  0.00000000000E+00  0.00000000000E+00  0.18250000000E+03  0.18250000000E+03  0.00000000000E+00 0. -1.
         11   -1    0    0    0    0 -0.00000000000E+00 -0.00000000000E+00 -0.18250000000E+03  0.18250000000E+03  0.00000000000E+00 0. -1.
        -11    1    1    2    0    0 -0.46236421230E+01  0.41302379292E+01  0.18179119448E+03  0.18189688101E+03  0.00000000000E+00 0. -1.
         11    1    1    2    0    0  0.33831442821E+01 -0.19190571825E+01 -0.15245001156E+03  0.15249962121E+03  0.00000000000E+00 0. -1.
        -15    1    1    2    0    0  0.28832736881E+01 -0.14010953302E+01 -0.53983708982E+01  0.65250649528E+01  0.17770000000E+01 0.  1.
         15    1    1    2    0    0 -0.16427758472E+01 -0.81008541658E+00 -0.23942812022E+02  0.24078432827E+02  0.17770000000E+01 0. -1.
</event>
<event>
 6    1  0.1059789E-002  0.1764503E+03  0.7546771E-02  0.1073375E+00
        -11   -1    0    0    0    0  0.00000000000E+00  0.00000000000E+00  0.18250000000E+03  0.18250000000E+03  0.00000000000E+00 0. -1.
         11   -1    0    0    0    0 -0.00000000000E+00 -0.00000000000E+00 -0.18250000000E+03  0.18250000000E+03  0.00000000000E+00 0. -1.
        -11    1    1    2    0    0 -0.21370938293E+01  0.11108937402E+01  0.17592417420E+03  0.17594066137E+03  0.00000000000E+00 0. -1.
         11    1    1    2    0    0  0.24340274097E+01 -0.39449882199E+01 -0.17691207415E+03  0.17697279283E+03  0.00000000000E+00 0. -1.
        -15    1    1    2    0    0 -0.49921143827E+01  0.42556703633E+01  0.99633514808E+00  0.68689408920E+01  0.17770000000E+01 0. -1.
         15    1    1    2    0    0  0.46951808023E+01 -0.14215758837E+01 -0.84351980989E-02  0.52176049018E+01  0.17770000000E+01 0.  1.
</event>
<event>
 6    1  0.1059789E-002  0.1838014E+03  0.7546771E-02  0.1067424E+00
        -11   -1    0    0    0    0  0.00000000000E+00  0.00000000000E+00  0.18250000000E+03  0.18250000000E+03  0.00000000000E+00 0.  1.
         11   -1    0    0    0    0 -0.00000000000E+00 -0.00000000000E+00 -0.18250000000E+03  0.18250000000E+03  0.00000000000E+00 0. -1.
        -11    1    1    2    0    0  0.46425962624E+00  0.23778709982E+01  0.77592029465E+02  0.77629845059E+02  0.00000000000E+00 0.  1.
         11    1    1    2    0    0 -0.73982981033E+01  0.45899091779E+01 -0.18098932435E+03  0.18119861371E+03  0.00000000000E+00 0. -1.
        -15    1    1    2    0    0 -0.37679917746E+01  0.43952257783E+01  0.53943531685E+02  0.54282392277E+02  0.17770000000E+01 0.  1.
         15    1    1    2    0    0  0.10702030252E+02 -0.11363005954E+02  0.49453763200E+02  0.51889148957E+02  0.17770000000E+01 0. -1.
</event>
<event>
 6    1  0.1059789E-002  0.1839310E+03  0.7546771E-02  0.1067321E+00
        -11   -1    0    0    0    0  0.00000000000E+00  0.00000000000E+00  0.18250000000E+03  0.18250000000E+03  0.00000000000E+00 0. -1.
         11   -1    0    0    0    0 -0.00000000000E+00 -0.00000000000E+00 -0.18250000000E+03  0.18250000000E+03  0.00000000000E+00 0. -1.
        -11    1    1    2    0    0 -0.39456612314E+01  0.44509741383E+01  0.14900697133E+03  0.14912564138E+03  0.00000000000E+00 0. -1.
         11    1    1    2    0    0 -0.28205722813E+01  0.51315046517E+01 -0.18097428132E+03  0.18106898814E+03  0.00000000000E+00 0. -1.
        -15    1    1    2    0    0  0.40466747467E+00 -0.17232328502E+01  0.12982346924E+02  0.13222418383E+02  0.17770000000E+01 0. -1.
         15    1    1    2    0    0  0.63615660380E+01 -0.78592459398E+01  0.18984963069E+02  0.21582952090E+02  0.17770000000E+01 0.  1.
</event>
<event>
 6    1  0.1059789E-002  0.1833457E+03  0.7546771E-02  0.1067784E+00
        -11   -1    0    0    0    0  0.00000000000E+00  0.00000000000E+00  0.18250000000E+03  0.18250000000E+03  0.00000000000E+00 0.  1.
         11   -1    0    0    0    0 -0.00000000000E+00 -0.00000000000E+00 -0.18250000000E+03  0.18250000000E+03  0.00000000000E+00 0. -1.
        -11    1    1    2    0    0 -0.11174557647E+01 -0.16459555786E+01  0.13620608352E+03  0.13622061175E+03  0.00000000000E+00 0.  1.
         11    1    1    2    0    0 -0.46404297563E+01  0.11502011920E+01 -0.18159133516E+03  0.18165425829E+03  0.00000000000E+00 0. -1.
        -15    1    1    2    0    0  0.68346115516E+00 -0.18070102574E+01  0.18805854414E+01  0.32290456521E+01  0.17770000000E+01 0. -1.
         15    1    1    2    0    0  0.50744243658E+01  0.23027646441E+01  0.43504666194E+02  0.43896084305E+02  0.17770000000E+01 0.  1.
</event>
<event>
 6    1  0.1059789E-002  0.1831017E+03  0.7546771E-02  0.1067977E+00
        -11   -1    0    0    0    0  0.00000000000E+00  0.00000000000E+00  0.18250000000E+03  0.18250000000E+03  0.00000000000E+00 0. -1.
         11   -1    0    0    0    0 -0.00000000000E+00 -0.00000000000E+00 -0.18250000000E+03  0.18250000000E+03  0.00000000000E+00 0.  1.
        -11    1    1    2    0    0 -0.95516404275E+00 -0.58119725020E+00  0.46419640987E+02  0.46433104547E+02  0.00000000000E+00 0. -1.
         11    1    1    2    0    0  0.28218839830E+01 -0.22474873903E+01 -0.18186247387E+03  0.18189825077E+03  0.00000000000E+00 0.  1.
        -15    1    1    2    0    0 -0.34602680630E+01  0.35670437832E+01  0.10998786375E+02  0.12199519956E+02  0.17770000000E+01 0. -1.
         15    1    1    2    0    0  0.15935481227E+01 -0.73835914271E+00  0.12444404651E+03  0.12446912473E+03  0.17770000000E+01 0. -1.
</event>
<event>
 6    1  0.1059789E-002  0.1836337E+03  0.7546771E-02  0.1067556E+00
        -11   -1    0    0    0    0  0.00000000000E+00  0.00000000000E+00  0.18250000000E+03  0.18250000000E+03  0.00000000000E+00 0.  1.
         11   -1    0    0    0    0 -0.00000000000E+00 -0.00000000000E+00 -0.18250000000E+03  0.18250000000E+03  0.00000000000E+00 0.  1.
        -11    1    1    2    0    0 -0.38321991601E+01  0.92762901166E+00  0.14944551127E+03  0.14949751531E+03  0.00000000000E+00 0.  1.
         11    1    1    2    0    0 -0.41603491688E+01  0.10981748152E+01 -0.18131525870E+03  0.18136630759E+03  0.00000000000E+00 0.  1.
        -15    1    1    2    0    0  0.24784545866E+01  0.21724134218E+01  0.45368884665E+01  0.58824487393E+01  0.17770000000E+01 0. -1.
         15    1    1    2    0    0  0.55140937422E+01 -0.41982172486E+01  0.27332858962E+02  0.28253728354E+02  0.17770000000E+01 0.  1.
</event>
<event>
 6    1  0.1059789E-002  0.1776697E+03  0.7546771E-02  0.1072366E+00
        -11   -1    0    0    0    0  0.00000000000E+00  0.00000000000E+00  0.18250000000E+03  0.18250000000E+03  0.00000000000E+00 0. -1.
         11   -1    0    0    0    0 -0.00000000000E+00 -0.00000000000E+00 -0.18250000000E+03  0.18250000000E+03  0.00000000000E+00 0. -1.
        -11    1    1    2    0    0  0.13931533571E+01 -0.49073516994E+01  0.17658721343E+03  0.17666088114E+03  0.00000000000E+00 0. -1.
         11    1    1    2    0    0  0.35772057279E+01  0.58865526486E+00 -0.17870911771E+03  0.17874588574E+03  0.00000000000E+00 0. -1.
        -15    1    1    2    0    0 -0.35743686807E+01 -0.28496046313E+00  0.19751509321E+01  0.44627641810E+01  0.17770000000E+01 0. -1.
         15    1    1    2    0    0 -0.13959904043E+01  0.46036568976E+01  0.14675334118E+00  0.51304689438E+01  0.17770000000E+01 0.  1.
</event>
<event>
 6    1  0.1059789E-002  0.1826906E+03  0.7546771E-02  0.1068303E+00
        -11   -1    0    0    0    0  0.00000000000E+00  0.00000000000E+00  0.18250000000E+03  0.18250000000E+03  0.00000000000E+00 0.  1.
         11   -1    0    0    0    0 -0.00000000000E+00 -0.00000000000E+00 -0.18250000000E+03  0.18250000000E+03  0.00000000000E+00 0. -1.
        -11    1    1    2    0    0 -0.16252625688E+01  0.25762492006E+01  0.18228395760E+03  0.18230940660E+03  0.00000000000E+00 0.  1.
         11    1    1    2    0    0 -0.18955121566E+01  0.91679347990E+00 -0.80824226334E+02  0.80851648339E+02  0.00000000000E+00 0. -1.
        -15    1    1    2    0    0  0.34234684380E+01 -0.20784693800E+01 -0.27717257942E+02  0.28061437739E+02  0.17770000000E+01 0.  1.
         15    1    1    2    0    0  0.97306287390E-01 -0.14145733005E+01 -0.73742473320E+02  0.73777507321E+02  0.17770000000E+01 0. -1.
</event>
<event>
 6    1  0.1059789E-002  0.1837400E+03  0.7546771E-02  0.1067472E+00
        -11   -1    0    0    0    0  0.00000000000E+00  0.00000000000E+00  0.18250000000E+03  0.18250000000E+03  0.00000000000E+00 0. -1.
         11   -1    0    0    0    0 -0.00000000000E+00 -0.00000000000E+00 -0.18250000000E+03  0.18250000000E+03  0.00000000000E+00 0.  1.
        -11    1    1    2    0    0 -0.25020024819E+01  0.17600238783E+01  0.18123415983E+03  0.18125997460E+03  0.00000000000E+00 0. -1.
         11    1    1    2    0    0 -0.12079743475E+01  0.93087745976E+00 -0.79791758837E+02  0.79806331285E+02  0.00000000000E+00 0.  1.
        -15    1    1    2    0    0  0.57676905846E+01 -0.26959963259E+01 -0.76840300600E+01  0.10135911298E+02  0.17770000000E+01 0.  1.
         15    1    1    2    0    0 -0.20577137552E+01  0.50949878339E-02 -0.93758370938E+02  0.93797782819E+02  0.17770000000E+01 0.  1.
</event>
<event>
 6    1  0.1059789E-002  0.1764832E+03  0.7546771E-02  0.1073348E+00
        -11   -1    0    0    0    0  0.00000000000E+00  0.00000000000E+00  0.18250000000E+03  0.18250000000E+03  0.00000000000E+00 0.  1.
         11   -1    0    0    0    0 -0.00000000000E+00 -0.00000000000E+00 -0.18250000000E+03  0.18250000000E+03  0.00000000000E+00 0. -1.
        -11    1    1    2    0    0  0.29153992749E+01  0.51463661211E+01  0.17808908852E+03  0.17818728374E+03  0.00000000000E+00 0.  1.
         11    1    1    2    0    0  0.26560062665E+01 -0.29196870703E+01 -0.17480096123E+03  0.17484551749E+03  0.00000000000E+00 0. -1.
        -15    1    1    2    0    0 -0.33924796485E+01  0.75783723890E+00 -0.59225571118E+01  0.70934932994E+01  0.17770000000E+01 0. -1.
         15    1    1    2    0    0 -0.21789258929E+01 -0.29845162896E+01  0.26344298218E+01  0.48737054708E+01  0.17770000000E+01 0.  1.
</event>
<event>
 6    1  0.1059789E-002  0.1860018E+03  0.7546771E-02  0.1065701E+00
        -11   -1    0    0    0    0  0.00000000000E+00  0.00000000000E+00  0.18250000000E+03  0.18250000000E+03  0.00000000000E+00 0. -1.
         11   -1    0    0    0    0 -0.00000000000E+00 -0.00000000000E+00 -0.18250000000E+03  0.18250000000E+03  0.00000000000E+00 0. -1.
        -11    1    1    2    0    0 -0.76928142381E+01  0.18776473190E+01  0.17882295110E+03  0.17899819214E+03  0.00000000000E+00 0. -1.
         11    1    1    2    0    0  0.21430884024E+01  0.53696947865E+01 -0.14317221805E+03  0.14328890561E+03  0.00000000000E+00 0. -1.
        -15    1    1    2    0    0  0.41939565219E+01  0.70170196822E+01 -0.18432736953E+02  0.20242316002E+02  0.17770000000E+01 0.  1.
         15    1    1    2    0    0  0.13557693138E+01 -0.14264361788E+02 -0.17217996093E+02  0.22470586243E+02  0.17770000000E+01 0. -1.
</event>
<event>
 6    1  0.1059789E-002  0.1831361E+03  0.7546771E-02  0.1067950E+00
        -11   -1    0    0    0    0  0.00000000000E+00  0.00000000000E+00  0.18250000000E+03  0.18250000000E+03  0.00000000000E+00 0. -1.
         11   -1    0    0    0    0 -0.00000000000E+00 -0.00000000000E+00 -0.18250000000E+03  0.18250000000E+03  0.00000000000E+00 0.  1.
        -11    1    1    2    0    0 -0.22404693320E+01 -0.20293803838E+01  0.18183874192E+03  0.18186386709E+03  0.00000000000E+00 0. -1.
         11    1    1    2    0    0  0.72684950487E+00 -0.13658683822E+01 -0.10213737302E+03  0.10214909140E+03  0.00000000000E+00 0.  1.
        -15    1    1    2    0    0 -0.36648471408E+01 -0.36027425956E+01 -0.33617429223E+02  0.34054370282E+02  0.17770000000E+01 0.  1.
         15    1    1    2    0    0  0.51784669679E+01  0.69979913615E+01 -0.46083939681E+02  0.46932671229E+02  0.17770000000E+01 0.  1.
</event>
<event>
 6    1  0.1059789E-002  0.1826191E+03  0.7546771E-02  0.1068360E+00
        -11   -1    0    0    0    0  0.00000000000E+00  0.00000000000E+00  0.18250000000E+03  0.18250000000E+03  0.00000000000E+00 0.  1.
         11   -1    0    0    0    0 -0.00000000000E+00 -0.00000000000E+00 -0.18250000000E+03  0.18250000000E+03  0.00000000000E+00 0. -1.
        -11    1    1    2    0    0 -0.39975081765E+01  0.38425175752E+01  0.18229657736E+03  0.18238088478E+03  0.00000000000E+00 0.  1.
         11    1    1    2    0    0  0.34662539392E+00  0.10546786560E+01 -0.74334425058E+02  0.74342714807E+02  0.00000000000E+00 0. -1.
        -15    1    1    2    0    0  0.42647493895E+01 -0.36391017784E+01 -0.69841608500E+02  0.70088794796E+02  0.17770000000E+01 0. -1.
         15    1    1    2    0    0 -0.61386660688E+00 -0.12580944527E+01 -0.38120543807E+02  0.38187605620E+02  0.17770000000E+01 0. -1.
</event>
<event>
 6    1  0.1059789E-002  0.1826510E+03  0.7546771E-02  0.1068335E+00
        -11   -1    0    0    0    0  0.00000000000E+00  0.00000000000E+00  0.18250000000E+03  0.18250000000E+03  0.00000000000E+00 0. -1.
         11   -1    0    0    0    0 -0.00000000000E+00 -0.00000000000E+00 -0.18250000000E+03  0.18250000000E+03  0.00000000000E+00 0.  1.
        -11    1    1    2    0    0 -0.10202446879E+01 -0.23631767764E+01  0.13272733055E+03  0.13275228728E+03  0.00000000000E+00 0. -1.
         11    1    1    2    0    0  0.25982933462E+01 -0.54611782973E-01 -0.18233049366E+03  0.18234901433E+03  0.00000000000E+00 0.  1.
        -15    1    1    2    0    0 -0.19761176462E+01  0.53845870420E+00  0.29858823055E+02  0.29981694781E+02  0.17770000000E+01 0. -1.
         15    1    1    2    0    0  0.39806898791E+00  0.18793298552E+01  0.19744340053E+02  0.19917003609E+02  0.17770000000E+01 0.  1.
</event>
<event>
 6    1  0.1059789E-002  0.1837825E+03  0.7546771E-02  0.1067439E+00
        -11   -1    0    0    0    0  0.00000000000E+00  0.00000000000E+00  0.18250000000E+03  0.18250000000E+03  0.00000000000E+00 0.  1.
         11   -1    0    0    0    0 -0.00000000000E+00 -0.00000000000E+00 -0.18250000000E+03  0.18250000000E+03  0.00000000000E+00 0. -1.
        -11    1    1    2    0    0  0.11709793021E+01  0.58448614332E-01  0.74617656926E+02  0.74626867373E+02  0.00000000000E+00 0.  1.
         11    1    1    2    0    0  0.25659744497E+01  0.21939327086E+00 -0.18119920646E+03  0.18121750682E+03  0.00000000000E+00 0. -1.
        -15    1    1    2    0    0 -0.82252244614E+00 -0.57198976695E+01  0.65336151402E+01  0.89016643569E+01  0.17770000000E+01 0.  1.
         15    1    1    2    0    0 -0.29144313057E+01  0.54420557843E+01  0.10004793439E+03  0.10025396145E+03  0.17770000000E+01 0. -1.
</event>
<event>
 6    1  0.1059789E-002  0.2079034E+03  0.7546771E-02  0.1049859E+00
        -11   -1    0    0    0    0  0.00000000000E+00  0.00000000000E+00  0.18250000000E+03  0.18250000000E+03  0.00000000000E+00 0.  1.
         11   -1    0    0    0    0 -0.00000000000E+00 -0.00000000000E+00 -0.18250000000E+03  0.18250000000E+03  0.00000000000E+00 0.  1.
        -11    1    1    2    0    0  0.95674439245E+00 -0.26179573855E+01  0.14750174097E+03  0.14752807411E+03  0.00000000000E+00 0.  1.
         11    1    1    2    0    0 -0.68005702864E+00  0.37325405080E+01 -0.15705079589E+03  0.15709661621E+03  0.00000000000E+00 0.  1.
        -15    1    1    2    0    0  0.18692831968E+01  0.42429708853E+01  0.34422778492E+02  0.34779051593E+02  0.17770000000E+01 0.  1.
         15    1    1    2    0    0 -0.21459705606E+01 -0.53575540077E+01 -0.24873723577E+02  0.25596258089E+02  0.17770000000E+01 0. -1.
</event>
<event>
 6    1  0.1059789E-002  0.1955756E+03  0.7546771E-02  0.1058498E+00
        -11   -1    0    0    0    0  0.00000000000E+00  0.00000000000E+00  0.18250000000E+03  0.18250000000E+03  0.00000000000E+00 0.  1.
         11   -1    0    0    0    0 -0.00000000000E+00 -0.00000000000E+00 -0.18250000000E+03  0.18250000000E+03  0.00000000000E+00 0.  1.
        -11    1    1    2    0    0 -0.26078923144E+01  0.18098901622E+01  0.15965807168E+03  0.15968962602E+03  0.00000000000E+00 0.  1.
         11    1    1    2    0    0 -0.26110880913E+01 -0.87799723451E+01 -0.16917657187E+03  0.16942437299E+03  0.00000000000E+00 0.  1.
        -15    1    1    2    0    0  0.14386377126E+01 -0.13807353975E+01  0.20953515254E+02  0.21123059418E+02  0.17770000000E+01 0. -1.
         15    1    1    2    0    0  0.37803426931E+01  0.83508175804E+01 -0.11435015070E+02  0.14762941570E+02  0.17770000000E+01 0.  1.
</event>
<event>
 6    1  0.1059789E-002  0.1774627E+03  0.7546771E-02  0.1072537E+00
        -11   -1    0    0    0    0  0.00000000000E+00  0.00000000000E+00  0.18250000000E+03  0.18250000000E+03  0.00000000000E+00 0.  1.
         11   -1    0    0    0    0 -0.00000000000E+00 -0.00000000000E+00 -0.18250000000E+03  0.18250000000E+03  0.00000000000E+00 0.  1.
        -11    1    1    2    0    0  0.24966517682E+01  0.65607043736E+00  0.17735849617E+03  0.17737728114E+03  0.00000000000E+00 0.  1.
         11    1    1    2    0    0  0.17997454919E+01 -0.17663948777E+01 -0.17755797705E+03  0.17757588364E+03  0.00000000000E+00 0.  1.
        -15    1    1    2    0    0 -0.42541090858E+01 -0.28938533021E+01  0.11511265867E+01  0.55636905437E+01  0.17770000000E+01 0. -1.
         15    1    1    2    0    0 -0.42288174331E-01  0.40041777424E+01 -0.95164570844E+00  0.44831446817E+01  0.17770000000E+01 0. -1.
</event>
<event>
 6    1  0.1059789E-002  0.1827492E+03  0.7546771E-02  0.1068257E+00
        -11   -1    0    0    0    0  0.00000000000E+00  0.00000000000E+00  0.18250000000E+03  0.18250000000E+03  0.00000000000E+00 0.  1.
         11   -1    0    0    0    0 -0.00000000000E+00 -0.00000000000E+00 -0.18250000000E+03  0.18250000000E+03  0.00000000000E+00 0. -1.
        -11    1    1    2    0    0 -0.45142210546E+01  0.21011742951E+00  0.18219472596E+03  0.18225076272E+03  0.00000000000E+00 0.  1.
         11    1    1    2    0    0  0.18694002946E+01  0.55459835241E+00 -0.12374750630E+03  0.12376286823E+03  0.00000000000E+00 0. -1.
        -15    1    1    2    0    0  0.46699076503E+01 -0.57849004992E+00 -0.44215025755E+02  0.44500212581E+02  0.17770000000E+01 0. -1.
         15    1    1    2    0    0 -0.20250868903E+01 -0.18622573199E+00 -0.14232193911E+02  0.14486156477E+02  0.17770000000E+01 0. -1.
</event>
<event>
 6    1  0.1059789E-002  0.1844267E+03  0.7546771E-02  0.1066931E+00
        -11   -1    0    0    0    0  0.00000000000E+00  0.00000000000E+00  0.18250000000E+03  0.18250000000E+03  0.00000000000E+00 0.  1.
         11   -1    0    0    0    0 -0.00000000000E+00 -0.00000000000E+00 -0.18250000000E+03  0.18250000000E+03  0.00000000000E+00 0. -1.
        -11    1    1    2    0    0 -0.26286108581E+01 -0.14438002515E+01  0.95004102079E+02  0.95051425903E+02  0.00000000000E+00 0.  1.
         11    1    1    2    0    0  0.88076664602E+01 -0.11300306960E+02 -0.18000400055E+03  0.18057328745E+03  0.00000000000E+00 0. -1.
        -15    1    1    2    0    0 -0.89236444900E+01  0.10298103958E+02  0.84072249917E+02  0.85187929375E+02  0.17770000000E+01 0. -1.
         15    1    1    2    0    0  0.27445888879E+01  0.24460032543E+01  0.92764855610E+00  0.41873572724E+01  0.17770000000E+01 0.  1.
</event>
<event>
 6    1  0.1059789E-002  0.1840250E+03  0.7546771E-02  0.1067247E+00
        -11   -1    0    0    0    0  0.00000000000E+00  0.00000000000E+00  0.18250000000E+03  0.18250000000E+03  0.00000000000E+00 0. -1.
         11   -1    0    0    0    0 -0.00000000000E+00 -0.00000000000E+00 -0.18250000000E+03  0.18250000000E+03  0.00000000000E+00 0. -1.
        -11    1    1    2    0    0 -0.15426223788E+01 -0.35881410157E+01  0.14966803855E+03  0.14971899079E+03  0.00000000000E+00 0. -1.
         11    1    1    2    0    0  0.21117434394E+01  0.16092171887E+01 -0.18095553621E+03  0.18097501244E+03  0.00000000000E+00 0. -1.
        -15    1    1    2    0    0 -0.11464616241E+01 -0.46070715679E+01  0.23022393278E+02  0.23573879696E+02  0.17770000000E+01 0. -1.
         15    1    1    2    0    0  0.57734056344E+00  0.65859953949E+01  0.82651043822E+01  0.10732117075E+02  0.17770000000E+01 0.  1.
</event>
<event>
 6    1  0.1059789E-002  0.1841311E+03  0.7546771E-02  0.1067164E+00
        -11   -1    0    0    0    0  0.00000000000E+00  0.00000000000E+00  0.18250000000E+03  0.18250000000E+03  0.00000000000E+00 0.  1.
         11   -1    0    0    0    0 -0.00000000000E+00 -0.00000000000E+00 -0.18250000000E+03  0.18250000000E+03  0.00000000000E+00 0. -1.
        -11    1    1    2    0    0 -0.22669862285E+01  0.23386259813E+01  0.15293983378E+02  0.15636953847E+02  0.00000000000E+00 0.  1.
         11    1    1    2    0    0  0.73312419559E+01  0.11513212245E+01 -0.18071662823E+03  0.18086893699E+03  0.00000000000E+00 0. -1.
        -15    1    1    2    0    0 -0.74341737661E+01  0.21876495470E+01  0.92792503093E+01  0.12219450292E+02  0.17770000000E+01 0.  1.
         15    1    1    2    0    0  0.23699180387E+01 -0.56775967528E+01  0.15614339454E+03  0.15627465887E+03  0.17770000000E+01 0. -1.
</event>
<event>
 6    1  0.1059789E-002  0.1825640E+03  0.7546771E-02  0.1068404E+00
        -11   -1    0    0    0    0  0.00000000000E+00  0.00000000000E+00  0.18250000000E+03  0.18250000000E+03  0.00000000000E+00 0. -1.
         11   -1    0    0    0    0 -0.00000000000E+00 -0.00000000000E+00 -0.18250000000E+03  0.18250000000E+03  0.00000000000E+00 0. -1.
        -11    1    1    2    0    0 -0.42215875661E+01 -0.20400480010E+01  0.18237575851E+03  0.18243601862E+03  0.00000000000E+00 0. -1.
         11    1    1    2    0    0 -0.31000888229E+00  0.93642188831E+00 -0.43956050886E+02  0.43967117269E+02  0.00000000000E+00 0. -1.
        -15    1    1    2    0    0  0.18558733526E+01 -0.10786111362E+00 -0.26493625721E+02  0.26618148560E+02  0.17770000000E+01 0.  1.
         15    1    1    2    0    0  0.26757230958E+01  0.12114872263E+01 -0.11192608191E+03  0.11197871555E+03  0.17770000000E+01 0. -1.
</event>
<event>
 6    1  0.1059789E-002  0.1827280E+03  0.7546771E-02  0.1068273E+00
        -11   -1    0    0    0    0  0.00000000000E+00  0.00000000000E+00  0.18250000000E+03  0.18250000000E+03  0.00000000000E+00 0.  1.
         11   -1    0    0    0    0 -0.00000000000E+00 -0.00000000000E+00 -0.18250000000E+03  0.18250000000E+03  0.00000000000E+00 0.  1.
        -11    1    1    2    0    0 -0.12671444676E+00 -0.65704368578E+00  0.14888567046E+02  0.14903596601E+02  0.00000000000E+00 0.  1.
         11    1    1    2    0    0 -0.91671617464E+01 -0.15864758313E+00 -0.18204129176E+03  0.18227203277E+03  0.00000000000E+00 0.  1.
        -15    1    1    2    0    0  0.31289522471E+01 -0.39801677599E+01  0.10781299609E+03  0.10794643084E+03  0.17770000000E+01 0.  1.
         15    1    1    2    0    0  0.61649239460E+01  0.47958590288E+01  0.59339728624E+02  0.59877939788E+02  0.17770000000E+01 0. -1.
</event>
<event>
 6    1  0.1059789E-002  0.1842396E+03  0.7546771E-02  0.1067078E+00
        -11   -1    0    0    0    0  0.00000000000E+00  0.00000000000E+00  0.18250000000E+03  0.18250000000E+03  0.00000000000E+00 0. -1.
         11   -1    0    0    0    0 -0.00000000000E+00 -0.00000000000E+00 -0.18250000000E+03  0.18250000000E+03  0.00000000000E+00 0.  1.
        -11    1    1    2    0    0  0.42725640196E+00  0.94865796181E+00  0.22861635240E+02  0.22885298028E+02  0.00000000000E+00 0. -1.
         11    1    1    2    0    0  0.21084080360E+02 -0.88837964172E+01 -0.17930661598E+03  0.18076040169E+03  0.00000000000E+00 0.  1.
        -15    1    1    2    0    0 -0.25069789595E+01  0.69158077279E+01  0.58872429223E+01  0.95880497630E+01  0.17770000000E+01 0.  1.
         15    1    1    2    0    0 -0.19004357803E+02  0.10193307275E+01  0.15055773782E+03  0.15176625052E+03  0.17770000000E+01 0. -1.
</event>
<event>
 6    1  0.1059789E-002  0.1905526E+03  0.7546771E-02  0.1062220E+00
        -11   -1    0    0    0    0  0.00000000000E+00  0.00000000000E+00  0.18250000000E+03  0.18250000000E+03  0.00000000000E+00 0.  1.
         11   -1    0    0    0    0 -0.00000000000E+00 -0.00000000000E+00 -0.18250000000E+03  0.18250000000E+03  0.00000000000E+00 0.  1.
        -11    1    1    2    0    0  0.13856501847E+01  0.14013835262E+01  0.91364004824E+02  0.91385257453E+02  0.00000000000E+00 0.  1.
         11    1    1    2    0    0  0.23824153199E+00 -0.32812533741E+01 -0.17441635709E+03  0.17444738176E+03  0.00000000000E+00 0.  1.
        -15    1    1    2    0    0  0.53716415375E+01 -0.25350230505E+02  0.37829531074E+02  0.45888123406E+02  0.17770000000E+01 0. -1.
         15    1    1    2    0    0 -0.69955332542E+01  0.27230100353E+02  0.45222821189E+02  0.53279237382E+02  0.17770000000E+01 0.  1.
</event>
<event>
 6    1  0.1059789E-002  0.1881841E+03  0.7546771E-02  0.1064018E+00
        -11   -1    0    0    0    0  0.00000000000E+00  0.00000000000E+00  0.18250000000E+03  0.18250000000E+03  0.00000000000E+00 0. -1.
         11   -1    0    0    0    0 -0.00000000000E+00 -0.00000000000E+00 -0.18250000000E+03  0.18250000000E+03  0.00000000000E+00 0. -1.
        -11    1    1    2    0    0  0.39242820848E+00  0.36581245580E+01  0.17677759753E+03  0.17681587843E+03  0.00000000000E+00 0. -1.
         11    1    1    2    0    0 -0.68544659915E+01  0.29226506531E+01 -0.17034758079E+03  0.17051048024E+03  0.00000000000E+00 0. -1.
        -15    1    1    2    0    0  0.50874999331E+01 -0.11363694497E+01  0.32116062453E+01  0.63754321242E+01  0.17770000000E+01 0. -1.
         15    1    1    2    0    0  0.13745378499E+01 -0.54444057614E+01 -0.96416229858E+01  0.11298209203E+02  0.17770000000E+01 0.  1.
</event>
<event>
 6    1  0.1059789E-002  0.1828055E+03  0.7546771E-02  0.1068212E+00
        -11   -1    0    0    0    0  0.00000000000E+00  0.00000000000E+00  0.18250000000E+03  0.18250000000E+03  0.00000000000E+00 0.  1.
         11   -1    0    0    0    0 -0.00000000000E+00 -0.00000000000E+00 -0.18250000000E+03  0.18250000000E+03  0.00000000000E+00 0.  1.
        -11    1    1    2    0    0 -0.71271114456E+00 -0.38407142020E+01  0.18215258935E+03  0.18219446987E+03  0.00000000000E+00 0.  1.
         11    1    1    2    0    0  0.21129519445E+00 -0.16646309526E+01 -0.50456621017E+02  0.50484514916E+02  0.00000000000E+00 0.  1.
        -15    1    1    2    0    0  0.88638179490E+00  0.62819153392E+01 -0.35587297873E+02  0.36192010609E+02  0.17770000000E+01 0.  1.
         15    1    1    2    0    0 -0.38496584479E+00 -0.77657018466E+00 -0.96108670462E+02  0.96129004608E+02  0.17770000000E+01 0.  1.
</event>
<event>
 6    1  0.1059789E-002  0.1862535E+03  0.7546771E-02  0.1065506E+00
        -11   -1    0    0    0    0  0.00000000000E+00  0.00000000000E+00  0.18250000000E+03  0.18250000000E+03  0.00000000000E+00 0.  1.
         11   -1    0    0    0    0 -0.00000000000E+00 -0.00000000000E+00 -0.18250000000E+03  0.18250000000E+03  0.00000000000E+00 0. -1.
        -11    1    1    2    0    0  0.56216703021E+01 -0.26895649857E+01  0.16652209873E+03  0.16663866989E+03  0.00000000000E+00 0.  1.
         11    1    1    2    0    0  0.38281001503E+00 -0.63798713666E+01 -0.17863218448E+03  0.17874648706E+03  0.00000000000E+00 0. -1.
        -15    1    1    2    0    0 -0.28048657559E+01  0.38613222029E+01 -0.86204811183E+00  0.51650689260E+01  0.17770000000E+01 0. -1.
         15    1    1    2    0    0 -0.31996145612E+01  0.52081141494E+01  0.12972133862E+02  0.14449774126E+02  0.17770000000E+01 0.  1.
</event>
<event>
 6    1  0.1493517E-002  0.1938954E+03  0.7546771E-02  0.1059729E+00
        -11   -1    0    0    0    0  0.00000000000E+00  0.00000000000E+00  0.18250000000E+03  0.18250000000E+03  0.00000000000E+00 0.  1.
         11   -1    0    0    0    0 -0.00000000000E+00 -0.00000000000E+00 -0.18250000000E+03  0.18250000000E+03  0.00000000000E+00 0.  1.
        -11    1    1    2    0    0  0.72656251193E+00 -0.51179216030E+01  0.17102653897E+03  0.17110464064E+03  0.00000000000E+00 0.  1.
         11    1    1    2    0    0 -0.15287528683E+01  0.71924257803E+01 -0.14713827321E+03  0.14732189083E+03  0.00000000000E+00 0.  1.
        -15    1    1    2    0    0  0.57717410983E+01 -0.29242692522E+01 -0.34256947120E+02  0.34907885942E+02  0.17770000000E+01 0.  1.
         15    1    1    2    0    0 -0.49695507419E+01  0.84976507494E+00  0.10368681353E+02  0.11665582594E+02  0.17770000000E+01 0. -1.
</event>
<event>
 6    1  0.1059789E-002  0.1858111E+03  0.7546771E-02  0.1065849E+00
        -11   -1    0    0    0    0  0.00000000000E+00  0.00000000000E+00  0.18250000000E+03  0.18250000000E+03  0.00000000000E+00 0. -1.
         11   -1    0    0    0    0 -0.00000000000E+00 -0.00000000000E+00 -0.18250000000E+03  0.18250000000E+03  0.00000000000E+00 0. -1.
        -11    1    1    2    0    0  0.34285967096E+01  0.62089202613E+01  0.17904850110E+03  0.17918892742E+03  0.00000000000E+00 0. -1.
         11    1    1    2    0    0 -0.95053659101E+00 -0.27464046067E+01 -0.17256554369E+03  0.17259001456E+03  0.00000000000E+00 0. -1.
        -15    1    1    2    0    0 -0.86065565270E+00 -0.62764273228E+01 -0.10728069811E+01  0.66665517255E+01  0.17770000000E+01 0. -1.
         15    1    1    2    0    0 -0.16174044658E+01  0.28139116681E+01 -0.54101504288E+01  0.65545062929E+01  0.17770000000E+01 0.  1.
</event>
<event>
 6    1  0.1059789E-002  0.1683985E+03  0.7546771E-02  0.1080269E+00
        -11   -1    0    0    0    0  0.00000000000E+00  0.00000000000E+00  0.18250000000E+03  0.18250000000E+03  0.00000000000E+00 0. -1.
         11   -1    0    0    0    0 -0.00000000000E+00 -0.00000000000E+00 -0.18250000000E+03  0.18250000000E+03  0.00000000000E+00 0.  1.
        -11    1    1    2    0    0 -0.15978444762E+01  0.20564125481E+01  0.16395747856E+03  0.16397815926E+03  0.00000000000E+00 0. -1.
         11    1    1    2    0    0 -0.82203342156E+01 -0.15652920463E+02 -0.17243873273E+03  0.17334273668E+03  0.00000000000E+00 0.  1.
        -15    1    1    2    0    0  0.10177527262E+02  0.65611881555E-01  0.94383206459E+01  0.13993784038E+02  0.17770000000E+01 0.  1.
         15    1    1    2    0    0 -0.35934856987E+00  0.13530896034E+02 -0.95706647758E+00  0.13685320022E+02  0.17770000000E+01 0. -1.
</event>
<event>
 6    1  0.1059789E-002  0.1989918E+03  0.7546771E-02  0.1056036E+00
        -11   -1    0    0    0    0  0.00000000000E+00  0.00000000000E+00  0.18250000000E+03  0.18250000000E+03  0.00000000000E+00 0.  1.
         11   -1    0    0    0    0 -0.00000000000E+00 -0.00000000000E+00 -0.18250000000E+03  0.18250000000E+03  0.00000000000E+00 0. -1.
        -11    1    1    2    0    0  0.29523504131E+02 -0.94067152967E+01  0.10193095408E+03  0.10653658051E+03  0.00000000000E+00 0.  1.
         11    1    1    2    0    0  0.15710785733E+01  0.36181832238E+01 -0.16596128112E+03  0.16600815152E+03  0.00000000000E+00 0. -1.
        -15    1    1    2    0    0 -0.34732382789E+02  0.96579995396E+01  0.73254601945E+02  0.81664005562E+02  0.17770000000E+01 0.  1.
         15    1    1    2    0    0  0.36378000853E+01 -0.38694674668E+01 -0.92242748965E+01  0.10791262405E+02  0.17770000000E+01 0. -1.
</event>
<event>
 6    1  0.1059789E-002  0.1830145E+03  0.7546771E-02  0.1068046E+00
        -11   -1    0    0    0    0  0.00000000000E+00  0.00000000000E+00  0.18250000000E+03  0.18250000000E+03  0.00000000000E+00 0.  1.
         11   -1    0    0    0    0 -0.00000000000E+00 -0.00000000000E+00 -0.18250000000E+03  0.18250000000E+03  0.00000000000E+00 0.  1.
        -11    1    1    2    0    0  0.28640762773E+01  0.24219233441E+00  0.18196280002E+03  0.18198549992E+03  0.00000000000E+00 0.  1.
         11    1    1    2    0    0  0.19964798029E+01 -0.12377464114E+01 -0.60217250567E+02  0.60263050152E+02  0.00000000000E+00 0.  1.
        -15    1    1    2    0    0 -0.15292890097E+01  0.18257985862E+00 -0.24590942547E+01  0.34024893583E+01  0.17770000000E+01 0. -1.
         15    1    1    2    0    0 -0.33312670705E+01  0.81297421836E+00 -0.11928645520E+03  0.11934896057E+03  0.17770000000E+01 0.  1.
</event>
<event>
 6    1  0.1059789E-002  0.1861252E+03  0.7546771E-02  0.1065605E+00
        -11   -1    0    0    0    0  0.00000000000E+00  0.00000000000E+00  0.18250000000E+03  0.18250000000E+03  0.00000000000E+00 0. -1.
         11   -1    0    0    0    0 -0.00000000000E+00 -0.00000000000E+00 -0.18250000000E+03  0.18250000000E+03  0.00000000000E+00 0. -1.
        -11    1    1    2    0    0  0.29145968718E+01  0.26824351189E+00  0.14673354987E+03  0.14676273875E+03  0.00000000000E+00 0. -1.
         11    1    1    2    0    0 -0.44215385323E+01 -0.67103276059E+01 -0.17869420532E+03  0.17887480962E+03  0.00000000000E+00 0. -1.
        -15    1    1    2    0    0  0.44206365607E+01  0.61104726946E+01  0.55292012909E+00  0.77680984689E+01  0.17770000000E+01 0. -1.
         15    1    1    2    0    0 -0.29136949002E+01  0.33161139944E+00  0.31407735327E+02  0.31594353158E+02  0.17770000000E+01 0. -1.
</event>
<event>
 6    1  0.1059789E-002  0.1837353E+03  0.7546771E-02  0.1067476E+00
        -11   -1    0    0    0    0  0.00000000000E+00  0.00000000000E+00  0.18250000000E+03  0.18250000000E+03  0.00000000000E+00 0. -1.
         11   -1    0    0    0    0 -0.00000000000E+00 -0.00000000000E+00 -0.18250000000E+03  0.18250000000E+03  0.00000000000E+00 0. -1.
        -11    1    1    2    0    0 -0.46573082056E+01 -0.42134332892E+01  0.18115585563E+03  0.18126468925E+03  0.00000000000E+00 0. -1.
         11    1    1    2    0    0 -0.58828356644E+01 -0.25338580135E+01 -0.96731650118E+02  0.96943490377E+02  0.00000000000E+00 0. -1.
        -15    1    1    2    0    0  0.43830868580E+01 -0.22430002250E+01 -0.56835134433E+02  0.57075675514E+02  0.17770000000E+01 0. -1.
         15    1    1    2    0    0  0.61570570120E+01  0.89902915278E+01 -0.27589071083E+02  0.29716144855E+02  0.17770000000E+01 0.  1.
</event>
<event>
 6    1  0.1059789E-002  0.1846178E+03  0.7546771E-02  0.1066781E+00
        -11   -1    0    0    0    0  0.00000000000E+00  0.00000000000E+00  0.18250000000E+03  0.18250000000E+03  0.00000000000E+00 0. -1.
         11   -1    0    0    0    0 -0.00000000000E+00 -0.00000000000E+00 -0.18250000000E+03  0.18250000000E+03  0.00000000000E+00 0.  1.
        -11    1    1    2    0    0 -0.26171679709E+01  0.18651015721E+02  0.10235859323E+03  0.10407685412E+03  0.00000000000E+00 0. -1.
         11    1    1    2    0    0 -0.62584624041E+01 -0.14794628973E+02 -0.17966546081E+03  0.18038216987E+03  0.00000000000E+00 0.  1.
        -15    1    1    2    0    0  0.48645741631E+01 -0.10046363204E+02  0.65762168056E+02  0.66726411352E+02  0.17770000000E+01 0. -1.
         15    1    1    2    0    0  0.40110562119E+01  0.61899764567E+01  0.11544699531E+02  0.13814564659E+02  0.17770000000E+01 0.  1.
</event>
<event>
 6    1  0.1059789E-002  0.1856259E+03  0.7546771E-02  0.1065993E+00
        -11   -1    0    0    0    0  0.00000000000E+00  0.00000000000E+00  0.18250000000E+03  0.18250000000E+03  0.00000000000E+00 0.  1.
         11   -1    0    0    0    0 -0.00000000000E+00 -0.00000000000E+00 -0.18250000000E+03  0.18250000000E+03  0.00000000000E+00 0.  1.
        -11    1    1    2    0    0 -0.11033297783E+01 -0.11192507655E+02  0.13155131523E+03  0.13203120125E+03  0.00000000000E+00 0.  1.
         11    1    1    2    0    0 -0.12745417947E+01 -0.31834763614E+01 -0.17934126976E+03  0.17937405057E+03  0.00000000000E+00 0.  1.
        -15    1    1    2    0    0 -0.49882779846E+01  0.12770915839E+01  0.27932814785E+01  0.61216035957E+01  0.17770000000E+01 0. -1.
         15    1    1    2    0    0  0.73661495575E+01  0.13098892433E+02  0.44996673048E+02  0.47473144584E+02  0.17770000000E+01 0.  1.
</event>
<event>
 6    1  0.1059789E-002  0.1836565E+03  0.7546771E-02  0.1067538E+00
        -11   -1    0    0    0    0  0.00000000000E+00  0.00000000000E+00  0.18250000000E+03  0.18250000000E+03  0.00000000000E+00 0.  1.
         11   -1    0    0    0    0 -0.00000000000E+00 -0.00000000000E+00 -0.18250000000E+03  0.18250000000E+03  0.00000000000E+00 0. -1.
        -11    1    1    2    0    0  0.42978045595E+01  0.28111157551E+01  0.15101755764E+03  0.15110485171E+03  0.00000000000E+00 0.  1.
         11    1    1    2    0    0 -0.47315404105E+01 -0.62125566179E+01 -0.18117524468E+03  0.18134346589E+03  0.00000000000E+00 0. -1.
        -15    1    1    2    0    0 -0.29598353005E+01  0.23276381398E+01  0.30692678625E+01  0.51726838805E+01  0.17770000000E+01 0.  1.
         15    1    1    2    0    0  0.33935711516E+01  0.10738027230E+01  0.27088419180E+02  0.27378998523E+02  0.17770000000E+01 0. -1.
</event>
<event>
 6    1  0.1059789E-002  0.1856360E+03  0.7546771E-02  0.1065986E+00
        -11   -1    0    0    0    0  0.00000000000E+00  0.00000000000E+00  0.18250000000E+03  0.18250000000E+03  0.00000000000E+00 0.  1.
         11   -1    0    0    0    0 -0.00000000000E+00 -0.00000000000E+00 -0.18250000000E+03  0.18250000000E+03  0.00000000000E+00 0.  1.
        -11    1    1    2    0    0  0.21733328868E+01  0.44811665459E+01  0.16486381099E+03  0.16493902025E+03  0.00000000000E+00 0.  1.
         11    1    1    2    0    0  0.17258143921E+01 -0.18644350982E+01 -0.17934605124E+03  0.17936404502E+03  0.00000000000E+00 0.  1.
        -15    1    1    2    0    0 -0.25344202603E+00 -0.32426585648E+01  0.15922208285E+02  0.16347890173E+02  0.17770000000E+01 0. -1.
         15    1    1    2    0    0 -0.36457052529E+01  0.62592711705E+00 -0.14399680348E+01  0.43490445489E+01  0.17770000000E+01 0.  1.
</event>
<event>
 6    1  0.1059789E-002  0.1833313E+03  0.7546771E-02  0.1067795E+00
        -11   -1    0    0    0    0  0.00000000000E+00  0.00000000000E+00  0.18250000000E+03  0.18250000000E+03  0.00000000000E+00 0. -1.
         11   -1    0    0    0    0 -0.00000000000E+00 -0.00000000000E+00 -0.18250000000E+03  0.18250000000E+03  0.00000000000E+00 0. -1.
        -11    1    1    2    0    0  0.35663371946E+01 -0.39789850854E+01  0.18159012836E+03  0.18166872544E+03  0.00000000000E+00 0. -1.
         11    1    1    2    0    0 -0.39323864421E+01  0.12131662837E+01 -0.87409709187E+02  0.87506529446E+02  0.00000000000E+00 0. -1.
        -15    1    1    2    0    0  0.53400338990E+01  0.51729016114E+01 -0.19896526923E+02  0.21314417321E+02  0.17770000000E+01 0. -1.
         15    1    1    2    0    0 -0.49739846515E+01 -0.24070828097E+01 -0.74283892253E+02  0.74510327796E+02  0.17770000000E+01 0.  1.
</event>
<event>
 6    1  0.1059789E-002  0.1836644E+03  0.7546771E-02  0.1067532E+00
        -11   -1    0    0    0    0  0.00000000000E+00  0.00000000000E+00  0.18250000000E+03  0.18250000000E+03  0.00000000000E+00 0.  1.
         11   -1    0    0    0    0 -0.00000000000E+00 -0.00000000000E+00 -0.18250000000E+03  0.18250000000E+03  0.00000000000E+00 0. -1.
        -11    1    1    2    0    0  0.21037583619E+01 -0.34349228821E+01  0.18129089834E+03  0.18133563995E+03  0.00000000000E+00 0.  1.
         11    1    1    2    0    0 -0.20604326189E+01 -0.11853104615E+01 -0.17115660313E+03  0.17117310869E+03  0.00000000000E+00 0. -1.
        -15    1    1    2    0    0  0.18203740821E+01  0.26395244214E+01 -0.33358671249E+01  0.49564694536E+01  0.17770000000E+01 0. -1.
         15    1    1    2    0    0 -0.18636998250E+01  0.19807089222E+01 -0.67984280930E+01  0.75347819084E+01  0.17770000000E+01 0.  1.
</event>
<event>
 6    1  0.1059789E-002  0.1881236E+03  0.7546771E-02  0.1064065E+00
        -11   -1    0    0    0    0  0.00000000000E+00  0.00000000000E+00  0.18250000000E+03  0.18250000000E+03  0.00000000000E+00 0. -1.
         11   -1    0    0    0    0 -0.00000000000E+00 -0.00000000000E+00 -0.18250000000E+03  0.18250000000E+03  0.00000000000E+00 0. -1.
        -11    1    1    2    0    0 -0.13661588807E+01 -0.32002650032E+01  0.12603063068E+03  0.12607865782E+03  0.00000000000E+00 0. -1.
         11    1    1    2    0    0  0.21005948368E+02 -0.18010199313E+02 -0.17469876236E+03  0.17687643912E+03  0.00000000000E+00 0. -1.
        -15    1    1    2    0    0 -0.27474679928E+01 -0.16317992622E+01 -0.18206761614E+01  0.40845978857E+01  0.17770000000E+01 0. -1.
         15    1    1    2    0    0 -0.16892321495E+02  0.22842263579E+02  0.50488807835E+02  0.57960305180E+02  0.17770000000E+01 0. -1.
</event>
<event>
 6    1  0.1059789E-002  0.1849795E+03  0.7546771E-02  0.1066498E+00
        -11   -1    0    0    0    0  0.00000000000E+00  0.00000000000E+00  0.18250000000E+03  0.18250000000E+03  0.00000000000E+00 0.  1.
         11   -1    0    0    0    0 -0.00000000000E+00 -0.00000000000E+00 -0.18250000000E+03  0.18250000000E+03  0.00000000000E+00 0.  1.
        -11    1    1    2    0    0  0.38326913260E+01 -0.78913116340E+01  0.10820074250E+03  0.10855580592E+03  0.00000000000E+00 0.  1.
         11    1    1    2    0    0 -0.59596412132E+01  0.79963501174E+01 -0.17974401105E+03  0.18002046674E+03  0.00000000000E+00 0.  1.
        -15    1    1    2    0    0 -0.43094621687E+01  0.43541969748E+01  0.66788023941E+02  0.67091939653E+02  0.17770000000E+01 0. -1.
         15    1    1    2    0    0  0.64364120559E+01 -0.44592354582E+01  0.47552446099E+01  0.93317876811E+01  0.17770000000E+01 0.  1.
</event>
<event>
 6    1  0.1059789E-002  0.1880970E+03  0.7546771E-02  0.1064085E+00
        -11   -1    0    0    0    0  0.00000000000E+00  0.00000000000E+00  0.18250000000E+03  0.18250000000E+03  0.00000000000E+00 0.  1.
         11   -1    0    0    0    0 -0.00000000000E+00 -0.00000000000E+00 -0.18250000000E+03  0.18250000000E+03  0.00000000000E+00 0.  1.
        -11    1    1    2    0    0 -0.17677162998E+01  0.22476022961E+01  0.17687990331E+03  0.17690301504E+03  0.00000000000E+00 0.  1.
         11    1    1    2    0    0 -0.80884450696E+01  0.88712225154E+00 -0.13444276788E+03  0.13468878114E+03  0.00000000000E+00 0.  1.
        -15    1    1    2    0    0  0.10214885207E+02  0.12796221509E+01 -0.46177782422E+02  0.47344763502E+02  0.17770000000E+01 0.  1.
         15    1    1    2    0    0 -0.35872383717E+00 -0.44143466985E+01  0.37406469957E+01  0.60634403199E+01  0.17770000000E+01 0. -1.
</event>
<event>
 6    1  0.1059789E-002  0.1844440E+03  0.7546771E-02  0.1066918E+00
        -11   -1    0    0    0    0  0.00000000000E+00  0.00000000000E+00  0.18250000000E+03  0.18250000000E+03  0.00000000000E+00 0. -1.
         11   -1    0    0    0    0 -0.00000000000E+00 -0.00000000000E+00 -0.18250000000E+03  0.18250000000E+03  0.00000000000E+00 0.  1.
        -11    1    1    2    0    0  0.28358004162E+01  0.21017231763E+01  0.18052149018E+03  0.18055599525E+03  0.00000000000E+00 0. -1.
         11    1    1    2    0    0 -0.24432826663E+01  0.32179116491E+01 -0.22621826798E+02  0.22979809252E+02  0.00000000000E+00 0.  1.
        -15    1    1    2    0    0  0.59364356175E+01  0.26895246283E+01 -0.54955031377E+01  0.87082199274E+01  0.17770000000E+01 0. -1.
         15    1    1    2    0    0 -0.63289533673E+01 -0.80091594538E+01 -0.15240416024E+03  0.15275597557E+03  0.17770000000E+01 0.  1.
</event>
<event>
 6    1  0.1059789E-002  0.1771083E+03  0.7546771E-02  0.1072829E+00
        -11   -1    0    0    0    0  0.00000000000E+00  0.00000000000E+00  0.18250000000E+03  0.18250000000E+03  0.00000000000E+00 0.  1.
         11   -1    0    0    0    0 -0.00000000000E+00 -0.00000000000E+00 -0.18250000000E+03  0.18250000000E+03  0.00000000000E+00 0.  1.
        -11    1    1    2    0    0  0.77710358594E+00 -0.24010676498E+01  0.17887167349E+03  0.17888947592E+03  0.00000000000E+00 0.  1.
         11    1    1    2    0    0  0.52517540350E+00 -0.37105081605E+01 -0.17535952630E+03  0.17539956426E+03  0.00000000000E+00 0.  1.
        -15    1    1    2    0    0 -0.21676828842E+01 -0.67761212875E+00 -0.19154168789E+01  0.34618720519E+01  0.17770000000E+01 0. -1.
         15    1    1    2    0    0  0.86540389476E+00  0.67891879390E+01 -0.15967303198E+01  0.72490877692E+01  0.17770000000E+01 0.  1.
</event>
<event>
 6    1  0.1059789E-002  0.1977689E+03  0.7546771E-02  0.1056911E+00
        -11   -1    0    0    0    0  0.00000000000E+00  0.00000000000E+00  0.18250000000E+03  0.18250000000E+03  0.00000000000E+00 0. -1.
         11   -1    0    0    0    0 -0.00000000000E+00 -0.00000000000E+00 -0.18250000000E+03  0.18250000000E+03  0.00000000000E+00 0. -1.
        -11    1    1    2    0    0  0.60069602414E+01  0.15915522363E+02  0.99638970229E+02  0.10108071929E+03  0.00000000000E+00 0. -1.
         11    1    1    2    0    0 -0.91486569394E+01 -0.32045109160E+01 -0.16694990390E+03  0.16723108929E+03  0.00000000000E+00 0. -1.
        -15    1    1    2    0    0  0.16532099996E+02 -0.35162242941E+01 -0.85939840238E+01  0.19044381165E+02  0.17770000000E+01 0. -1.
         15    1    1    2    0    0 -0.13390403298E+02 -0.91947871533E+01  0.75904917696E+02  0.77643810253E+02  0.17770000000E+01 0.  1.
</event>
<event>
 6    1  0.1059789E-002  0.1846387E+03  0.7546771E-02  0.1066765E+00
        -11   -1    0    0    0    0  0.00000000000E+00  0.00000000000E+00  0.18250000000E+03  0.18250000000E+03  0.00000000000E+00 0. -1.
         11   -1    0    0    0    0 -0.00000000000E+00 -0.00000000000E+00 -0.18250000000E+03  0.18250000000E+03  0.00000000000E+00 0.  1.
        -11    1    1    2    0    0 -0.69824928426E+00 -0.32911962745E+01  0.17631967732E+03  0.17635177384E+03  0.00000000000E+00 0. -1.
         11    1    1    2    0    0  0.66583783450E+01  0.30049103371E+01 -0.18021333996E+03  0.18036133562E+03  0.00000000000E+00 0.  1.
        -15    1    1    2    0    0 -0.32132660094E+01 -0.83140719515E+00  0.13691428070E+01  0.40060700690E+01  0.17770000000E+01 0.  1.
         15    1    1    2    0    0 -0.27468630513E+01  0.11176931326E+01  0.25245198241E+01  0.42808204708E+01  0.17770000000E+01 0. -1.
</event>
<event>
 6    1  0.1059789E-002  0.1546108E+03  0.7546771E-02  0.1093114E+00
        -11   -1    0    0    0    0  0.00000000000E+00  0.00000000000E+00  0.18250000000E+03  0.18250000000E+03  0.00000000000E+00 0. -1.
         11   -1    0    0    0    0 -0.00000000000E+00 -0.00000000000E+00 -0.18250000000E+03  0.18250000000E+03  0.00000000000E+00 0.  1.
        -11    1    1    2    0    0 -0.38192256729E+02 -0.44764153411E+01  0.15427796596E+03  0.15899804259E+03  0.00000000000E+00 0. -1.
         11    1    1    2    0    0  0.82963212249E+00  0.62404222190E+01 -0.15235357675E+03  0.15248358438E+03  0.00000000000E+00 0.  1.
        -15    1    1    2    0    0  0.27312642432E+02  0.10871009195E+02  0.12312014289E+02  0.31920255362E+02  0.17770000000E+01 0.  1.
         15    1    1    2    0    0  0.10049982175E+02 -0.12635016073E+02 -0.14236403499E+02  0.21598117660E+02  0.17770000000E+01 0. -1.
</event>
<event>
 6    1  0.1059789E-002  0.1762284E+03  0.7546771E-02  0.1073560E+00
        -11   -1    0    0    0    0  0.00000000000E+00  0.00000000000E+00  0.18250000000E+03  0.18250000000E+03  0.00000000000E+00 0. -1.
         11   -1    0    0    0    0 -0.00000000000E+00 -0.00000000000E+00 -0.18250000000E+03  0.18250000000E+03  0.00000000000E+00 0. -1.
        -11    1    1    2    0    0 -0.32076027732E+01 -0.16957316350E+01  0.17807287069E+03  0.17810982987E+03  0.00000000000E+00 0. -1.
         11    1    1    2    0    0 -0.28625855031E+01 -0.85143004149E+00 -0.17440207000E+03  0.17442763930E+03  0.00000000000E+00 0. -1.
        -15    1    1    2    0    0  0.82011922535E+00 -0.33046896858E+01 -0.96142380991E+00  0.39592466714E+01  0.17770000000E+01 0.  1.
         15    1    1    2    0    0  0.52500690510E+01  0.58518513622E+01 -0.27093768779E+01  0.85032841580E+01  0.17770000000E+01 0. -1.
</event>
<event>
 6    1  0.1059789E-002  0.1974831E+03  0.7546771E-02  0.1057117E+00
        -11   -1    0    0    0    0  0.00000000000E+00  0.00000000000E+00  0.18250000000E+03  0.18250000000E+03  0.00000000000E+00 0. -1.
         11   -1    0    0    0    0 -0.00000000000E+00 -0.00000000000E+00 -0.18250000000E+03  0.18250000000E+03  0.00000000000E+00 0.  1.
        -11    1    1    2    0    0 -0.62642095163E+01  0.17143420688E+01  0.16480390934E+03  0.16493182781E+03  0.00000000000E+00 0. -1.
         11    1    1    2    0    0  0.47865099238E+01 -0.53612693597E+01 -0.16736260744E+03  0.16751685364E+03  0.00000000000E+00 0.  1.
        -15    1    1    2    0    0 -0.62336389294E+01  0.23033192614E+01 -0.13189447493E+02  0.14875576900E+02  0.17770000000E+01 0.  1.
         15    1    1    2    0    0  0.77113385218E+01  0.13436080295E+01  0.15748145588E+02  0.17675741647E+02  0.17770000000E+01 0.  1.
</event>
<event>
 6    1  0.1059789E-002  0.1876708E+03  0.7546771E-02  0.1064412E+00
        -11   -1    0    0    0    0  0.00000000000E+00  0.00000000000E+00  0.18250000000E+03  0.18250000000E+03  0.00000000000E+00 0.  1.
         11   -1    0    0    0    0 -0.00000000000E+00 -0.00000000000E+00 -0.18250000000E+03  0.18250000000E+03  0.00000000000E+00 0. -1.
        -11    1    1    2    0    0  0.37731543350E+01  0.24459622685E+01  0.17122082741E+03  0.17127986211E+03  0.00000000000E+00 0.  1.
         11    1    1    2    0    0 -0.19649657721E+01  0.40557649137E+01 -0.17727188229E+03  0.17732915883E+03  0.00000000000E+00 0. -1.
        -15    1    1    2    0    0  0.20787270107E+01 -0.48755056480E+01 -0.29309991043E+01  0.63119051053E+01  0.17770000000E+01 0. -1.
         15    1    1    2    0    0 -0.38869155736E+01 -0.16262215342E+01  0.89820539831E+01  0.10079073961E+02  0.17770000000E+01 0.  1.
</event>
<event>
 6    1  0.1059789E-002  0.1852116E+03  0.7546771E-02  0.1066317E+00
        -11   -1    0    0    0    0  0.00000000000E+00  0.00000000000E+00  0.18250000000E+03  0.18250000000E+03  0.00000000000E+00 0. -1.
         11   -1    0    0    0    0 -0.00000000000E+00 -0.00000000000E+00 -0.18250000000E+03  0.18250000000E+03  0.00000000000E+00 0.  1.
        -11    1    1    2    0    0  0.12185765197E+01  0.34139014357E+01  0.15333944252E+03  0.15338228152E+03  0.00000000000E+00 0. -1.
         11    1    1    2    0    0 -0.14189995182E+01  0.21337739631E+01 -0.17977008866E+03  0.17978835148E+03  0.00000000000E+00 0.  1.
        -15    1    1    2    0    0 -0.61503677207E+01 -0.46823628352E+01  0.49661872281E+01  0.93580067004E+01  0.17770000000E+01 0. -1.
         15    1    1    2    0    0  0.63507907191E+01 -0.86531256358E+00  0.21464458907E+02  0.22471360300E+02  0.17770000000E+01 0.  1.
</event>
<event>
 6    1  0.1059789E-002  0.1826594E+03  0.7546771E-02  0.1068328E+00
        -11   -1    0    0    0    0  0.00000000000E+00  0.00000000000E+00  0.18250000000E+03  0.18250000000E+03  0.00000000000E+00 0.  1.
         11   -1    0    0    0    0 -0.00000000000E+00 -0.00000000000E+00 -0.18250000000E+03  0.18250000000E+03  0.00000000000E+00 0.  1.
        -11    1    1    2    0    0  0.19601155231E+01  0.30960734763E+01  0.18230377499E+03  0.18234059915E+03  0.00000000000E+00 0.  1.
         11    1    1    2    0    0 -0.27004462718E+01  0.78544477716E-01 -0.68680352051E+02  0.68733465919E+02  0.00000000000E+00 0.  1.
        -15    1    1    2    0    0 -0.70572940018E+00 -0.66086664188E-02 -0.86605914473E+02  0.86627018005E+02  0.17770000000E+01 0.  1.
         15    1    1    2    0    0  0.14460601489E+01 -0.31680092875E+01 -0.27017508463E+02  0.27298916926E+02  0.17770000000E+01 0. -1.
</event>
<event>
 6    1  0.1059789E-002  0.1859831E+03  0.7546771E-02  0.1065716E+00
        -11   -1    0    0    0    0  0.00000000000E+00  0.00000000000E+00  0.18250000000E+03  0.18250000000E+03  0.00000000000E+00 0.  1.
         11   -1    0    0    0    0 -0.00000000000E+00 -0.00000000000E+00 -0.18250000000E+03  0.18250000000E+03  0.00000000000E+00 0. -1.
        -11    1    1    2    0    0  0.31746768900E+01 -0.17835048334E+00  0.17898864148E+03  0.17901688233E+03  0.00000000000E+00 0.  1.
         11    1    1    2    0    0  0.42340692134E+01  0.33096340824E+01 -0.16333108453E+03  0.16341947311E+03  0.00000000000E+00 0. -1.
        -15    1    1    2    0    0 -0.39593671489E+01  0.11753435148E+01  0.12691210855E+01  0.46718752045E+01  0.17770000000E+01 0.  1.
         15    1    1    2    0    0 -0.34493789546E+01 -0.43066271138E+01 -0.16926678034E+02  0.17891769352E+02  0.17770000000E+01 0.  1.
</event>
<event>
 6    1  0.1059789E-002  0.1844830E+03  0.7546771E-02  0.1066887E+00
        -11   -1    0    0    0    0  0.00000000000E+00  0.00000000000E+00  0.18250000000E+03  0.18250000000E+03  0.00000000000E+00 0. -1.
         11   -1    0    0    0    0 -0.00000000000E+00 -0.00000000000E+00 -0.18250000000E+03  0.18250000000E+03  0.00000000000E+00 0.  1.
        -11    1    1    2    0    0 -0.10450202445E+02  0.14622528890E+01  0.18020828995E+03  0.18051695954E+03  0.00000000000E+00 0. -1.
         11    1    1    2    0    0 -0.12139863503E+01  0.13279862667E+01 -0.12809934994E+02  0.12935677212E+02  0.00000000000E+00 0.  1.
        -15    1    1    2    0    0  0.62626023037E+01  0.48696884112E+01 -0.15781810271E+03  0.15802735625E+03  0.17770000000E+01 0.  1.
         15    1    1    2    0    0  0.54015864916E+01 -0.76599275670E+01 -0.95802522488E+01  0.13520006994E+02  0.17770000000E+01 0. -1.
</event>
<event>
 6    1  0.1059789E-002  0.1926563E+03  0.7546771E-02  0.1060646E+00
        -11   -1    0    0    0    0  0.00000000000E+00  0.00000000000E+00  0.18250000000E+03  0.18250000000E+03  0.00000000000E+00 0. -1.
         11   -1    0    0    0    0 -0.00000000000E+00 -0.00000000000E+00 -0.18250000000E+03  0.18250000000E+03  0.00000000000E+00 0. -1.
        -11    1    1    2    0    0  0.29326025700E+00  0.52553902643E+01  0.29339799923E+02  0.29808203367E+02  0.00000000000E+00 0. -1.
         11    1    1    2    0    0 -0.83340639270E+01  0.22397447776E+01 -0.17212749066E+03  0.17234368604E+03  0.00000000000E+00 0. -1.
        -15    1    1    2    0    0  0.12292009691E+01 -0.13790129703E+01  0.15063712123E+03  0.15065892815E+03  0.17770000000E+01 0. -1.
         15    1    1    2    0    0  0.68116027009E+01 -0.61161220716E+01 -0.78494304928E+01  0.12189182442E+02  0.17770000000E+01 0.  1.
</event>
<event>
 6    1  0.1059789E-002  0.1835719E+03  0.7546771E-02  0.1067605E+00
        -11   -1    0    0    0    0  0.00000000000E+00  0.00000000000E+00  0.18250000000E+03  0.18250000000E+03  0.00000000000E+00 0.  1.
         11   -1    0    0    0    0 -0.00000000000E+00 -0.00000000000E+00 -0.18250000000E+03  0.18250000000E+03  0.00000000000E+00 0. -1.
        -11    1    1    2    0    0 -0.11970467087E+01  0.34354463646E+01  0.18139163215E+03  0.18142811091E+03  0.00000000000E+00 0.  1.
         11    1    1    2    0    0 -0.29694599559E+01 -0.46484963473E+01 -0.15216101155E+03  0.15226095903E+03  0.00000000000E+00 0. -1.
        -15    1    1    2    0    0  0.63994020489E+01  0.34879987310E+01 -0.17945763537E+02  0.19450620547E+02  0.17770000000E+01 0.  1.
         15    1    1    2    0    0 -0.22328953842E+01 -0.22749487483E+01 -0.11284857069E+02  0.11860309510E+02  0.17770000000E+01 0. -1.
</event>
<event>
 6    1  0.1059789E-002  0.1949239E+03  0.7546771E-02  0.1058974E+00
        -11   -1    0    0    0    0  0.00000000000E+00  0.00000000000E+00  0.18250000000E+03  0.18250000000E+03  0.00000000000E+00 0.  1.
         11   -1    0    0    0    0 -0.00000000000E+00 -0.00000000000E+00 -0.18250000000E+03  0.18250000000E+03  0.00000000000E+00 0. -1.
        -11    1    1    2    0    0  0.24057677337E+02  0.23190706647E+01  0.16835001663E+03  0.17007609481E+03  0.00000000000E+00 0.  1.
         11    1    1    2    0    0  0.87710896748E+01  0.10367551214E+02 -0.13770151679E+03  0.13836952648E+03  0.00000000000E+00 0. -1.
        -15    1    1    2    0    0 -0.14722981660E+01 -0.13391411470E+02 -0.14503331992E+01  0.13665970819E+02  0.17770000000E+01 0.  1.
         15    1    1    2    0    0 -0.31356468846E+02  0.70478959094E+00 -0.29198166643E+02  0.42888407888E+02  0.17770000000E+01 0. -1.
</event>
<event>
 6    1  0.1059789E-002  0.1841472E+03  0.7546771E-02  0.1067151E+00
        -11   -1    0    0    0    0  0.00000000000E+00  0.00000000000E+00  0.18250000000E+03  0.18250000000E+03  0.00000000000E+00 0.  1.
         11   -1    0    0    0    0 -0.00000000000E+00 -0.00000000000E+00 -0.18250000000E+03  0.18250000000E+03  0.00000000000E+00 0.  1.
        -11    1    1    2    0    0 -0.41758815662E+01 -0.37779101335E+01  0.18076515757E+03  0.18085284842E+03  0.00000000000E+00 0.  1.
         11    1    1    2    0    0  0.18851298550E+01  0.21575632760E+00 -0.13721419494E+03  0.13722731346E+03  0.00000000000E+00 0.  1.
        -15    1    1    2    0    0 -0.45190031972E+01  0.18542959444E+01 -0.36305223332E+02  0.36675424654E+02  0.17770000000E+01 0.  1.
         15    1    1    2    0    0  0.68097549084E+01  0.17078578614E+01 -0.72457392935E+01  0.10244413468E+02  0.17770000000E+01 0. -1.
</event>
<event>
 6    1  0.1059789E-002  0.1861737E+03  0.7546771E-02  0.1065568E+00
        -11   -1    0    0    0    0  0.00000000000E+00  0.00000000000E+00  0.18250000000E+03  0.18250000000E+03  0.00000000000E+00 0.  1.
         11   -1    0    0    0    0 -0.00000000000E+00 -0.00000000000E+00 -0.18250000000E+03  0.18250000000E+03  0.00000000000E+00 0.  1.
        -11    1    1    2    0    0  0.27937155565E+01 -0.58635671315E+01  0.17415075898E+03  0.17427183685E+03  0.00000000000E+00 0.  1.
         11    1    1    2    0    0  0.19725657588E+01  0.25589175790E+01 -0.17879709920E+03  0.17882628933E+03  0.00000000000E+00 0.  1.
        -15    1    1    2    0    0  0.75502989258E+00 -0.21231902592E+01  0.40962202029E+00  0.28988836153E+01  0.17770000000E+01 0.  1.
         15    1    1    2    0    0 -0.55213112079E+01  0.54278398118E+01  0.42367181996E+01  0.90029902021E+01  0.17770000000E+01 0. -1.
</event>
<event>
 6    1  0.1059789E-002  0.1867855E+03  0.7546771E-02  0.1065094E+00
        -11   -1    0    0    0    0  0.00000000000E+00  0.00000000000E+00  0.18250000000E+03  0.18250000000E+03  0.00000000000E+00 0. -1.
         11   -1    0    0    0    0 -0.00000000000E+00 -0.00000000000E+00 -0.18250000000E+03  0.18250000000E+03  0.00000000000E+00 0. -1.
        -11    1    1    2    0    0  0.34745492746E+01 -0.74316565165E+01  0.17802556995E+03  0.17821449315E+03  0.00000000000E+00 0. -1.
         11    1    1    2    0    0  0.22985723919E+01 -0.80467539134E+00 -0.17176847261E+03  0.17178573608E+03  0.00000000000E+00 0. -1.
        -15    1    1    2    0    0 -0.79222310677E+00 -0.15592734381E+01 -0.13339722188E+01  0.28277485720E+01  0.17770000000E+01 0.  1.
         15    1    1    2    0    0 -0.49808985597E+01  0.97956053459E+01 -0.49231251188E+01  0.12172022202E+02  0.17770000000E+01 0.  1.
</event>
<event>
 6    1  0.1059789E-002  0.2024629E+03  0.7546771E-02  0.1053589E+00
        -11   -1    0    0    0    0  0.00000000000E+00  0.00000000000E+00  0.18250000000E+03  0.18250000000E+03  0.00000000000E+00 0.  1.
         11   -1    0    0    0    0 -0.00000000000E+00 -0.00000000000E+00 -0.18250000000E+03  0.18250000000E+03  0.00000000000E+00 0. -1.
        -11    1    1    2    0    0  0.36494348138E+01 -0.34979674693E+01  0.16245842101E+03  0.16253705027E+03  0.00000000000E+00 0.  1.
         11    1    1    2    0    0  0.55319311353E+01  0.72329621920E+01 -0.13869116460E+03  0.13898977352E+03  0.00000000000E+00 0. -1.
        -15    1    1    2    0    0 -0.35389082356E+01 -0.75121424178E+01 -0.42567095806E+02  0.43405892798E+02  0.17770000000E+01 0.  1.
         15    1    1    2    0    0 -0.56424577135E+01  0.37771476951E+01  0.18799839390E+02  0.20067283420E+02  0.17770000000E+01 0.  1.
</event>
<event>
 6    1  0.1059789E-002  0.1827700E+03  0.7546771E-02  0.1068240E+00
        -11   -1    0    0    0    0  0.00000000000E+00  0.00000000000E+00  0.18250000000E+03  0.18250000000E+03  0.00000000000E+00 0. -1.
         11   -1    0    0    0    0 -0.00000000000E+00 -0.00000000000E+00 -0.18250000000E+03  0.18250000000E+03  0.00000000000E+00 0.  1.
        -11    1    1    2    0    0  0.19489072193E+01  0.51369163001E+01  0.18214717793E+03  0.18223002106E+03  0.00000000000E+00 0. -1.
         11    1    1    2    0    0 -0.15209050324E+01 -0.42307646999E+00 -0.11674227647E+03  0.11675294969E+03  0.00000000000E+00 0.  1.
        -15    1    1    2    0    0  0.28536029567E+01 -0.18920652998E+01 -0.39944231158E+02  0.40130067191E+02  0.17770000000E+01 0. -1.
         15    1    1    2    0    0 -0.32816051436E+01 -0.28217745303E+01 -0.25460670301E+02  0.25886962066E+02  0.17770000000E+01 0.  1.
</event>
<event>
 6    1  0.1059789E-002  0.2039185E+03  0.7546771E-02  0.1052579E+00
        -11   -1    0    0    0    0  0.00000000000E+00  0.00000000000E+00  0.18250000000E+03  0.18250000000E+03  0.00000000000E+00 0. -1.
         11   -1    0    0    0    0 -0.00000000000E+00 -0.00000000000E+00 -0.18250000000E+03  0.18250000000E+03  0.00000000000E+00 0. -1.
        -11    1    1    2    0    0 -0.57379386999E+01 -0.92544839141E+01  0.10856176356E+03  0.10910648890E+03  0.00000000000E+00 0. -1.
         11    1    1    2    0    0  0.66519256184E+01  0.10902243998E+01 -0.16094042269E+03  0.16108152085E+03  0.00000000000E+00 0. -1.
        -15    1    1    2    0    0  0.78410745745E+01  0.55016016851E+01  0.72228334254E+02  0.72882371460E+02  0.17770000000E+01 0. -1.
         15    1    1    2    0    0 -0.87550614930E+01  0.26626578292E+01 -0.19849675130E+02  0.21929618789E+02  0.17770000000E+01 0. -1.
</event>
<event>
 6    1  0.1059789E-002  0.1831920E+03  0.7546771E-02  0.1067905E+00
        -11   -1    0    0    0    0  0.00000000000E+00  0.00000000000E+00  0.18250000000E+03  0.18250000000E+03  0.00000000000E+00 0.  1.
         11   -1    0    0    0    0 -0.00000000000E+00 -0.00000000000E+00 -0.18250000000E+03  0.18250000000E+03  0.00000000000E+00 0.  1.
        -11    1    1    2    0    0 -0.14955789055E+00 -0.28479816633E+01  0.14413178636E+03  0.14415999864E+03  0.00000000000E+00 0.  1.
         11    1    1    2    0    0 -0.11950995752E+01 -0.24943533025E+01 -0.18178694508E+03  0.18180798515E+03  0.00000000000E+00 0.  1.
        -15    1    1    2    0    0 -0.19478993288E+01  0.58731766221E+01  0.25684458088E+02  0.26479003601E+02  0.17770000000E+01 0. -1.
         15    1    1    2    0    0  0.32925567945E+01 -0.53084165624E+00  0.11970700631E+02  0.12553012614E+02  0.17770000000E+01 0.  1.
</event>
<event>
 6    1  0.1059789E-002  0.2095887E+03  0.7546771E-02  0.1048729E+00
        -11   -1    0    0    0    0  0.00000000000E+00  0.00000000000E+00  0.18250000000E+03  0.18250000000E+03  0.00000000000E+00 0. -1.
         11   -1    0    0    0    0 -0.00000000000E+00 -0.00000000000E+00 -0.18250000000E+03  0.18250000000E+03  0.00000000000E+00 0.  1.
        -11    1    1    2    0    0 -0.23056875672E+01  0.19202939101E+01  0.11763550339E+03  0.11767376676E+03  0.00000000000E+00 0. -1.
         11    1    1    2    0    0  0.28936568982E+02 -0.26187636598E+02 -0.15043127163E+03  0.15541134070E+03  0.00000000000E+00 0.  1.
        -15    1    1    2    0    0 -0.53131353407E+02  0.14030334527E+02  0.11016766978E+02  0.56074217653E+02  0.17770000000E+01 0. -1.
         15    1    1    2    0    0  0.26500471992E+02  0.10237008161E+02  0.21779001255E+02  0.35840674890E+02  0.17770000000E+01 0.  1.
</event>
<event>
 6    1  0.1059789E-002  0.1836330E+03  0.7546771E-02  0.1067556E+00
        -11   -1    0    0    0    0  0.00000000000E+00  0.00000000000E+00  0.18250000000E+03  0.18250000000E+03  0.00000000000E+00 0. -1.
         11   -1    0    0    0    0 -0.00000000000E+00 -0.00000000000E+00 -0.18250000000E+03  0.18250000000E+03  0.00000000000E+00 0. -1.
        -11    1    1    2    0    0  0.13877537049E+01 -0.71609164587E+00  0.11342784876E+03  0.11343859802E+03  0.00000000000E+00 0. -1.
         11    1    1    2    0    0  0.10792364771E+01  0.34122216189E+01 -0.18133164559E+03  0.18136695868E+03  0.00000000000E+00 0. -1.
        -15    1    1    2    0    0 -0.32604959317E+01 -0.89034483020E+01  0.24935035805E+02  0.26736042433E+02  0.17770000000E+01 0. -1.
         15    1    1    2    0    0  0.79350574967E+00  0.62073183290E+01  0.42968761031E+02  0.43458400865E+02  0.17770000000E+01 0.  1.
</event>
<event>
 6    1  0.1059789E-002  0.1853947E+03  0.7546771E-02  0.1066174E+00
        -11   -1    0    0    0    0  0.00000000000E+00  0.00000000000E+00  0.18250000000E+03  0.18250000000E+03  0.00000000000E+00 0.  1.
         11   -1    0    0    0    0 -0.00000000000E+00 -0.00000000000E+00 -0.18250000000E+03  0.18250000000E+03  0.00000000000E+00 0.  1.
        -11    1    1    2    0    0  0.16811895705E+01  0.18387122184E+01 -0.55449693948E+00  0.25523964915E+01  0.00000000000E+00 0.  1.
         11    1    1    2    0    0 -0.18075602931E+01 -0.29174699460E+01 -0.17675897659E+03  0.17679229256E+03  0.00000000000E+00 0.  1.
        -15    1    1    2    0    0  0.11881039844E+02 -0.17620881542E+02  0.30722151920E+02  0.37398702139E+02  0.17770000000E+01 0. -1.
         15    1    1    2    0    0 -0.11754669122E+02  0.18699639270E+02  0.14659132161E+03  0.14825660881E+03  0.17770000000E+01 0.  1.
</event>
<event>
 6    1  0.1059789E-002  0.1879870E+03  0.7546771E-02  0.1064169E+00
        -11   -1    0    0    0    0  0.00000000000E+00  0.00000000000E+00  0.18250000000E+03  0.18250000000E+03  0.00000000000E+00 0. -1.
         11   -1    0    0    0    0 -0.00000000000E+00 -0.00000000000E+00 -0.18250000000E+03  0.18250000000E+03  0.00000000000E+00 0. -1.
        -11    1    1    2    0    0  0.24345230052E+01  0.16234255960E+01  0.17698885717E+03  0.17701304465E+03  0.00000000000E+00 0. -1.
         11    1    1    2    0    0  0.19663157775E+01 -0.33624786415E+01 -0.15888638691E+03  0.15893412663E+03  0.00000000000E+00 0. -1.
        -15    1    1    2    0    0 -0.17389861360E+01 -0.80569587211E+01 -0.16626162295E+02  0.18642040078E+02  0.17770000000E+01 0. -1.
         15    1    1    2    0    0 -0.26618526467E+01  0.97960117665E+01 -0.14763079665E+01  0.10410788647E+02  0.17770000000E+01 0.  1.
</event>
<event>
 6    1  0.1356709E-002  0.1888650E+03  0.7546771E-02  0.1063498E+00
        -11   -1    0    0    0    0  0.00000000000E+00  0.00000000000E+00  0.18250000000E+03  0.18250000000E+03  0.00000000000E+00 0. -1.
         11   -1    0    0    0    0 -0.00000000000E+00 -0.00000000000E+00 -0.18250000000E+03  0.18250000000E+03  0.00000000000E+00 0.  1.
        -11    1    1    2    0    0  0.24067859936E+00  0.24331461904E+01  0.17611804151E+03  0.17613501263E+03  0.00000000000E+00 0. -1.
         11    1    1    2    0    0  0.98480579902E+01 -0.96123745840E+00 -0.16326770244E+03  0.16356726715E+03  0.00000000000E+00 0.  1.
        -15    1    1    2    0    0 -0.44728000375E+00 -0.88986791911E+00  0.47356517976E+01  0.51551965301E+01  0.17770000000E+01 0.  1.
         15    1    1    2    0    0 -0.96414565858E+01 -0.58204081291E+00 -0.17585990874E+02  0.20142523690E+02  0.17770000000E+01 0.  1.
</event>
<event>
 6    1  0.1059789E-002  0.1840012E+03  0.7546771E-02  0.1067266E+00
        -11   -1    0    0    0    0  0.00000000000E+00  0.00000000000E+00  0.18250000000E+03  0.18250000000E+03  0.00000000000E+00 0. -1.
         11   -1    0    0    0    0 -0.00000000000E+00 -0.00000000000E+00 -0.18250000000E+03  0.18250000000E+03  0.00000000000E+00 0.  1.
        -11    1    1    2    0    0  0.14810363845E+01  0.30203910782E+01  0.16576764911E+03  0.16580177840E+03  0.00000000000E+00 0. -1.
         11    1    1    2    0    0 -0.24129447076E+01  0.34383816346E+01 -0.18095008850E+03  0.18099883784E+03  0.00000000000E+00 0.  1.
        -15    1    1    2    0    0 -0.13646918589E+01 -0.67379569124E+01  0.10260910387E+02  0.12478239387E+02  0.17770000000E+01 0. -1.
         15    1    1    2    0    0  0.22966001820E+01  0.27918419965E+00  0.49215290026E+01  0.57211443730E+01  0.17770000000E+01 0.  1.
</event>
<event>
 6    1  0.1059789E-002  0.1830741E+03  0.7546771E-02  0.1067999E+00
        -11   -1    0    0    0    0  0.00000000000E+00  0.00000000000E+00  0.18250000000E+03  0.18250000000E+03  0.00000000000E+00 0.  1.
         11   -1    0    0    0    0 -0.00000000000E+00 -0.00000000000E+00 -0.18250000000E+03  0.18250000000E+03  0.00000000000E+00 0. -1.
        -11    1    1    2    0    0 -0.45578511548E+01 -0.44430397377E+00  0.18186827356E+03  0.18192591992E+03  0.00000000000E+00 0.  1.
         11    1    1    2    0    0 -0.43803979466E+01  0.52686537665E+00 -0.12974960506E+03  0.12982459507E+03  0.00000000000E+00 0. -1.
        -15    1    1    2    0    0  0.64883389948E+01 -0.21385006740E+00 -0.22743693202E+02  0.23718718014E+02  0.17770000000E+01 0. -1.
         15    1    1    2    0    0  0.24499101066E+01  0.13128866452E+00 -0.29374975299E+02  0.29530766991E+02  0.17770000000E+01 0.  1.
</event>
<event>
 6    1  0.1059789E-002  0.1835635E+03  0.7546771E-02  0.1067611E+00
        -11   -1    0    0    0    0  0.00000000000E+00  0.00000000000E+00  0.18250000000E+03  0.18250000000E+03  0.00000000000E+00 0. -1.
         11   -1    0    0    0    0 -0.00000000000E+00 -0.00000000000E+00 -0.18250000000E+03  0.18250000000E+03  0.00000000000E+00 0. -1.
        -11    1    1    2    0    0 -0.34385527112E+01  0.44498718044E+01  0.15068422371E+03  0.15078912520E+03  0.00000000000E+00 0. -1.
         11    1    1    2    0    0 -0.28549380844E+01 -0.30400012563E+01 -0.18138853976E+03  0.18143647548E+03  0.00000000000E+00 0. -1.
        -15    1    1    2    0    0  0.79143290961E+01  0.32604644853E+00  0.18289548154E+02  0.20010202697E+02  0.17770000000E+01 0. -1.
         15    1    1    2    0    0 -0.16208383004E+01 -0.17359169966E+01  0.12414767897E+02  0.12764196628E+02  0.17770000000E+01 0. -1.
</event>
<event>
 6    1  0.1059789E-002  0.1834526E+03  0.7546771E-02  0.1067699E+00
        -11   -1    0    0    0    0  0.00000000000E+00  0.00000000000E+00  0.18250000000E+03  0.18250000000E+03  0.00000000000E+00 0.  1.
         11   -1    0    0    0    0 -0.00000000000E+00 -0.00000000000E+00 -0.18250000000E+03  0.18250000000E+03  0.00000000000E+00 0. -1.
        -11    1    1    2    0    0 -0.10341496484E+01  0.15036902825E+01  0.35839907833E+02  0.35886342018E+02  0.00000000000E+00 0.  1.
         11    1    1    2    0    0  0.35760060389E+01  0.13919143961E+01 -0.18150687443E+03  0.18154743378E+03  0.00000000000E+00 0. -1.
        -15    1    1    2    0    0  0.37285901045E+00 -0.60491534623E+01  0.14040024605E+03  0.14054222889E+03  0.17770000000E+01 0.  1.
         15    1    1    2    0    0 -0.29147154009E+01  0.31535487837E+01  0.52667205566E+01  0.70239953176E+01  0.17770000000E+01 0. -1.
</event>
<event>
 6    1  0.1059789E-002  0.1873314E+03  0.7546771E-02  0.1064673E+00
        -11   -1    0    0    0    0  0.00000000000E+00  0.00000000000E+00  0.18250000000E+03  0.18250000000E+03  0.00000000000E+00 0. -1.
         11   -1    0    0    0    0 -0.00000000000E+00 -0.00000000000E+00 -0.18250000000E+03  0.18250000000E+03  0.00000000000E+00 0.  1.
        -11    1    1    2    0    0  0.11868039828E+01 -0.24574785930E+01  0.17266181125E+03  0.17268337722E+03  0.00000000000E+00 0. -1.
         11    1    1    2    0    0 -0.38296371387E+01  0.73017488973E+01 -0.17747718082E+03  0.17766859984E+03  0.00000000000E+00 0.  1.
        -15    1    1    2    0    0  0.17933649585E+01 -0.82634596161E+01  0.29202865208E+00  0.86454573294E+01  0.17770000000E+01 0.  1.
         15    1    1    2    0    0  0.84946819747E+00  0.34191893118E+01  0.45233409228E+01  0.60025656075E+01  0.17770000000E+01 0. -1.
</event>
<event>
 6    1  0.1059789E-002  0.1841185E+03  0.7546771E-02  0.1067174E+00
        -11   -1    0    0    0    0  0.00000000000E+00  0.00000000000E+00  0.18250000000E+03  0.18250000000E+03  0.00000000000E+00 0. -1.
         11   -1    0    0    0    0 -0.00000000000E+00 -0.00000000000E+00 -0.18250000000E+03  0.18250000000E+03  0.00000000000E+00 0.  1.
        -11    1    1    2    0    0 -0.25101963997E+01 -0.36335663666E+01  0.18082755733E+03  0.18088147882E+03  0.00000000000E+00 0. -1.
         11    1    1    2    0    0  0.21330274654E+01  0.52917309755E+01 -0.16976795056E+03  0.16986379621E+03  0.00000000000E+00 0.  1.
        -15    1    1    2    0    0  0.23855966478E+01  0.20219742749E+01 -0.79925018024E+01  0.87645459321E+01  0.17770000000E+01 0. -1.
         15    1    1    2    0    0 -0.20084277135E+01 -0.36801388838E+01 -0.30671049606E+01  0.54901790430E+01  0.17770000000E+01 0.  1.
</event>
<event>
 6    1  0.1059789E-002  0.1827650E+03  0.7546771E-02  0.1068244E+00
        -11   -1    0    0    0    0  0.00000000000E+00  0.00000000000E+00  0.18250000000E+03  0.18250000000E+03  0.00000000000E+00 0. -1.
         11   -1    0    0    0    0 -0.00000000000E+00 -0.00000000000E+00 -0.18250000000E+03  0.18250000000E+03  0.00000000000E+00 0. -1.
        -11    1    1    2    0    0 -0.63388855054E+01 -0.65974681467E+00  0.18212348308E+03  0.18223495775E+03  0.00000000000E+00 0. -1.
         11    1    1    2    0    0 -0.40470048549E+00  0.18263248080E+01 -0.92213872088E+01  0.94092096821E+01  0.00000000000E+00 0. -1.
        -15    1    1    2    0    0 -0.20761803589E+01 -0.10557498761E+01 -0.23309508439E+02  0.23492893507E+02  0.17770000000E+01 0.  1.
         15    1    1    2    0    0  0.88197663498E+01 -0.11082811720E+00 -0.14959258743E+03  0.14986293907E+03  0.17770000000E+01 0. -1.
</event>
<event>
 6    1  0.1059789E-002  0.1840440E+03  0.7546771E-02  0.1067232E+00
        -11   -1    0    0    0    0  0.00000000000E+00  0.00000000000E+00  0.18250000000E+03  0.18250000000E+03  0.00000000000E+00 0. -1.
         11   -1    0    0    0    0 -0.00000000000E+00 -0.00000000000E+00 -0.18250000000E+03  0.18250000000E+03  0.00000000000E+00 0.  1.
        -11    1    1    2    0    0 -0.42710105718E+01  0.33074256657E+00  0.18090527771E+03  0.18095599030E+03  0.00000000000E+00 0. -1.
         11    1    1    2    0    0  0.76869789027E+01  0.27165786449E+01 -0.88907294384E+02  0.89280325038E+02  0.00000000000E+00 0.  1.
        -15    1    1    2    0    0 -0.80980503573E+01  0.73516154751E+01 -0.40531714664E+02  0.42019070578E+02  0.17770000000E+01 0.  1.
         15    1    1    2    0    0  0.46820820265E+01 -0.10398936687E+02 -0.51466268660E+02  0.52744614086E+02  0.17770000000E+01 0. -1.
</event>
<event>
 6    1  0.1059789E-002  0.1856641E+03  0.7546771E-02  0.1065964E+00
        -11   -1    0    0    0    0  0.00000000000E+00  0.00000000000E+00  0.18250000000E+03  0.18250000000E+03  0.00000000000E+00 0. -1.
         11   -1    0    0    0    0 -0.00000000000E+00 -0.00000000000E+00 -0.18250000000E+03  0.18250000000E+03  0.00000000000E+00 0. -1.
        -11    1    1    2    0    0  0.95389209379E+00  0.19126548472E+01  0.15382411637E+03  0.15383896430E+03  0.00000000000E+00 0. -1.
         11    1    1    2    0    0  0.37421368752E+01  0.32316237070E+01 -0.17926774682E+03  0.17933591952E+03  0.00000000000E+00 0. -1.
        -15    1    1    2    0    0 -0.22379903558E+01  0.31652846459E+01  0.21874657477E+02  0.22286453205E+02  0.17770000000E+01 0.  1.
         15    1    1    2    0    0 -0.24580386132E+01 -0.83095632001E+01  0.35689729681E+01  0.95386629801E+01  0.17770000000E+01 0. -1.
</event>
<event>
 6    1  0.1059789E-002  0.1850508E+03  0.7546771E-02  0.1066442E+00
        -11   -1    0    0    0    0  0.00000000000E+00  0.00000000000E+00  0.18250000000E+03  0.18250000000E+03  0.00000000000E+00 0. -1.
         11   -1    0    0    0    0 -0.00000000000E+00 -0.00000000000E+00 -0.18250000000E+03  0.18250000000E+03  0.00000000000E+00 0. -1.
        -11    1    1    2    0    0  0.33770076783E+01  0.16906486589E+01  0.17990960634E+03  0.17994923986E+03  0.00000000000E+00 0. -1.
         11    1    1    2    0    0 -0.24912468710E+01  0.15309448463E+01 -0.17335100769E+03  0.17337566718E+03  0.00000000000E+00 0. -1.
        -15    1    1    2    0    0 -0.29392126861E+01 -0.19858681858E+01  0.51246236566E+00  0.40003737753E+01  0.17770000000E+01 0. -1.
         15    1    1    2    0    0  0.20534518788E+01 -0.12357253194E+01 -0.70710610187E+01  0.76747191880E+01  0.17770000000E+01 0. -1.
</event>
<event>
 6    1  0.1059789E-002  0.1829701E+03  0.7546771E-02  0.1068081E+00
        -11   -1    0    0    0    0  0.00000000000E+00  0.00000000000E+00  0.18250000000E+03  0.18250000000E+03  0.00000000000E+00 0.  1.
         11   -1    0    0    0    0 -0.00000000000E+00 -0.00000000000E+00 -0.18250000000E+03  0.18250000000E+03  0.00000000000E+00 0.  1.
        -11    1    1    2    0    0  0.22654649560E+01 -0.11236573581E+01  0.18201237445E+03  0.18202994092E+03  0.00000000000E+00 0.  1.
         11    1    1    2    0    0 -0.83895077671E+01  0.99279194371E+00 -0.92191237188E+02  0.92577500996E+02  0.00000000000E+00 0.  1.
        -15    1    1    2    0    0  0.14814648754E+01  0.15320455771E+01 -0.63991091918E+02  0.64051225403E+02  0.17770000000E+01 0.  1.
         15    1    1    2    0    0  0.46425779357E+01 -0.14011801627E+01 -0.25830045348E+02  0.26341332681E+02  0.17770000000E+01 0.  1.
</event>
<event>
 6    1  0.1059789E-002  0.1832417E+03  0.7546771E-02  0.1067866E+00
        -11   -1    0    0    0    0  0.00000000000E+00  0.00000000000E+00  0.18250000000E+03  0.18250000000E+03  0.00000000000E+00 0.  1.
         11   -1    0    0    0    0 -0.00000000000E+00 -0.00000000000E+00 -0.18250000000E+03  0.18250000000E+03  0.00000000000E+00 0. -1.
        -11    1    1    2    0    0  0.21240982987E+01  0.10317962725E+01  0.14120430666E+03  0.14122405113E+03  0.00000000000E+00 0.  1.
         11    1    1    2    0    0 -0.76798034003E+00 -0.44319136973E+01 -0.18170262121E+03  0.18175828511E+03  0.00000000000E+00 0. -1.
        -15    1    1    2    0    0 -0.14489978851E+01 -0.10962920733E+01  0.20466481895E+01  0.32631195186E+01  0.17770000000E+01 0. -1.
         15    1    1    2    0    0  0.92879926494E-01  0.44964094981E+01  0.38451666357E+02  0.38754544246E+02  0.17770000000E+01 0. -1.
</event>
<event>
 6    1  0.1059789E-002  0.1831361E+03  0.7546771E-02  0.1067950E+00
        -11   -1    0    0    0    0  0.00000000000E+00  0.00000000000E+00  0.18250000000E+03  0.18250000000E+03  0.00000000000E+00 0.  1.
         11   -1    0    0    0    0 -0.00000000000E+00 -0.00000000000E+00 -0.18250000000E+03  0.18250000000E+03  0.00000000000E+00 0.  1.
        -11    1    1    2    0    0  0.53556923815E+00  0.87256571214E+00  0.49357054058E+02  0.49367671513E+02  0.00000000000E+00 0.  1.
         11    1    1    2    0    0  0.90426820803E+01 -0.68551220949E+01 -0.18150953541E+03  0.18186388933E+03  0.00000000000E+00 0.  1.
        -15    1    1    2    0    0 -0.29320409534E+01  0.16811205039E+01  0.11170137085E+03  0.11176661849E+03  0.17770000000E+01 0.  1.
         15    1    1    2    0    0 -0.66462103651E+01  0.43014358789E+01  0.20451110502E+02  0.22001820665E+02  0.17770000000E+01 0. -1.
</event>
<event>
 6    1  0.1059789E-002  0.1856697E+03  0.7546771E-02  0.1065959E+00
        -11   -1    0    0    0    0  0.00000000000E+00  0.00000000000E+00  0.18250000000E+03  0.18250000000E+03  0.00000000000E+00 0. -1.
         11   -1    0    0    0    0 -0.00000000000E+00 -0.00000000000E+00 -0.18250000000E+03  0.18250000000E+03  0.00000000000E+00 0.  1.
        -11    1    1    2    0    0  0.10701529685E+02  0.92567359005E+00  0.17900830319E+03  0.17933028807E+03  0.00000000000E+00 0. -1.
         11    1    1    2    0    0  0.20679392560E+01  0.21343216376E+01 -0.15071001710E+03  0.15073931456E+03  0.00000000000E+00 0.  1.
        -15    1    1    2    0    0 -0.14903056003E+02 -0.16389118235E+00 -0.15751161478E+02  0.21757406911E+02  0.17770000000E+01 0.  1.
         15    1    1    2    0    0  0.21335870626E+01 -0.28961040453E+01 -0.12547124615E+02  0.13172990454E+02  0.17770000000E+01 0. -1.
</event>
<event>
 6    1  0.1059789E-002  0.1848990E+03  0.7546771E-02  0.1066561E+00
        -11   -1    0    0    0    0  0.00000000000E+00  0.00000000000E+00  0.18250000000E+03  0.18250000000E+03  0.00000000000E+00 0. -1.
         11   -1    0    0    0    0 -0.00000000000E+00 -0.00000000000E+00 -0.18250000000E+03  0.18250000000E+03  0.00000000000E+00 0.  1.
        -11    1    1    2    0    0  0.49239416289E+01  0.30059376722E-01  0.16885586823E+03  0.16892764824E+03  0.00000000000E+00 0. -1.
         11    1    1    2    0    0  0.18607180074E+01 -0.17981511238E+01 -0.18008241165E+03  0.18010100112E+03  0.00000000000E+00 0.  1.
        -15    1    1    2    0    0 -0.58448202749E+01 -0.20982176680E+01  0.42047534912E+01  0.77072772332E+01  0.17770000000E+01 0. -1.
         15    1    1    2    0    0 -0.93983936148E+00  0.38663094151E+01  0.70217899278E+01  0.82640734090E+01  0.17770000000E+01 0.  1.
</event>
<event>
 6    1  0.1059789E-002  0.1830394E+03  0.7546771E-02  0.1068026E+00
        -11   -1    0    0    0    0  0.00000000000E+00  0.00000000000E+00  0.18250000000E+03  0.18250000000E+03  0.00000000000E+00 0.  1.
         11   -1    0    0    0    0 -0.00000000000E+00 -0.00000000000E+00 -0.18250000000E+03  0.18250000000E+03  0.00000000000E+00 0.  1.
        -11    1    1    2    0    0  0.18801412416E+01 -0.55905519885E+00  0.14440278028E+03  0.14441610169E+03  0.00000000000E+00 0.  1.
         11    1    1    2    0    0  0.13845821252E+01  0.23106566588E+01 -0.18194068165E+03  0.18196062167E+03  0.00000000000E+00 0.  1.
        -15    1    1    2    0    0 -0.90476122302E+00 -0.13766561304E+01  0.25826482669E+01  0.35414087653E+01  0.17770000000E+01 0.  1.
         15    1    1    2    0    0 -0.23599621437E+01 -0.37494532959E+00  0.34955253099E+02  0.35081867874E+02  0.17770000000E+01 0. -1.
</event>
<event>
 6    1  0.1059789E-002  0.1831659E+03  0.7546771E-02  0.1067926E+00
        -11   -1    0    0    0    0  0.00000000000E+00  0.00000000000E+00  0.18250000000E+03  0.18250000000E+03  0.00000000000E+00 0.  1.
         11   -1    0    0    0    0 -0.00000000000E+00 -0.00000000000E+00 -0.18250000000E+03  0.18250000000E+03  0.00000000000E+00 0.  1.
        -11    1    1    2    0    0 -0.18849171333E+01  0.17417633177E+01  0.18181598544E+03  0.18183409805E+03  0.00000000000E+00 0.  1.
         11    1    1    2    0    0  0.13552896384E+01 -0.21198521004E+01 -0.16263526029E+03  0.16265472164E+03  0.00000000000E+00 0.  1.
        -15    1    1    2    0    0 -0.83157299295E+00  0.28777370631E+01 -0.13218162402E+02  0.13669324436E+02  0.17770000000E+01 0.  1.
         15    1    1    2    0    0  0.13612004879E+01 -0.24996482804E+01 -0.59625627440E+01  0.68418558717E+01  0.17770000000E+01 0. -1.
</event>
<event>
 6    1  0.1059789E-002  0.1835789E+03  0.7546771E-02  0.1067599E+00
        -11   -1    0    0    0    0  0.00000000000E+00  0.00000000000E+00  0.18250000000E+03  0.18250000000E+03  0.00000000000E+00 0. -1.
         11   -1    0    0    0    0 -0.00000000000E+00 -0.00000000000E+00 -0.18250000000E+03  0.18250000000E+03  0.00000000000E+00 0.  1.
        -11    1    1    2    0    0  0.11254411529E+01 -0.32018626684E+01  0.13876945239E+03  0.13881094863E+03  0.00000000000E+00 0. -1.
         11    1    1    2    0    0  0.26665652833E+01 -0.52744681855E+01 -0.18132478004E+03  0.18142107497E+03  0.00000000000E+00 0.  1.
        -15    1    1    2    0    0 -0.16365891810E+01  0.80136757035E+01  0.15952862438E+02  0.18015242752E+02  0.17770000000E+01 0.  1.
         15    1    1    2    0    0 -0.21554172552E+01  0.46265515036E+00  0.26602465217E+02  0.26752733654E+02  0.17770000000E+01 0. -1.
</event>
<event>
 6    1  0.1059789E-002  0.1848184E+03  0.7546771E-02  0.1066624E+00
        -11   -1    0    0    0    0  0.00000000000E+00  0.00000000000E+00  0.18250000000E+03  0.18250000000E+03  0.00000000000E+00 0.  1.
         11   -1    0    0    0    0 -0.00000000000E+00 -0.00000000000E+00 -0.18250000000E+03  0.18250000000E+03  0.00000000000E+00 0. -1.
        -11    1    1    2    0    0  0.33208221445E+01 -0.23882637047E+01  0.18013512899E+03  0.18018156499E+03  0.00000000000E+00 0.  1.
         11    1    1    2    0    0 -0.36010582696E+01  0.46080248390E+01 -0.17852929341E+03  0.17862505457E+03  0.00000000000E+00 0. -1.
        -15    1    1    2    0    0 -0.18614143639E+01 -0.60921365955E+00 -0.13464944489E+01  0.29676221151E+01  0.17770000000E+01 0. -1.
         15    1    1    2    0    0  0.21416504890E+01 -0.16105474747E+01 -0.25934113559E+00  0.32257583310E+01  0.17770000000E+01 0.  1.
</event>
<event>
 6    1  0.1059789E-002  0.1858836E+03  0.7546771E-02  0.1065793E+00
        -11   -1    0    0    0    0  0.00000000000E+00  0.00000000000E+00  0.18250000000E+03  0.18250000000E+03  0.00000000000E+00 0.  1.
         11   -1    0    0    0    0 -0.00000000000E+00 -0.00000000000E+00 -0.18250000000E+03  0.18250000000E+03  0.00000000000E+00 0.  1.
        -11    1    1    2    0    0  0.29757201815E+00  0.33764424564E+01  0.17003754374E+03  0.17007132385E+03  0.00000000000E+00 0.  1.
         11    1    1    2    0    0  0.36472609612E+01  0.20011760986E+01 -0.17906809703E+03  0.17911641631E+03  0.00000000000E+00 0.  1.
        -15    1    1    2    0    0 -0.49359805731E+01 -0.27031617461E+01 -0.28565477531E+00  0.59084951802E+01  0.17770000000E+01 0.  1.
         15    1    1    2    0    0  0.99114759376E+00 -0.26744568089E+01  0.93162080635E+01  0.99037646609E+01  0.17770000000E+01 0. -1.
</event>
<event>
 6    1  0.1059789E-002  0.1829094E+03  0.7546771E-02  0.1068129E+00
        -11   -1    0    0    0    0  0.00000000000E+00  0.00000000000E+00  0.18250000000E+03  0.18250000000E+03  0.00000000000E+00 0. -1.
         11   -1    0    0    0    0 -0.00000000000E+00 -0.00000000000E+00 -0.18250000000E+03  0.18250000000E+03  0.00000000000E+00 0.  1.
        -11    1    1    2    0    0 -0.46849617047E+00 -0.73712460785E+00  0.33792025291E+02  0.33803310705E+02  0.00000000000E+00 0. -1.
         11    1    1    2    0    0  0.16078267561E+01 -0.35871022718E+01 -0.18204816037E+03  0.18209059587E+03  0.00000000000E+00 0.  1.
        -15    1    1    2    0    0 -0.10031349866E+01  0.20759017927E+01  0.14365018259E+03  0.14367967266E+03  0.17770000000E+01 0. -1.
         15    1    1    2    0    0 -0.13619559901E+00  0.22483250870E+01  0.46059524911E+01  0.54264207622E+01  0.17770000000E+01 0.  1.
</event>
<event>
 6    1  0.1059789E-002  0.1750774E+03  0.7546771E-02  0.1074522E+00
        -11   -1    0    0    0    0  0.00000000000E+00  0.00000000000E+00  0.18250000000E+03  0.18250000000E+03  0.00000000000E+00 0.  1.
         11   -1    0    0    0    0 -0.00000000000E+00 -0.00000000000E+00 -0.18250000000E+03  0.18250000000E+03  0.00000000000E+00 0. -1.
        -11    1    1    2    0    0  0.11552309171E+01 -0.36526036178E+01  0.17613119732E+03  0.17617285472E+03  0.00000000000E+00 0.  1.
         11    1    1    2    0    0 -0.45072812823E+01  0.14877548652E+01 -0.17394671157E+03  0.17401145786E+03  0.00000000000E+00 0. -1.
        -15    1    1    2    0    0  0.42592537879E+01  0.66851436453E+00  0.52217069468E+01  0.70008647126E+01  0.17770000000E+01 0. -1.
         15    1    1    2    0    0 -0.90720342271E+00  0.14963343881E+01 -0.74061926947E+01  0.78148227032E+01  0.17770000000E+01 0.  1.
</event>
<event>
 6    1  0.1059789E-002  0.1954633E+03  0.7546771E-02  0.1058580E+00
        -11   -1    0    0    0    0  0.00000000000E+00  0.00000000000E+00  0.18250000000E+03  0.18250000000E+03  0.00000000000E+00 0. -1.
         11   -1    0    0    0    0 -0.00000000000E+00 -0.00000000000E+00 -0.18250000000E+03  0.18250000000E+03  0.00000000000E+00 0. -1.
        -11    1    1    2    0    0  0.43525880618E+00 -0.32914892262E+01  0.16950416707E+03  0.16953668041E+03  0.00000000000E+00 0. -1.
         11    1    1    2    0    0 -0.18808887475E+01  0.17488183431E+01 -0.16676058646E+03  0.16678036247E+03  0.00000000000E+00 0. -1.
        -15    1    1    2    0    0  0.40089677487E+01 -0.76404793896E+01 -0.12259078139E+02  0.15096074772E+02  0.17770000000E+01 0. -1.
         15    1    1    2    0    0 -0.25633378074E+01  0.91831502728E+01  0.95154975328E+01  0.13586882348E+02  0.17770000000E+01 0. -1.
</event>
<event>
 6    1  0.1059789E-002  0.1708576E+03  0.7546771E-02  0.1078119E+00
        -11   -1    0    0    0    0  0.00000000000E+00  0.00000000000E+00  0.18250000000E+03  0.18250000000E+03  0.00000000000E+00 0. -1.
         11   -1    0    0    0    0 -0.00000000000E+00 -0.00000000000E+00 -0.18250000000E+03  0.18250000000E+03  0.00000000000E+00 0. -1.
        -11    1    1    2    0    0  0.43535615750E+01  0.16735125480E+00  0.17086472484E+03  0.17092026124E+03  0.00000000000E+00 0. -1.
         11    1    1    2    0    0 -0.11003306531E+01 -0.83409788748E+01 -0.17070108455E+03  0.17090828805E+03  0.00000000000E+00 0. -1.
        -15    1    1    2    0    0 -0.94506838473E+01  0.14375033374E+01  0.65132969000E+01  0.11703102432E+02  0.17770000000E+01 0.  1.
         15    1    1    2    0    0  0.61974529254E+01  0.67361242827E+01 -0.66769371906E+01  0.11468348284E+02  0.17770000000E+01 0. -1.
</event>
<event>
 6    1  0.1059789E-002  0.1910418E+03  0.7546771E-02  0.1061852E+00
        -11   -1    0    0    0    0  0.00000000000E+00  0.00000000000E+00  0.18250000000E+03  0.18250000000E+03  0.00000000000E+00 0.  1.
         11   -1    0    0    0    0 -0.00000000000E+00 -0.00000000000E+00 -0.18250000000E+03  0.18250000000E+03  0.00000000000E+00 0. -1.
        -11    1    1    2    0    0  0.75048628853E+01  0.31160389896E+01  0.17376832644E+03  0.17395822469E+03  0.00000000000E+00 0.  1.
         11    1    1    2    0    0  0.21039174699E+01 -0.76238171354E+01 -0.12559732243E+03  0.12584608241E+03  0.00000000000E+00 0. -1.
        -15    1    1    2    0    0  0.98469827939E+01 -0.10429558671E+02 -0.46076121406E+01  0.15169923627E+02  0.17770000000E+01 0.  1.
         15    1    1    2    0    0 -0.19455763149E+02  0.14937336817E+02 -0.43563391865E+02  0.50025769267E+02  0.17770000000E+01 0. -1.
</event>
<event>
 6    1  0.1059789E-002  0.1827634E+03  0.7546771E-02  0.1068245E+00
        -11   -1    0    0    0    0  0.00000000000E+00  0.00000000000E+00  0.18250000000E+03  0.18250000000E+03  0.00000000000E+00 0. -1.
         11   -1    0    0    0    0 -0.00000000000E+00 -0.00000000000E+00 -0.18250000000E+03  0.18250000000E+03  0.00000000000E+00 0. -1.
        -11    1    1    2    0    0 -0.35192725650E+01 -0.26834426932E+01  0.18218284543E+03  0.18223659159E+03  0.00000000000E+00 0. -1.
         11    1    1    2    0    0  0.31590987618E+00  0.78464726160E+00 -0.26264093362E+02  0.26277710526E+02  0.00000000000E+00 0. -1.
        -15    1    1    2    0    0  0.37971176205E+01 -0.20890159173E+01 -0.21935683796E+02  0.22430203796E+02  0.17770000000E+01 0. -1.
         15    1    1    2    0    0 -0.59375493174E+00  0.39878113488E+01 -0.13398306827E+03  0.13405549409E+03  0.17770000000E+01 0.  1.
</event>
<event>
 6    1  0.1059789E-002  0.1827143E+03  0.7546771E-02  0.1068284E+00
        -11   -1    0    0    0    0  0.00000000000E+00  0.00000000000E+00  0.18250000000E+03  0.18250000000E+03  0.00000000000E+00 0. -1.
         11   -1    0    0    0    0 -0.00000000000E+00 -0.00000000000E+00 -0.18250000000E+03  0.18250000000E+03  0.00000000000E+00 0.  1.
        -11    1    1    2    0    0 -0.17124985245E+01  0.75058961973E+00  0.12331634551E+03  0.12333051977E+03  0.00000000000E+00 0. -1.
         11    1    1    2    0    0  0.24065527219E+01  0.96054450629E+00 -0.18226727677E+03  0.18228569423E+03  0.00000000000E+00 0.  1.
        -15    1    1    2    0    0 -0.31037309842E+01 -0.20813178415E+01  0.34807453837E+02  0.35052554852E+02  0.17770000000E+01 0.  1.
         15    1    1    2    0    0  0.24096767868E+01  0.37018371550E+00  0.24143477421E+02  0.24331231148E+02  0.17770000000E+01 0.  1.
</event>
<event>
 6    1  0.1059789E-002  0.1885392E+03  0.7546771E-02  0.1063747E+00
        -11   -1    0    0    0    0  0.00000000000E+00  0.00000000000E+00  0.18250000000E+03  0.18250000000E+03  0.00000000000E+00 0.  1.
         11   -1    0    0    0    0 -0.00000000000E+00 -0.00000000000E+00 -0.18250000000E+03  0.18250000000E+03  0.00000000000E+00 0.  1.
        -11    1    1    2    0    0 -0.48580825298E+01 -0.40795632920E+01  0.17634677685E+03  0.17646084413E+03  0.00000000000E+00 0.  1.
         11    1    1    2    0    0 -0.55776385464E+01 -0.10823552318E+01 -0.15981619331E+03  0.15991715726E+03  0.00000000000E+00 0.  1.
        -15    1    1    2    0    0  0.26591063025E+01  0.78021247097E+01 -0.18196987366E+02  0.20055724233E+02  0.17770000000E+01 0.  1.
         15    1    1    2    0    0  0.77766147738E+01 -0.26402061859E+01  0.16664038169E+01  0.85662743783E+01  0.17770000000E+01 0. -1.
</event>
<event>
 6    1  0.1059789E-002  0.1833182E+03  0.7546771E-02  0.1067805E+00
        -11   -1    0    0    0    0  0.00000000000E+00  0.00000000000E+00  0.18250000000E+03  0.18250000000E+03  0.00000000000E+00 0.  1.
         11   -1    0    0    0    0 -0.00000000000E+00 -0.00000000000E+00 -0.18250000000E+03  0.18250000000E+03  0.00000000000E+00 0.  1.
        -11    1    1    2    0    0 -0.61853353127E+00  0.79159675717E+00  0.63084491428E+02  0.63092489790E+02  0.00000000000E+00 0.  1.
         11    1    1    2    0    0 -0.18577594087E+01 -0.18317410806E+01 -0.18166302005E+03  0.18168175307E+03  0.00000000000E+00 0.  1.
        -15    1    1    2    0    0  0.29008906458E+01 -0.85385782251E+01  0.75495415641E+02  0.76052863171E+02  0.17770000000E+01 0. -1.
         15    1    1    2    0    0 -0.42459770580E+00  0.95787225486E+01  0.43083112978E+02  0.44172893971E+02  0.17770000000E+01 0.  1.
</event>
<event>
 6    1  0.1059789E-002  0.1826459E+03  0.7546771E-02  0.1068339E+00
        -11   -1    0    0    0    0  0.00000000000E+00  0.00000000000E+00  0.18250000000E+03  0.18250000000E+03  0.00000000000E+00 0. -1.
         11   -1    0    0    0    0 -0.00000000000E+00 -0.00000000000E+00 -0.18250000000E+03  0.18250000000E+03  0.00000000000E+00 0. -1.
        -11    1    1    2    0    0 -0.17485993685E+01  0.49363702153E+00  0.10493007217E+03  0.10494580184E+03  0.00000000000E+00 0. -1.
         11    1    1    2    0    0  0.72020048740E+00  0.28435528209E+01 -0.18233047944E+03  0.18235407375E+03  0.00000000000E+00 0. -1.
        -15    1    1    2    0    0  0.79469423795E+00  0.57934471604E+00  0.40186662657E+02  0.40237951783E+02  0.17770000000E+01 0. -1.
         15    1    1    2    0    0  0.23370464319E+00 -0.39165345584E+01  0.37213744611E+02  0.37462172625E+02  0.17770000000E+01 0. -1.
</event>
<event>
 6    1  0.1233803E-002  0.1873455E+03  0.7546771E-02  0.1064662E+00
        -11   -1    0    0    0    0  0.00000000000E+00  0.00000000000E+00  0.18250000000E+03  0.18250000000E+03  0.00000000000E+00 0. -1.
         11   -1    0    0    0    0 -0.00000000000E+00 -0.00000000000E+00 -0.18250000000E+03  0.18250000000E+03  0.00000000000E+00 0.  1.
        -11    1    1    2    0    0  0.32635413179E+01 -0.46273402114E+01  0.17756428052E+03  0.17765454314E+03  0.00000000000E+00 0. -1.
         11    1    1    2    0    0  0.75033965200E+01 -0.85539055898E+00 -0.98350090069E+02  0.98639611054E+02  0.00000000000E+00 0.  1.
        -15    1    1    2    0    0 -0.96529111714E+01  0.29681379550E+01 -0.83039648828E+02  0.83670362396E+02  0.17770000000E+01 0.  1.
         15    1    1    2    0    0 -0.11140266665E+01  0.25145928153E+01  0.38254583723E+01  0.50354834127E+01  0.17770000000E+01 0. -1.
</event>
<event>
 6    1  0.1059789E-002  0.1827173E+03  0.7546771E-02  0.1068282E+00
        -11   -1    0    0    0    0  0.00000000000E+00  0.00000000000E+00  0.18250000000E+03  0.18250000000E+03  0.00000000000E+00 0. -1.
         11   -1    0    0    0    0 -0.00000000000E+00 -0.00000000000E+00 -0.18250000000E+03  0.18250000000E+03  0.00000000000E+00 0. -1.
        -11    1    1    2    0    0  0.22982452138E+01 -0.38042896817E+01  0.18222847847E+03  0.18228267311E+03  0.00000000000E+00 0. -1.
         11    1    1    2    0    0  0.76398211991E+00 -0.17640605225E+01 -0.10174495230E+03  0.10176311167E+03  0.00000000000E+00 0. -1.
        -15    1    1    2    0    0 -0.17744475865E+01  0.20738277418E+00 -0.14538131712E+02  0.14754886463E+02  0.17770000000E+01 0. -1.
         15    1    1    2    0    0 -0.12877797472E+01  0.53609674300E+01 -0.65945394460E+02  0.66199328758E+02  0.17770000000E+01 0. -1.
</event>
<event>
 6    1  0.1059789E-002  0.1981443E+03  0.7546771E-02  0.1056642E+00
        -11   -1    0    0    0    0  0.00000000000E+00  0.00000000000E+00  0.18250000000E+03  0.18250000000E+03  0.00000000000E+00 0. -1.
         11   -1    0    0    0    0 -0.00000000000E+00 -0.00000000000E+00 -0.18250000000E+03  0.18250000000E+03  0.00000000000E+00 0. -1.
        -11    1    1    2    0    0 -0.25718751457E+01 -0.18233454738E+01  0.16682595643E+03  0.16685574269E+03  0.00000000000E+00 0. -1.
         11    1    1    2    0    0  0.11946156711E+01  0.19385566550E+01 -0.79421727780E+02  0.79454363959E+02  0.00000000000E+00 0. -1.
        -15    1    1    2    0    0  0.51392426293E+01 -0.15108318904E+02  0.10741350794E+02  0.19318578125E+02  0.17770000000E+01 0. -1.
         15    1    1    2    0    0 -0.37619831547E+01  0.14993107722E+02 -0.98145579443E+02  0.99371315225E+02  0.17770000000E+01 0.  1.
</event>
<event>
 6    1  0.1059789E-002  0.1828252E+03  0.7546771E-02  0.1068196E+00
        -11   -1    0    0    0    0  0.00000000000E+00  0.00000000000E+00  0.18250000000E+03  0.18250000000E+03  0.00000000000E+00 0.  1.
         11   -1    0    0    0    0 -0.00000000000E+00 -0.00000000000E+00 -0.18250000000E+03  0.18250000000E+03  0.00000000000E+00 0.  1.
        -11    1    1    2    0    0  0.25262161393E+01 -0.20979690675E+01  0.14835205053E+03  0.14838838950E+03  0.00000000000E+00 0.  1.
         11    1    1    2    0    0 -0.55397000021E+00  0.32102228777E+01 -0.18214571769E+03  0.18217484702E+03  0.00000000000E+00 0.  1.
        -15    1    1    2    0    0 -0.29673999480E+01  0.36115442735E+00  0.26386395382E+02  0.26614572798E+02  0.17770000000E+01 0.  1.
         15    1    1    2    0    0  0.99515380887E+00 -0.14734082376E+01  0.74072717754E+01  0.78221906837E+01  0.17770000000E+01 0. -1.
</event>
<event>
 6    1  0.1059789E-002  0.1833174E+03  0.7546771E-02  0.1067806E+00
        -11   -1    0    0    0    0  0.00000000000E+00  0.00000000000E+00  0.18250000000E+03  0.18250000000E+03  0.00000000000E+00 0. -1.
         11   -1    0    0    0    0 -0.00000000000E+00 -0.00000000000E+00 -0.18250000000E+03  0.18250000000E+03  0.00000000000E+00 0.  1.
        -11    1    1    2    0    0  0.17895179627E+01 -0.77558001861E+01  0.18150820642E+03  0.18168264587E+03  0.00000000000E+00 0. -1.
         11    1    1    2    0    0 -0.14502438831E+01 -0.35780626477E+01 -0.12308839572E+03  0.12314892975E+03  0.00000000000E+00 0.  1.
        -15    1    1    2    0    0 -0.61491130268E+00  0.52378034035E+00 -0.24332401446E+01  0.31194307744E+01  0.17770000000E+01 0. -1.
         15    1    1    2    0    0  0.27563722309E+00  0.10810082493E+02 -0.55986570560E+02  0.57048993606E+02  0.17770000000E+01 0.  1.
</event>
<event>
 6    1  0.1059789E-002  0.1828681E+03  0.7546771E-02  0.1068162E+00
        -11   -1    0    0    0    0  0.00000000000E+00  0.00000000000E+00  0.18250000000E+03  0.18250000000E+03  0.00000000000E+00 0. -1.
         11   -1    0    0    0    0 -0.00000000000E+00 -0.00000000000E+00 -0.18250000000E+03  0.18250000000E+03  0.00000000000E+00 0. -1.
        -11    1    1    2    0    0  0.12478066808E+01 -0.27643178249E+01  0.18210669388E+03  0.18213194786E+03  0.00000000000E+00 0. -1.
         11    1    1    2    0    0 -0.61025754189E+00  0.51292059376E+00 -0.25329869300E+02  0.25342410710E+02  0.00000000000E+00 0. -1.
        -15    1    1    2    0    0 -0.29751490774E+01  0.53963018995E+01 -0.14174904695E+03  0.14189405071E+03  0.17770000000E+01 0. -1.
         15    1    1    2    0    0  0.23375999385E+01 -0.31449046684E+01 -0.15027777637E+02  0.15631590723E+02  0.17770000000E+01 0.  1.
</event>
<event>
 6    1  0.1059789E-002  0.1827837E+03  0.7546771E-02  0.1068229E+00
        -11   -1    0    0    0    0  0.00000000000E+00  0.00000000000E+00  0.18250000000E+03  0.18250000000E+03  0.00000000000E+00 0. -1.
         11   -1    0    0    0    0 -0.00000000000E+00 -0.00000000000E+00 -0.18250000000E+03  0.18250000000E+03  0.00000000000E+00 0. -1.
        -11    1    1    2    0    0 -0.36980066952E+00 -0.43511050588E+01  0.18216394337E+03  0.18221627571E+03  0.00000000000E+00 0. -1.
         11    1    1    2    0    0  0.40072226699E+01 -0.69076830028E+00 -0.79771532811E+02  0.79875105267E+02  0.00000000000E+00 0. -1.
        -15    1    1    2    0    0 -0.12272508350E+01  0.49939717339E+01 -0.89811907753E+02  0.89976565847E+02  0.17770000000E+01 0. -1.
         15    1    1    2    0    0 -0.24101711654E+01  0.47901625141E-01 -0.12580502806E+02  0.12932053181E+02  0.17770000000E+01 0.  1.
</event>
<event>
 6    1  0.1059789E-002  0.1853004E+03  0.7546771E-02  0.1066247E+00
        -11   -1    0    0    0    0  0.00000000000E+00  0.00000000000E+00  0.18250000000E+03  0.18250000000E+03  0.00000000000E+00 0. -1.
         11   -1    0    0    0    0 -0.00000000000E+00 -0.00000000000E+00 -0.18250000000E+03  0.18250000000E+03  0.00000000000E+00 0. -1.
        -11    1    1    2    0    0  0.20860930912E+01 -0.13898773980E+01  0.17968213733E+03  0.17969962165E+03  0.00000000000E+00 0. -1.
         11    1    1    2    0    0  0.12691124224E+01  0.33259648088E+01 -0.16595513740E+03  0.16599331408E+03  0.00000000000E+00 0. -1.
        -15    1    1    2    0    0  0.21143472824E+01  0.54193625935E+00 -0.12642126086E+02  0.12951650101E+02  0.17770000000E+01 0.  1.
         15    1    1    2    0    0 -0.54695527960E+01 -0.24780236702E+01 -0.10848738464E+01  0.63554141770E+01  0.17770000000E+01 0. -1.
</event>
<event>
 6    1  0.1059789E-002  0.1837345E+03  0.7546771E-02  0.1067476E+00
        -11   -1    0    0    0    0  0.00000000000E+00  0.00000000000E+00  0.18250000000E+03  0.18250000000E+03  0.00000000000E+00 0. -1.
         11   -1    0    0    0    0 -0.00000000000E+00 -0.00000000000E+00 -0.18250000000E+03  0.18250000000E+03  0.00000000000E+00 0.  1.
        -11    1    1    2    0    0  0.27205321108E+01 -0.12308315170E+01  0.15173993049E+03  0.15176930765E+03  0.00000000000E+00 0. -1.
         11    1    1    2    0    0  0.19853184338E+01  0.21719992506E+01 -0.18124156341E+03  0.18126545004E+03  0.00000000000E+00 0.  1.
        -15    1    1    2    0    0  0.27073813981E+01 -0.24547346703E+01  0.63038194146E+01  0.75001003025E+01  0.17770000000E+01 0.  1.
         15    1    1    2    0    0 -0.74132319427E+01  0.15135669367E+01  0.23197813508E+02  0.24465142004E+02  0.17770000000E+01 0. -1.
</event>
<event>
 6    1  0.1059789E-002  0.1829458E+03  0.7546771E-02  0.1068100E+00
        -11   -1    0    0    0    0  0.00000000000E+00  0.00000000000E+00  0.18250000000E+03  0.18250000000E+03  0.00000000000E+00 0.  1.
         11   -1    0    0    0    0 -0.00000000000E+00 -0.00000000000E+00 -0.18250000000E+03  0.18250000000E+03  0.00000000000E+00 0.  1.
        -11    1    1    2    0    0  0.49744940077E+01  0.17206606877E+01  0.96121866212E+02  0.96265878835E+02  0.00000000000E+00 0.  1.
         11    1    1    2    0    0 -0.43591888599E+00  0.49679455345E+01 -0.18198587041E+03  0.18205418847E+03  0.00000000000E+00 0.  1.
        -15    1    1    2    0    0 -0.30974947757E+01 -0.64071896935E+01  0.80603134696E+02  0.80936207012E+02  0.17770000000E+01 0.  1.
         15    1    1    2    0    0 -0.14410803460E+01 -0.28141652872E+00  0.52608695049E+01  0.57437256876E+01  0.17770000000E+01 0. -1.
</event>
<event>
 6    1  0.1059789E-002  0.1848468E+03  0.7546771E-02  0.1066602E+00
        -11   -1    0    0    0    0  0.00000000000E+00  0.00000000000E+00  0.18250000000E+03  0.18250000000E+03  0.00000000000E+00 0. -1.
         11   -1    0    0    0    0 -0.00000000000E+00 -0.00000000000E+00 -0.18250000000E+03  0.18250000000E+03  0.00000000000E+00 0.  1.
        -11    1    1    2    0    0  0.74147513082E+01  0.75546602790E+01  0.85856298363E+02  0.86506389345E+02  0.00000000000E+00 0. -1.
         11    1    1    2    0    0  0.13735027998E+01  0.21091958593E+01 -0.18013562380E+03  0.18015320751E+03  0.00000000000E+00 0.  1.
        -15    1    1    2    0    0 -0.15960254102E+02 -0.13067834587E+01  0.66055442869E+02  0.67992033766E+02  0.17770000000E+01 0. -1.
         15    1    1    2    0    0  0.71719999943E+01 -0.83570726796E+01  0.28223882565E+02  0.30348369375E+02  0.17770000000E+01 0.  1.
</event>
<event>
 6    1  0.1059789E-002  0.2012137E+03  0.7546771E-02  0.1054464E+00
        -11   -1    0    0    0    0  0.00000000000E+00  0.00000000000E+00  0.18250000000E+03  0.18250000000E+03  0.00000000000E+00 0.  1.
         11   -1    0    0    0    0 -0.00000000000E+00 -0.00000000000E+00 -0.18250000000E+03  0.18250000000E+03  0.00000000000E+00 0.  1.
        -11    1    1    2    0    0 -0.24804778242E+01 -0.27998633176E+01  0.15334187245E+03  0.15338748923E+03  0.00000000000E+00 0.  1.
         11    1    1    2    0    0  0.45200635637E+01 -0.12336679658E+01 -0.16371931432E+03  0.16378634495E+03  0.00000000000E+00 0.  1.
        -15    1    1    2    0    0  0.12274932746E+02 -0.72519201141E+01  0.21897196356E+02  0.26189869349E+02  0.17770000000E+01 0. -1.
         15    1    1    2    0    0 -0.14314518485E+02  0.11285451398E+02 -0.11519754491E+02  0.21636296477E+02  0.17770000000E+01 0.  1.
</event>
<event>
 6    1  0.1059789E-002  0.1848029E+03  0.7546771E-02  0.1066636E+00
        -11   -1    0    0    0    0  0.00000000000E+00  0.00000000000E+00  0.18250000000E+03  0.18250000000E+03  0.00000000000E+00 0.  1.
         11   -1    0    0    0    0 -0.00000000000E+00 -0.00000000000E+00 -0.18250000000E+03  0.18250000000E+03  0.00000000000E+00 0.  1.
        -11    1    1    2    0    0 -0.27338493998E+01  0.36776434526E+01  0.16158656204E+03  0.16165152652E+03  0.00000000000E+00 0.  1.
         11    1    1    2    0    0 -0.24849731524E+01  0.15515281199E+00 -0.18017991050E+03  0.18019711239E+03  0.00000000000E+00 0.  1.
        -15    1    1    2    0    0  0.23516234258E+01  0.39821815274E+01  0.93792664961E+01  0.10607368734E+02  0.17770000000E+01 0. -1.
         15    1    1    2    0    0  0.28671991264E+01 -0.78149777920E+01  0.92140819642E+01  0.12543992353E+02  0.17770000000E+01 0.  1.
</event>
<event>
 6    1  0.1059789E-002  0.1750511E+03  0.7546771E-02  0.1074544E+00
        -11   -1    0    0    0    0  0.00000000000E+00  0.00000000000E+00  0.18250000000E+03  0.18250000000E+03  0.00000000000E+00 0.  1.
         11   -1    0    0    0    0 -0.00000000000E+00 -0.00000000000E+00 -0.18250000000E+03  0.18250000000E+03  0.00000000000E+00 0.  1.
        -11    1    1    2    0    0 -0.31935187619E+01 -0.23243547836E+01  0.17608335229E+03  0.17612764729E+03  0.00000000000E+00 0.  1.
         11    1    1    2    0    0  0.96453341443E+00 -0.36324889097E+01 -0.17399803714E+03  0.17403862280E+03  0.00000000000E+00 0.  1.
        -15    1    1    2    0    0  0.43834085196E+01  0.34410263408E+01 -0.66921230243E+01  0.88880353341E+01  0.17770000000E+01 0.  1.
         15    1    1    2    0    0 -0.21544231721E+01  0.25158173525E+01  0.46068078739E+01  0.59456945719E+01  0.17770000000E+01 0. -1.
</event>
<event>
 6    1  0.1059789E-002  0.1826953E+03  0.7546771E-02  0.1068299E+00
        -11   -1    0    0    0    0  0.00000000000E+00  0.00000000000E+00  0.18250000000E+03  0.18250000000E+03  0.00000000000E+00 0. -1.
         11   -1    0    0    0    0 -0.00000000000E+00 -0.00000000000E+00 -0.18250000000E+03  0.18250000000E+03  0.00000000000E+00 0. -1.
        -11    1    1    2    0    0  0.39508690839E+01  0.29726724719E+01  0.18223762544E+03  0.18230468527E+03  0.00000000000E+00 0. -1.
         11    1    1    2    0    0 -0.16942955480E+00 -0.16487314033E+01 -0.68068928155E+02  0.68089103400E+02  0.00000000000E+00 0. -1.
        -15    1    1    2    0    0  0.19642222591E+01  0.16588056935E+01 -0.27245650635E+02  0.27424314265E+02  0.17770000000E+01 0.  1.
         15    1    1    2    0    0 -0.57456617881E+01 -0.29827467621E+01 -0.86923046647E+02  0.87181897061E+02  0.17770000000E+01 0.  1.
</event>
<event>
 6    1  0.1059789E-002  0.1694907E+03  0.7546771E-02  0.1079309E+00
        -11   -1    0    0    0    0  0.00000000000E+00  0.00000000000E+00  0.18250000000E+03  0.18250000000E+03  0.00000000000E+00 0. -1.
         11   -1    0    0    0    0 -0.00000000000E+00 -0.00000000000E+00 -0.18250000000E+03  0.18250000000E+03  0.00000000000E+00 0.  1.
        -11    1    1    2    0    0 -0.32733975801E+01 -0.45276175765E+01  0.16807828843E+03  0.16817111968E+03  0.00000000000E+00 0. -1.
         11    1    1    2    0    0 -0.25604600421E+01  0.15065841574E+01 -0.17085952013E+03  0.17088534569E+03  0.00000000000E+00 0.  1.
        -15    1    1    2    0    0 -0.11782660556E+01 -0.90255482162E+01 -0.42840572183E+01  0.10215659878E+02  0.17770000000E+01 0.  1.
         15    1    1    2    0    0  0.70121236778E+01  0.12046581635E+02  0.70652889178E+01  0.15727874747E+02  0.17770000000E+01 0.  1.
</event>
<event>
 6    1  0.1059789E-002  0.1575326E+03  0.7546771E-02  0.1090272E+00
        -11   -1    0    0    0    0  0.00000000000E+00  0.00000000000E+00  0.18250000000E+03  0.18250000000E+03  0.00000000000E+00 0.  1.
         11   -1    0    0    0    0 -0.00000000000E+00 -0.00000000000E+00 -0.18250000000E+03  0.18250000000E+03  0.00000000000E+00 0.  1.
        -11    1    1    2    0    0  0.10935523288E+02  0.16231240669E+02  0.14731272529E+03  0.14860712593E+03  0.00000000000E+00 0.  1.
         11    1    1    2    0    0  0.14916440377E+02 -0.19142416839E+01 -0.16783318198E+03  0.16850561263E+03  0.00000000000E+00 0.  1.
        -15    1    1    2    0    0 -0.10746081606E+02 -0.16866024189E+02 -0.24432853140E+01  0.20225439771E+02  0.17770000000E+01 0.  1.
         15    1    1    2    0    0 -0.15105882059E+02  0.25490252038E+01  0.22963742000E+02  0.27661821667E+02  0.17770000000E+01 0. -1.
</event>
<event>
 6    1  0.1059789E-002  0.1925750E+03  0.7546771E-02  0.1060706E+00
        -11   -1    0    0    0    0  0.00000000000E+00  0.00000000000E+00  0.18250000000E+03  0.18250000000E+03  0.00000000000E+00 0. -1.
         11   -1    0    0    0    0 -0.00000000000E+00 -0.00000000000E+00 -0.18250000000E+03  0.18250000000E+03  0.00000000000E+00 0. -1.
        -11    1    1    2    0    0  0.14934980144E+00  0.21421501623E+01  0.14295961550E+03  0.14297574192E+03  0.00000000000E+00 0. -1.
         11    1    1    2    0    0  0.24556067176E+00 -0.20724296195E+02 -0.17117481179E+03  0.17242497773E+03  0.00000000000E+00 0. -1.
        -15    1    1    2    0    0  0.14331650740E+01  0.20656265015E+02 -0.40995131845E+00  0.20786077927E+02  0.17770000000E+01 0.  1.
         15    1    1    2    0    0 -0.18280755472E+01 -0.20741189823E+01  0.28625147605E+02  0.28813202429E+02  0.17770000000E+01 0.  1.
</event>
<event>
 6    1  0.1059789E-002  0.1833222E+03  0.7546771E-02  0.1067802E+00
        -11   -1    0    0    0    0  0.00000000000E+00  0.00000000000E+00  0.18250000000E+03  0.18250000000E+03  0.00000000000E+00 0.  1.
         11   -1    0    0    0    0 -0.00000000000E+00 -0.00000000000E+00 -0.18250000000E+03  0.18250000000E+03  0.00000000000E+00 0. -1.
        -11    1    1    2    0    0  0.23327778963E+01 -0.16188031729E+01  0.16376562350E+03  0.16379023724E+03  0.00000000000E+00 0.  1.
         11    1    1    2    0    0  0.27915172600E+01 -0.24096802635E+01 -0.18164035589E+03  0.18167778624E+03  0.00000000000E+00 0. -1.
        -15    1    1    2    0    0 -0.61203638600E+00  0.11996967142E+01  0.43471791835E+01  0.48856480223E+01  0.17770000000E+01 0.  1.
         15    1    1    2    0    0 -0.45122587703E+01  0.28287867221E+01  0.13527553207E+02  0.14646328492E+02  0.17770000000E+01 0. -1.
</event>
<event>
 6    1  0.1059789E-002  0.1879786E+03  0.7546771E-02  0.1064176E+00
        -11   -1    0    0    0    0  0.00000000000E+00  0.00000000000E+00  0.18250000000E+03  0.18250000000E+03  0.00000000000E+00 0. -1.
         11   -1    0    0    0    0 -0.00000000000E+00 -0.00000000000E+00 -0.18250000000E+03  0.18250000000E+03  0.00000000000E+00 0.  1.
        -11    1    1    2    0    0  0.73499432779E+01  0.25072751046E+01  0.17685098100E+03  0.17702140428E+03  0.00000000000E+00 0. -1.
         11    1    1    2    0    0 -0.59876540541E+01 -0.96021423085E+01 -0.14313629355E+03  0.14358290869E+03  0.00000000000E+00 0.  1.
        -15    1    1    2    0    0  0.64684690126E+01  0.12920362633E+02 -0.30781871970E+02  0.34050818388E+02  0.17770000000E+01 0.  1.
         15    1    1    2    0    0 -0.78307582365E+01 -0.58254954286E+01 -0.29328154788E+01  0.10344868640E+02  0.17770000000E+01 0. -1.
</event>
<event>
 6    1  0.1059789E-002  0.1877139E+03  0.7546771E-02  0.1064379E+00
        -11   -1    0    0    0    0  0.00000000000E+00  0.00000000000E+00  0.18250000000E+03  0.18250000000E+03  0.00000000000E+00 0.  1.
         11   -1    0    0    0    0 -0.00000000000E+00 -0.00000000000E+00 -0.18250000000E+03  0.18250000000E+03  0.00000000000E+00 0. -1.
        -11    1    1    2    0    0 -0.56068045422E+01 -0.27999397741E+01  0.14188493540E+03  0.14202327561E+03  0.00000000000E+00 0.  1.
         11    1    1    2    0    0  0.28881238986E+00 -0.44885172630E+01 -0.17722903273E+03  0.17728609715E+03  0.00000000000E+00 0. -1.
        -15    1    1    2    0    0 -0.42977297422E+00  0.76532731475E+00 -0.44752417169E+01  0.48944813957E+01  0.17770000000E+01 0.  1.
         15    1    1    2    0    0  0.57477651265E+01  0.65231297223E+01  0.39819339044E+02  0.40796145850E+02  0.17770000000E+01 0.  1.
</event>
<event>
 6    1  0.1059789E-002  0.1842762E+03  0.7546771E-02  0.1067050E+00
        -11   -1    0    0    0    0  0.00000000000E+00  0.00000000000E+00  0.18250000000E+03  0.18250000000E+03  0.00000000000E+00 0.  1.
         11   -1    0    0    0    0 -0.00000000000E+00 -0.00000000000E+00 -0.18250000000E+03  0.18250000000E+03  0.00000000000E+00 0.  1.
        -11    1    1    2    0    0  0.22346830708E+01 -0.53176812863E+00  0.16273828708E+03  0.16275449815E+03  0.00000000000E+00 0.  1.
         11    1    1    2    0    0  0.32528748712E+01 -0.17168715782E+01 -0.18068639529E+03  0.18072382877E+03  0.00000000000E+00 0.  1.
        -15    1    1    2    0    0 -0.44630449025E+01  0.48004608395E+01  0.16681983408E+02  0.18011371227E+02  0.17770000000E+01 0.  1.
         15    1    1    2    0    0 -0.10245130395E+01 -0.25518211326E+01  0.12661248047E+01  0.35103018505E+01  0.17770000000E+01 0.  1.
</event>
<event>
 6    1  0.1059789E-002  0.1832203E+03  0.7546771E-02  0.1067883E+00
        -11   -1    0    0    0    0  0.00000000000E+00  0.00000000000E+00  0.18250000000E+03  0.18250000000E+03  0.00000000000E+00 0.  1.
         11   -1    0    0    0    0 -0.00000000000E+00 -0.00000000000E+00 -0.18250000000E+03  0.18250000000E+03  0.00000000000E+00 0. -1.
        -11    1    1    2    0    0  0.23489803393E+01 -0.92589279991E+00  0.18176220965E+03  0.18177974541E+03  0.00000000000E+00 0.  1.
         11    1    1    2    0    0 -0.25846162612E+00  0.29016037939E+01 -0.14377263100E+03  0.14380214022E+03  0.00000000000E+00 0. -1.
        -15    1    1    2    0    0 -0.33861367485E-02  0.12691546474E+01 -0.14247255664E+01  0.26073620624E+01  0.17770000000E+01 0. -1.
         15    1    1    2    0    0 -0.20871325765E+01 -0.32448656414E+01 -0.36564853078E+02  0.36810752302E+02  0.17770000000E+01 0.  1.
</event>
<event>
 6    1  0.1059789E-002  0.1830442E+03  0.7546771E-02  0.1068022E+00
        -11   -1    0    0    0    0  0.00000000000E+00  0.00000000000E+00  0.18250000000E+03  0.18250000000E+03  0.00000000000E+00 0.  1.
         11   -1    0    0    0    0 -0.00000000000E+00 -0.00000000000E+00 -0.18250000000E+03  0.18250000000E+03  0.00000000000E+00 0. -1.
        -11    1    1    2    0    0 -0.37100158391E+00  0.49530155406E+01  0.18188802616E+03  0.18195582999E+03  0.00000000000E+00 0.  1.
         11    1    1    2    0    0  0.10412834434E+01 -0.25044661786E+01 -0.11312268913E+03  0.11315520058E+03  0.00000000000E+00 0. -1.
        -15    1    1    2    0    0  0.30333054962E+01 -0.59692967373E+01 -0.43769682317E+02  0.44314515285E+02  0.17770000000E+01 0.  1.
         15    1    1    2    0    0 -0.37035873557E+01  0.35207473753E+01 -0.24995654711E+02  0.25574454145E+02  0.17770000000E+01 0. -1.
</event>
<event>
 6    1  0.1059789E-002  0.9572139E+02  0.7546771E-02  0.1171431E+00
        -11   -1    0    0    0    0  0.00000000000E+00  0.00000000000E+00  0.18250000000E+03  0.18250000000E+03  0.00000000000E+00 0.  1.
         11   -1    0    0    0    0 -0.00000000000E+00 -0.00000000000E+00 -0.18250000000E+03  0.18250000000E+03  0.00000000000E+00 0.  1.
        -11    1    1    2    0    0  0.23633645962E+02  0.75856941044E+01  0.11616226604E+03  0.11878452773E+03  0.00000000000E+00 0.  1.
         11    1    1    2    0    0  0.20260690955E+02  0.59763013424E+00 -0.10203813517E+03  0.10403188832E+03  0.00000000000E+00 0.  1.
        -15    1    1    2    0    0 -0.10294215682E+02 -0.24888393525E+02  0.56261138592E+02  0.62400933114E+02  0.17770000000E+01 0. -1.
         15    1    1    2    0    0 -0.33600121235E+02  0.16705069286E+02 -0.70385269468E+02  0.79782650833E+02  0.17770000000E+01 0.  1.
</event>
<event>
 6    1  0.1059789E-002  0.1830273E+03  0.7546771E-02  0.1068036E+00
        -11   -1    0    0    0    0  0.00000000000E+00  0.00000000000E+00  0.18250000000E+03  0.18250000000E+03  0.00000000000E+00 0.  1.
         11   -1    0    0    0    0 -0.00000000000E+00 -0.00000000000E+00 -0.18250000000E+03  0.18250000000E+03  0.00000000000E+00 0.  1.
        -11    1    1    2    0    0 -0.28657288014E+01  0.23277815197E+01  0.17425869790E+03  0.17429780481E+03  0.00000000000E+00 0.  1.
         11    1    1    2    0    0  0.23408495936E+01 -0.21105684991E+01 -0.18194540035E+03  0.18197269791E+03  0.00000000000E+00 0.  1.
        -15    1    1    2    0    0 -0.51744057782E+00  0.52763203773E+00  0.31460430556E+01  0.36880152150E+01  0.17770000000E+01 0. -1.
         15    1    1    2    0    0  0.10423197857E+01 -0.74484505837E+00  0.45406593955E+01  0.50414820680E+01  0.17770000000E+01 0. -1.
</event>
<event>
 6    1  0.1059789E-002  0.1838846E+03  0.7546771E-02  0.1067358E+00
        -11   -1    0    0    0    0  0.00000000000E+00  0.00000000000E+00  0.18250000000E+03  0.18250000000E+03  0.00000000000E+00 0. -1.
         11   -1    0    0    0    0 -0.00000000000E+00 -0.00000000000E+00 -0.18250000000E+03  0.18250000000E+03  0.00000000000E+00 0. -1.
        -11    1    1    2    0    0 -0.57591595104E+00  0.50486039338E+01  0.18104408532E+03  0.18111538010E+03  0.00000000000E+00 0. -1.
         11    1    1    2    0    0  0.16132735419E+01  0.27207470940E+01 -0.15108584091E+03  0.15111894798E+03  0.00000000000E+00 0. -1.
        -15    1    1    2    0    0 -0.21041302765E+01 -0.15845842216E+01 -0.23037081197E+02  0.23255173842E+02  0.17770000000E+01 0. -1.
         15    1    1    2    0    0  0.10667726857E+01 -0.61847668062E+01 -0.69211632151E+01  0.95104980764E+01  0.17770000000E+01 0. -1.
</event>
<event>
 6    1  0.1059789E-002  0.1892953E+03  0.7546771E-02  0.1063171E+00
        -11   -1    0    0    0    0  0.00000000000E+00  0.00000000000E+00  0.18250000000E+03  0.18250000000E+03  0.00000000000E+00 0.  1.
         11   -1    0    0    0    0 -0.00000000000E+00 -0.00000000000E+00 -0.18250000000E+03  0.18250000000E+03  0.00000000000E+00 0.  1.
        -11    1    1    2    0    0  0.37091763229E+01 -0.31822396818E+01  0.17563671875E+03  0.17570470003E+03  0.00000000000E+00 0.  1.
         11    1    1    2    0    0 -0.33060063933E+01 -0.15976611499E-01 -0.16479730535E+03  0.16483046376E+03  0.00000000000E+00 0.  1.
        -15    1    1    2    0    0 -0.16053055209E+01  0.53299475057E+01  0.53939014155E+01  0.79521850903E+01  0.17770000000E+01 0. -1.
         15    1    1    2    0    0  0.12021355913E+01 -0.21317312124E+01 -0.16233314822E+02  0.16512651121E+02  0.17770000000E+01 0.  1.
</event>
<event>
 6    1  0.1059789E-002  0.1857522E+03  0.7546771E-02  0.1065895E+00
        -11   -1    0    0    0    0  0.00000000000E+00  0.00000000000E+00  0.18250000000E+03  0.18250000000E+03  0.00000000000E+00 0. -1.
         11   -1    0    0    0    0 -0.00000000000E+00 -0.00000000000E+00 -0.18250000000E+03  0.18250000000E+03  0.00000000000E+00 0.  1.
        -11    1    1    2    0    0 -0.31934392490E+01 -0.75968680566E+01  0.16461935413E+03  0.16482549018E+03  0.00000000000E+00 0. -1.
         11    1    1    2    0    0 -0.34694525486E+01  0.17706536011E+01 -0.17920547370E+03  0.17924780088E+03  0.00000000000E+00 0.  1.
        -15    1    1    2    0    0  0.20341493350E+01 -0.11029030409E+01 -0.10657102002E+01  0.31060627594E+01  0.17770000000E+01 0.  1.
         15    1    1    2    0    0  0.46287424626E+01  0.69291174964E+01  0.15651829773E+02  0.17820646181E+02  0.17770000000E+01 0. -1.
</event>
<event>
 6    1  0.1059789E-002  0.1834854E+03  0.7546771E-02  0.1067673E+00
        -11   -1    0    0    0    0  0.00000000000E+00  0.00000000000E+00  0.18250000000E+03  0.18250000000E+03  0.00000000000E+00 0.  1.
         11   -1    0    0    0    0 -0.00000000000E+00 -0.00000000000E+00 -0.18250000000E+03  0.18250000000E+03  0.00000000000E+00 0. -1.
        -11    1    1    2    0    0 -0.12027020423E+01 -0.24071821953E+01  0.18149463820E+03  0.18151458540E+03  0.00000000000E+00 0.  1.
         11    1    1    2    0    0  0.17004695268E+01  0.19114246000E+01 -0.14850062349E+03  0.14852265928E+03  0.00000000000E+00 0. -1.
        -15    1    1    2    0    0  0.51185282915E+01  0.10664911077E+01 -0.13363881164E+02  0.14459868046E+02  0.17770000000E+01 0.  1.
         15    1    1    2    0    0 -0.56162957760E+01 -0.57073351245E+00 -0.19630133541E+02  0.20502887280E+02  0.17770000000E+01 0. -1.
</event>
<event>
 6    1  0.1059789E-002  0.1845495E+03  0.7546771E-02  0.1066835E+00
        -11   -1    0    0    0    0  0.00000000000E+00  0.00000000000E+00  0.18250000000E+03  0.18250000000E+03  0.00000000000E+00 0. -1.
         11   -1    0    0    0    0 -0.00000000000E+00 -0.00000000000E+00 -0.18250000000E+03  0.18250000000E+03  0.00000000000E+00 0. -1.
        -11    1    1    2    0    0 -0.11999191645E+01 -0.31223135202E+01  0.18041952081E+03  0.18045052546E+03  0.00000000000E+00 0. -1.
         11    1    1    2    0    0  0.22115000288E+01  0.10335654461E+01 -0.11203166818E+03  0.11205826014E+03  0.00000000000E+00 0. -1.
        -15    1    1    2    0    0 -0.62856778281E+01 -0.98337403904E+00 -0.64909569078E+02  0.65244820922E+02  0.17770000000E+01 0. -1.
         15    1    1    2    0    0  0.52740969638E+01  0.30721221131E+01 -0.34782835543E+01  0.72463934855E+01  0.17770000000E+01 0.  1.
</event>
<event>
 6    1  0.1059789E-002  0.1863415E+03  0.7546771E-02  0.1065437E+00
        -11   -1    0    0    0    0  0.00000000000E+00  0.00000000000E+00  0.18250000000E+03  0.18250000000E+03  0.00000000000E+00 0.  1.
         11   -1    0    0    0    0 -0.00000000000E+00 -0.00000000000E+00 -0.18250000000E+03  0.18250000000E+03  0.00000000000E+00 0.  1.
        -11    1    1    2    0    0 -0.22278071734E+01 -0.15207152272E+01  0.12221288309E+03  0.12224264596E+03  0.00000000000E+00 0.  1.
         11    1    1    2    0    0 -0.28440612955E+01 -0.59348327709E+01 -0.17853720271E+03  0.17865845537E+03  0.00000000000E+00 0.  1.
        -15    1    1    2    0    0 -0.10308016071E+02 -0.41176319699E+01  0.19426115990E+02  0.22444193008E+02  0.17770000000E+01 0. -1.
         15    1    1    2    0    0  0.15379884540E+02  0.11573179968E+02  0.36898203633E+02  0.41654705657E+02  0.17770000000E+01 0.  1.
</event>
<event>
 6    1  0.1059789E-002  0.1831198E+03  0.7546771E-02  0.1067963E+00
        -11   -1    0    0    0    0  0.00000000000E+00  0.00000000000E+00  0.18250000000E+03  0.18250000000E+03  0.00000000000E+00 0. -1.
         11   -1    0    0    0    0 -0.00000000000E+00 -0.00000000000E+00 -0.18250000000E+03  0.18250000000E+03  0.00000000000E+00 0. -1.
        -11    1    1    2    0    0  0.78052337591E+00  0.26960207191E+01  0.14959246271E+03  0.14961879108E+03  0.00000000000E+00 0. -1.
         11    1    1    2    0    0  0.80645109585E+00 -0.28298829877E+01 -0.18185644446E+03  0.18188024904E+03  0.00000000000E+00 0. -1.
        -15    1    1    2    0    0 -0.21042906532E+01  0.18903689449E+01  0.44202896702E+01  0.55405977718E+01  0.17770000000E+01 0.  1.
         15    1    1    2    0    0  0.51731618140E+00 -0.17565066762E+01  0.27843692077E+02  0.27960362108E+02  0.17770000000E+01 0.  1.
</event>
<event>
 6    1  0.1059789E-002  0.1753752E+03  0.7546771E-02  0.1074272E+00
        -11   -1    0    0    0    0  0.00000000000E+00  0.00000000000E+00  0.18250000000E+03  0.18250000000E+03  0.00000000000E+00 0.  1.
         11   -1    0    0    0    0 -0.00000000000E+00 -0.00000000000E+00 -0.18250000000E+03  0.18250000000E+03  0.00000000000E+00 0. -1.
        -11    1    1    2    0    0  0.20694209220E+01  0.40058059720E+01  0.17640560353E+03  0.17646321413E+03  0.00000000000E+00 0.  1.
         11    1    1    2    0    0  0.64628888176E+01 -0.86433050269E+00 -0.17428937083E+03  0.17441129775E+03  0.00000000000E+00 0. -1.
        -15    1    1    2    0    0 -0.25755554235E+01 -0.80814643600E+00  0.39695283043E+01  0.51187371841E+01  0.17770000000E+01 0.  1.
         15    1    1    2    0    0 -0.59567543161E+01 -0.23333290333E+01 -0.60857610048E+01  0.90067509329E+01  0.17770000000E+01 0.  1.
</event>
<event>
 6    1  0.1059789E-002  0.1831085E+03  0.7546771E-02  0.1067971E+00
        -11   -1    0    0    0    0  0.00000000000E+00  0.00000000000E+00  0.18250000000E+03  0.18250000000E+03  0.00000000000E+00 0.  1.
         11   -1    0    0    0    0 -0.00000000000E+00 -0.00000000000E+00 -0.18250000000E+03  0.18250000000E+03  0.00000000000E+00 0. -1.
        -11    1    1    2    0    0  0.22964977875E+01 -0.17158505593E+01  0.18186890086E+03  0.18189149278E+03  0.00000000000E+00 0.  1.
         11    1    1    2    0    0 -0.26548644917E+01  0.20486700558E+01 -0.13740055621E+03  0.13744147191E+03  0.00000000000E+00 0. -1.
        -15    1    1    2    0    0  0.24166077323E+01  0.65134394167E+00 -0.41154564994E+02  0.41268876781E+02  0.17770000000E+01 0.  1.
         15    1    1    2    0    0 -0.20582410282E+01 -0.98416343815E+00 -0.33137796625E+01  0.43981585300E+01  0.17770000000E+01 0. -1.
</event>
<event>
 6    1  0.1059789E-002  0.1861893E+03  0.7546771E-02  0.1065555E+00
        -11   -1    0    0    0    0  0.00000000000E+00  0.00000000000E+00  0.18250000000E+03  0.18250000000E+03  0.00000000000E+00 0. -1.
         11   -1    0    0    0    0 -0.00000000000E+00 -0.00000000000E+00 -0.18250000000E+03  0.18250000000E+03  0.00000000000E+00 0.  1.
        -11    1    1    2    0    0  0.22722882508E+00  0.49982121501E+01  0.17482347198E+03  0.17489505457E+03  0.00000000000E+00 0. -1.
         11    1    1    2    0    0  0.20082568776E+01 -0.19926252679E+01 -0.17878830245E+03  0.17881068409E+03  0.00000000000E+00 0.  1.
        -15    1    1    2    0    0 -0.24221182499E+01 -0.48674426473E+01  0.57858784730E+01  0.81358941392E+01  0.17770000000E+01 0.  1.
         15    1    1    2    0    0  0.18663254721E+00  0.18618557650E+01 -0.18210480001E+01  0.31583672073E+01  0.17770000000E+01 0. -1.
</event>
<event>
 6    1  0.1059789E-002  0.1920598E+03  0.7546771E-02  0.1061090E+00
        -11   -1    0    0    0    0  0.00000000000E+00  0.00000000000E+00  0.18250000000E+03  0.18250000000E+03  0.00000000000E+00 0. -1.
         11   -1    0    0    0    0 -0.00000000000E+00 -0.00000000000E+00 -0.18250000000E+03  0.18250000000E+03  0.00000000000E+00 0. -1.
        -11    1    1    2    0    0 -0.62493599120E+01 -0.34393652223E+01  0.17279297490E+03  0.17294015123E+03  0.00000000000E+00 0. -1.
         11    1    1    2    0    0  0.31384214501E+01  0.82978031787E+01 -0.15382815545E+03  0.15408375851E+03  0.00000000000E+00 0. -1.
        -15    1    1    2    0    0  0.32801443863E+01  0.54777308267E+01  0.72007444719E+01  0.97863850401E+01  0.17770000000E+01 0. -1.
         15    1    1    2    0    0 -0.16920592441E+00 -0.10336168783E+02 -0.26165563923E+02  0.28189705216E+02  0.17770000000E+01 0. -1.
</event>
<event>
 6    1  0.1059789E-002  0.1835626E+03  0.7546771E-02  0.1067612E+00
        -11   -1    0    0    0    0  0.00000000000E+00  0.00000000000E+00  0.18250000000E+03  0.18250000000E+03  0.00000000000E+00 0.  1.
         11   -1    0    0    0    0 -0.00000000000E+00 -0.00000000000E+00 -0.18250000000E+03  0.18250000000E+03  0.00000000000E+00 0.  1.
        -11    1    1    2    0    0  0.58847765019E+01 -0.18977172101E+01  0.18133198507E+03  0.18143737414E+03  0.00000000000E+00 0.  1.
         11    1    1    2    0    0 -0.29664144040E+00 -0.10890795476E+01 -0.46840882850E+02  0.46854481072E+02  0.00000000000E+00 0.  1.
        -15    1    1    2    0    0 -0.87840882396E+01  0.55373638213E+01 -0.25034148966E+02  0.27160429816E+02  0.17770000000E+01 0. -1.
         15    1    1    2    0    0  0.31959531781E+01 -0.25505670636E+01 -0.10945695326E+03  0.10954771497E+03  0.17770000000E+01 0.  1.
</event>
<event>
 6    1  0.1059789E-002  0.1953268E+03  0.7546771E-02  0.1058680E+00
        -11   -1    0    0    0    0  0.00000000000E+00  0.00000000000E+00  0.18250000000E+03  0.18250000000E+03  0.00000000000E+00 0.  1.
         11   -1    0    0    0    0 -0.00000000000E+00 -0.00000000000E+00 -0.18250000000E+03  0.18250000000E+03  0.00000000000E+00 0.  1.
        -11    1    1    2    0    0  0.13632881183E+02 -0.14644839172E+02  0.16848935307E+03  0.16967318251E+03  0.00000000000E+00 0.  1.
         11    1    1    2    0    0 -0.13762144432E+02  0.53700664357E+01 -0.15490468010E+03  0.15560750030E+03  0.00000000000E+00 0.  1.
        -15    1    1    2    0    0  0.12712357557E+02 -0.63532590805E+01 -0.13344023420E+02  0.19575204357E+02  0.17770000000E+01 0. -1.
         15    1    1    2    0    0 -0.12583094308E+02  0.15628031817E+02 -0.24064955468E+00  0.20144112838E+02  0.17770000000E+01 0.  1.
</event>
<event>
 6    1  0.1059789E-002  0.1829057E+03  0.7546771E-02  0.1068132E+00
        -11   -1    0    0    0    0  0.00000000000E+00  0.00000000000E+00  0.18250000000E+03  0.18250000000E+03  0.00000000000E+00 0.  1.
         11   -1    0    0    0    0 -0.00000000000E+00 -0.00000000000E+00 -0.18250000000E+03  0.18250000000E+03  0.00000000000E+00 0.  1.
        -11    1    1    2    0    0 -0.45986360683E+00 -0.10806455715E+01  0.24667088115E+02  0.24695029975E+02  0.00000000000E+00 0.  1.
         11    1    1    2    0    0 -0.23410596138E+01  0.78393414194E+00 -0.18207757839E+03  0.18209431530E+03  0.00000000000E+00 0.  1.
        -15    1    1    2    0    0  0.69112295370E+01  0.28782263696E+01  0.42970084445E+02  0.43653581377E+02  0.17770000000E+01 0. -1.
         15    1    1    2    0    0 -0.41103063164E+01 -0.25815149400E+01  0.11444040583E+03  0.11455707334E+03  0.17770000000E+01 0.  1.
</event>
<event>
 6    1  0.1059789E-002  0.1834386E+03  0.7546771E-02  0.1067710E+00
        -11   -1    0    0    0    0  0.00000000000E+00  0.00000000000E+00  0.18250000000E+03  0.18250000000E+03  0.00000000000E+00 0. -1.
         11   -1    0    0    0    0 -0.00000000000E+00 -0.00000000000E+00 -0.18250000000E+03  0.18250000000E+03  0.00000000000E+00 0. -1.
        -11    1    1    2    0    0 -0.33364034009E+01 -0.24954015646E+01  0.13117596042E+03  0.13124210913E+03  0.00000000000E+00 0. -1.
         11    1    1    2    0    0 -0.46016820375E+00 -0.52386442766E+01 -0.18148521405E+03  0.18156138926E+03  0.00000000000E+00 0. -1.
        -15    1    1    2    0    0 -0.52971667199E+00  0.72020770135E+00  0.11054797291E+01  0.22757665339E+01  0.17770000000E+01 0.  1.
         15    1    1    2    0    0  0.43262882767E+01  0.70138381399E+01  0.49203773903E+02  0.49920735081E+02  0.17770000000E+01 0. -1.
</event>
<event>
 6    1  0.1059789E-002  0.1780445E+03  0.7546771E-02  0.1072058E+00
        -11   -1    0    0    0    0  0.00000000000E+00  0.00000000000E+00  0.18250000000E+03  0.18250000000E+03  0.00000000000E+00 0. -1.
         11   -1    0    0    0    0 -0.00000000000E+00 -0.00000000000E+00 -0.18250000000E+03  0.18250000000E+03  0.00000000000E+00 0. -1.
        -11    1    1    2    0    0  0.36682368830E+01  0.11107053889E+00  0.17949451599E+03  0.17953202937E+03  0.00000000000E+00 0. -1.
         11    1    1    2    0    0  0.17681087400E+00  0.32988548197E+01 -0.17657517640E+03  0.17660607754E+03  0.00000000000E+00 0. -1.
        -15    1    1    2    0    0 -0.14516182708E+01 -0.12865537212E+01  0.15748370228E+01  0.30659838111E+01  0.17770000000E+01 0. -1.
         15    1    1    2    0    0 -0.23934294862E+01 -0.21233716373E+01 -0.44941766193E+01  0.57959092730E+01  0.17770000000E+01 0.  1.
</event>
<event>
 6    1  0.1059789E-002  0.1826730E+03  0.7546771E-02  0.1068317E+00
        -11   -1    0    0    0    0  0.00000000000E+00  0.00000000000E+00  0.18250000000E+03  0.18250000000E+03  0.00000000000E+00 0.  1.
         11   -1    0    0    0    0 -0.00000000000E+00 -0.00000000000E+00 -0.18250000000E+03  0.18250000000E+03  0.00000000000E+00 0. -1.
        -11    1    1    2    0    0 -0.28418333601E+01  0.18136123865E+01  0.18229583515E+03  0.18232700491E+03  0.00000000000E+00 0.  1.
         11    1    1    2    0    0  0.16267232265E-02  0.21048359155E+01 -0.10292613086E+03  0.10294765054E+03  0.00000000000E+00 0. -1.
        -15    1    1    2    0    0  0.12563343483E+01 -0.19979022657E+01 -0.15296067743E+02  0.15578748565E+02  0.17770000000E+01 0.  1.
         15    1    1    2    0    0  0.15838722886E+01 -0.19205460363E+01 -0.64073636541E+02  0.64146595989E+02  0.17770000000E+01 0. -1.
</event>
<event>
 6    1  0.1059789E-002  0.1828735E+03  0.7546771E-02  0.1068158E+00
        -11   -1    0    0    0    0  0.00000000000E+00  0.00000000000E+00  0.18250000000E+03  0.18250000000E+03  0.00000000000E+00 0. -1.
         11   -1    0    0    0    0 -0.00000000000E+00 -0.00000000000E+00 -0.18250000000E+03  0.18250000000E+03  0.00000000000E+00 0. -1.
        -11    1    1    2    0    0  0.49231982901E+01 -0.23932261384E+01  0.18204420550E+03  0.18212648948E+03  0.00000000000E+00 0. -1.
         11    1    1    2    0    0 -0.13074395712E+01 -0.82709021229E+00 -0.64429989811E+02  0.64448561377E+02  0.00000000000E+00 0. -1.
        -15    1    1    2    0    0  0.75760848076E+00 -0.28003013153E+01 -0.10489264882E+02  0.11027151256E+02  0.17770000000E+01 0. -1.
         15    1    1    2    0    0 -0.43733671997E+01  0.60206176660E+01 -0.10712495081E+03  0.10739779789E+03  0.17770000000E+01 0.  1.
</event>
<event>
 6    1  0.1059789E-002  0.1785876E+03  0.7546771E-02  0.1071612E+00
        -11   -1    0    0    0    0  0.00000000000E+00  0.00000000000E+00  0.18250000000E+03  0.18250000000E+03  0.00000000000E+00 0. -1.
         11   -1    0    0    0    0 -0.00000000000E+00 -0.00000000000E+00 -0.18250000000E+03  0.18250000000E+03  0.00000000000E+00 0. -1.
        -11    1    1    2    0    0  0.18810351002E+01  0.34334358372E+01  0.17901189333E+03  0.17905469759E+03  0.00000000000E+00 0. -1.
         11    1    1    2    0    0 -0.51778177185E+01 -0.22873309240E+01 -0.17804885409E+03  0.17813881139E+03  0.00000000000E+00 0. -1.
        -15    1    1    2    0    0  0.79776339545E+00 -0.27406898410E+01 -0.23289146415E+01  0.40901564331E+01  0.17770000000E+01 0. -1.
         15    1    1    2    0    0  0.24990192228E+01  0.15945849278E+01  0.13658754025E+01  0.37163345898E+01  0.17770000000E+01 0.  1.
</event>
<event>
 6    1  0.1059789E-002  0.1496866E+03  0.7546771E-02  0.1098063E+00
        -11   -1    0    0    0    0  0.00000000000E+00  0.00000000000E+00  0.18250000000E+03  0.18250000000E+03  0.00000000000E+00 0. -1.
         11   -1    0    0    0    0 -0.00000000000E+00 -0.00000000000E+00 -0.18250000000E+03  0.18250000000E+03  0.00000000000E+00 0. -1.
        -11    1    1    2    0    0 -0.28591929241E+01 -0.69096020373E+00  0.14747159855E+03  0.14750093149E+03  0.00000000000E+00 0. -1.
         11    1    1    2    0    0 -0.19385280165E+02  0.14024378773E+01 -0.15148340439E+03  0.15272517056E+03  0.00000000000E+00 0. -1.
        -15    1    1    2    0    0  0.36849594296E+01 -0.60511214688E+01  0.30826920258E+02  0.31680463043E+02  0.17770000000E+01 0.  1.
         15    1    1    2    0    0  0.18559513660E+02  0.53396437952E+01 -0.26815114425E+02  0.33093434904E+02  0.17770000000E+01 0. -1.
</event>
<event>
 6    1  0.1059789E-002  0.1831158E+03  0.7546771E-02  0.1067966E+00
        -11   -1    0    0    0    0  0.00000000000E+00  0.00000000000E+00  0.18250000000E+03  0.18250000000E+03  0.00000000000E+00 0. -1.
         11   -1    0    0    0    0 -0.00000000000E+00 -0.00000000000E+00 -0.18250000000E+03  0.18250000000E+03  0.00000000000E+00 0. -1.
        -11    1    1    2    0    0  0.12840116320E+01  0.32508122172E+00  0.56743812364E+02  0.56759268893E+02  0.00000000000E+00 0. -1.
         11    1    1    2    0    0 -0.23227956255E+01  0.91311696553E+00 -0.18186709570E+03  0.18188422048E+03  0.00000000000E+00 0. -1.
        -15    1    1    2    0    0 -0.46786386202E+01 -0.18739593422E+01  0.12784521457E+02  0.13856518352E+02  0.17770000000E+01 0. -1.
         15    1    1    2    0    0  0.57174226138E+01  0.63576115491E+00  0.11233876188E+03  0.11249999228E+03  0.17770000000E+01 0. -1.
</event>
<event>
 6    1  0.1059789E-002  0.1852194E+03  0.7546771E-02  0.1066311E+00
        -11   -1    0    0    0    0  0.00000000000E+00  0.00000000000E+00  0.18250000000E+03  0.18250000000E+03  0.00000000000E+00 0. -1.
         11   -1    0    0    0    0 -0.00000000000E+00 -0.00000000000E+00 -0.18250000000E+03  0.18250000000E+03  0.00000000000E+00 0.  1.
        -11    1    1    2    0    0  0.40786766103E+01 -0.29194895125E+01  0.11840989709E+03  0.11851608646E+03  0.00000000000E+00 0. -1.
         11    1    1    2    0    0  0.19950737330E+00 -0.93479643185E+01 -0.17953731318E+03  0.17978061927E+03  0.00000000000E+00 0.  1.
        -15    1    1    2    0    0 -0.58855746422E+01  0.27885883514E+01  0.54442313829E+02  0.54859269754E+02  0.17770000000E+01 0. -1.
         15    1    1    2    0    0  0.16073906586E+01  0.94788654797E+01  0.66851022611E+01  0.11844024517E+02  0.17770000000E+01 0. -1.
</event>
<event>
 6    1  0.1059789E-002  0.1835807E+03  0.7546771E-02  0.1067598E+00
        -11   -1    0    0    0    0  0.00000000000E+00  0.00000000000E+00  0.18250000000E+03  0.18250000000E+03  0.00000000000E+00 0.  1.
         11   -1    0    0    0    0 -0.00000000000E+00 -0.00000000000E+00 -0.18250000000E+03  0.18250000000E+03  0.00000000000E+00 0. -1.
        -11    1    1    2    0    0 -0.51146451049E+01  0.22939754078E+01  0.65760178832E+02  0.65998659363E+02  0.00000000000E+00 0.  1.
         11    1    1    2    0    0  0.11890273680E+00 -0.48791217054E+01 -0.18135361029E+03  0.18141927112E+03  0.00000000000E+00 0. -1.
        -15    1    1    2    0    0 -0.62444428973E+01  0.27031155384E+01  0.17963024980E+02  0.19290616790E+02  0.17770000000E+01 0. -1.
         15    1    1    2    0    0  0.11240185265E+02 -0.11796924075E+00  0.97630406480E+02  0.98291452731E+02  0.17770000000E+01 0.  1.
</event>
<event>
 6    1  0.1059789E-002  0.1839350E+03  0.7546771E-02  0.1067318E+00
        -11   -1    0    0    0    0  0.00000000000E+00  0.00000000000E+00  0.18250000000E+03  0.18250000000E+03  0.00000000000E+00 0. -1.
         11   -1    0    0    0    0 -0.00000000000E+00 -0.00000000000E+00 -0.18250000000E+03  0.18250000000E+03  0.00000000000E+00 0. -1.
        -11    1    1    2    0    0  0.33784207966E+01  0.12815490214E+01  0.15706942751E+03  0.15711098356E+03  0.00000000000E+00 0. -1.
         11    1    1    2    0    0  0.25302002055E+01  0.11762147242E+01 -0.18104348949E+03  0.18106498967E+03  0.00000000000E+00 0. -1.
        -15    1    1    2    0    0 -0.71832350518E+01 -0.27060107388E+01  0.10269140387E+02  0.12943505445E+02  0.17770000000E+01 0.  1.
         15    1    1    2    0    0  0.12746140497E+01  0.24824699326E+00  0.13704921596E+02  0.13880521334E+02  0.17770000000E+01 0.  1.
</event>
<event>
 6    1  0.1059789E-002  0.1865212E+03  0.7546771E-02  0.1065298E+00
        -11   -1    0    0    0    0  0.00000000000E+00  0.00000000000E+00  0.18250000000E+03  0.18250000000E+03  0.00000000000E+00 0. -1.
         11   -1    0    0    0    0 -0.00000000000E+00 -0.00000000000E+00 -0.18250000000E+03  0.18250000000E+03  0.00000000000E+00 0. -1.
        -11    1    1    2    0    0  0.55361950539E+01 -0.43521163694E+01  0.17833984820E+03  0.17847882740E+03  0.00000000000E+00 0. -1.
         11    1    1    2    0    0 -0.15502376149E+01 -0.33937186868E+01 -0.16754098616E+03  0.16758252477E+03  0.00000000000E+00 0. -1.
        -15    1    1    2    0    0 -0.70336280870E+01  0.78020127540E+01 -0.41921638436E+01  0.11448811893E+02  0.17770000000E+01 0.  1.
         15    1    1    2    0    0  0.30476706480E+01 -0.56177697753E-01 -0.66066981984E+01  0.74898359393E+01  0.17770000000E+01 0. -1.
</event>
<event>
 6    1  0.1059789E-002  0.1844189E+03  0.7546771E-02  0.1066938E+00
        -11   -1    0    0    0    0  0.00000000000E+00  0.00000000000E+00  0.18250000000E+03  0.18250000000E+03  0.00000000000E+00 0. -1.
         11   -1    0    0    0    0 -0.00000000000E+00 -0.00000000000E+00 -0.18250000000E+03  0.18250000000E+03  0.00000000000E+00 0. -1.
        -11    1    1    2    0    0 -0.36044115088E+01  0.15480177090E+01  0.17262401096E+03  0.17266857647E+03  0.00000000000E+00 0. -1.
         11    1    1    2    0    0 -0.30662537882E+01  0.25296197378E+00 -0.18055487454E+03  0.18058108600E+03  0.00000000000E+00 0. -1.
        -15    1    1    2    0    0  0.61038660096E+01 -0.59755822314E+00  0.64867429263E+01  0.91021875878E+01  0.17770000000E+01 0. -1.
         15    1    1    2    0    0  0.56679928746E+00 -0.12034214597E+01  0.14441206546E+01  0.26481499404E+01  0.17770000000E+01 0.  1.
</event>
<event>
 6    1  0.1059789E-002  0.1854011E+03  0.7546771E-02  0.1066169E+00
        -11   -1    0    0    0    0  0.00000000000E+00  0.00000000000E+00  0.18250000000E+03  0.18250000000E+03  0.00000000000E+00 0. -1.
         11   -1    0    0    0    0 -0.00000000000E+00 -0.00000000000E+00 -0.18250000000E+03  0.18250000000E+03  0.00000000000E+00 0.  1.
        -11    1    1    2    0    0  0.36320279899E+01 -0.12399853171E+01  0.16542648215E+03  0.16547099501E+03  0.00000000000E+00 0. -1.
         11    1    1    2    0    0  0.49008401414E+01 -0.64451652266E+01 -0.17941624795E+03  0.17959885417E+03  0.00000000000E+00 0.  1.
        -15    1    1    2    0    0 -0.80145610922E+01  0.40801282287E+01  0.12728224276E+02  0.15685855350E+02  0.17770000000E+01 0. -1.
         15    1    1    2    0    0 -0.51830703914E+00  0.36050223149E+01  0.12615415202E+01  0.42442954757E+01  0.17770000000E+01 0.  1.
</event>
<event>
 6    1  0.1059789E-002  0.1874277E+03  0.7546771E-02  0.1064599E+00
        -11   -1    0    0    0    0  0.00000000000E+00  0.00000000000E+00  0.18250000000E+03  0.18250000000E+03  0.00000000000E+00 0.  1.
         11   -1    0    0    0    0 -0.00000000000E+00 -0.00000000000E+00 -0.18250000000E+03  0.18250000000E+03  0.00000000000E+00 0. -1.
        -11    1    1    2    0    0  0.32751574280E+01  0.22575206926E+01  0.17243064349E+03  0.17247651976E+03  0.00000000000E+00 0.  1.
         11    1    1    2    0    0 -0.47034223413E+01 -0.23731976641E+01 -0.17749412590E+03  0.17757229225E+03  0.00000000000E+00 0. -1.
        -15    1    1    2    0    0  0.20516969312E+01  0.66351899366E+01  0.35442267307E+01  0.79971543633E+01  0.17770000000E+01 0. -1.
         15    1    1    2    0    0 -0.62343201796E+00 -0.65195129651E+01  0.15192556788E+01  0.69540336209E+01  0.17770000000E+01 0.  1.
</event>
<event>
 6    1  0.1059789E-002  0.1910524E+03  0.7546771E-02  0.1061844E+00
        -11   -1    0    0    0    0  0.00000000000E+00  0.00000000000E+00  0.18250000000E+03  0.18250000000E+03  0.00000000000E+00 0. -1.
         11   -1    0    0    0    0 -0.00000000000E+00 -0.00000000000E+00 -0.18250000000E+03  0.18250000000E+03  0.00000000000E+00 0. -1.
        -11    1    1    2    0    0  0.95286978507E+01 -0.89440106262E+01  0.13150349267E+03  0.13215127693E+03  0.00000000000E+00 0. -1.
         11    1    1    2    0    0 -0.12159583884E+01  0.68183479146E+01 -0.17380964129E+03  0.17394757781E+03  0.00000000000E+00 0. -1.
        -15    1    1    2    0    0 -0.12398492970E+02  0.82927695556E+01  0.47414465123E+02  0.49737127850E+02  0.17770000000E+01 0. -1.
         15    1    1    2    0    0  0.40857535076E+01 -0.61671068440E+01 -0.51083165059E+01  0.91640174092E+01  0.17770000000E+01 0.  1.
</event>
<event>
 6    1  0.1059789E-002  0.1862934E+03  0.7546771E-02  0.1065475E+00
        -11   -1    0    0    0    0  0.00000000000E+00  0.00000000000E+00  0.18250000000E+03  0.18250000000E+03  0.00000000000E+00 0.  1.
         11   -1    0    0    0    0 -0.00000000000E+00 -0.00000000000E+00 -0.18250000000E+03  0.18250000000E+03  0.00000000000E+00 0. -1.
        -11    1    1    2    0    0  0.22323720057E+01  0.10252121181E+02  0.17839828523E+03  0.17870656856E+03  0.00000000000E+00 0.  1.
         11    1    1    2    0    0  0.21125885674E+01 -0.13069402104E+02 -0.16429083872E+03  0.16482339636E+03  0.00000000000E+00 0. -1.
        -15    1    1    2    0    0 -0.30783693319E+01 -0.50194692355E+01 -0.12827426096E+01  0.62828804503E+01  0.17770000000E+01 0.  1.
         15    1    1    2    0    0 -0.12665912412E+01  0.78367501594E+01 -0.12824703903E+02  0.15187154626E+02  0.17770000000E+01 0. -1.
</event>
<event>
 6    1  0.1059789E-002  0.2013730E+03  0.7546771E-02  0.1054352E+00
        -11   -1    0    0    0    0  0.00000000000E+00  0.00000000000E+00  0.18250000000E+03  0.18250000000E+03  0.00000000000E+00 0.  1.
         11   -1    0    0    0    0 -0.00000000000E+00 -0.00000000000E+00 -0.18250000000E+03  0.18250000000E+03  0.00000000000E+00 0. -1.
        -11    1    1    2    0    0 -0.10168769389E+01  0.19091837130E+01  0.15403741116E+03  0.15405259835E+03  0.00000000000E+00 0.  1.
         11    1    1    2    0    0 -0.15953881856E+01  0.53318189733E+01 -0.16353231833E+03  0.16362699256E+03  0.00000000000E+00 0. -1.
        -15    1    1    2    0    0  0.82281036049E+01 -0.39746274759E-01 -0.17146446757E+02  0.19101351630E+02  0.17770000000E+01 0.  1.
         15    1    1    2    0    0 -0.56158384804E+01 -0.72012564115E+01  0.26641353925E+02  0.28219057455E+02  0.17770000000E+01 0. -1.
</event>
<event>
 6    1  0.1059789E-002  0.1404583E+03  0.7546771E-02  0.1107927E+00
        -11   -1    0    0    0    0  0.00000000000E+00  0.00000000000E+00  0.18250000000E+03  0.18250000000E+03  0.00000000000E+00 0. -1.
         11   -1    0    0    0    0 -0.00000000000E+00 -0.00000000000E+00 -0.18250000000E+03  0.18250000000E+03  0.00000000000E+00 0. -1.
        -11    1    1    2    0    0  0.10821707813E+02 -0.30310595152E+02  0.12432954500E+03  0.12842771235E+03  0.00000000000E+00 0. -1.
         11    1    1    2    0    0 -0.11017674529E+01  0.15622454559E+01 -0.22184200102E+02  0.22266414991E+02  0.00000000000E+00 0. -1.
        -15    1    1    2    0    0 -0.69215930892E+01  0.24088946159E+02  0.53210556763E+02  0.58844769164E+02  0.17770000000E+01 0.  1.
         15    1    1    2    0    0 -0.27983472712E+01  0.46594035372E+01 -0.15535590167E+03  0.15546110350E+03  0.17770000000E+01 0. -1.
</event>
<event>
 6    1  0.1059789E-002  0.1912878E+03  0.7546771E-02  0.1061667E+00
        -11   -1    0    0    0    0  0.00000000000E+00  0.00000000000E+00  0.18250000000E+03  0.18250000000E+03  0.00000000000E+00 0.  1.
         11   -1    0    0    0    0 -0.00000000000E+00 -0.00000000000E+00 -0.18250000000E+03  0.18250000000E+03  0.00000000000E+00 0.  1.
        -11    1    1    2    0    0 -0.50127860649E+01 -0.25288197446E+01  0.17362140229E+03  0.17371215930E+03  0.00000000000E+00 0.  1.
         11    1    1    2    0    0  0.62155820093E+00  0.71757943103E+01 -0.88029379225E+02  0.88323552722E+02  0.00000000000E+00 0.  1.
        -15    1    1    2    0    0  0.34156081267E+01  0.14519047215E+02 -0.81993821817E+02  0.83358344849E+02  0.17770000000E+01 0. -1.
         15    1    1    2    0    0  0.97561973721E+00 -0.19166021781E+02 -0.35982012522E+01  0.19605943131E+02  0.17770000000E+01 0.  1.
</event>
<event>
 6    1  0.1059789E-002  0.1830384E+03  0.7546771E-02  0.1068027E+00
        -11   -1    0    0    0    0  0.00000000000E+00  0.00000000000E+00  0.18250000000E+03  0.18250000000E+03  0.00000000000E+00 0. -1.
         11   -1    0    0    0    0 -0.00000000000E+00 -0.00000000000E+00 -0.18250000000E+03  0.18250000000E+03  0.00000000000E+00 0.  1.
        -11    1    1    2    0    0 -0.19686344407E+01  0.17990628165E+01  0.11932897527E+03  0.11935877214E+03  0.00000000000E+00 0. -1.
         11    1    1    2    0    0 -0.30863420052E+01  0.14555172111E+00 -0.18193532622E+03  0.18196156083E+03  0.00000000000E+00 0.  1.
        -15    1    1    2    0    0  0.36825712789E+01 -0.21372566233E+01  0.98693437921E+01  0.10894534088E+02  0.17770000000E+01 0.  1.
         15    1    1    2    0    0  0.13724051670E+01  0.19264208576E+00  0.52737007156E+02  0.52785132942E+02  0.17770000000E+01 0. -1.
</event>
<event>
 6    1  0.1059789E-002  0.1833383E+03  0.7546771E-02  0.1067789E+00
        -11   -1    0    0    0    0  0.00000000000E+00  0.00000000000E+00  0.18250000000E+03  0.18250000000E+03  0.00000000000E+00 0. -1.
         11   -1    0    0    0    0 -0.00000000000E+00 -0.00000000000E+00 -0.18250000000E+03  0.18250000000E+03  0.00000000000E+00 0. -1.
        -11    1    1    2    0    0  0.36824046913E+00 -0.17686069913E+01  0.12663367762E+03  0.12664656284E+03  0.00000000000E+00 0. -1.
         11    1    1    2    0    0  0.52625853618E+01 -0.41507262444E+01 -0.18153800214E+03  0.18166168984E+03  0.00000000000E+00 0. -1.
        -15    1    1    2    0    0  0.31220373030E+01  0.25550525074E+01  0.21687245262E+02  0.22130742109E+02  0.17770000000E+01 0.  1.
         15    1    1    2    0    0 -0.87528631339E+01  0.33642807283E+01  0.33217079256E+02  0.34561005211E+02  0.17770000000E+01 0. -1.
</event>
<event>
 6    1  0.1059789E-002  0.1936601E+03  0.7546771E-02  0.1059903E+00
        -11   -1    0    0    0    0  0.00000000000E+00  0.00000000000E+00  0.18250000000E+03  0.18250000000E+03  0.00000000000E+00 0. -1.
         11   -1    0    0    0    0 -0.00000000000E+00 -0.00000000000E+00 -0.18250000000E+03  0.18250000000E+03  0.00000000000E+00 0. -1.
        -11    1    1    2    0    0 -0.12039049978E+01 -0.29028011461E+01  0.16408182170E+03  0.16411191259E+03  0.00000000000E+00 0. -1.
         11    1    1    2    0    0 -0.29703690171E+01 -0.47331026861E+00 -0.17131349461E+03  0.17133989772E+03  0.00000000000E+00 0. -1.
        -15    1    1    2    0    0  0.11628634823E+01 -0.13370750208E+01  0.17522668088E+02  0.17701458895E+02  0.17770000000E+01 0.  1.
         15    1    1    2    0    0  0.30114105326E+01  0.47131864356E+01 -0.10290995180E+02  0.11846730796E+02  0.17770000000E+01 0. -1.
</event>
<event>
 6    1  0.1059789E-002  0.1826726E+03  0.7546771E-02  0.1068318E+00
        -11   -1    0    0    0    0  0.00000000000E+00  0.00000000000E+00  0.18250000000E+03  0.18250000000E+03  0.00000000000E+00 0. -1.
         11   -1    0    0    0    0 -0.00000000000E+00 -0.00000000000E+00 -0.18250000000E+03  0.18250000000E+03  0.00000000000E+00 0.  1.
        -11    1    1    2    0    0 -0.22469773672E+01  0.18151614369E+00  0.67749166402E+02  0.67786660956E+02  0.00000000000E+00 0. -1.
         11    1    1    2    0    0  0.61938517316E+01  0.90377701196E+00 -0.18221993177E+03  0.18232740920E+03  0.00000000000E+00 0.  1.
        -15    1    1    2    0    0 -0.52384201376E+01  0.76638251777E+00  0.43494852821E+02  0.43851890936E+02  0.17770000000E+01 0.  1.
         15    1    1    2    0    0  0.12915457732E+01 -0.18516756734E+01  0.70975912544E+02  0.71034038909E+02  0.17770000000E+01 0. -1.
</event>
<event>
 6    1  0.1059789E-002  0.1853225E+03  0.7546771E-02  0.1066230E+00
        -11   -1    0    0    0    0  0.00000000000E+00  0.00000000000E+00  0.18250000000E+03  0.18250000000E+03  0.00000000000E+00 0.  1.
         11   -1    0    0    0    0 -0.00000000000E+00 -0.00000000000E+00 -0.18250000000E+03  0.18250000000E+03  0.00000000000E+00 0. -1.
        -11    1    1    2    0    0  0.39980699250E+01  0.18593281867E+01  0.17962335897E+03  0.17967746869E+03  0.00000000000E+00 0.  1.
         11    1    1    2    0    0 -0.56576867936E+01  0.35414369480E+01 -0.14823150037E+03  0.14838170001E+03  0.00000000000E+00 0. -1.
        -15    1    1    2    0    0 -0.45274997158E+01 -0.78495803212E+01 -0.69785660391E+01  0.11574639427E+02  0.17770000000E+01 0.  1.
         15    1    1    2    0    0  0.61871165843E+01  0.24488151864E+01 -0.24413292561E+02  0.25366191873E+02  0.17770000000E+01 0. -1.
</event>
<event>
 6    1  0.1059789E-002  0.1856356E+03  0.7546771E-02  0.1065986E+00
        -11   -1    0    0    0    0  0.00000000000E+00  0.00000000000E+00  0.18250000000E+03  0.18250000000E+03  0.00000000000E+00 0.  1.
         11   -1    0    0    0    0 -0.00000000000E+00 -0.00000000000E+00 -0.18250000000E+03  0.18250000000E+03  0.00000000000E+00 0.  1.
        -11    1    1    2    0    0  0.39354026125E+00  0.51271397137E+01  0.90819151143E+02  0.90964612075E+02  0.00000000000E+00 0.  1.
         11    1    1    2    0    0 -0.48851683351E+01 -0.10102495109E+01 -0.17929500358E+03  0.17936438828E+03  0.00000000000E+00 0.  1.
        -15    1    1    2    0    0  0.44219296229E+01  0.27170498852E+01  0.87347841301E+02  0.87519934475E+02  0.17770000000E+01 0.  1.
         15    1    1    2    0    0  0.69698450923E-01 -0.68339400880E+01  0.11280111343E+01  0.71510651738E+01  0.17770000000E+01 0. -1.
</event>
<event>
 6    1  0.1059789E-002  0.1834232E+03  0.7546771E-02  0.1067722E+00
        -11   -1    0    0    0    0  0.00000000000E+00  0.00000000000E+00  0.18250000000E+03  0.18250000000E+03  0.00000000000E+00 0. -1.
         11   -1    0    0    0    0 -0.00000000000E+00 -0.00000000000E+00 -0.18250000000E+03  0.18250000000E+03  0.00000000000E+00 0. -1.
        -11    1    1    2    0    0  0.12305743647E+01 -0.67956722367E+00  0.95126758253E+02  0.95137144484E+02  0.00000000000E+00 0. -1.
         11    1    1    2    0    0  0.97324216593E+00  0.23271019861E+01 -0.18155928909E+03  0.18157681036E+03  0.00000000000E+00 0. -1.
        -15    1    1    2    0    0  0.14826497598E+01  0.13796102159E+00  0.67821730783E+00  0.24155726589E+01  0.17770000000E+01 0. -1.
         15    1    1    2    0    0 -0.36864662904E+01 -0.17854957840E+01  0.85754313532E+02  0.85870472499E+02  0.17770000000E+01 0. -1.
</event>
<event>
 6    1  0.1059789E-002  0.1866480E+03  0.7546771E-02  0.1065200E+00
        -11   -1    0    0    0    0  0.00000000000E+00  0.00000000000E+00  0.18250000000E+03  0.18250000000E+03  0.00000000000E+00 0. -1.
         11   -1    0    0    0    0 -0.00000000000E+00 -0.00000000000E+00 -0.18250000000E+03  0.18250000000E+03  0.00000000000E+00 0.  1.
        -11    1    1    2    0    0  0.25734356856E+01 -0.28903910729E+01  0.17831004352E+03  0.17835203546E+03  0.00000000000E+00 0. -1.
         11    1    1    2    0    0  0.18208940255E+01  0.58151894055E+01 -0.10463161732E+03  0.10480890910E+03  0.00000000000E+00 0.  1.
        -15    1    1    2    0    0  0.94511515175E+01 -0.14032964733E+02 -0.27524683426E+02  0.32357600204E+02  0.17770000000E+01 0. -1.
         15    1    1    2    0    0 -0.13845481229E+02  0.11108166401E+02 -0.46153742777E+02  0.49481455239E+02  0.17770000000E+01 0.  1.
</event>
<event>
 6    1  0.1059789E-002  0.1871358E+03  0.7546771E-02  0.1064823E+00
        -11   -1    0    0    0    0  0.00000000000E+00  0.00000000000E+00  0.18250000000E+03  0.18250000000E+03  0.00000000000E+00 0.  1.
         11   -1    0    0    0    0 -0.00000000000E+00 -0.00000000000E+00 -0.18250000000E+03  0.18250000000E+03  0.00000000000E+00 0. -1.
        -11    1    1    2    0    0  0.29895747264E+01 -0.14581546465E+01  0.12466793405E+03  0.12471229912E+03  0.00000000000E+00 0.  1.
         11    1    1    2    0    0 -0.31447241717E+01 -0.93927405865E+00 -0.17783388666E+03  0.17786416944E+03  0.00000000000E+00 0. -1.
        -15    1    1    2    0    0  0.66702574219E+01  0.13771330537E+02  0.43192532990E+02  0.45857327810E+02  0.17770000000E+01 0.  1.
         15    1    1    2    0    0 -0.65151079765E+01 -0.11373901832E+02  0.99734196229E+01  0.16566203633E+02  0.17770000000E+01 0. -1.
</event>
<event>
 6    1  0.1059789E-002  0.1854661E+03  0.7546771E-02  0.1066118E+00
        -11   -1    0    0    0    0  0.00000000000E+00  0.00000000000E+00  0.18250000000E+03  0.18250000000E+03  0.00000000000E+00 0.  1.
         11   -1    0    0    0    0 -0.00000000000E+00 -0.00000000000E+00 -0.18250000000E+03  0.18250000000E+03  0.00000000000E+00 0. -1.
        -11    1    1    2    0    0  0.33766175165E+01 -0.32381036747E+00  0.17104227086E+03  0.17107590368E+03  0.00000000000E+00 0.  1.
         11    1    1    2    0    0 -0.99626249228E+00  0.25125783536E+01 -0.17951351802E+03  0.17953386516E+03  0.00000000000E+00 0. -1.
        -15    1    1    2    0    0 -0.34529744419E+00  0.36994447239E+01  0.54693399431E+00  0.41547547923E+01  0.17770000000E+01 0. -1.
         15    1    1    2    0    0 -0.20350575800E+01 -0.58882127100E+01  0.79243131689E+01  0.10235476368E+02  0.17770000000E+01 0. -1.
</event>
<event>
 6    1  0.1059789E-002  0.1827537E+03  0.7546771E-02  0.1068253E+00
        -11   -1    0    0    0    0  0.00000000000E+00  0.00000000000E+00  0.18250000000E+03  0.18250000000E+03  0.00000000000E+00 0. -1.
         11   -1    0    0    0    0 -0.00000000000E+00 -0.00000000000E+00 -0.18250000000E+03  0.18250000000E+03  0.00000000000E+00 0. -1.
        -11    1    1    2    0    0  0.20811025992E+01  0.92414095809E+00  0.72746393377E+02  0.72782022327E+02  0.00000000000E+00 0. -1.
         11    1    1    2    0    0  0.30211175454E+01  0.68739071138E+00 -0.18221999746E+03  0.18224633640E+03  0.00000000000E+00 0. -1.
        -15    1    1    2    0    0 -0.45948488698E+01 -0.35552909863E+01  0.41215753567E+02  0.41661118579E+02  0.17770000000E+01 0.  1.
         15    1    1    2    0    0 -0.50737127474E+00  0.19437593168E+01  0.68257850511E+02  0.68310522698E+02  0.17770000000E+01 0. -1.
</event>
<event>
 6    1  0.1059789E-002  0.1842771E+03  0.7546771E-02  0.1067049E+00
        -11   -1    0    0    0    0  0.00000000000E+00  0.00000000000E+00  0.18250000000E+03  0.18250000000E+03  0.00000000000E+00 0.  1.
         11   -1    0    0    0    0 -0.00000000000E+00 -0.00000000000E+00 -0.18250000000E+03  0.18250000000E+03  0.00000000000E+00 0.  1.
        -11    1    1    2    0    0  0.83575687402E-01  0.32142782048E+01  0.15649789523E+03  0.15653092277E+03  0.00000000000E+00 0.  1.
         11    1    1    2    0    0 -0.50704038869E+01  0.20486185826E+01 -0.18064018558E+03  0.18072294397E+03  0.00000000000E+00 0.  1.
        -15    1    1    2    0    0  0.65434288017E+01 -0.50137851184E+01  0.23916892788E+02  0.25360007715E+02  0.17770000000E+01 0. -1.
         15    1    1    2    0    0 -0.15566006022E+01 -0.24911166898E+00  0.22539755567E+00  0.23861255450E+01  0.17770000000E+01 0.  1.
</event>
<event>
 6    1  0.1059789E-002  0.1848103E+03  0.7546771E-02  0.1066631E+00
        -11   -1    0    0    0    0  0.00000000000E+00  0.00000000000E+00  0.18250000000E+03  0.18250000000E+03  0.00000000000E+00 0.  1.
         11   -1    0    0    0    0 -0.00000000000E+00 -0.00000000000E+00 -0.18250000000E+03  0.18250000000E+03  0.00000000000E+00 0. -1.
        -11    1    1    2    0    0 -0.92469410109E+00  0.14144558179E+01  0.97358066234E+02  0.97372731322E+02  0.00000000000E+00 0.  1.
         11    1    1    2    0    0  0.16368040721E+01  0.63110340745E+01 -0.18007170927E+03  0.18018970215E+03  0.00000000000E+00 0. -1.
        -15    1    1    2    0    0  0.72138724641E+01 -0.13497023219E+02  0.29313312163E+02  0.33115518879E+02  0.17770000000E+01 0. -1.
         15    1    1    2    0    0 -0.79259824351E+01  0.57715333261E+01  0.53400330876E+02  0.54322047653E+02  0.17770000000E+01 0. -1.
</event>
<event>
 6    1  0.1059789E-002  0.1834807E+03  0.7546771E-02  0.1067677E+00
        -11   -1    0    0    0    0  0.00000000000E+00  0.00000000000E+00  0.18250000000E+03  0.18250000000E+03  0.00000000000E+00 0. -1.
         11   -1    0    0    0    0 -0.00000000000E+00 -0.00000000000E+00 -0.18250000000E+03  0.18250000000E+03  0.00000000000E+00 0.  1.
        -11    1    1    2    0    0 -0.75676322592E+00 -0.19035646896E+01  0.10006394608E+03  0.10008491172E+03  0.00000000000E+00 0. -1.
         11    1    1    2    0    0 -0.33878315680E+01 -0.90483968626E+00 -0.18148545507E+03  0.18151932828E+03  0.00000000000E+00 0.  1.
        -15    1    1    2    0    0 -0.10641645376E+01  0.14501327262E+01  0.74067011458E+02  0.74110156163E+02  0.17770000000E+01 0. -1.
         15    1    1    2    0    0  0.52087593315E+01  0.13582716496E+01  0.73544975297E+01  0.92856038340E+01  0.17770000000E+01 0. -1.
</event>
<event>
 6    1  0.1059789E-002  0.1829938E+03  0.7546771E-02  0.1068062E+00
        -11   -1    0    0    0    0  0.00000000000E+00  0.00000000000E+00  0.18250000000E+03  0.18250000000E+03  0.00000000000E+00 0. -1.
         11   -1    0    0    0    0 -0.00000000000E+00 -0.00000000000E+00 -0.18250000000E+03  0.18250000000E+03  0.00000000000E+00 0. -1.
        -11    1    1    2    0    0  0.21822610947E+01  0.24801108322E+01  0.10962713745E+03  0.10967690038E+03  0.00000000000E+00 0. -1.
         11    1    1    2    0    0 -0.32994472658E+01 -0.27815875930E+01 -0.18195499945E+03  0.18200616860E+03  0.00000000000E+00 0. -1.
        -15    1    1    2    0    0  0.11695508196E+01  0.39230829385E+01  0.62951016137E+02  0.63109005621E+02  0.17770000000E+01 0.  1.
         15    1    1    2    0    0 -0.52364648504E-01 -0.36216061777E+01  0.93768458722E+01  0.10207925395E+02  0.17770000000E+01 0. -1.
</event>
<event>
 6    1  0.1059789E-002  0.1924535E+03  0.7546771E-02  0.1060797E+00
        -11   -1    0    0    0    0  0.00000000000E+00  0.00000000000E+00  0.18250000000E+03  0.18250000000E+03  0.00000000000E+00 0. -1.
         11   -1    0    0    0    0 -0.00000000000E+00 -0.00000000000E+00 -0.18250000000E+03  0.18250000000E+03  0.00000000000E+00 0. -1.
        -11    1    1    2    0    0  0.47354800802E+01  0.27694153503E+01  0.12033264111E+03  0.12045762305E+03  0.00000000000E+00 0. -1.
         11    1    1    2    0    0  0.94579412320E+00  0.42013275763E+01 -0.17249275261E+03  0.17254650209E+03  0.00000000000E+00 0. -1.
        -15    1    1    2    0    0 -0.13716433026E+01 -0.45149363406E+01 -0.91566586842E+01  0.10453142244E+02  0.17770000000E+01 0. -1.
         15    1    1    2    0    0 -0.43096309008E+01 -0.24558065859E+01  0.61316770179E+02  0.61542732623E+02  0.17770000000E+01 0. -1.
</event>
<event>
 6    1  0.1059789E-002  0.1864237E+03  0.7546771E-02  0.1065374E+00
        -11   -1    0    0    0    0  0.00000000000E+00  0.00000000000E+00  0.18250000000E+03  0.18250000000E+03  0.00000000000E+00 0. -1.
         11   -1    0    0    0    0 -0.00000000000E+00 -0.00000000000E+00 -0.18250000000E+03  0.18250000000E+03  0.00000000000E+00 0. -1.
        -11    1    1    2    0    0  0.34189086383E+01 -0.52495243213E+01  0.15155953900E+03  0.15168895907E+03  0.00000000000E+00 0. -1.
         11    1    1    2    0    0 -0.77597722904E+01 -0.29009080625E+01 -0.17838408512E+03  0.17857634546E+03  0.00000000000E+00 0. -1.
        -15    1    1    2    0    0 -0.34278924910E+01 -0.73155545066E+00  0.21166268841E+02  0.21527988433E+02  0.17770000000E+01 0. -1.
         15    1    1    2    0    0  0.77687561431E+01  0.88819878345E+01  0.56582772761E+01  0.13206707032E+02  0.17770000000E+01 0.  1.
</event>
<event>
 6    1  0.1059789E-002  0.1841128E+03  0.7546771E-02  0.1067178E+00
        -11   -1    0    0    0    0  0.00000000000E+00  0.00000000000E+00  0.18250000000E+03  0.18250000000E+03  0.00000000000E+00 0. -1.
         11   -1    0    0    0    0 -0.00000000000E+00 -0.00000000000E+00 -0.18250000000E+03  0.18250000000E+03  0.00000000000E+00 0. -1.
        -11    1    1    2    0    0  0.49948898849E+01 -0.93325106282E+00  0.18081585152E+03  0.18088723571E+03  0.00000000000E+00 0. -1.
         11    1    1    2    0    0  0.28664941527E+01 -0.14457955284E+01 -0.15646186915E+03  0.15649480378E+03  0.00000000000E+00 0. -1.
        -15    1    1    2    0    0 -0.63441041350E+01  0.32815976203E+01 -0.72493703010E+01  0.10330906978E+02  0.17770000000E+01 0. -1.
         15    1    1    2    0    0 -0.15172799027E+01 -0.90255102914E+00 -0.17104612073E+02  0.17287053533E+02  0.17770000000E+01 0. -1.
</event>
<event>
 6    1  0.1059789E-002  0.1878062E+03  0.7546771E-02  0.1064308E+00
        -11   -1    0    0    0    0  0.00000000000E+00  0.00000000000E+00  0.18250000000E+03  0.18250000000E+03  0.00000000000E+00 0.  1.
         11   -1    0    0    0    0 -0.00000000000E+00 -0.00000000000E+00 -0.18250000000E+03  0.18250000000E+03  0.00000000000E+00 0.  1.
        -11    1    1    2    0    0 -0.92702079078E+00  0.25169095790E+01  0.16384784836E+03  0.16386980080E+03  0.00000000000E+00 0.  1.
         11    1    1    2    0    0  0.54878585246E+01  0.45524062709E+01 -0.17705030564E+03  0.17719382529E+03  0.00000000000E+00 0.  1.
        -15    1    1    2    0    0 -0.86886087283E+01 -0.66958872377E+01  0.12754374032E+01  0.11185316138E+02  0.17770000000E+01 0.  1.
         15    1    1    2    0    0  0.41277709945E+01 -0.37342861216E+00  0.11927019870E+02  0.12751057771E+02  0.17770000000E+01 0. -1.
</event>
<event>
 6    1  0.1059789E-002  0.1777193E+03  0.7546771E-02  0.1072325E+00
        -11   -1    0    0    0    0  0.00000000000E+00  0.00000000000E+00  0.18250000000E+03  0.18250000000E+03  0.00000000000E+00 0.  1.
         11   -1    0    0    0    0 -0.00000000000E+00 -0.00000000000E+00 -0.18250000000E+03  0.18250000000E+03  0.00000000000E+00 0. -1.
        -11    1    1    2    0    0 -0.29181676155E+01 -0.60811902783E+00  0.17780173399E+03  0.17782671937E+03  0.00000000000E+00 0.  1.
         11    1    1    2    0    0  0.29409639796E+01 -0.22725085333E+01 -0.17758472107E+03  0.17762360970E+03  0.00000000000E+00 0. -1.
        -15    1    1    2    0    0  0.39964126430E+01  0.21493298285E+01  0.90270324741E+00  0.49561613046E+01  0.17770000000E+01 0.  1.
         15    1    1    2    0    0 -0.40192090071E+01  0.73129773265E+00 -0.11197161682E+01  0.45935096292E+01  0.17770000000E+01 0.  1.
</event>
<event>
 6    1  0.1059789E-002  0.1846131E+03  0.7546771E-02  0.1066785E+00
        -11   -1    0    0    0    0  0.00000000000E+00  0.00000000000E+00  0.18250000000E+03  0.18250000000E+03  0.00000000000E+00 0.  1.
         11   -1    0    0    0    0 -0.00000000000E+00 -0.00000000000E+00 -0.18250000000E+03  0.18250000000E+03  0.00000000000E+00 0.  1.
        -11    1    1    2    0    0  0.31644827013E+01  0.22027666346E+01  0.17386675335E+03  0.17390949960E+03  0.00000000000E+00 0.  1.
         11    1    1    2    0    0 -0.25474108207E+01 -0.13042498874E+01 -0.18036416117E+03  0.18038686483E+03  0.00000000000E+00 0.  1.
        -15    1    1    2    0    0  0.14922750115E+00 -0.15091982930E+01  0.78991120315E+01  0.82373325914E+01  0.17770000000E+01 0.  1.
         15    1    1    2    0    0 -0.76629938177E+00  0.61068154576E+00 -0.14017042082E+01  0.24663029782E+01  0.17770000000E+01 0.  1.
</event>
<event>
 6    1  0.1059789E-002  0.1839400E+03  0.7546771E-02  0.1067314E+00
        -11   -1    0    0    0    0  0.00000000000E+00  0.00000000000E+00  0.18250000000E+03  0.18250000000E+03  0.00000000000E+00 0.  1.
         11   -1    0    0    0    0 -0.00000000000E+00 -0.00000000000E+00 -0.18250000000E+03  0.18250000000E+03  0.00000000000E+00 0. -1.
        -11    1    1    2    0    0  0.33536880164E+01 -0.14261196352E+01  0.15874270504E+03  0.15878453151E+03  0.00000000000E+00 0.  1.
         11    1    1    2    0    0  0.48090056709E+01 -0.15933923904E+00 -0.18099600728E+03  0.18105995298E+03  0.00000000000E+00 0. -1.
        -15    1    1    2    0    0 -0.61205588738E+01  0.28205991519E+01  0.20609684699E+02  0.21756237104E+02  0.17770000000E+01 0.  1.
         15    1    1    2    0    0 -0.20421348135E+01 -0.12351402777E+01  0.16436175319E+01  0.33992784077E+01  0.17770000000E+01 0. -1.
</event>
<event>
 6    1  0.1059789E-002  0.1835562E+03  0.7546771E-02  0.1067617E+00
        -11   -1    0    0    0    0  0.00000000000E+00  0.00000000000E+00  0.18250000000E+03  0.18250000000E+03  0.00000000000E+00 0. -1.
         11   -1    0    0    0    0 -0.00000000000E+00 -0.00000000000E+00 -0.18250000000E+03  0.18250000000E+03  0.00000000000E+00 0. -1.
        -11    1    1    2    0    0  0.61491304966E+00 -0.39840355422E+01  0.18139899895E+03  0.18144378599E+03  0.00000000000E+00 0. -1.
         11    1    1    2    0    0  0.44703934337E+01 -0.49761052333E+01 -0.13754861425E+03  0.13771117356E+03  0.00000000000E+00 0. -1.
        -15    1    1    2    0    0 -0.40763742583E+01  0.68874043760E+01 -0.40851099876E+02  0.41665612394E+02  0.17770000000E+01 0. -1.
         15    1    1    2    0    0 -0.10089322251E+01  0.20727363995E+01 -0.29992848184E+01  0.41794280517E+01  0.17770000000E+01 0.  1.
</event>
<event>
 6    1  0.1059789E-002  0.1841112E+03  0.7546771E-02  0.1067179E+00
        -11   -1    0    0    0    0  0.00000000000E+00  0.00000000000E+00  0.18250000000E+03  0.18250000000E+03  0.00000000000E+00 0.  1.
         11   -1    0    0    0    0 -0.00000000000E+00 -0.00000000000E+00 -0.18250000000E+03  0.18250000000E+03  0.00000000000E+00 0. -1.
        -11    1    1    2    0    0 -0.21864849020E+01 -0.32315808803E+01  0.18084668731E+03  0.18088877284E+03  0.00000000000E+00 0.  1.
         11    1    1    2    0    0  0.26203221587E+01  0.16423541643E+01 -0.16669799531E+03  0.16672667770E+03  0.00000000000E+00 0. -1.
        -15    1    1    2    0    0  0.41806595822E+01  0.22678401839E+01 -0.64336243188E+01  0.81957467334E+01  0.17770000000E+01 0.  1.
         15    1    1    2    0    0 -0.46144968389E+01 -0.67861346790E+00 -0.77150676768E+01  0.91888027279E+01  0.17770000000E+01 0. -1.
</event>
<event>
 6    1  0.1059789E-002  0.1827989E+03  0.7546771E-02  0.1068217E+00
        -11   -1    0    0    0    0  0.00000000000E+00  0.00000000000E+00  0.18250000000E+03  0.18250000000E+03  0.00000000000E+00 0. -1.
         11   -1    0    0    0    0 -0.00000000000E+00 -0.00000000000E+00 -0.18250000000E+03  0.18250000000E+03  0.00000000000E+00 0.  1.
        -11    1    1    2    0    0  0.48418757039E+01 -0.14728284602E+01  0.18213077965E+03  0.18220108089E+03  0.00000000000E+00 0. -1.
         11    1    1    2    0    0  0.18085796086E+01 -0.54809086042E+00 -0.26042067415E+02  0.26110546509E+02  0.00000000000E+00 0.  1.
        -15    1    1    2    0    0 -0.13932422678E+01  0.32189639246E+01 -0.12643289770E+03  0.12649402438E+03  0.17770000000E+01 0.  1.
         15    1    1    2    0    0 -0.52572130447E+01 -0.11980446040E+01 -0.29655814531E+02  0.30194348219E+02  0.17770000000E+01 0. -1.
</event>
<event>
 6    1  0.1059789E-002  0.1830079E+03  0.7546771E-02  0.1068051E+00
        -11   -1    0    0    0    0  0.00000000000E+00  0.00000000000E+00  0.18250000000E+03  0.18250000000E+03  0.00000000000E+00 0. -1.
         11   -1    0    0    0    0 -0.00000000000E+00 -0.00000000000E+00 -0.18250000000E+03  0.18250000000E+03  0.00000000000E+00 0. -1.
        -11    1    1    2    0    0  0.25233373003E+01  0.25826190043E+01  0.11732921091E+03  0.11738475576E+03  0.00000000000E+00 0. -1.
         11    1    1    2    0    0 -0.34495945197E+01  0.61557150385E+00 -0.18195836656E+03  0.18199210365E+03  0.00000000000E+00 0. -1.
        -15    1    1    2    0    0 -0.31743868594E+01  0.12689962478E+01  0.40408966700E+02  0.40592233274E+02  0.17770000000E+01 0. -1.
         15    1    1    2    0    0  0.41006440788E+01 -0.44671867559E+01  0.24220188949E+02  0.25030907317E+02  0.17770000000E+01 0. -1.
</event>
<event>
 6    1  0.1059789E-002  0.1939522E+03  0.7546771E-02  0.1059688E+00
        -11   -1    0    0    0    0  0.00000000000E+00  0.00000000000E+00  0.18250000000E+03  0.18250000000E+03  0.00000000000E+00 0. -1.
         11   -1    0    0    0    0 -0.00000000000E+00 -0.00000000000E+00 -0.18250000000E+03  0.18250000000E+03  0.00000000000E+00 0.  1.
        -11    1    1    2    0    0 -0.43607591596E+01  0.73799030888E+01  0.17083291906E+03  0.17104784543E+03  0.00000000000E+00 0. -1.
         11    1    1    2    0    0 -0.16014324620E+02 -0.19970021913E+02 -0.13351687176E+03  0.13594857635E+03  0.00000000000E+00 0.  1.
        -15    1    1    2    0    0  0.17003158805E+02  0.24859846578E+02 -0.19085833448E+02  0.35700786387E+02  0.17770000000E+01 0. -1.
         15    1    1    2    0    0  0.33719249750E+01 -0.12269727754E+02 -0.18230213856E+02  0.22302791830E+02  0.17770000000E+01 0.  1.
</event>
<event>
 6    1  0.1059789E-002  0.1844638E+03  0.7546771E-02  0.1066902E+00
        -11   -1    0    0    0    0  0.00000000000E+00  0.00000000000E+00  0.18250000000E+03  0.18250000000E+03  0.00000000000E+00 0. -1.
         11   -1    0    0    0    0 -0.00000000000E+00 -0.00000000000E+00 -0.18250000000E+03  0.18250000000E+03  0.00000000000E+00 0. -1.
        -11    1    1    2    0    0  0.48683980161E+01 -0.86942048209E+00  0.79227525710E+02  0.79381723472E+02  0.00000000000E+00 0. -1.
         11    1    1    2    0    0 -0.35208522151E+01  0.96330741377E+00 -0.18049927346E+03  0.18053617943E+03  0.00000000000E+00 0. -1.
        -15    1    1    2    0    0 -0.14433755947E+02 -0.18024777825E+01  0.49331334314E+02  0.51461835481E+02  0.17770000000E+01 0. -1.
         15    1    1    2    0    0  0.13086210146E+02  0.17085908508E+01  0.51940413441E+02  0.53620261619E+02  0.17770000000E+01 0.  1.
</event>
<event>
 6    1  0.1059789E-002  0.1865734E+03  0.7546771E-02  0.1065258E+00
        -11   -1    0    0    0    0  0.00000000000E+00  0.00000000000E+00  0.18250000000E+03  0.18250000000E+03  0.00000000000E+00 0. -1.
         11   -1    0    0    0    0 -0.00000000000E+00 -0.00000000000E+00 -0.18250000000E+03  0.18250000000E+03  0.00000000000E+00 0. -1.
        -11    1    1    2    0    0 -0.26236030897E+01 -0.78013935976E+01  0.15990786371E+03  0.16011954882E+03  0.00000000000E+00 0. -1.
         11    1    1    2    0    0 -0.52531691358E+01 -0.10559646747E+01 -0.17834611478E+03  0.17842658856E+03  0.00000000000E+00 0. -1.
        -15    1    1    2    0    0  0.57030517364E+01  0.11891754525E+02  0.17870241267E+02  0.22280975668E+02  0.17770000000E+01 0.  1.
         15    1    1    2    0    0  0.21737204891E+01 -0.30343962530E+01  0.56800980380E+00  0.41728869530E+01  0.17770000000E+01 0. -1.
</event>
<event>
 6    1  0.1059789E-002  0.1826344E+03  0.7546771E-02  0.1068348E+00
        -11   -1    0    0    0    0  0.00000000000E+00  0.00000000000E+00  0.18250000000E+03  0.18250000000E+03  0.00000000000E+00 0.  1.
         11   -1    0    0    0    0 -0.00000000000E+00 -0.00000000000E+00 -0.18250000000E+03  0.18250000000E+03  0.00000000000E+00 0.  1.
        -11    1    1    2    0    0  0.82884324815E+00 -0.17605944432E+01  0.76933366991E+02  0.76957973145E+02  0.00000000000E+00 0.  1.
         11    1    1    2    0    0 -0.29255536720E+00  0.31269294259E+01 -0.18233855378E+03  0.18236559837E+03  0.00000000000E+00 0.  1.
        -15    1    1    2    0    0 -0.30266577547E+01  0.95992262542E+00  0.59172187518E+02  0.59283957470E+02  0.17770000000E+01 0. -1.
         15    1    1    2    0    0  0.24903698737E+01 -0.23262576081E+01  0.46232999266E+02  0.46392471013E+02  0.17770000000E+01 0.  1.
</event>
<event>
 6    1  0.1059789E-002  0.1726524E+03  0.7546771E-02  0.1076575E+00
        -11   -1    0    0    0    0  0.00000000000E+00  0.00000000000E+00  0.18250000000E+03  0.18250000000E+03  0.00000000000E+00 0.  1.
         11   -1    0    0    0    0 -0.00000000000E+00 -0.00000000000E+00 -0.18250000000E+03  0.18250000000E+03  0.00000000000E+00 0. -1.
        -11    1    1    2    0    0 -0.39831921949E+01 -0.55537333211E+00  0.17269175433E+03  0.17273857784E+03  0.00000000000E+00 0.  1.
         11    1    1    2    0    0 -0.41431106939E+01 -0.57312050147E+00 -0.17261300541E+03  0.17266367154E+03  0.00000000000E+00 0. -1.
        -15    1    1    2    0    0  0.55234956328E+01  0.16234752947E+01 -0.85990375808E+01  0.10499802491E+02  0.17770000000E+01 0.  1.
         15    1    1    2    0    0  0.26028072560E+01 -0.49498146113E+00  0.85202886615E+01  0.90979481277E+01  0.17770000000E+01 0. -1.
</event>
<event>
 6    1  0.1059789E-002  0.1862471E+03  0.7546771E-02  0.1065511E+00
        -11   -1    0    0    0    0  0.00000000000E+00  0.00000000000E+00  0.18250000000E+03  0.18250000000E+03  0.00000000000E+00 0.  1.
         11   -1    0    0    0    0 -0.00000000000E+00 -0.00000000000E+00 -0.18250000000E+03  0.18250000000E+03  0.00000000000E+00 0.  1.
        -11    1    1    2    0    0  0.21971863948E+01 -0.35771335505E+01  0.17870363119E+03  0.17875293372E+03  0.00000000000E+00 0.  1.
         11    1    1    2    0    0 -0.14051729597E+02  0.73314463669E+01 -0.10094631605E+03  0.10218297282E+03  0.00000000000E+00 0.  1.
        -15    1    1    2    0    0  0.12845549828E+01  0.10736310678E+01  0.21763580848E+01  0.32706312368E+01  0.17770000000E+01 0. -1.
         15    1    1    2    0    0  0.10569988219E+02 -0.48279438842E+01 -0.79933673226E+02  0.80793462220E+02  0.17770000000E+01 0.  1.
</event>
<event>
 6    1  0.1059789E-002  0.1832384E+03  0.7546771E-02  0.1067869E+00
        -11   -1    0    0    0    0  0.00000000000E+00  0.00000000000E+00  0.18250000000E+03  0.18250000000E+03  0.00000000000E+00 0. -1.
         11   -1    0    0    0    0 -0.00000000000E+00 -0.00000000000E+00 -0.18250000000E+03  0.18250000000E+03  0.00000000000E+00 0. -1.
        -11    1    1    2    0    0 -0.15543267781E+01 -0.46045111971E+01  0.18169665332E+03  0.18176163315E+03  0.00000000000E+00 0. -1.
         11    1    1    2    0    0 -0.17131806021E+01 -0.69033557643E+00 -0.51763376259E+02  0.51796319104E+02  0.00000000000E+00 0. -1.
        -15    1    1    2    0    0  0.10583740478E+01  0.40614171853E+01 -0.63300752838E+01  0.78001825156E+01  0.17770000000E+01 0. -1.
         15    1    1    2    0    0  0.22091333324E+01  0.12334295883E+01 -0.12360320178E+03  0.12364186523E+03  0.17770000000E+01 0. -1.
</event>
<event>
 6    1  0.1059789E-002  0.1859964E+03  0.7546771E-02  0.1065705E+00
        -11   -1    0    0    0    0  0.00000000000E+00  0.00000000000E+00  0.18250000000E+03  0.18250000000E+03  0.00000000000E+00 0.  1.
         11   -1    0    0    0    0 -0.00000000000E+00 -0.00000000000E+00 -0.18250000000E+03  0.18250000000E+03  0.00000000000E+00 0. -1.
        -11    1    1    2    0    0 -0.28254957915E+01 -0.59642495124E+00  0.80948714380E+02  0.81000206845E+02  0.00000000000E+00 0.  1.
         11    1    1    2    0    0  0.27692251999E+02  0.72773774806E+01 -0.17669876411E+03  0.17900355941E+03  0.00000000000E+00 0. -1.
        -15    1    1    2    0    0 -0.28915175609E+02 -0.14086451781E+02  0.58724580569E+02  0.66979471454E+02  0.17770000000E+01 0.  1.
         15    1    1    2    0    0  0.40484194019E+01  0.74054992512E+01  0.37025469165E+02  0.38016762286E+02  0.17770000000E+01 0. -1.
</event>
<event>
 6    1  0.1059789E-002  0.1890990E+03  0.7546771E-02  0.1063320E+00
        -11   -1    0    0    0    0  0.00000000000E+00  0.00000000000E+00  0.18250000000E+03  0.18250000000E+03  0.00000000000E+00 0.  1.
         11   -1    0    0    0    0 -0.00000000000E+00 -0.00000000000E+00 -0.18250000000E+03  0.18250000000E+03  0.00000000000E+00 0. -1.
        -11    1    1    2    0    0 -0.35092490675E+01  0.66926190325E+01  0.17573855706E+03  0.17590095627E+03  0.00000000000E+00 0.  1.
         11    1    1    2    0    0  0.22985905544E+01  0.50636668379E+00 -0.16644514952E+03  0.16646179058E+03  0.00000000000E+00 0. -1.
        -15    1    1    2    0    0 -0.11018656765E+00 -0.30725755657E+01 -0.14908555467E+02  0.15325652247E+02  0.17770000000E+01 0.  1.
         15    1    1    2    0    0  0.13208450808E+01 -0.41264101506E+01  0.56151479242E+01  0.73116008965E+01  0.17770000000E+01 0. -1.
</event>
<event>
 6    1  0.1059789E-002  0.1864583E+03  0.7546771E-02  0.1065347E+00
        -11   -1    0    0    0    0  0.00000000000E+00  0.00000000000E+00  0.18250000000E+03  0.18250000000E+03  0.00000000000E+00 0. -1.
         11   -1    0    0    0    0 -0.00000000000E+00 -0.00000000000E+00 -0.18250000000E+03  0.18250000000E+03  0.00000000000E+00 0. -1.
        -11    1    1    2    0    0  0.70182325985E+01 -0.93084314350E+01  0.15315900244E+03  0.15360202640E+03  0.00000000000E+00 0. -1.
         11    1    1    2    0    0 -0.22308670398E+01 -0.35036252211E+01 -0.17849335694E+03  0.17854167757E+03  0.00000000000E+00 0. -1.
        -15    1    1    2    0    0 -0.15487417559E+01  0.21412664689E+01 -0.16629184497E+01  0.35925826208E+01  0.17770000000E+01 0. -1.
         15    1    1    2    0    0 -0.32386238029E+01  0.10670790187E+02  0.26997272944E+02  0.29263713414E+02  0.17770000000E+01 0.  1.
</event>
<event>
 6    1  0.1059789E-002  0.1599402E+03  0.7546771E-02  0.1087981E+00
        -11   -1    0    0    0    0  0.00000000000E+00  0.00000000000E+00  0.18250000000E+03  0.18250000000E+03  0.00000000000E+00 0.  1.
         11   -1    0    0    0    0 -0.00000000000E+00 -0.00000000000E+00 -0.18250000000E+03  0.18250000000E+03  0.00000000000E+00 0.  1.
        -11    1    1    2    0    0  0.54711418587E+01 -0.78279657049E+01  0.16357153831E+03  0.16385011012E+03  0.00000000000E+00 0.  1.
         11    1    1    2    0    0  0.57018008294E+00 -0.10618917327E+00 -0.25314393610E+02  0.25321036814E+02  0.00000000000E+00 0.  1.
        -15    1    1    2    0    0 -0.22025316073E+01  0.75851902371E+01  0.17883420987E+02  0.19630607011E+02  0.17770000000E+01 0.  1.
         15    1    1    2    0    0 -0.38387903343E+01  0.34896464106E+00 -0.15614056569E+03  0.15619824605E+03  0.17770000000E+01 0.  1.
</event>
<event>
 6    1  0.1059789E-002  0.1852653E+03  0.7546771E-02  0.1066275E+00
        -11   -1    0    0    0    0  0.00000000000E+00  0.00000000000E+00  0.18250000000E+03  0.18250000000E+03  0.00000000000E+00 0.  1.
         11   -1    0    0    0    0 -0.00000000000E+00 -0.00000000000E+00 -0.18250000000E+03  0.18250000000E+03  0.00000000000E+00 0. -1.
        -11    1    1    2    0    0  0.25270438359E+01 -0.32086810903E+01  0.17968828772E+03  0.17973469985E+03  0.00000000000E+00 0.  1.
         11    1    1    2    0    0 -0.16206328868E+01  0.38392341078E+01 -0.14270474959E+03  0.14276558313E+03  0.00000000000E+00 0. -1.
        -15    1    1    2    0    0 -0.36681645739E+01  0.26359181048E+01  0.36252206481E+00  0.48675093060E+01  0.17770000000E+01 0.  1.
         15    1    1    2    0    0  0.27617536247E+01 -0.32664711224E+01 -0.37346060196E+02  0.37632207720E+02  0.17770000000E+01 0.  1.
</event>
<event>
 6    1  0.1059789E-002  0.1831032E+03  0.7546771E-02  0.1067976E+00
        -11   -1    0    0    0    0  0.00000000000E+00  0.00000000000E+00  0.18250000000E+03  0.18250000000E+03  0.00000000000E+00 0. -1.
         11   -1    0    0    0    0 -0.00000000000E+00 -0.00000000000E+00 -0.18250000000E+03  0.18250000000E+03  0.00000000000E+00 0.  1.
        -11    1    1    2    0    0  0.33986493641E+01  0.11722128429E+01  0.14883601964E+03  0.14887943324E+03  0.00000000000E+00 0. -1.
         11    1    1    2    0    0 -0.49925393579E+01  0.30259659555E+01 -0.18180311805E+03  0.18189682695E+03  0.00000000000E+00 0.  1.
        -15    1    1    2    0    0 -0.23424808802E+01 -0.27244510364E+00  0.16274698966E+02  0.16540405027E+02  0.17770000000E+01 0.  1.
         15    1    1    2    0    0  0.39363708740E+01 -0.39257336948E+01  0.16692399449E+02  0.17683334783E+02  0.17770000000E+01 0.  1.
</event>
<event>
 6    1  0.1059789E-002  0.1885061E+03  0.7546771E-02  0.1063772E+00
        -11   -1    0    0    0    0  0.00000000000E+00  0.00000000000E+00  0.18250000000E+03  0.18250000000E+03  0.00000000000E+00 0.  1.
         11   -1    0    0    0    0 -0.00000000000E+00 -0.00000000000E+00 -0.18250000000E+03  0.18250000000E+03  0.00000000000E+00 0.  1.
        -11    1    1    2    0    0  0.40663374652E+01  0.44920542194E+00  0.13441634167E+03  0.13447858488E+03  0.00000000000E+00 0.  1.
         11    1    1    2    0    0 -0.37924913250E+00 -0.40413102746E+01 -0.17644721432E+03  0.17649389638E+03  0.00000000000E+00 0.  1.
        -15    1    1    2    0    0 -0.54579129459E+01  0.25911857628E+01  0.47506420678E+02  0.47922028255E+02  0.17770000000E+01 0.  1.
         15    1    1    2    0    0  0.17708246132E+01  0.10009190899E+01 -0.54755480210E+01  0.61054904771E+01  0.17770000000E+01 0. -1.
</event>
<event>
 6    1  0.1059789E-002  0.1830187E+03  0.7546771E-02  0.1068043E+00
        -11   -1    0    0    0    0  0.00000000000E+00  0.00000000000E+00  0.18250000000E+03  0.18250000000E+03  0.00000000000E+00 0. -1.
         11   -1    0    0    0    0 -0.00000000000E+00 -0.00000000000E+00 -0.18250000000E+03  0.18250000000E+03  0.00000000000E+00 0. -1.
        -11    1    1    2    0    0 -0.18637168311E+01  0.35426720525E+01  0.18193722426E+03  0.18198125601E+03  0.00000000000E+00 0. -1.
         11    1    1    2    0    0  0.30841260278E+01  0.79450489315E+00 -0.13535988070E+03  0.13539734257E+03  0.00000000000E+00 0. -1.
        -15    1    1    2    0    0  0.10258469545E+01 -0.29061277796E+01 -0.41270254744E+02  0.41423297747E+02  0.17770000000E+01 0.  1.
         15    1    1    2    0    0 -0.22462561511E+01 -0.14310491661E+01 -0.53070888225E+01  0.61981036763E+01  0.17770000000E+01 0. -1.
</event>
<event>
 6    1  0.1059789E-002  0.1865184E+03  0.7546771E-02  0.1065300E+00
        -11   -1    0    0    0    0  0.00000000000E+00  0.00000000000E+00  0.18250000000E+03  0.18250000000E+03  0.00000000000E+00 0. -1.
         11   -1    0    0    0    0 -0.00000000000E+00 -0.00000000000E+00 -0.18250000000E+03  0.18250000000E+03  0.00000000000E+00 0.  1.
        -11    1    1    2    0    0 -0.16973672597E+01  0.17556968120E+01  0.17846488506E+03  0.17848159212E+03  0.00000000000E+00 0. -1.
         11    1    1    2    0    0  0.21357096424E+01 -0.43537223132E+01 -0.63088271027E+02  0.63274371548E+02  0.00000000000E+00 0.  1.
        -15    1    1    2    0    0  0.18660601695E+02  0.28044936323E+01 -0.28171196931E+02  0.33953752454E+02  0.17770000000E+01 0. -1.
         15    1    1    2    0    0 -0.19098944078E+02 -0.20646813113E+00 -0.87205417101E+02  0.89290283877E+02  0.17770000000E+01 0.  1.
</event>
<event>
 6    1  0.1059789E-002  0.1831035E+03  0.7546771E-02  0.1067975E+00
        -11   -1    0    0    0    0  0.00000000000E+00  0.00000000000E+00  0.18250000000E+03  0.18250000000E+03  0.00000000000E+00 0. -1.
         11   -1    0    0    0    0 -0.00000000000E+00 -0.00000000000E+00 -0.18250000000E+03  0.18250000000E+03  0.00000000000E+00 0.  1.
        -11    1    1    2    0    0 -0.90241392301E+00  0.65206719785E+01  0.18177738738E+03  0.18189654223E+03  0.00000000000E+00 0. -1.
         11    1    1    2    0    0  0.39448562326E+00 -0.42711895823E+00 -0.39727548315E+02  0.39731802685E+02  0.00000000000E+00 0.  1.
        -15    1    1    2    0    0  0.35735731667E+01  0.54116138423E+01 -0.34419317767E+02  0.35069975108E+02  0.17770000000E+01 0. -1.
         15    1    1    2    0    0 -0.30656448669E+01 -0.11505166863E+02 -0.10763052129E+03  0.10830167998E+03  0.17770000000E+01 0.  1.
</event>
<event>
 6    1  0.1059789E-002  0.1830293E+03  0.7546771E-02  0.1068034E+00
        -11   -1    0    0    0    0  0.00000000000E+00  0.00000000000E+00  0.18250000000E+03  0.18250000000E+03  0.00000000000E+00 0. -1.
         11   -1    0    0    0    0 -0.00000000000E+00 -0.00000000000E+00 -0.18250000000E+03  0.18250000000E+03  0.00000000000E+00 0.  1.
        -11    1    1    2    0    0 -0.36668034606E+01 -0.32235711708E+01  0.18190520816E+03  0.18197071637E+03  0.00000000000E+00 0. -1.
         11    1    1    2    0    0 -0.22288796515E+01  0.84901218956E+00 -0.13051823157E+03  0.13054002259E+03  0.00000000000E+00 0.  1.
        -15    1    1    2    0    0  0.73019211168E+01  0.48803663929E+00 -0.31673042768E+02  0.32556037826E+02  0.17770000000E+01 0.  1.
         15    1    1    2    0    0 -0.14062380047E+01  0.18865223420E+01 -0.19713933824E+02  0.19933223213E+02  0.17770000000E+01 0. -1.
</event>
<event>
 6    1  0.1059789E-002  0.1784692E+03  0.7546771E-02  0.1071709E+00
        -11   -1    0    0    0    0  0.00000000000E+00  0.00000000000E+00  0.18250000000E+03  0.18250000000E+03  0.00000000000E+00 0.  1.
         11   -1    0    0    0    0 -0.00000000000E+00 -0.00000000000E+00 -0.18250000000E+03  0.18250000000E+03  0.00000000000E+00 0.  1.
        -11    1    1    2    0    0 -0.35579839587E+01  0.10862986506E+01  0.17966068799E+03  0.17969919895E+03  0.00000000000E+00 0.  1.
         11    1    1    2    0    0 -0.85414511811E+00  0.23631055970E+01 -0.17727321117E+03  0.17729101847E+03  0.00000000000E+00 0.  1.
        -15    1    1    2    0    0  0.32038636714E+01 -0.34326836341E+01 -0.29036328408E+01  0.57997303413E+01  0.17770000000E+01 0.  1.
         15    1    1    2    0    0  0.12082654054E+01 -0.16720613420E-01  0.51615602307E+00  0.22100522412E+01  0.17770000000E+01 0. -1.
</event>
<event>
 6    1  0.1059789E-002  0.1955442E+03  0.7546771E-02  0.1058521E+00
        -11   -1    0    0    0    0  0.00000000000E+00  0.00000000000E+00  0.18250000000E+03  0.18250000000E+03  0.00000000000E+00 0. -1.
         11   -1    0    0    0    0 -0.00000000000E+00 -0.00000000000E+00 -0.18250000000E+03  0.18250000000E+03  0.00000000000E+00 0. -1.
        -11    1    1    2    0    0 -0.12054798977E+02  0.15926462766E+02  0.16827451786E+03  0.16945584603E+03  0.00000000000E+00 0. -1.
         11    1    1    2    0    0  0.43001621289E+01 -0.25094872700E+01 -0.15573524113E+03  0.15581480754E+03  0.00000000000E+00 0. -1.
        -15    1    1    2    0    0 -0.43882937921E+01  0.72916358614E+01 -0.13016360972E+02  0.15652746018E+02  0.17770000000E+01 0. -1.
         15    1    1    2    0    0  0.12142930640E+02 -0.20708611357E+02  0.47708424300E+00  0.24076600409E+02  0.17770000000E+01 0.  1.
</event>
<event>
 6    1  0.1059789E-002  0.1759979E+03  0.7546771E-02  0.1073752E+00
        -11   -1    0    0    0    0  0.00000000000E+00  0.00000000000E+00  0.18250000000E+03  0.18250000000E+03  0.00000000000E+00 0.  1.
         11   -1    0    0    0    0 -0.00000000000E+00 -0.00000000000E+00 -0.18250000000E+03  0.18250000000E+03  0.00000000000E+00 0. -1.
        -11    1    1    2    0    0 -0.32391934818E+01  0.36982804525E+01  0.17693053508E+03  0.17699882456E+03  0.00000000000E+00 0.  1.
         11    1    1    2    0    0 -0.24232964887E+01 -0.13751141639E+00 -0.17504873109E+03  0.17506555781E+03  0.00000000000E+00 0. -1.
        -15    1    1    2    0    0  0.71082899208E+00  0.29189291808E+01 -0.28859270236E+01  0.45289876577E+01  0.17770000000E+01 0.  1.
         15    1    1    2    0    0  0.49516609785E+01 -0.64796982169E+01  0.10041230318E+01  0.84066299723E+01  0.17770000000E+01 0. -1.
</event>
<event>
 6    1  0.1059789E-002  0.1839317E+03  0.7546771E-02  0.1067321E+00
        -11   -1    0    0    0    0  0.00000000000E+00  0.00000000000E+00  0.18250000000E+03  0.18250000000E+03  0.00000000000E+00 0. -1.
         11   -1    0    0    0    0 -0.00000000000E+00 -0.00000000000E+00 -0.18250000000E+03  0.18250000000E+03  0.00000000000E+00 0. -1.
        -11    1    1    2    0    0  0.76475668710E+01  0.10683036204E+02  0.14257959340E+03  0.14318363382E+03  0.00000000000E+00 0. -1.
         11    1    1    2    0    0 -0.46837745743E+01 -0.46211273143E+01 -0.18094869781E+03  0.18106828491E+03  0.00000000000E+00 0. -1.
        -15    1    1    2    0    0 -0.32809664861E+01 -0.81430913222E+01  0.36052619932E+02  0.37148671717E+02  0.17770000000E+01 0. -1.
         15    1    1    2    0    0  0.31717418941E+00  0.20811824321E+01  0.23164844765E+01  0.35994095505E+01  0.17770000000E+01 0.  1.
</event>
<event>
 6    1  0.1059789E-002  0.1648833E+03  0.7546771E-02  0.1083412E+00
        -11   -1    0    0    0    0  0.00000000000E+00  0.00000000000E+00  0.18250000000E+03  0.18250000000E+03  0.00000000000E+00 0.  1.
         11   -1    0    0    0    0 -0.00000000000E+00 -0.00000000000E+00 -0.18250000000E+03  0.18250000000E+03  0.00000000000E+00 0.  1.
        -11    1    1    2    0    0  0.10922468853E+02 -0.90084945566E+01  0.15819704558E+03  0.15882933776E+03  0.00000000000E+00 0.  1.
         11    1    1    2    0    0  0.44059730604E+01 -0.36082816609E+01 -0.17171651113E+03  0.17181092076E+03  0.00000000000E+00 0.  1.
        -15    1    1    2    0    0 -0.83341587401E+00  0.42131420272E+01 -0.66282155734E+01  0.80954381257E+01  0.17770000000E+01 0. -1.
         15    1    1    2    0    0 -0.14495026039E+02  0.84036341903E+01  0.20147681123E+02  0.26264303362E+02  0.17770000000E+01 0.  1.
</event>
<event>
 6    1  0.1059789E-002  0.1951054E+03  0.7546771E-02  0.1058841E+00
        -11   -1    0    0    0    0  0.00000000000E+00  0.00000000000E+00  0.18250000000E+03  0.18250000000E+03  0.00000000000E+00 0.  1.
         11   -1    0    0    0    0 -0.00000000000E+00 -0.00000000000E+00 -0.18250000000E+03  0.18250000000E+03  0.00000000000E+00 0.  1.
        -11    1    1    2    0    0 -0.63374775944E+01  0.86673972097E+01  0.15378769909E+03  0.15416206987E+03  0.00000000000E+00 0.  1.
         11    1    1    2    0    0  0.30311632185E+01  0.62851976435E+00 -0.16986642821E+03  0.16989463328E+03  0.00000000000E+00 0.  1.
        -15    1    1    2    0    0  0.13146729464E+02 -0.10216879794E+02  0.23215201875E+02  0.28623844176E+02  0.17770000000E+01 0.  1.
         15    1    1    2    0    0 -0.98404150881E+01  0.92096281950E+00 -0.71364727564E+01  0.12319452667E+02  0.17770000000E+01 0. -1.
</event>
<event>
 6    1  0.1059789E-002  0.1981699E+03  0.7546771E-02  0.1056624E+00
        -11   -1    0    0    0    0  0.00000000000E+00  0.00000000000E+00  0.18250000000E+03  0.18250000000E+03  0.00000000000E+00 0.  1.
         11   -1    0    0    0    0 -0.00000000000E+00 -0.00000000000E+00 -0.18250000000E+03  0.18250000000E+03  0.00000000000E+00 0. -1.
        -11    1    1    2    0    0 -0.92638342588E+01 -0.68880315802E-01  0.16657272299E+03  0.16683013940E+03  0.00000000000E+00 0.  1.
         11    1    1    2    0    0  0.15490629611E+02 -0.14002682412E+01 -0.15403254118E+03  0.15481583931E+03  0.00000000000E+00 0. -1.
        -15    1    1    2    0    0  0.33994933185E+01  0.14333754961E+02  0.82822743919E+01  0.16993142270E+02  0.17770000000E+01 0. -1.
         15    1    1    2    0    0 -0.96262886706E+01 -0.12864606404E+02 -0.20822456196E+02  0.26360879017E+02  0.17770000000E+01 0.  1.
</event>
<event>
 6    1  0.1059789E-002  0.1883299E+03  0.7546771E-02  0.1063907E+00
        -11   -1    0    0    0    0  0.00000000000E+00  0.00000000000E+00  0.18250000000E+03  0.18250000000E+03  0.00000000000E+00 0. -1.
         11   -1    0    0    0    0 -0.00000000000E+00 -0.00000000000E+00 -0.18250000000E+03  0.18250000000E+03  0.00000000000E+00 0. -1.
        -11    1    1    2    0    0 -0.16082617342E+00 -0.51898412794E+01  0.15710439033E+03  0.15719017074E+03  0.00000000000E+00 0. -1.
         11    1    1    2    0    0  0.46978693520E+01 -0.14747296168E+01 -0.17660144691E+03  0.17667007629E+03  0.00000000000E+00 0. -1.
        -15    1    1    2    0    0 -0.12992187949E+01  0.44249924291E+01  0.24231868609E+02  0.24730744282E+02  0.17770000000E+01 0. -1.
         15    1    1    2    0    0 -0.32378243837E+01  0.22395784671E+01 -0.47348120233E+01  0.64090086867E+01  0.17770000000E+01 0. -1.
</event>
<event>
 6    1  0.1059789E-002  0.1773463E+03  0.7546771E-02  0.1072633E+00
        -11   -1    0    0    0    0  0.00000000000E+00  0.00000000000E+00  0.18250000000E+03  0.18250000000E+03  0.00000000000E+00 0. -1.
         11   -1    0    0    0    0 -0.00000000000E+00 -0.00000000000E+00 -0.18250000000E+03  0.18250000000E+03  0.00000000000E+00 0. -1.
        -11    1    1    2    0    0 -0.86090426010E+00  0.26831019730E+01  0.17742880521E+03  0.17745117951E+03  0.00000000000E+00 0. -1.
         11    1    1    2    0    0  0.58837351498E+01  0.33441553092E+01 -0.17719913205E+03  0.17732832293E+03  0.00000000000E+00 0. -1.
        -15    1    1    2    0    0 -0.50183611675E+01 -0.32902209285E+01 -0.19188502968E+01  0.65459314103E+01  0.17770000000E+01 0. -1.
         15    1    1    2    0    0 -0.44697221907E-02 -0.27370363537E+01  0.16891771330E+01  0.36745661468E+01  0.17770000000E+01 0.  1.
</event>
<event>
 6    1  0.1059789E-002  0.1863436E+03  0.7546771E-02  0.1065436E+00
        -11   -1    0    0    0    0  0.00000000000E+00  0.00000000000E+00  0.18250000000E+03  0.18250000000E+03  0.00000000000E+00 0.  1.
         11   -1    0    0    0    0 -0.00000000000E+00 -0.00000000000E+00 -0.18250000000E+03  0.18250000000E+03  0.00000000000E+00 0. -1.
        -11    1    1    2    0    0 -0.30535660682E+01  0.80697728358E+00  0.17862847677E+03  0.17865639701E+03  0.00000000000E+00 0.  1.
         11    1    1    2    0    0  0.69365152820E+00 -0.26947117459E+01 -0.15820989969E+03  0.15823436726E+03  0.00000000000E+00 0. -1.
        -15    1    1    2    0    0 -0.14075618782E+01  0.21853124689E+01 -0.22990190046E+02  0.23204813905E+02  0.17770000000E+01 0.  1.
         15    1    1    2    0    0  0.37674764182E+01 -0.29757800657E+00  0.25716129618E+01  0.49044218270E+01  0.17770000000E+01 0. -1.
</event>
<event>
 6    1  0.1059789E-002  0.1826757E+03  0.7546771E-02  0.1068315E+00
        -11   -1    0    0    0    0  0.00000000000E+00  0.00000000000E+00  0.18250000000E+03  0.18250000000E+03  0.00000000000E+00 0.  1.
         11   -1    0    0    0    0 -0.00000000000E+00 -0.00000000000E+00 -0.18250000000E+03  0.18250000000E+03  0.00000000000E+00 0.  1.
        -11    1    1    2    0    0  0.19424885582E+01  0.15281167507E+00  0.21983551589E+02  0.22069733883E+02  0.00000000000E+00 0.  1.
         11    1    1    2    0    0  0.30412936940E+01  0.20411519403E+01 -0.18228748583E+03  0.18232428050E+03  0.00000000000E+00 0.  1.
        -15    1    1    2    0    0 -0.44740445430E+01 -0.44633137797E+01  0.12852179715E+03  0.12868934810E+03  0.17770000000E+01 0.  1.
         15    1    1    2    0    0 -0.50973770914E+00  0.22693501643E+01  0.31782137099E+02  0.31916637515E+02  0.17770000000E+01 0. -1.
</event>
<event>
 6    1  0.1059789E-002  0.1845752E+03  0.7546771E-02  0.1066815E+00
        -11   -1    0    0    0    0  0.00000000000E+00  0.00000000000E+00  0.18250000000E+03  0.18250000000E+03  0.00000000000E+00 0.  1.
         11   -1    0    0    0    0 -0.00000000000E+00 -0.00000000000E+00 -0.18250000000E+03  0.18250000000E+03  0.00000000000E+00 0.  1.
        -11    1    1    2    0    0 -0.11908849010E+01 -0.22551707019E+01  0.18040678991E+03  0.18042481494E+03  0.00000000000E+00 0.  1.
         11    1    1    2    0    0 -0.95917535224E+00  0.34917963832E+01 -0.14584124399E+03  0.14588619232E+03  0.00000000000E+00 0.  1.
        -15    1    1    2    0    0  0.29947775858E+01 -0.17260334086E+01 -0.35997558277E+02  0.36206764769E+02  0.17770000000E+01 0. -1.
         15    1    1    2    0    0 -0.84471733249E+00  0.48940772732E+00  0.14320123650E+01  0.24822279728E+01  0.17770000000E+01 0.  1.
</event>
<event>
 6    1  0.1059789E-002  0.1835959E+03  0.7546771E-02  0.1067586E+00
        -11   -1    0    0    0    0  0.00000000000E+00  0.00000000000E+00  0.18250000000E+03  0.18250000000E+03  0.00000000000E+00 0.  1.
         11   -1    0    0    0    0 -0.00000000000E+00 -0.00000000000E+00 -0.18250000000E+03  0.18250000000E+03  0.00000000000E+00 0.  1.
        -11    1    1    2    0    0 -0.49142644895E+01 -0.71611001805E-01  0.18133747673E+03  0.18140406718E+03  0.00000000000E+00 0.  1.
         11    1    1    2    0    0  0.25098672656E+01  0.52886177482E+01 -0.16704940216E+03  0.16715194188E+03  0.00000000000E+00 0.  1.
        -15    1    1    2    0    0  0.95043000421E+00  0.27839319306E+00 -0.51408352036E+01  0.55287191603E+01  0.17770000000E+01 0.  1.
         15    1    1    2    0    0  0.14539672197E+01 -0.54953999395E+01 -0.91472393604E+01  0.10915271783E+02  0.17770000000E+01 0. -1.
</event>
<event>
 6    1  0.1059789E-002  0.1833571E+03  0.7546771E-02  0.1067775E+00
        -11   -1    0    0    0    0  0.00000000000E+00  0.00000000000E+00  0.18250000000E+03  0.18250000000E+03  0.00000000000E+00 0.  1.
         11   -1    0    0    0    0 -0.00000000000E+00 -0.00000000000E+00 -0.18250000000E+03  0.18250000000E+03  0.00000000000E+00 0. -1.
        -11    1    1    2    0    0  0.21357017833E+01 -0.47789724923E+01  0.51355959393E+02  0.51622033719E+02  0.00000000000E+00 0.  1.
         11    1    1    2    0    0  0.32421707494E+01  0.99729100887E-01 -0.18161392738E+03  0.18164289206E+03  0.00000000000E+00 0. -1.
        -15    1    1    2    0    0 -0.19214595364E+01  0.64898002481E+01  0.12371332752E+03  0.12391107557E+03  0.17770000000E+01 0. -1.
         15    1    1    2    0    0 -0.34564129964E+01 -0.18105568568E+01  0.65446404697E+01  0.78239986458E+01  0.17770000000E+01 0.  1.
</event>
<event>
 6    1  0.1059789E-002  0.1831957E+03  0.7546771E-02  0.1067902E+00
        -11   -1    0    0    0    0  0.00000000000E+00  0.00000000000E+00  0.18250000000E+03  0.18250000000E+03  0.00000000000E+00 0.  1.
         11   -1    0    0    0    0 -0.00000000000E+00 -0.00000000000E+00 -0.18250000000E+03  0.18250000000E+03  0.00000000000E+00 0. -1.
        -11    1    1    2    0    0 -0.14723882406E+01  0.23243108166E+01  0.18178346928E+03  0.18180429052E+03  0.00000000000E+00 0.  1.
         11    1    1    2    0    0  0.24781943281E+01  0.38257590592E+01 -0.93825501102E+02  0.93936162028E+02  0.00000000000E+00 0. -1.
        -15    1    1    2    0    0  0.16162440774E+01 -0.23637247471E+01 -0.78661812672E+02  0.78733969426E+02  0.17770000000E+01 0. -1.
         15    1    1    2    0    0 -0.26220501649E+01 -0.37863451286E+01 -0.92961555088E+01  0.10525578024E+02  0.17770000000E+01 0.  1.
</event>
<event>
 6    1  0.1059789E-002  0.1846801E+03  0.7546771E-02  0.1066733E+00
        -11   -1    0    0    0    0  0.00000000000E+00  0.00000000000E+00  0.18250000000E+03  0.18250000000E+03  0.00000000000E+00 0. -1.
         11   -1    0    0    0    0 -0.00000000000E+00 -0.00000000000E+00 -0.18250000000E+03  0.18250000000E+03  0.00000000000E+00 0. -1.
        -11    1    1    2    0    0  0.94943253462E+01 -0.85480744804E+01  0.17986679369E+03  0.18031992475E+03  0.00000000000E+00 0. -1.
         11    1    1    2    0    0  0.39427366249E+01 -0.33258516468E+01 -0.36525696331E+02  0.36888113990E+02  0.00000000000E+00 0. -1.
        -15    1    1    2    0    0 -0.68021774948E+01  0.13196797151E+02 -0.24207750267E+02  0.28453435218E+02  0.17770000000E+01 0.  1.
         15    1    1    2    0    0 -0.66348844763E+01 -0.13228710236E+01 -0.11913334709E+03  0.11933852604E+03  0.17770000000E+01 0. -1.
</event>
<event>
 6    1  0.1059789E-002  0.1539406E+03  0.7546771E-02  0.1093775E+00
        -11   -1    0    0    0    0  0.00000000000E+00  0.00000000000E+00  0.18250000000E+03  0.18250000000E+03  0.00000000000E+00 0.  1.
         11   -1    0    0    0    0 -0.00000000000E+00 -0.00000000000E+00 -0.18250000000E+03  0.18250000000E+03  0.00000000000E+00 0. -1.
        -11    1    1    2    0    0 -0.23266562704E+01  0.43761690064E+00  0.63453295475E+01  0.67725951465E+01  0.00000000000E+00 0.  1.
         11    1    1    2    0    0  0.17687984595E+02 -0.29822612245E+01 -0.15987714121E+03  0.16088026281E+03  0.00000000000E+00 0. -1.
        -15    1    1    2    0    0 -0.44693003671E+02  0.10774829538E+02  0.56545346719E+01  0.46353996808E+02  0.17770000000E+01 0. -1.
         15    1    1    2    0    0  0.29331675347E+02 -0.82301852140E+01  0.14787727699E+03  0.15099314523E+03  0.17770000000E+01 0.  1.
</event>
<event>
 6    1  0.1059789E-002  0.1636859E+03  0.7546771E-02  0.1084503E+00
        -11   -1    0    0    0    0  0.00000000000E+00  0.00000000000E+00  0.18250000000E+03  0.18250000000E+03  0.00000000000E+00 0. -1.
         11   -1    0    0    0    0 -0.00000000000E+00 -0.00000000000E+00 -0.18250000000E+03  0.18250000000E+03  0.00000000000E+00 0. -1.
        -11    1    1    2    0    0 -0.55728948164E+00  0.83660067169E+01  0.16865957349E+03  0.16886785475E+03  0.00000000000E+00 0. -1.
         11    1    1    2    0    0  0.85220273145E+01  0.18118449325E+02 -0.15856584764E+03  0.15982500178E+03  0.00000000000E+00 0. -1.
        -15    1    1    2    0    0 -0.28058617826E+01 -0.90119079108E+01 -0.14581458812E+02  0.17460355513E+02  0.17770000000E+01 0. -1.
         15    1    1    2    0    0 -0.51588760503E+01 -0.17472548131E+02  0.44877329637E+01  0.18846787961E+02  0.17770000000E+01 0.  1.
</event>
<event>
 6    1  0.1059789E-002  0.1826142E+03  0.7546771E-02  0.1068364E+00
        -11   -1    0    0    0    0  0.00000000000E+00  0.00000000000E+00  0.18250000000E+03  0.18250000000E+03  0.00000000000E+00 0. -1.
         11   -1    0    0    0    0 -0.00000000000E+00 -0.00000000000E+00 -0.18250000000E+03  0.18250000000E+03  0.00000000000E+00 0. -1.
        -11    1    1    2    0    0  0.10319066925E+01 -0.41672982536E+00  0.32262460051E+02  0.32281648405E+02  0.00000000000E+00 0. -1.
         11    1    1    2    0    0 -0.27704689643E+01 -0.13056622867E+01 -0.18236007213E+03  0.18238578935E+03  0.00000000000E+00 0. -1.
        -15    1    1    2    0    0  0.38602920627E+01  0.16171970492E+00  0.11834356444E+03  0.11841995179E+03  0.17770000000E+01 0. -1.
         15    1    1    2    0    0 -0.21217297909E+01  0.15606724071E+01  0.31754047633E+02  0.31912610450E+02  0.17770000000E+01 0.  1.
</event>
<event>
 6    1  0.1059789E-002  0.1846676E+03  0.7546771E-02  0.1066742E+00
        -11   -1    0    0    0    0  0.00000000000E+00  0.00000000000E+00  0.18250000000E+03  0.18250000000E+03  0.00000000000E+00 0.  1.
         11   -1    0    0    0    0 -0.00000000000E+00 -0.00000000000E+00 -0.18250000000E+03  0.18250000000E+03  0.00000000000E+00 0. -1.
        -11    1    1    2    0    0  0.31098959491E+01 -0.30870519776E+01  0.16886964058E+03  0.16892648357E+03  0.00000000000E+00 0.  1.
         11    1    1    2    0    0  0.86633189576E+00 -0.24173104178E+01 -0.18031414164E+03  0.18033242525E+03  0.00000000000E+00 0. -1.
        -15    1    1    2    0    0  0.57028851818E+00  0.59617445571E+00  0.75465772693E+01  0.77967435803E+01  0.17770000000E+01 0. -1.
         15    1    1    2    0    0 -0.45465163630E+01  0.49081879397E+01  0.38979237885E+01  0.79443475977E+01  0.17770000000E+01 0.  1.
</event>
<event>
 6    1  0.1059789E-002  0.1838563E+03  0.7546771E-02  0.1067380E+00
        -11   -1    0    0    0    0  0.00000000000E+00  0.00000000000E+00  0.18250000000E+03  0.18250000000E+03  0.00000000000E+00 0.  1.
         11   -1    0    0    0    0 -0.00000000000E+00 -0.00000000000E+00 -0.18250000000E+03  0.18250000000E+03  0.00000000000E+00 0.  1.
        -11    1    1    2    0    0  0.77799658164E+01 -0.53526843910E+01  0.15452735210E+03  0.15481563760E+03  0.00000000000E+00 0.  1.
         11    1    1    2    0    0  0.64583383337E+00  0.26822320593E+01 -0.18112265099E+03  0.18114366169E+03  0.00000000000E+00 0.  1.
        -15    1    1    2    0    0 -0.14994895373E+01 -0.49859702884E+00  0.14101805440E+02  0.14300899047E+02  0.17770000000E+01 0. -1.
         15    1    1    2    0    0 -0.69263101125E+01  0.31690493605E+01  0.12493493445E+02  0.14739801663E+02  0.17770000000E+01 0.  1.
</event>
<event>
 6    1  0.1059789E-002  0.1863829E+03  0.7546771E-02  0.1065405E+00
        -11   -1    0    0    0    0  0.00000000000E+00  0.00000000000E+00  0.18250000000E+03  0.18250000000E+03  0.00000000000E+00 0. -1.
         11   -1    0    0    0    0 -0.00000000000E+00 -0.00000000000E+00 -0.18250000000E+03  0.18250000000E+03  0.00000000000E+00 0. -1.
        -11    1    1    2    0    0  0.42354290105E+01 -0.61937188338E+01  0.17845945370E+03  0.17861712579E+03  0.00000000000E+00 0. -1.
         11    1    1    2    0    0 -0.30970135197E+01 -0.20498015913E+01 -0.17267834427E+03  0.17271827859E+03  0.00000000000E+00 0. -1.
        -15    1    1    2    0    0 -0.10603550519E+00  0.89831561305E+01 -0.21177334345E+01  0.93995138966E+01  0.17770000000E+01 0. -1.
         15    1    1    2    0    0 -0.10323799857E+01 -0.73963570543E+00 -0.36633759905E+01  0.42650817177E+01  0.17770000000E+01 0. -1.
</event>
<event>
 6    1  0.1059789E-002  0.1887514E+03  0.7546771E-02  0.1063585E+00
        -11   -1    0    0    0    0  0.00000000000E+00  0.00000000000E+00  0.18250000000E+03  0.18250000000E+03  0.00000000000E+00 0.  1.
         11   -1    0    0    0    0 -0.00000000000E+00 -0.00000000000E+00 -0.18250000000E+03  0.18250000000E+03  0.00000000000E+00 0.  1.
        -11    1    1    2    0    0  0.58023397585E+01 -0.64867646962E+01  0.17603354299E+03  0.17624855608E+03  0.00000000000E+00 0.  1.
         11    1    1    2    0    0 -0.20260908106E+01 -0.82555887010E+00 -0.15377159272E+03  0.15378715590E+03  0.00000000000E+00 0.  1.
        -15    1    1    2    0    0 -0.29755813008E+01  0.10521841905E+02  0.12555758251E+01  0.11148876212E+02  0.17770000000E+01 0. -1.
         15    1    1    2    0    0 -0.80066764704E+00 -0.32095183382E+01 -0.23517526100E+02  0.23815411807E+02  0.17770000000E+01 0.  1.
</event>
<event>
 6    1  0.1059789E-002  0.1873887E+03  0.7546771E-02  0.1064629E+00
        -11   -1    0    0    0    0  0.00000000000E+00  0.00000000000E+00  0.18250000000E+03  0.18250000000E+03  0.00000000000E+00 0.  1.
         11   -1    0    0    0    0 -0.00000000000E+00 -0.00000000000E+00 -0.18250000000E+03  0.18250000000E+03  0.00000000000E+00 0. -1.
        -11    1    1    2    0    0 -0.50889409014E+01 -0.11191498951E+01  0.16645976571E+03  0.16654129643E+03  0.00000000000E+00 0.  1.
         11    1    1    2    0    0 -0.51184490420E+01 -0.67877206638E+01 -0.17740769099E+03  0.17761126230E+03  0.00000000000E+00 0. -1.
        -15    1    1    2    0    0  0.14031140655E+01  0.56446477431E+01 -0.52254856642E+00  0.61042250310E+01  0.17770000000E+01 0. -1.
         15    1    1    2    0    0  0.88042758779E+01  0.22622228158E+01  0.11470473844E+02  0.14743216237E+02  0.17770000000E+01 0.  1.
</event>
<event>
 6    1  0.1059789E-002  0.1840086E+03  0.7546771E-02  0.1067260E+00
        -11   -1    0    0    0    0  0.00000000000E+00  0.00000000000E+00  0.18250000000E+03  0.18250000000E+03  0.00000000000E+00 0.  1.
         11   -1    0    0    0    0 -0.00000000000E+00 -0.00000000000E+00 -0.18250000000E+03  0.18250000000E+03  0.00000000000E+00 0.  1.
        -11    1    1    2    0    0  0.19572515008E+01  0.23912279954E+01  0.18096498224E+03  0.18099136334E+03  0.00000000000E+00 0.  1.
         11    1    1    2    0    0 -0.12731760726E+01 -0.20187276889E+01 -0.16568270625E+03  0.16569989557E+03  0.00000000000E+00 0.  1.
        -15    1    1    2    0    0  0.16415495455E+01  0.92633893681E+00 -0.14853962219E+02  0.15078153446E+02  0.17770000000E+01 0.  1.
         15    1    1    2    0    0 -0.23256249738E+01 -0.12988392432E+01 -0.42831376755E+00  0.32305876527E+01  0.17770000000E+01 0. -1.
</event>
<event>
 6    1  0.1059789E-002  0.1836585E+03  0.7546771E-02  0.1067536E+00
        -11   -1    0    0    0    0  0.00000000000E+00  0.00000000000E+00  0.18250000000E+03  0.18250000000E+03  0.00000000000E+00 0.  1.
         11   -1    0    0    0    0 -0.00000000000E+00 -0.00000000000E+00 -0.18250000000E+03  0.18250000000E+03  0.00000000000E+00 0.  1.
        -11    1    1    2    0    0  0.16766478421E+01  0.33058050755E+01  0.18130365605E+03  0.18134154293E+03  0.00000000000E+00 0.  1.
         11    1    1    2    0    0  0.26746003241E+01 -0.21622340977E+00 -0.16678650577E+03  0.16680808957E+03  0.00000000000E+00 0.  1.
        -15    1    1    2    0    0 -0.41222293695E+01 -0.50303282931E+00 -0.11996539051E+02  0.12818755602E+02  0.17770000000E+01 0.  1.
         15    1    1    2    0    0 -0.22901879664E+00 -0.25865488364E+01 -0.25206112292E+01  0.40316118936E+01  0.17770000000E+01 0. -1.
</event>
<event>
 6    1  0.1059789E-002  0.1832410E+03  0.7546771E-02  0.1067866E+00
        -11   -1    0    0    0    0  0.00000000000E+00  0.00000000000E+00  0.18250000000E+03  0.18250000000E+03  0.00000000000E+00 0.  1.
         11   -1    0    0    0    0 -0.00000000000E+00 -0.00000000000E+00 -0.18250000000E+03  0.18250000000E+03  0.00000000000E+00 0. -1.
        -11    1    1    2    0    0  0.58955559270E+01  0.76940748651E+00  0.18166169133E+03  0.18175896034E+03  0.00000000000E+00 0.  1.
         11    1    1    2    0    0 -0.73058531314E+00  0.78827938576E+01 -0.12574667567E+03  0.12599562943E+03  0.00000000000E+00 0. -1.
        -15    1    1    2    0    0 -0.35840097092E+01 -0.89947134662E+01 -0.46262494274E+02  0.47298267425E+02  0.17770000000E+01 0. -1.
         15    1    1    2    0    0 -0.15809609046E+01  0.34251212209E+00 -0.96525213850E+01  0.99471428070E+01  0.17770000000E+01 0.  1.
</event>
<event>
 6    1  0.1059789E-002  0.1828802E+03  0.7546771E-02  0.1068153E+00
        -11   -1    0    0    0    0  0.00000000000E+00  0.00000000000E+00  0.18250000000E+03  0.18250000000E+03  0.00000000000E+00 0. -1.
         11   -1    0    0    0    0 -0.00000000000E+00 -0.00000000000E+00 -0.18250000000E+03  0.18250000000E+03  0.00000000000E+00 0.  1.
        -11    1    1    2    0    0  0.96347011305E+00  0.20844393109E+01  0.15532745982E+03  0.15534443323E+03  0.00000000000E+00 0. -1.
         11    1    1    2    0    0 -0.37148804693E+01 -0.27428087043E+01 -0.18206129736E+03  0.18211984881E+03  0.00000000000E+00 0.  1.
        -15    1    1    2    0    0  0.10765003501E+01 -0.75189171531E+00  0.35529545285E+01  0.41839465863E+01  0.17770000000E+01 0. -1.
         15    1    1    2    0    0  0.16749100061E+01  0.14102611088E+01  0.23180883013E+02  0.23351771372E+02  0.17770000000E+01 0.  1.
</event>
<event>
 6    1  0.1059789E-002  0.1828195E+03  0.7546771E-02  0.1068201E+00
        -11   -1    0    0    0    0  0.00000000000E+00  0.00000000000E+00  0.18250000000E+03  0.18250000000E+03  0.00000000000E+00 0.  1.
         11   -1    0    0    0    0 -0.00000000000E+00 -0.00000000000E+00 -0.18250000000E+03  0.18250000000E+03  0.00000000000E+00 0.  1.
        -11    1    1    2    0    0 -0.89181557346E+01  0.23885617666E+01  0.18194640732E+03  0.18218049804E+03  0.00000000000E+00 0.  1.
         11    1    1    2    0    0 -0.58040271957E+00  0.75985707344E+00 -0.36504086914E+02  0.36516607339E+02  0.00000000000E+00 0.  1.
        -15    1    1    2    0    0  0.67966067186E+01 -0.21971147726E+01 -0.33037111859E+02  0.33847151508E+02  0.17770000000E+01 0.  1.
         15    1    1    2    0    0  0.27019517356E+01 -0.95130406744E+00 -0.11240520854E+03  0.11245574312E+03  0.17770000000E+01 0.  1.
</event>
<event>
 6    1  0.1059789E-002  0.1827523E+03  0.7546771E-02  0.1068254E+00
        -11   -1    0    0    0    0  0.00000000000E+00  0.00000000000E+00  0.18250000000E+03  0.18250000000E+03  0.00000000000E+00 0.  1.
         11   -1    0    0    0    0 -0.00000000000E+00 -0.00000000000E+00 -0.18250000000E+03  0.18250000000E+03  0.00000000000E+00 0.  1.
        -11    1    1    2    0    0 -0.54300319772E+01 -0.61841880087E+01  0.18206177401E+03  0.18224768581E+03  0.00000000000E+00 0.  1.
         11    1    1    2    0    0  0.14773836213E+01 -0.30720637561E-01 -0.23768753472E+02  0.23814643556E+02  0.00000000000E+00 0.  1.
        -15    1    1    2    0    0 -0.67277511082E+00 -0.31158816385E+01 -0.48724103554E+02  0.48860590877E+02  0.17770000000E+01 0.  1.
         15    1    1    2    0    0  0.46254234667E+01  0.93307902848E+01 -0.10956891698E+03  0.11007707976E+03  0.17770000000E+01 0.  1.
</event>
<event>
 6    1  0.1059789E-002  0.1869895E+03  0.7546771E-02  0.1064936E+00
        -11   -1    0    0    0    0  0.00000000000E+00  0.00000000000E+00  0.18250000000E+03  0.18250000000E+03  0.00000000000E+00 0. -1.
         11   -1    0    0    0    0 -0.00000000000E+00 -0.00000000000E+00 -0.18250000000E+03  0.18250000000E+03  0.00000000000E+00 0. -1.
        -11    1    1    2    0    0 -0.27059199139E+01  0.86418197372E+00  0.17536764489E+03  0.17539064880E+03  0.00000000000E+00 0. -1.
         11    1    1    2    0    0 -0.49534399165E+00 -0.24627515027E+01 -0.17799281041E+03  0.17801053639E+03  0.00000000000E+00 0. -1.
        -15    1    1    2    0    0 -0.39222659612E-01  0.46566300125E+01 -0.15705268146E+01  0.52258994409E+01  0.17770000000E+01 0. -1.
         15    1    1    2    0    0  0.32404865651E+01 -0.30580604835E+01  0.41956923365E+01  0.63729153676E+01  0.17770000000E+01 0. -1.
</event>
<event>
 6    1  0.1059789E-002  0.1837918E+03  0.7546771E-02  0.1067431E+00
        -11   -1    0    0    0    0  0.00000000000E+00  0.00000000000E+00  0.18250000000E+03  0.18250000000E+03  0.00000000000E+00 0. -1.
         11   -1    0    0    0    0 -0.00000000000E+00 -0.00000000000E+00 -0.18250000000E+03  0.18250000000E+03  0.00000000000E+00 0.  1.
        -11    1    1    2    0    0  0.33649957823E+01  0.11006434812E+02  0.11734538021E+03  0.11790845203E+03  0.00000000000E+00 0. -1.
         11    1    1    2    0    0  0.62001859248E+01 -0.82358367086E+01 -0.18091468924E+03  0.18120815681E+03  0.00000000000E+00 0.  1.
        -15    1    1    2    0    0 -0.26863817607E+01 -0.74729432293E+01  0.40053461522E+02  0.40871738847E+02  0.17770000000E+01 0.  1.
         15    1    1    2    0    0 -0.68787999464E+01  0.47023451256E+01  0.23515847509E+02  0.25011652313E+02  0.17770000000E+01 0. -1.
</event>
<event>
 6    1  0.1059789E-002  0.1863211E+03  0.7546771E-02  0.1065453E+00
        -11   -1    0    0    0    0  0.00000000000E+00  0.00000000000E+00  0.18250000000E+03  0.18250000000E+03  0.00000000000E+00 0. -1.
         11   -1    0    0    0    0 -0.00000000000E+00 -0.00000000000E+00 -0.18250000000E+03  0.18250000000E+03  0.00000000000E+00 0.  1.
        -11    1    1    2    0    0 -0.60147375587E+01 -0.19144206186E+01  0.16779155900E+03  0.16791024193E+03  0.00000000000E+00 0. -1.
         11    1    1    2    0    0  0.52620187214E+01  0.25375709019E+01 -0.17858341524E+03  0.17867894198E+03  0.00000000000E+00 0.  1.
        -15    1    1    2    0    0 -0.54796838337E+01  0.11699180793E+01  0.10053861704E+02  0.11646179948E+02  0.17770000000E+01 0. -1.
         15    1    1    2    0    0  0.62324026710E+01 -0.17930683625E+01  0.73799453972E+00  0.67646361430E+01  0.17770000000E+01 0.  1.
</event>
<event>
 6    1  0.1059789E-002  0.1874462E+03  0.7546771E-02  0.1064584E+00
        -11   -1    0    0    0    0  0.00000000000E+00  0.00000000000E+00  0.18250000000E+03  0.18250000000E+03  0.00000000000E+00 0. -1.
         11   -1    0    0    0    0 -0.00000000000E+00 -0.00000000000E+00 -0.18250000000E+03  0.18250000000E+03  0.00000000000E+00 0. -1.
        -11    1    1    2    0    0 -0.23788123787E+01 -0.48027036453E+00  0.17753720595E+03  0.17755379158E+03  0.00000000000E+00 0. -1.
         11    1    1    2    0    0 -0.14906666400E+01 -0.41611252448E+01 -0.15711858554E+03  0.15718074619E+03  0.00000000000E+00 0. -1.
        -15    1    1    2    0    0  0.29984713728E+01 -0.71055735505E+01 -0.17271686735E+01  0.81006695206E+01  0.17770000000E+01 0.  1.
         15    1    1    2    0    0  0.87100764594E+00  0.11746969160E+02 -0.18691451738E+02  0.22164792709E+02  0.17770000000E+01 0. -1.
</event>
<event>
 6    1  0.1059789E-002  0.1826346E+03  0.7546771E-02  0.1068348E+00
        -11   -1    0    0    0    0  0.00000000000E+00  0.00000000000E+00  0.18250000000E+03  0.18250000000E+03  0.00000000000E+00 0.  1.
         11   -1    0    0    0    0 -0.00000000000E+00 -0.00000000000E+00 -0.18250000000E+03  0.18250000000E+03  0.00000000000E+00 0. -1.
        -11    1    1    2    0    0  0.91090794760E+00 -0.46226930727E+00  0.68804939084E+02  0.68812521306E+02  0.00000000000E+00 0.  1.
         11    1    1    2    0    0 -0.80388937316E+00 -0.50589466146E+01 -0.18229342807E+03  0.18236538349E+03  0.00000000000E+00 0. -1.
        -15    1    1    2    0    0 -0.64548247746E+00  0.47868632011E+01  0.43237547516E+02  0.43542782997E+02  0.17770000000E+01 0. -1.
         15    1    1    2    0    0  0.53846390303E+00  0.73435272074E+00  0.70250941471E+02  0.70279312204E+02  0.17770000000E+01 0.  1.
</event>
<event>
 6    1  0.1059789E-002  0.1870023E+03  0.7546771E-02  0.1064926E+00
        -11   -1    0    0    0    0  0.00000000000E+00  0.00000000000E+00  0.18250000000E+03  0.18250000000E+03  0.00000000000E+00 0. -1.
         11   -1    0    0    0    0 -0.00000000000E+00 -0.00000000000E+00 -0.18250000000E+03  0.18250000000E+03  0.00000000000E+00 0.  1.
        -11    1    1    2    0    0  0.39541119811E+01  0.16423734485E+00  0.17795370656E+03  0.17799770688E+03  0.00000000000E+00 0. -1.
         11    1    1    2    0    0 -0.32769348605E+01  0.13024951074E+01 -0.17403541667E+03  0.17407113790E+03  0.00000000000E+00 0.  1.
        -15    1    1    2    0    0 -0.25166148095E+01  0.79809093460E+00  0.35203117816E+01  0.47455898768E+01  0.17770000000E+01 0.  1.
         15    1    1    2    0    0  0.18394376889E+01 -0.22648233869E+01 -0.74386016775E+01  0.81855653379E+01  0.17770000000E+01 0.  1.
</event>
<event>
 6    1  0.1059789E-002  0.1834121E+03  0.7546771E-02  0.1067731E+00
        -11   -1    0    0    0    0  0.00000000000E+00  0.00000000000E+00  0.18250000000E+03  0.18250000000E+03  0.00000000000E+00 0. -1.
         11   -1    0    0    0    0 -0.00000000000E+00 -0.00000000000E+00 -0.18250000000E+03  0.18250000000E+03  0.00000000000E+00 0.  1.
        -11    1    1    2    0    0 -0.22083453118E+01  0.40676440896E+01  0.15278063379E+03  0.15285072646E+03  0.00000000000E+00 0. -1.
         11    1    1    2    0    0 -0.47350255993E+00  0.26026751938E+01 -0.18156862683E+03  0.18158789710E+03  0.00000000000E+00 0.  1.
        -15    1    1    2    0    0 -0.21759781827E+00 -0.55707492348E+01  0.11446021282E+02  0.12854949554E+02  0.17770000000E+01 0. -1.
         15    1    1    2    0    0  0.28994456900E+01 -0.10995700486E+01  0.17341971758E+02  0.17706426886E+02  0.17770000000E+01 0.  1.
</event>
<event>
 6    1  0.1059789E-002  0.1840732E+03  0.7546771E-02  0.1067209E+00
        -11   -1    0    0    0    0  0.00000000000E+00  0.00000000000E+00  0.18250000000E+03  0.18250000000E+03  0.00000000000E+00 0. -1.
         11   -1    0    0    0    0 -0.00000000000E+00 -0.00000000000E+00 -0.18250000000E+03  0.18250000000E+03  0.00000000000E+00 0.  1.
        -11    1    1    2    0    0 -0.21311843046E+01 -0.15118776366E+01  0.18090794801E+03  0.18092681773E+03  0.00000000000E+00 0. -1.
         11    1    1    2    0    0 -0.84439324022E+00 -0.30785613767E+01 -0.10365398300E+02  0.10845829706E+02  0.00000000000E+00 0.  1.
        -15    1    1    2    0    0  0.78303199853E+01  0.46857939590E+01 -0.16624277290E+03  0.16650251603E+03  0.17770000000E+01 0.  1.
         15    1    1    2    0    0 -0.48547424405E+01 -0.95354945717E-01 -0.42997768122E+01  0.67248365307E+01  0.17770000000E+01 0. -1.
</event>
<event>
 6    1  0.1059789E-002  0.1911858E+03  0.7546771E-02  0.1061744E+00
        -11   -1    0    0    0    0  0.00000000000E+00  0.00000000000E+00  0.18250000000E+03  0.18250000000E+03  0.00000000000E+00 0. -1.
         11   -1    0    0    0    0 -0.00000000000E+00 -0.00000000000E+00 -0.18250000000E+03  0.18250000000E+03  0.00000000000E+00 0. -1.
        -11    1    1    2    0    0  0.29386237868E+01 -0.19709813142E+01  0.17377822650E+03  0.17381424649E+03  0.00000000000E+00 0. -1.
         11    1    1    2    0    0  0.22157367442E+01 -0.16469953000E+01 -0.15233183695E+03  0.15235685292E+03  0.00000000000E+00 0. -1.
        -15    1    1    2    0    0 -0.10935913592E+01  0.35210365380E+01 -0.29421193729E+02  0.29704511607E+02  0.17770000000E+01 0. -1.
         15    1    1    2    0    0 -0.40607691719E+01  0.96940076260E-01  0.79748041805E+01  0.91243889857E+01  0.17770000000E+01 0.  1.
</event>
<event>
 6    1  0.1059789E-002  0.1733481E+03  0.7546771E-02  0.1075982E+00
        -11   -1    0    0    0    0  0.00000000000E+00  0.00000000000E+00  0.18250000000E+03  0.18250000000E+03  0.00000000000E+00 0.  1.
         11   -1    0    0    0    0 -0.00000000000E+00 -0.00000000000E+00 -0.18250000000E+03  0.18250000000E+03  0.00000000000E+00 0.  1.
        -11    1    1    2    0    0  0.24780850963E+01 -0.30269231696E+01  0.17594353071E+03  0.17598701420E+03  0.00000000000E+00 0.  1.
         11    1    1    2    0    0 -0.76325106057E+01 -0.47488118875E+01 -0.17063872001E+03  0.17087533233E+03  0.00000000000E+00 0.  1.
        -15    1    1    2    0    0  0.73256764091E+01  0.43888878394E+01 -0.88965691258E+01  0.12459315492E+02  0.17770000000E+01 0.  1.
         15    1    1    2    0    0 -0.21712508997E+01  0.33868472178E+01  0.35917584303E+01  0.56783379758E+01  0.17770000000E+01 0. -1.
</event>
<event>
 6    1  0.1059789E-002  0.1873346E+03  0.7546771E-02  0.1064670E+00
        -11   -1    0    0    0    0  0.00000000000E+00  0.00000000000E+00  0.18250000000E+03  0.18250000000E+03  0.00000000000E+00 0. -1.
         11   -1    0    0    0    0 -0.00000000000E+00 -0.00000000000E+00 -0.18250000000E+03  0.18250000000E+03  0.00000000000E+00 0. -1.
        -11    1    1    2    0    0 -0.13039782785E+01 -0.32294120254E+01  0.17763122030E+03  0.17766535927E+03  0.00000000000E+00 0. -1.
         11    1    1    2    0    0 -0.26695330483E+01 -0.41970218467E+00 -0.11288790454E+03  0.11292024419E+03  0.00000000000E+00 0. -1.
        -15    1    1    2    0    0  0.15420660345E+02 -0.45760125084E+00 -0.58697868165E+02  0.60717407887E+02  0.17770000000E+01 0.  1.
         15    1    1    2    0    0 -0.11447149018E+02  0.41067154609E+01 -0.60454475940E+01  0.13696988652E+02  0.17770000000E+01 0. -1.
</event>
<event>
 6    1  0.1059789E-002  0.1826008E+03  0.7546771E-02  0.1068375E+00
        -11   -1    0    0    0    0  0.00000000000E+00  0.00000000000E+00  0.18250000000E+03  0.18250000000E+03  0.00000000000E+00 0.  1.
         11   -1    0    0    0    0 -0.00000000000E+00 -0.00000000000E+00 -0.18250000000E+03  0.18250000000E+03  0.00000000000E+00 0.  1.
        -11    1    1    2    0    0  0.12117485446E+01  0.35490868232E+01  0.18236065773E+03  0.18239921557E+03  0.00000000000E+00 0.  1.
         11    1    1    2    0    0 -0.87280443250E+00 -0.15708853063E+01 -0.79836141094E+02  0.79856364136E+02  0.00000000000E+00 0.  1.
        -15    1    1    2    0    0  0.21360080349E+00  0.15857824205E+01 -0.54286041429E+02  0.54338681933E+02  0.17770000000E+01 0.  1.
         15    1    1    2    0    0 -0.55254491555E+00 -0.35639839374E+01 -0.48238475206E+02  0.48405738364E+02  0.17770000000E+01 0.  1.
</event>
<event>
 6    1  0.1059789E-002  0.1839967E+03  0.7546771E-02  0.1067270E+00
        -11   -1    0    0    0    0  0.00000000000E+00  0.00000000000E+00  0.18250000000E+03  0.18250000000E+03  0.00000000000E+00 0.  1.
         11   -1    0    0    0    0 -0.00000000000E+00 -0.00000000000E+00 -0.18250000000E+03  0.18250000000E+03  0.00000000000E+00 0. -1.
        -11    1    1    2    0    0 -0.12307687080E+01  0.22769991267E+01  0.17437167045E+03  0.17439087984E+03  0.00000000000E+00 0.  1.
         11    1    1    2    0    0  0.29968893521E+01  0.11274046475E+01 -0.18097499730E+03  0.18100332050E+03  0.00000000000E+00 0. -1.
        -15    1    1    2    0    0 -0.79113691893E+00  0.56316682884E+00  0.56624997131E+00  0.21027178916E+01  0.17770000000E+01 0.  1.
         15    1    1    2    0    0 -0.97498372511E+00 -0.39675706031E+01  0.60370768794E+01  0.75030817670E+01  0.17770000000E+01 0. -1.
</event>
<event>
 6    1  0.1059789E-002  0.1854168E+03  0.7546771E-02  0.1066156E+00
        -11   -1    0    0    0    0  0.00000000000E+00  0.00000000000E+00  0.18250000000E+03  0.18250000000E+03  0.00000000000E+00 0. -1.
         11   -1    0    0    0    0 -0.00000000000E+00 -0.00000000000E+00 -0.18250000000E+03  0.18250000000E+03  0.00000000000E+00 0.  1.
        -11    1    1    2    0    0 -0.59135865944E+01 -0.16274189413E+01  0.17947839104E+03  0.17958316138E+03  0.00000000000E+00 0. -1.
         11    1    1    2    0    0  0.59740881737E+01 -0.58696380366E+01 -0.10522859530E+03  0.10556135490E+03  0.00000000000E+00 0.  1.
        -15    1    1    2    0    0 -0.10986547593E+02 -0.48382917711E+01 -0.23194891718E+02  0.26177739132E+02  0.17770000000E+01 0. -1.
         15    1    1    2    0    0  0.10926046014E+02  0.12335348749E+02 -0.51054904025E+02  0.53677744590E+02  0.17770000000E+01 0.  1.
</event>
<event>
 6    1  0.1059789E-002  0.1853540E+03  0.7546771E-02  0.1066205E+00
        -11   -1    0    0    0    0  0.00000000000E+00  0.00000000000E+00  0.18250000000E+03  0.18250000000E+03  0.00000000000E+00 0.  1.
         11   -1    0    0    0    0 -0.00000000000E+00 -0.00000000000E+00 -0.18250000000E+03  0.18250000000E+03  0.00000000000E+00 0. -1.
        -11    1    1    2    0    0  0.41765525873E+01  0.32997247388E+01  0.15841060528E+03  0.15850000517E+03  0.00000000000E+00 0.  1.
         11    1    1    2    0    0 -0.24837256275E+01  0.35670359430E+01 -0.17959339030E+03  0.17964598096E+03  0.00000000000E+00 0. -1.
        -15    1    1    2    0    0 -0.36378986461E+01 -0.24434399158E+01  0.21184143973E+02  0.21705538234E+02  0.17770000000E+01 0.  1.
         15    1    1    2    0    0  0.19450716862E+01 -0.44233207660E+01 -0.13589531570E-02  0.51484756298E+01  0.17770000000E+01 0.  1.
</event>
<event>
 6    1  0.1059789E-002  0.1842259E+03  0.7546771E-02  0.1067089E+00
        -11   -1    0    0    0    0  0.00000000000E+00  0.00000000000E+00  0.18250000000E+03  0.18250000000E+03  0.00000000000E+00 0. -1.
         11   -1    0    0    0    0 -0.00000000000E+00 -0.00000000000E+00 -0.18250000000E+03  0.18250000000E+03  0.00000000000E+00 0.  1.
        -11    1    1    2    0    0  0.32761537656E+01  0.10628336179E+01  0.18074130427E+03  0.18077411836E+03  0.00000000000E+00 0. -1.
         11    1    1    2    0    0  0.30091684536E+01 -0.13409134420E+01 -0.16098606895E+03  0.16101977376E+03  0.00000000000E+00 0.  1.
        -15    1    1    2    0    0 -0.54760063913E+01 -0.57440148795E+00 -0.33960449709E+01  0.67087579709E+01  0.17770000000E+01 0. -1.
         15    1    1    2    0    0 -0.80931582786E+00  0.85248131205E+00 -0.16359190343E+02  0.16497349914E+02  0.17770000000E+01 0. -1.
</event>
<event>
 6    1  0.1059789E-002  0.1774937E+03  0.7546771E-02  0.1072511E+00
        -11   -1    0    0    0    0  0.00000000000E+00  0.00000000000E+00  0.18250000000E+03  0.18250000000E+03  0.00000000000E+00 0. -1.
         11   -1    0    0    0    0 -0.00000000000E+00 -0.00000000000E+00 -0.18250000000E+03  0.18250000000E+03  0.00000000000E+00 0.  1.
        -11    1    1    2    0    0 -0.19486731898E+01 -0.21059104030E+01  0.17723117330E+03  0.17725439620E+03  0.00000000000E+00 0. -1.
         11    1    1    2    0    0  0.76610825525E+00 -0.24196830957E+01 -0.17774616890E+03  0.17776428872E+03  0.00000000000E+00 0.  1.
        -15    1    1    2    0    0 -0.39067755253E+00  0.11613619407E+01 -0.35761962368E+01  0.41771161142E+01  0.17770000000E+01 0. -1.
         15    1    1    2    0    0  0.15732424871E+01  0.33642315580E+01  0.40911918375E+01  0.58041989585E+01  0.17770000000E+01 0. -1.
</event>
<event>
 6    1  0.1059789E-002  0.1827428E+03  0.7546771E-02  0.1068262E+00
        -11   -1    0    0    0    0  0.00000000000E+00  0.00000000000E+00  0.18250000000E+03  0.18250000000E+03  0.00000000000E+00 0.  1.
         11   -1    0    0    0    0 -0.00000000000E+00 -0.00000000000E+00 -0.18250000000E+03  0.18250000000E+03  0.00000000000E+00 0. -1.
        -11    1    1    2    0    0  0.21421295787E+01  0.96937691190E+00  0.99583674876E+02  0.99611428624E+02  0.00000000000E+00 0.  1.
         11    1    1    2    0    0 -0.34413940884E+01  0.55875070620E+00 -0.18222380356E+03  0.18225715344E+03  0.00000000000E+00 0. -1.
        -15    1    1    2    0    0 -0.17007469814E+01 -0.18305302911E+01  0.68357294174E+02  0.68426024123E+02  0.17770000000E+01 0. -1.
         15    1    1    2    0    0  0.30000114911E+01  0.30240267299E+00  0.14282834515E+02  0.14705393810E+02  0.17770000000E+01 0. -1.
</event>
<event>
 6    1  0.1059789E-002  0.1843720E+03  0.7546771E-02  0.1066974E+00
        -11   -1    0    0    0    0  0.00000000000E+00  0.00000000000E+00  0.18250000000E+03  0.18250000000E+03  0.00000000000E+00 0.  1.
         11   -1    0    0    0    0 -0.00000000000E+00 -0.00000000000E+00 -0.18250000000E+03  0.18250000000E+03  0.00000000000E+00 0. -1.
        -11    1    1    2    0    0  0.16782794018E+01 -0.16710194892E+01  0.14125829724E+03  0.14127814929E+03  0.00000000000E+00 0.  1.
         11    1    1    2    0    0 -0.23272853903E+01 -0.26479394566E+01 -0.18059362765E+03  0.18062803268E+03  0.00000000000E+00 0. -1.
        -15    1    1    2    0    0  0.60831291893E+00  0.88661439630E+01  0.36139644862E+02  0.37258693122E+02  0.17770000000E+01 0.  1.
         15    1    1    2    0    0  0.40693069577E-01 -0.45471850172E+01  0.31956855488E+01  0.58351249030E+01  0.17770000000E+01 0. -1.
</event>
<event>
 6    1  0.1059789E-002  0.1825520E+03  0.7546771E-02  0.1068413E+00
        -11   -1    0    0    0    0  0.00000000000E+00  0.00000000000E+00  0.18250000000E+03  0.18250000000E+03  0.00000000000E+00 0.  1.
         11   -1    0    0    0    0 -0.00000000000E+00 -0.00000000000E+00 -0.18250000000E+03  0.18250000000E+03  0.00000000000E+00 0. -1.
        -11    1    1    2    0    0  0.21473911216E+01 -0.23130899788E+01  0.18242068443E+03  0.18244798651E+03  0.00000000000E+00 0.  1.
         11    1    1    2    0    0 -0.29069082646E-01  0.67414114055E+00 -0.30543461748E+02  0.30550914337E+02  0.00000000000E+00 0. -1.
        -15    1    1    2    0    0 -0.27719958459E+01  0.94536987664E+00 -0.57254423118E+02  0.57356816341E+02  0.17770000000E+01 0. -1.
         15    1    1    2    0    0  0.65367380696E+00  0.69357896166E+00 -0.94622799568E+02  0.94644282808E+02  0.17770000000E+01 0. -1.
</event>
<event>
 6    1  0.1059789E-002  0.1873108E+03  0.7546771E-02  0.1064689E+00
        -11   -1    0    0    0    0  0.00000000000E+00  0.00000000000E+00  0.18250000000E+03  0.18250000000E+03  0.00000000000E+00 0. -1.
         11   -1    0    0    0    0 -0.00000000000E+00 -0.00000000000E+00 -0.18250000000E+03  0.18250000000E+03  0.00000000000E+00 0. -1.
        -11    1    1    2    0    0  0.78509358252E+00  0.54725976556E+01  0.17123431709E+03  0.17132354493E+03  0.00000000000E+00 0. -1.
         11    1    1    2    0    0  0.93787965340E+00 -0.49098361159E+01 -0.17761888654E+03  0.17768920891E+03  0.00000000000E+00 0. -1.
        -15    1    1    2    0    0  0.59825814441E-01 -0.12713402975E+01 -0.43877697146E+01  0.49020544008E+01  0.17770000000E+01 0. -1.
         15    1    1    2    0    0 -0.17827990504E+01  0.70857875775E+00  0.10772339159E+02  0.11085191756E+02  0.17770000000E+01 0.  1.
</event>
<event>
 6    1  0.1059789E-002  0.1826581E+03  0.7546771E-02  0.1068329E+00
        -11   -1    0    0    0    0  0.00000000000E+00  0.00000000000E+00  0.18250000000E+03  0.18250000000E+03  0.00000000000E+00 0.  1.
         11   -1    0    0    0    0 -0.00000000000E+00 -0.00000000000E+00 -0.18250000000E+03  0.18250000000E+03  0.00000000000E+00 0.  1.
        -11    1    1    2    0    0  0.17817215342E+01  0.17917936013E+01  0.59807558652E+02  0.59860914860E+02  0.00000000000E+00 0.  1.
         11    1    1    2    0    0 -0.41381306337E+01 -0.57536383205E+01 -0.18220408373E+03  0.18234186740E+03  0.00000000000E+00 0.  1.
        -15    1    1    2    0    0  0.26069263212E+01  0.61333724351E+01  0.74769362437E+02  0.75086813826E+02  0.17770000000E+01 0.  1.
         15    1    1    2    0    0 -0.25051722169E+00 -0.21715277159E+01  0.47627162641E+02  0.47710403915E+02  0.17770000000E+01 0. -1.
</event>
<event>
 6    1  0.1059789E-002  0.1857040E+03  0.7546771E-02  0.1065933E+00
        -11   -1    0    0    0    0  0.00000000000E+00  0.00000000000E+00  0.18250000000E+03  0.18250000000E+03  0.00000000000E+00 0.  1.
         11   -1    0    0    0    0 -0.00000000000E+00 -0.00000000000E+00 -0.18250000000E+03  0.18250000000E+03  0.00000000000E+00 0. -1.
        -11    1    1    2    0    0 -0.58491136959E+01  0.52364081854E+01  0.17912403016E+03  0.17929598513E+03  0.00000000000E+00 0.  1.
         11    1    1    2    0    0 -0.90760034330E+00  0.47270945649E+01 -0.15971392766E+03  0.15978644451E+03  0.00000000000E+00 0. -1.
        -15    1    1    2    0    0  0.46053456596E+01 -0.77380290357E+01 -0.38497370203E+01  0.99531153981E+01  0.17770000000E+01 0.  1.
         15    1    1    2    0    0  0.21513683797E+01 -0.22254737146E+01 -0.15560365486E+02  0.15964454962E+02  0.17770000000E+01 0. -1.
</event>
<event>
 6    1  0.1059789E-002  0.1846611E+03  0.7546771E-02  0.1066747E+00
        -11   -1    0    0    0    0  0.00000000000E+00  0.00000000000E+00  0.18250000000E+03  0.18250000000E+03  0.00000000000E+00 0.  1.
         11   -1    0    0    0    0 -0.00000000000E+00 -0.00000000000E+00 -0.18250000000E+03  0.18250000000E+03  0.00000000000E+00 0. -1.
        -11    1    1    2    0    0 -0.35041091190E+01 -0.22376265333E+01  0.18029097340E+03  0.18033890552E+03  0.00000000000E+00 0.  1.
         11    1    1    2    0    0 -0.24081624753E+01 -0.93506517723E+00 -0.17291492074E+03  0.17293421700E+03  0.00000000000E+00 0. -1.
        -15    1    1    2    0    0  0.23711217445E+01 -0.42619527377E+00 -0.53550589492E+00  0.30411110309E+01  0.17770000000E+01 0. -1.
         15    1    1    2    0    0  0.35411498498E+01  0.35988869843E+01 -0.68405467666E+01  0.86857664515E+01  0.17770000000E+01 0.  1.
</event>
<event>
 6    1  0.1059789E-002  0.1885290E+03  0.7546771E-02  0.1063755E+00
        -11   -1    0    0    0    0  0.00000000000E+00  0.00000000000E+00  0.18250000000E+03  0.18250000000E+03  0.00000000000E+00 0. -1.
         11   -1    0    0    0    0 -0.00000000000E+00 -0.00000000000E+00 -0.18250000000E+03  0.18250000000E+03  0.00000000000E+00 0. -1.
        -11    1    1    2    0    0 -0.49760134931E+00 -0.47597599451E+01  0.17640611921E+03  0.17647102260E+03  0.00000000000E+00 0. -1.
         11    1    1    2    0    0  0.39455672464E+01  0.20792975183E+00 -0.16481055750E+03  0.16485791033E+03  0.00000000000E+00 0. -1.
        -15    1    1    2    0    0 -0.30671357172E+01  0.22088815706E+01  0.51694495815E+01  0.66458571514E+01  0.17770000000E+01 0.  1.
         15    1    1    2    0    0 -0.38083017984E+00  0.23429486227E+01 -0.16765011299E+02  0.17025209917E+02  0.17770000000E+01 0. -1.
</event>
<event>
 6    1  0.1059789E-002  0.1828138E+03  0.7546771E-02  0.1068205E+00
        -11   -1    0    0    0    0  0.00000000000E+00  0.00000000000E+00  0.18250000000E+03  0.18250000000E+03  0.00000000000E+00 0. -1.
         11   -1    0    0    0    0 -0.00000000000E+00 -0.00000000000E+00 -0.18250000000E+03  0.18250000000E+03  0.00000000000E+00 0.  1.
        -11    1    1    2    0    0  0.10033061710E+01  0.41741560839E+01  0.11029309540E+03  0.11037661480E+03  0.00000000000E+00 0. -1.
         11    1    1    2    0    0  0.68557693097E+01 -0.21151723002E+01 -0.18204484936E+03  0.18218617595E+03  0.00000000000E+00 0.  1.
        -15    1    1    2    0    0 -0.45288254139E+01 -0.10411230966E+01  0.23155049583E+02  0.23683501581E+02  0.17770000000E+01 0. -1.
         15    1    1    2    0    0 -0.33302500669E+01 -0.10178606871E+01  0.48596704380E+02  0.48753707669E+02  0.17770000000E+01 0.  1.
</event>
<event>
 6    1  0.1059789E-002  0.1840577E+03  0.7546771E-02  0.1067222E+00
        -11   -1    0    0    0    0  0.00000000000E+00  0.00000000000E+00  0.18250000000E+03  0.18250000000E+03  0.00000000000E+00 0. -1.
         11   -1    0    0    0    0 -0.00000000000E+00 -0.00000000000E+00 -0.18250000000E+03  0.18250000000E+03  0.00000000000E+00 0.  1.
        -11    1    1    2    0    0 -0.37364581022E+01  0.12380850568E+01  0.18089947397E+03  0.18094229371E+03  0.00000000000E+00 0. -1.
         11    1    1    2    0    0 -0.33516742568E+01 -0.40022501893E+00 -0.13608575589E+03  0.13612761239E+03  0.00000000000E+00 0.  1.
        -15    1    1    2    0    0  0.25033642942E+00 -0.39207211961E+01 -0.26360250854E+01  0.50538183857E+01  0.17770000000E+01 0.  1.
         15    1    1    2    0    0  0.68377959296E+01  0.30828611582E+01 -0.42177692993E+02  0.42876275507E+02  0.17770000000E+01 0. -1.
</event>
<event>
 6    1  0.1059789E-002  0.1834515E+03  0.7546771E-02  0.1067700E+00
        -11   -1    0    0    0    0  0.00000000000E+00  0.00000000000E+00  0.18250000000E+03  0.18250000000E+03  0.00000000000E+00 0. -1.
         11   -1    0    0    0    0 -0.00000000000E+00 -0.00000000000E+00 -0.18250000000E+03  0.18250000000E+03  0.00000000000E+00 0. -1.
        -11    1    1    2    0    0  0.14531665241E+01 -0.19714146076E+01  0.18153198525E+03  0.18154850546E+03  0.00000000000E+00 0. -1.
         11    1    1    2    0    0 -0.34695954426E+01  0.71398431222E+00 -0.17250493109E+03  0.17254129684E+03  0.00000000000E+00 0. -1.
        -15    1    1    2    0    0  0.25555648148E+01  0.12597758924E+01 -0.26776776728E+01  0.42948380111E+01  0.17770000000E+01 0. -1.
         15    1    1    2    0    0 -0.53913589628E+00 -0.23455970270E-02 -0.63493764864E+01  0.66153596865E+01  0.17770000000E+01 0. -1.
</event>
<event>
 6    1  0.1059789E-002  0.1830992E+03  0.7546771E-02  0.1067979E+00
        -11   -1    0    0    0    0  0.00000000000E+00  0.00000000000E+00  0.18250000000E+03  0.18250000000E+03  0.00000000000E+00 0. -1.
         11   -1    0    0    0    0 -0.00000000000E+00 -0.00000000000E+00 -0.18250000000E+03  0.18250000000E+03  0.00000000000E+00 0.  1.
        -11    1    1    2    0    0  0.76370120464E+00  0.26684012182E+01  0.18187959407E+03  0.18190077059E+03  0.00000000000E+00 0. -1.
         11    1    1    2    0    0 -0.20596773983E+01  0.88571594089E+00 -0.16107075784E+03  0.16108636129E+03  0.00000000000E+00 0.  1.
        -15    1    1    2    0    0 -0.11526876116E+01 -0.67546461058E+00 -0.12686364936E+02  0.12879694308E+02  0.17770000000E+01 0. -1.
         15    1    1    2    0    0  0.24486638052E+01 -0.28786525485E+01 -0.81224712892E+01  0.91331738060E+01  0.17770000000E+01 0.  1.
</event>
<event>
 6    1  0.1059789E-002  0.1825985E+03  0.7546771E-02  0.1068376E+00
        -11   -1    0    0    0    0  0.00000000000E+00  0.00000000000E+00  0.18250000000E+03  0.18250000000E+03  0.00000000000E+00 0. -1.
         11   -1    0    0    0    0 -0.00000000000E+00 -0.00000000000E+00 -0.18250000000E+03  0.18250000000E+03  0.00000000000E+00 0. -1.
        -11    1    1    2    0    0  0.50375121146E-01  0.71872053187E+00  0.21399059543E+02  0.21411185072E+02  0.00000000000E+00 0. -1.
         11    1    1    2    0    0 -0.70089349792E+01  0.13723189536E+01 -0.18226157695E+03  0.18240145521E+03  0.00000000000E+00 0. -1.
        -15    1    1    2    0    0  0.63450017309E+01 -0.34333999066E+00  0.75952274600E+02  0.76238328124E+02  0.17770000000E+01 0. -1.
         15    1    1    2    0    0  0.61355812714E+00 -0.17476994948E+01  0.84910242807E+02  0.84949031599E+02  0.17770000000E+01 0. -1.
</event>
<event>
 6    1  0.1059789E-002  0.1825584E+03  0.7546771E-02  0.1068408E+00
        -11   -1    0    0    0    0  0.00000000000E+00  0.00000000000E+00  0.18250000000E+03  0.18250000000E+03  0.00000000000E+00 0. -1.
         11   -1    0    0    0    0 -0.00000000000E+00 -0.00000000000E+00 -0.18250000000E+03  0.18250000000E+03  0.00000000000E+00 0.  1.
        -11    1    1    2    0    0  0.37658028653E+00  0.53147812666E+00  0.33820422914E+02  0.33826694899E+02  0.00000000000E+00 0. -1.
         11    1    1    2    0    0 -0.22788771809E+01 -0.99160354115E+00 -0.18242464512E+03  0.18244157340E+03  0.00000000000E+00 0.  1.
        -15    1    1    2    0    0  0.27481162827E+01  0.12950587457E+01  0.61014768087E+02  0.61116192404E+02  0.17770000000E+01 0. -1.
         15    1    1    2    0    0 -0.84581938834E+00 -0.83493333116E+00  0.87589454118E+02  0.87615539294E+02  0.17770000000E+01 0. -1.
</event>
<event>
 6    1  0.1059789E-002  0.1864714E+03  0.7546771E-02  0.1065337E+00
        -11   -1    0    0    0    0  0.00000000000E+00  0.00000000000E+00  0.18250000000E+03  0.18250000000E+03  0.00000000000E+00 0. -1.
         11   -1    0    0    0    0 -0.00000000000E+00 -0.00000000000E+00 -0.18250000000E+03  0.18250000000E+03  0.00000000000E+00 0. -1.
        -11    1    1    2    0    0 -0.11732857605E+01 -0.24091059766E+01  0.17850844167E+03  0.17852855273E+03  0.00000000000E+00 0. -1.
         11    1    1    2    0    0  0.44237321273E+00  0.28007529324E+01 -0.15320933129E+03  0.15323556736E+03  0.00000000000E+00 0. -1.
        -15    1    1    2    0    0  0.92192205322E+00  0.10411649314E+02 -0.12647383231E+02  0.16503527299E+02  0.17770000000E+01 0.  1.
         15    1    1    2    0    0 -0.19100950544E+00 -0.10803296270E+02 -0.12651727151E+02  0.16732352609E+02  0.17770000000E+01 0. -1.
</event>
<event>
 6    1  0.1059789E-002  0.1826804E+03  0.7546771E-02  0.1068311E+00
        -11   -1    0    0    0    0  0.00000000000E+00  0.00000000000E+00  0.18250000000E+03  0.18250000000E+03  0.00000000000E+00 0. -1.
         11   -1    0    0    0    0 -0.00000000000E+00 -0.00000000000E+00 -0.18250000000E+03  0.18250000000E+03  0.00000000000E+00 0.  1.
        -11    1    1    2    0    0 -0.16562897195E+01 -0.53701664716E+00  0.12582382998E+03  0.12583587673E+03  0.00000000000E+00 0. -1.
         11    1    1    2    0    0 -0.34115909596E+01  0.80871961971E+00 -0.18228588284E+03  0.18231959868E+03  0.00000000000E+00 0.  1.
        -15    1    1    2    0    0  0.10859066471E+01 -0.30455027116E+00  0.13701785247E+02  0.13862488668E+02  0.17770000000E+01 0. -1.
         15    1    1    2    0    0  0.39819740321E+01  0.32847298613E-01  0.42760267613E+02  0.42982035916E+02  0.17770000000E+01 0.  1.
</event>
<event>
 6    1  0.1059789E-002  0.1874417E+03  0.7546771E-02  0.1064588E+00
        -11   -1    0    0    0    0  0.00000000000E+00  0.00000000000E+00  0.18250000000E+03  0.18250000000E+03  0.00000000000E+00 0. -1.
         11   -1    0    0    0    0 -0.00000000000E+00 -0.00000000000E+00 -0.18250000000E+03  0.18250000000E+03  0.00000000000E+00 0.  1.
        -11    1    1    2    0    0 -0.36998522032E+01  0.48448507201E+01  0.17745364552E+03  0.17755832223E+03  0.00000000000E+00 0. -1.
         11    1    1    2    0    0  0.20216645852E+01  0.91999104255E+00 -0.15601994711E+03  0.15603575682E+03  0.00000000000E+00 0.  1.
        -15    1    1    2    0    0  0.11191846514E+02 -0.11834612824E+01 -0.67849755953E+01  0.13260906147E+02  0.17770000000E+01 0. -1.
         15    1    1    2    0    0 -0.95136588961E+01 -0.45813804802E+01 -0.14648722819E+02  0.18145014795E+02  0.17770000000E+01 0.  1.
</event>
<event>
 6    1  0.1059789E-002  0.1857264E+03  0.7546771E-02  0.1065915E+00
        -11   -1    0    0    0    0  0.00000000000E+00  0.00000000000E+00  0.18250000000E+03  0.18250000000E+03  0.00000000000E+00 0.  1.
         11   -1    0    0    0    0 -0.00000000000E+00 -0.00000000000E+00 -0.18250000000E+03  0.18250000000E+03  0.00000000000E+00 0. -1.
        -11    1    1    2    0    0  0.13131445400E+02 -0.74898051306E+01  0.15935983902E+03  0.16007526459E+03  0.00000000000E+00 0.  1.
         11    1    1    2    0    0 -0.12199608092E+02  0.72323146129E+01 -0.17871175200E+03  0.17927360964E+03  0.00000000000E+00 0. -1.
        -15    1    1    2    0    0  0.24552909390E+01 -0.30991781620E+01 -0.11843296562E+01  0.44937428286E+01  0.17770000000E+01 0. -1.
         15    1    1    2    0    0 -0.33871282470E+01  0.33566686798E+01  0.20536242633E+02  0.21157382940E+02  0.17770000000E+01 0.  1.
</event>
<event>
 6    1  0.1059789E-002  0.1861159E+03  0.7546771E-02  0.1065612E+00
        -11   -1    0    0    0    0  0.00000000000E+00  0.00000000000E+00  0.18250000000E+03  0.18250000000E+03  0.00000000000E+00 0. -1.
         11   -1    0    0    0    0 -0.00000000000E+00 -0.00000000000E+00 -0.18250000000E+03  0.18250000000E+03  0.00000000000E+00 0. -1.
        -11    1    1    2    0    0  0.74409679327E+00  0.34036093176E+01  0.17885014742E+03  0.17888407830E+03  0.00000000000E+00 0. -1.
         11    1    1    2    0    0  0.32929114311E+01  0.28051685927E+01 -0.16235717129E+03  0.16241478783E+03  0.00000000000E+00 0. -1.
        -15    1    1    2    0    0 -0.24439612144E+01 -0.36591552649E+01 -0.18882436419E+02  0.19469630140E+02  0.17770000000E+01 0. -1.
         15    1    1    2    0    0 -0.15930470100E+01 -0.25496226453E+01  0.23894602853E+01  0.42315037356E+01  0.17770000000E+01 0. -1.
</event>
<event>
 6    1  0.1059789E-002  0.1782602E+03  0.7546771E-02  0.1071881E+00
        -11   -1    0    0    0    0  0.00000000000E+00  0.00000000000E+00  0.18250000000E+03  0.18250000000E+03  0.00000000000E+00 0.  1.
         11   -1    0    0    0    0 -0.00000000000E+00 -0.00000000000E+00 -0.18250000000E+03  0.18250000000E+03  0.00000000000E+00 0.  1.
        -11    1    1    2    0    0  0.93022087150E+00 -0.39261551325E+01  0.17820161075E+03  0.17824728351E+03  0.00000000000E+00 0.  1.
         11    1    1    2    0    0 -0.43243060360E+01 -0.41030583402E+00 -0.17826280618E+03  0.17831572011E+03  0.00000000000E+00 0.  1.
        -15    1    1    2    0    0  0.43842633742E+01  0.16629873600E+01  0.54065452206E+00  0.50435432590E+01  0.17770000000E+01 0.  1.
         15    1    1    2    0    0 -0.99017820961E+00  0.26734736065E+01 -0.47945910043E+00  0.33934531145E+01  0.17770000000E+01 0. -1.
</event>
<event>
 6    1  0.1059789E-002  0.1825937E+03  0.7546771E-02  0.1068380E+00
        -11   -1    0    0    0    0  0.00000000000E+00  0.00000000000E+00  0.18250000000E+03  0.18250000000E+03  0.00000000000E+00 0. -1.
         11   -1    0    0    0    0 -0.00000000000E+00 -0.00000000000E+00 -0.18250000000E+03  0.18250000000E+03  0.00000000000E+00 0. -1.
        -11    1    1    2    0    0 -0.18718381924E+01 -0.16349220297E+01  0.18238940822E+03  0.18240634029E+03  0.00000000000E+00 0. -1.
         11    1    1    2    0    0  0.65768588115E+00  0.86296557013E+00 -0.46719580114E+02  0.46732177633E+02  0.00000000000E+00 0. -1.
        -15    1    1    2    0    0  0.22502995432E+01  0.25916004735E+01 -0.50624789233E+02  0.50772110995E+02  0.17770000000E+01 0. -1.
         15    1    1    2    0    0 -0.10361472320E+01 -0.18196440139E+01 -0.85045038871E+02  0.85089371082E+02  0.17770000000E+01 0. -1.
</event>
<event>
 6    1  0.1059789E-002  0.1909951E+03  0.7546771E-02  0.1061887E+00
        -11   -1    0    0    0    0  0.00000000000E+00  0.00000000000E+00  0.18250000000E+03  0.18250000000E+03  0.00000000000E+00 0. -1.
         11   -1    0    0    0    0 -0.00000000000E+00 -0.00000000000E+00 -0.18250000000E+03  0.18250000000E+03  0.00000000000E+00 0.  1.
        -11    1    1    2    0    0  0.43056616745E+01  0.51596087721E+01  0.13539755165E+03  0.13556421828E+03  0.00000000000E+00 0. -1.
         11    1    1    2    0    0  0.18780564083E+02  0.71413559252E+01 -0.17284100271E+03  0.17400494467E+03  0.00000000000E+00 0.  1.
        -15    1    1    2    0    0  0.76741882756E+01 -0.55148048922E+00  0.71819745315E+01  0.10674070620E+02  0.17770000000E+01 0.  1.
         15    1    1    2    0    0 -0.30760414033E+02 -0.11749484208E+02  0.30261476529E+02  0.44756766431E+02  0.17770000000E+01 0. -1.
</event>
<event>
 6    1  0.1059789E-002  0.1786122E+03  0.7546771E-02  0.1071592E+00
        -11   -1    0    0    0    0  0.00000000000E+00  0.00000000000E+00  0.18250000000E+03  0.18250000000E+03  0.00000000000E+00 0.  1.
         11   -1    0    0    0    0 -0.00000000000E+00 -0.00000000000E+00 -0.18250000000E+03  0.18250000000E+03  0.00000000000E+00 0.  1.
        -11    1    1    2    0    0  0.22032158114E+01  0.17810694092E+01  0.17815104790E+03  0.17817357334E+03  0.00000000000E+00 0.  1.
         11    1    1    2    0    0  0.81388475506E+00 -0.35776164765E+01 -0.17903153276E+03  0.17906912484E+03  0.00000000000E+00 0.  1.
        -15    1    1    2    0    0 -0.26007996194E+01  0.73492786175E+00  0.32488356437E+01  0.45844235910E+01  0.17770000000E+01 0.  1.
         15    1    1    2    0    0 -0.41630094712E+00  0.10616192055E+01 -0.23683507858E+01  0.31728782297E+01  0.17770000000E+01 0. -1.
</event>
<event>
 6    1  0.1059789E-002  0.1851380E+03  0.7546771E-02  0.1066374E+00
        -11   -1    0    0    0    0  0.00000000000E+00  0.00000000000E+00  0.18250000000E+03  0.18250000000E+03  0.00000000000E+00 0. -1.
         11   -1    0    0    0    0 -0.00000000000E+00 -0.00000000000E+00 -0.18250000000E+03  0.18250000000E+03  0.00000000000E+00 0.  1.
        -11    1    1    2    0    0 -0.16676852276E+01 -0.10668761332E+02  0.93370795022E+02  0.93993132756E+02  0.00000000000E+00 0. -1.
         11    1    1    2    0    0 -0.39846440035E+00  0.30757338190E+01 -0.17983526922E+03  0.17986201090E+03  0.00000000000E+00 0.  1.
        -15    1    1    2    0    0 -0.23552126013E+01 -0.67535769085E+01  0.66990842067E+01  0.99595826049E+01  0.17770000000E+01 0.  1.
         15    1    1    2    0    0  0.44213622293E+01  0.14346604422E+02  0.79765389988E+02  0.81185273734E+02  0.17770000000E+01 0. -1.
</event>
<event>
 6    1  0.1059789E-002  0.1869459E+03  0.7546771E-02  0.1064970E+00
        -11   -1    0    0    0    0  0.00000000000E+00  0.00000000000E+00  0.18250000000E+03  0.18250000000E+03  0.00000000000E+00 0.  1.
         11   -1    0    0    0    0 -0.00000000000E+00 -0.00000000000E+00 -0.18250000000E+03  0.18250000000E+03  0.00000000000E+00 0.  1.
        -11    1    1    2    0    0  0.69346592435E+00  0.75010269346E+01  0.17789469838E+03  0.17805412102E+03  0.00000000000E+00 0.  1.
         11    1    1    2    0    0  0.46225959445E+01 -0.26174141852E+01 -0.16211623804E+03  0.16220324869E+03  0.00000000000E+00 0.  1.
        -15    1    1    2    0    0 -0.35821749447E+01 -0.49109913879E+01  0.21156448027E+01  0.66770873648E+01  0.17770000000E+01 0.  1.
         15    1    1    2    0    0 -0.17338869242E+01  0.27378638492E-01 -0.17894105144E+02  0.18065542930E+02  0.17770000000E+01 0. -1.
</event>
<event>
 6    1  0.1059789E-002  0.1827300E+03  0.7546771E-02  0.1068272E+00
        -11   -1    0    0    0    0  0.00000000000E+00  0.00000000000E+00  0.18250000000E+03  0.18250000000E+03  0.00000000000E+00 0.  1.
         11   -1    0    0    0    0 -0.00000000000E+00 -0.00000000000E+00 -0.18250000000E+03  0.18250000000E+03  0.00000000000E+00 0. -1.
        -11    1    1    2    0    0  0.25182316386E+00 -0.13284716040E+01  0.66686585702E+02  0.66700292086E+02  0.00000000000E+00 0.  1.
         11    1    1    2    0    0  0.48349274583E+01 -0.83476524610E+01 -0.18201458064E+03  0.18227003975E+03  0.00000000000E+00 0. -1.
        -15    1    1    2    0    0  0.44089787357E+00  0.47973777851E+01  0.49977869333E+02  0.50240963134E+02  0.17770000000E+01 0. -1.
         15    1    1    2    0    0 -0.55276484958E+01  0.48787462799E+01  0.65350125607E+02  0.65788705026E+02  0.17770000000E+01 0.  1.
</event>
<event>
 6    1  0.1059789E-002  0.1844080E+03  0.7546771E-02  0.1066946E+00
        -11   -1    0    0    0    0  0.00000000000E+00  0.00000000000E+00  0.18250000000E+03  0.18250000000E+03  0.00000000000E+00 0. -1.
         11   -1    0    0    0    0 -0.00000000000E+00 -0.00000000000E+00 -0.18250000000E+03  0.18250000000E+03  0.00000000000E+00 0. -1.
        -11    1    1    2    0    0 -0.22332029329E+01 -0.33111071422E+01  0.18054783079E+03  0.18059199824E+03  0.00000000000E+00 0. -1.
         11    1    1    2    0    0 -0.16634298991E+01  0.23392915036E+01 -0.17380272977E+03  0.17382643113E+03  0.00000000000E+00 0. -1.
        -15    1    1    2    0    0  0.12036073409E+01 -0.99069132338E+00 -0.63605358088E+01  0.67855939095E+01  0.17770000000E+01 0.  1.
         15    1    1    2    0    0  0.26930254911E+01  0.19625069620E+01 -0.38456521446E+00  0.37959767222E+01  0.17770000000E+01 0.  1.
</event>
<event>
 6    1  0.1059789E-002  0.1884917E+03  0.7546771E-02  0.1063783E+00
        -11   -1    0    0    0    0  0.00000000000E+00  0.00000000000E+00  0.18250000000E+03  0.18250000000E+03  0.00000000000E+00 0. -1.
         11   -1    0    0    0    0 -0.00000000000E+00 -0.00000000000E+00 -0.18250000000E+03  0.18250000000E+03  0.00000000000E+00 0.  1.
        -11    1    1    2    0    0 -0.29189560866E+01  0.16876665998E+01  0.16530465726E+03  0.16533904027E+03  0.00000000000E+00 0. -1.
         11    1    1    2    0    0  0.29539742226E+00  0.42020718198E+01 -0.17645799430E+03  0.17650826729E+03  0.00000000000E+00 0.  1.
        -15    1    1    2    0    0  0.58033153789E+01 -0.12357563311E+00  0.14379073796E+02  0.15607986178E+02  0.17770000000E+01 0. -1.
         15    1    1    2    0    0 -0.31797567145E+01 -0.57661627865E+01 -0.32257367540E+01  0.75447062666E+01  0.17770000000E+01 0.  1.
</event>
<event>
 6    1  0.1059789E-002  0.1833670E+03  0.7546771E-02  0.1067767E+00
        -11   -1    0    0    0    0  0.00000000000E+00  0.00000000000E+00  0.18250000000E+03  0.18250000000E+03  0.00000000000E+00 0. -1.
         11   -1    0    0    0    0 -0.00000000000E+00 -0.00000000000E+00 -0.18250000000E+03  0.18250000000E+03  0.00000000000E+00 0.  1.
        -11    1    1    2    0    0  0.19578705458E+01  0.86875660718E-01  0.14510208619E+03  0.14511532042E+03  0.00000000000E+00 0. -1.
         11    1    1    2    0    0 -0.20789820178E+01 -0.17899696801E+01 -0.18161224203E+03  0.18163296125E+03  0.00000000000E+00 0.  1.
        -15    1    1    2    0    0  0.41456977925E+00 -0.28673647236E+01  0.35023542856E+01  0.48803548132E+01  0.17770000000E+01 0. -1.
         15    1    1    2    0    0 -0.29345830725E+00  0.45704587431E+01  0.33007801548E+02  0.33371363516E+02  0.17770000000E+01 0. -1.
</event>
<event>
 6    1  0.1059789E-002  0.1825958E+03  0.7546771E-02  0.1068379E+00
        -11   -1    0    0    0    0  0.00000000000E+00  0.00000000000E+00  0.18250000000E+03  0.18250000000E+03  0.00000000000E+00 0.  1.
         11   -1    0    0    0    0 -0.00000000000E+00 -0.00000000000E+00 -0.18250000000E+03  0.18250000000E+03  0.00000000000E+00 0.  1.
        -11    1    1    2    0    0 -0.40176804953E+01 -0.47361654794E+01  0.18229846022E+03  0.18240422588E+03  0.00000000000E+00 0.  1.
         11    1    1    2    0    0 -0.10886199490E+00 -0.13631862778E+01 -0.39894431728E+02  0.39917863303E+02  0.00000000000E+00 0.  1.
        -15    1    1    2    0    0  0.94011266804E+00  0.68998294860E+00 -0.49126717549E+02  0.49172675282E+02  0.17770000000E+01 0.  1.
         15    1    1    2    0    0  0.31864298222E+01  0.54093688086E+01 -0.93277310946E+02  0.93505235533E+02  0.17770000000E+01 0.  1.
</event>
<event>
 6    1  0.1059789E-002  0.1838925E+03  0.7546771E-02  0.1067352E+00
        -11   -1    0    0    0    0  0.00000000000E+00  0.00000000000E+00  0.18250000000E+03  0.18250000000E+03  0.00000000000E+00 0. -1.
         11   -1    0    0    0    0 -0.00000000000E+00 -0.00000000000E+00 -0.18250000000E+03  0.18250000000E+03  0.00000000000E+00 0. -1.
        -11    1    1    2    0    0  0.47666705959E+01  0.16816403965E+00  0.18104469687E+03  0.18110751418E+03  0.00000000000E+00 0. -1.
         11    1    1    2    0    0 -0.27912789576E+01  0.12537249581E+01 -0.17469642429E+03  0.17472322033E+03  0.00000000000E+00 0. -1.
        -15    1    1    2    0    0 -0.22895809052E+01 -0.27592739741E+01 -0.54239815712E+01  0.67404064173E+01  0.17770000000E+01 0. -1.
         15    1    1    2    0    0  0.31418926689E+00  0.13373849764E+01 -0.92429101356E+00  0.24288590631E+01  0.17770000000E+01 0. -1.
</event>
<event>
 6    1  0.1059789E-002  0.1850055E+03  0.7546771E-02  0.1066478E+00
        -11   -1    0    0    0    0  0.00000000000E+00  0.00000000000E+00  0.18250000000E+03  0.18250000000E+03  0.00000000000E+00 0.  1.
         11   -1    0    0    0    0 -0.00000000000E+00 -0.00000000000E+00 -0.18250000000E+03  0.18250000000E+03  0.00000000000E+00 0.  1.
        -11    1    1    2    0    0 -0.28370422627E+01  0.30031355572E+00  0.17997184959E+03  0.17999446003E+03  0.00000000000E+00 0.  1.
         11    1    1    2    0    0  0.15174646078E+01  0.63759333398E+01 -0.16628198885E+03  0.16641110252E+03  0.00000000000E+00 0.  1.
        -15    1    1    2    0    0 -0.13052605392E+01 -0.63272088844E+01 -0.13866634559E+02  0.15400602596E+02  0.17770000000E+01 0. -1.
         15    1    1    2    0    0  0.26248381941E+01 -0.34903801115E+00  0.17677381873E+00  0.31938348519E+01  0.17770000000E+01 0.  1.
</event>
<event>
 6    1  0.1059789E-002  0.1867983E+03  0.7546771E-02  0.1065084E+00
        -11   -1    0    0    0    0  0.00000000000E+00  0.00000000000E+00  0.18250000000E+03  0.18250000000E+03  0.00000000000E+00 0.  1.
         11   -1    0    0    0    0 -0.00000000000E+00 -0.00000000000E+00 -0.18250000000E+03  0.18250000000E+03  0.00000000000E+00 0.  1.
        -11    1    1    2    0    0  0.23926352413E+00 -0.65885478473E+01  0.17075985883E+03  0.17088708435E+03  0.00000000000E+00 0.  1.
         11    1    1    2    0    0  0.26748276472E+01  0.31807978785E+00 -0.17818136022E+03  0.17820171999E+03  0.00000000000E+00 0.  1.
        -15    1    1    2    0    0  0.15332891515E+01  0.46916518296E+01  0.91778277278E+01  0.10571320793E+02  0.17770000000E+01 0. -1.
         15    1    1    2    0    0 -0.44473803229E+01  0.15788162299E+01 -0.17563263414E+01  0.53398748713E+01  0.17770000000E+01 0.  1.
</event>
<event>
 6    1  0.1059789E-002  0.1908226E+03  0.7546771E-02  0.1062017E+00
        -11   -1    0    0    0    0  0.00000000000E+00  0.00000000000E+00  0.18250000000E+03  0.18250000000E+03  0.00000000000E+00 0.  1.
         11   -1    0    0    0    0 -0.00000000000E+00 -0.00000000000E+00 -0.18250000000E+03  0.18250000000E+03  0.00000000000E+00 0.  1.
        -11    1    1    2    0    0 -0.12430563574E+02  0.43237908498E+00  0.17373273672E+03  0.17417740861E+03  0.00000000000E+00 0.  1.
         11    1    1    2    0    0  0.33457330440E+01 -0.97802544778E-01 -0.16867673245E+03  0.16870993914E+03  0.00000000000E+00 0.  1.
        -15    1    1    2    0    0 -0.33215324015E+01  0.35233111175E+01 -0.71674712617E+01  0.88304400803E+01  0.17770000000E+01 0.  1.
         15    1    1    2    0    0  0.12406362931E+02 -0.38578876577E+01  0.21114669921E+01  0.13282212174E+02  0.17770000000E+01 0. -1.
</event>
<event>
 6    1  0.1059789E-002  0.1778979E+03  0.7546771E-02  0.1072178E+00
        -11   -1    0    0    0    0  0.00000000000E+00  0.00000000000E+00  0.18250000000E+03  0.18250000000E+03  0.00000000000E+00 0. -1.
         11   -1    0    0    0    0 -0.00000000000E+00 -0.00000000000E+00 -0.18250000000E+03  0.18250000000E+03  0.00000000000E+00 0. -1.
        -11    1    1    2    0    0 -0.14067046020E+01  0.34725283345E+01  0.17824973323E+03  0.17828910418E+03  0.00000000000E+00 0. -1.
         11    1    1    2    0    0 -0.32062719894E+01 -0.38565606383E+00 -0.17752143005E+03  0.17755080128E+03  0.00000000000E+00 0. -1.
        -15    1    1    2    0    0  0.28324251608E+01 -0.28912092342E+01 -0.33311773453E+01  0.55349972569E+01  0.17770000000E+01 0.  1.
         15    1    1    2    0    0  0.17805514306E+01 -0.19566303642E+00  0.26028741616E+01  0.36250972845E+01  0.17770000000E+01 0. -1.
</event>
<event>
 6    1  0.1059789E-002  0.1829047E+03  0.7546771E-02  0.1068133E+00
        -11   -1    0    0    0    0  0.00000000000E+00  0.00000000000E+00  0.18250000000E+03  0.18250000000E+03  0.00000000000E+00 0.  1.
         11   -1    0    0    0    0 -0.00000000000E+00 -0.00000000000E+00 -0.18250000000E+03  0.18250000000E+03  0.00000000000E+00 0.  1.
        -11    1    1    2    0    0 -0.30706396729E+01 -0.51831550620E-01  0.29862074695E+02  0.30019577272E+02  0.00000000000E+00 0.  1.
         11    1    1    2    0    0 -0.22950675093E+01 -0.55087583314E+01 -0.18199751329E+03  0.18209532833E+03  0.00000000000E+00 0.  1.
        -15    1    1    2    0    0  0.15599035193E+00 -0.38257310450E+01  0.39159745743E+02  0.39386596282E+02  0.17770000000E+01 0. -1.
         15    1    1    2    0    0  0.52097168302E+01  0.93863209270E+01  0.11297569286E+03  0.11349849812E+03  0.17770000000E+01 0.  1.
</event>
<event>
 6    1  0.1059789E-002  0.1785111E+03  0.7546771E-02  0.1071675E+00
        -11   -1    0    0    0    0  0.00000000000E+00  0.00000000000E+00  0.18250000000E+03  0.18250000000E+03  0.00000000000E+00 0. -1.
         11   -1    0    0    0    0 -0.00000000000E+00 -0.00000000000E+00 -0.18250000000E+03  0.18250000000E+03  0.00000000000E+00 0.  1.
        -11    1    1    2    0    0 -0.14170353824E+01 -0.32223380262E+01  0.17730938151E+03  0.17734432109E+03  0.00000000000E+00 0. -1.
         11    1    1    2    0    0 -0.39302576394E+01  0.17792734388E+01 -0.17967688036E+03  0.17972866793E+03  0.00000000000E+00 0.  1.
        -15    1    1    2    0    0  0.13145110800E+00  0.53339346441E+00 -0.28658638835E-02  0.18599798910E+01  0.17770000000E+01 0. -1.
         15    1    1    2    0    0  0.52158419138E+01  0.90967112295E+00  0.23703647140E+01  0.60670310943E+01  0.17770000000E+01 0. -1.
</event>
<event>
 6    1  0.1059789E-002  0.1535809E+03  0.7546771E-02  0.1094132E+00
        -11   -1    0    0    0    0  0.00000000000E+00  0.00000000000E+00  0.18250000000E+03  0.18250000000E+03  0.00000000000E+00 0.  1.
         11   -1    0    0    0    0 -0.00000000000E+00 -0.00000000000E+00 -0.18250000000E+03  0.18250000000E+03  0.00000000000E+00 0. -1.
        -11    1    1    2    0    0 -0.18728647203E+02 -0.28803986354E+01  0.15736256452E+03  0.15849932377E+03  0.00000000000E+00 0.  1.
         11    1    1    2    0    0  0.30531291601E+01  0.90105668318E+01 -0.14893507555E+03  0.14923862986E+03  0.00000000000E+00 0. -1.
        -15    1    1    2    0    0  0.25786097777E+02 -0.79705046808E+01  0.15489950667E+02  0.31169666089E+02  0.17770000000E+01 0.  1.
         15    1    1    2    0    0 -0.10110579734E+02  0.18403364844E+01 -0.23917439637E+02  0.26092380281E+02  0.17770000000E+01 0. -1.
</event>
<event>
 6    1  0.1059789E-002  0.1827957E+03  0.7546771E-02  0.1068220E+00
        -11   -1    0    0    0    0  0.00000000000E+00  0.00000000000E+00  0.18250000000E+03  0.18250000000E+03  0.00000000000E+00 0.  1.
         11   -1    0    0    0    0 -0.00000000000E+00 -0.00000000000E+00 -0.18250000000E+03  0.18250000000E+03  0.00000000000E+00 0.  1.
        -11    1    1    2    0    0 -0.35973148807E+01  0.96316672978E+00  0.18216625012E+03  0.18220431127E+03  0.00000000000E+00 0.  1.
         11    1    1    2    0    0  0.21682376874E+01  0.22678500164E+01 -0.14985605326E+03  0.14988889585E+03  0.00000000000E+00 0.  1.
        -15    1    1    2    0    0  0.16811079673E+01 -0.23529408911E+00 -0.87260574876E+01  0.90655002942E+01  0.17770000000E+01 0.  1.
         15    1    1    2    0    0 -0.25203077394E+00 -0.29957226570E+01 -0.23584139365E+02  0.23841292589E+02  0.17770000000E+01 0. -1.
</event>
<event>
 6    1  0.1059789E-002  0.1831759E+03  0.7546771E-02  0.1067918E+00
        -11   -1    0    0    0    0  0.00000000000E+00  0.00000000000E+00  0.18250000000E+03  0.18250000000E+03  0.00000000000E+00 0. -1.
         11   -1    0    0    0    0 -0.00000000000E+00 -0.00000000000E+00 -0.18250000000E+03  0.18250000000E+03  0.00000000000E+00 0. -1.
        -11    1    1    2    0    0 -0.33072255919E+00 -0.50965682991E+01  0.18175235399E+03  0.18182409787E+03  0.00000000000E+00 0. -1.
         11    1    1    2    0    0  0.29737757885E+01 -0.58209331936E+01 -0.62876076237E+02  0.63214931532E+02  0.00000000000E+00 0. -1.
        -15    1    1    2    0    0 -0.41809250306E+01  0.59351574455E+01 -0.10047986736E+03  0.10075746970E+03  0.17770000000E+01 0. -1.
         15    1    1    2    0    0  0.15378718013E+01  0.49823440473E+01 -0.18396410399E+02  0.19203500891E+02  0.17770000000E+01 0. -1.
</event>
<event>
 6    1  0.1059789E-002  0.1917809E+03  0.7546771E-02  0.1061298E+00
        -11   -1    0    0    0    0  0.00000000000E+00  0.00000000000E+00  0.18250000000E+03  0.18250000000E+03  0.00000000000E+00 0.  1.
         11   -1    0    0    0    0 -0.00000000000E+00 -0.00000000000E+00 -0.18250000000E+03  0.18250000000E+03  0.00000000000E+00 0.  1.
        -11    1    1    2    0    0  0.26213926960E+01 -0.16389385705E+01  0.17319154379E+03  0.17321913480E+03  0.00000000000E+00 0.  1.
         11    1    1    2    0    0 -0.18383526541E+00 -0.91930041256E+01 -0.13846562622E+03  0.13877058321E+03  0.00000000000E+00 0.  1.
        -15    1    1    2    0    0 -0.12260622180E+01  0.19134834338E+01  0.84196401312E+01  0.89001526028E+01  0.17770000000E+01 0. -1.
         15    1    1    2    0    0 -0.12114952126E+01  0.89184592624E+01 -0.43145557703E+02  0.44110129390E+02  0.17770000000E+01 0.  1.
</event>
<event>
 6    1  0.1059789E-002  0.1885932E+03  0.7546771E-02  0.1063705E+00
        -11   -1    0    0    0    0  0.00000000000E+00  0.00000000000E+00  0.18250000000E+03  0.18250000000E+03  0.00000000000E+00 0. -1.
         11   -1    0    0    0    0 -0.00000000000E+00 -0.00000000000E+00 -0.18250000000E+03  0.18250000000E+03  0.00000000000E+00 0.  1.
        -11    1    1    2    0    0 -0.33736984788E+01  0.38419448411E+01  0.17633268088E+03  0.17640679331E+03  0.00000000000E+00 0. -1.
         11    1    1    2    0    0  0.43066320680E+00 -0.32558572727E+01 -0.13330993846E+03  0.13335038721E+03  0.00000000000E+00 0.  1.
        -15    1    1    2    0    0  0.42938438117E+01  0.36614164040E+01 -0.47980183411E+02  0.48343549662E+02  0.17770000000E+01 0. -1.
         15    1    1    2    0    0 -0.13508085396E+01 -0.42475039724E+01  0.49574409950E+01  0.68992698110E+01  0.17770000000E+01 0.  1.
</event>
<event>
 6    1  0.1059789E-002  0.1902445E+03  0.7546771E-02  0.1062452E+00
        -11   -1    0    0    0    0  0.00000000000E+00  0.00000000000E+00  0.18250000000E+03  0.18250000000E+03  0.00000000000E+00 0. -1.
         11   -1    0    0    0    0 -0.00000000000E+00 -0.00000000000E+00 -0.18250000000E+03  0.18250000000E+03  0.00000000000E+00 0.  1.
        -11    1    1    2    0    0 -0.81870970689E+01 -0.47354782327E+01  0.17449940346E+03  0.17475552958E+03  0.00000000000E+00 0. -1.
         11    1    1    2    0    0 -0.77645080700E+00 -0.30481735928E+02 -0.10501481964E+03  0.10935196133E+03  0.00000000000E+00 0.  1.
        -15    1    1    2    0    0 -0.58661951197E+01  0.15036740666E+02 -0.24954972784E+02  0.29772877098E+02  0.17770000000E+01 0. -1.
         15    1    1    2    0    0  0.14829742996E+02  0.20180473495E+02 -0.44529611028E+02  0.51119631993E+02  0.17770000000E+01 0.  1.
</event>
<event>
 6    1  0.1059789E-002  0.1851371E+03  0.7546771E-02  0.1066375E+00
        -11   -1    0    0    0    0  0.00000000000E+00  0.00000000000E+00  0.18250000000E+03  0.18250000000E+03  0.00000000000E+00 0.  1.
         11   -1    0    0    0    0 -0.00000000000E+00 -0.00000000000E+00 -0.18250000000E+03  0.18250000000E+03  0.00000000000E+00 0. -1.
        -11    1    1    2    0    0 -0.56533831767E+01 -0.52067127927E+01  0.17969865710E+03  0.17986294217E+03  0.00000000000E+00 0.  1.
         11    1    1    2    0    0 -0.15074256164E+01 -0.22557331378E+01 -0.16589511125E+03  0.16591729445E+03  0.00000000000E+00 0. -1.
        -15    1    1    2    0    0  0.77408592797E+01  0.80910043874E+01 -0.11040942920E+02  0.15825466943E+02  0.17770000000E+01 0. -1.
         15    1    1    2    0    0 -0.58005048660E+00 -0.62855845685E+00 -0.27626029390E+01  0.33942964366E+01  0.17770000000E+01 0. -1.
</event>
<event>
 6    1  0.1059789E-002  0.1855671E+03  0.7546771E-02  0.1066039E+00
        -11   -1    0    0    0    0  0.00000000000E+00  0.00000000000E+00  0.18250000000E+03  0.18250000000E+03  0.00000000000E+00 0.  1.
         11   -1    0    0    0    0 -0.00000000000E+00 -0.00000000000E+00 -0.18250000000E+03  0.18250000000E+03  0.00000000000E+00 0. -1.
        -11    1    1    2    0    0  0.17870510588E+01  0.18494749724E+01  0.17941445324E+03  0.17943288478E+03  0.00000000000E+00 0.  1.
         11    1    1    2    0    0  0.11706736239E+02 -0.53112525626E+01 -0.93020229599E+02  0.93904314021E+02  0.00000000000E+00 0. -1.
        -15    1    1    2    0    0 -0.13520595416E+02  0.46758010728E+01 -0.87875428330E+02  0.89050088429E+02  0.17770000000E+01 0. -1.
         15    1    1    2    0    0  0.26808118778E-01 -0.12140234826E+01  0.14812046882E+01  0.26127127703E+01  0.17770000000E+01 0.  1.
</event>
<event>
 6    1  0.1059789E-002  0.1871137E+03  0.7546771E-02  0.1064840E+00
        -11   -1    0    0    0    0  0.00000000000E+00  0.00000000000E+00  0.18250000000E+03  0.18250000000E+03  0.00000000000E+00 0. -1.
         11   -1    0    0    0    0 -0.00000000000E+00 -0.00000000000E+00 -0.18250000000E+03  0.18250000000E+03  0.00000000000E+00 0.  1.
        -11    1    1    2    0    0 -0.30099103522E+01  0.10417448145E+02  0.17755547553E+03  0.17788628299E+03  0.00000000000E+00 0. -1.
         11    1    1    2    0    0  0.19322108707E+01 -0.22995311272E+00 -0.11476878843E+03  0.11478528266E+03  0.00000000000E+00 0.  1.
        -15    1    1    2    0    0 -0.60104385764E+00 -0.15020882447E+02 -0.77134772872E+01  0.16989515122E+02  0.17770000000E+01 0.  1.
         15    1    1    2    0    0  0.16787433392E+01  0.48333874149E+01 -0.55073209816E+02  0.55338919230E+02  0.17770000000E+01 0. -1.
</event>
<event>
 6    1  0.1059789E-002  0.1845628E+03  0.7546771E-02  0.1066825E+00
        -11   -1    0    0    0    0  0.00000000000E+00  0.00000000000E+00  0.18250000000E+03  0.18250000000E+03  0.00000000000E+00 0. -1.
         11   -1    0    0    0    0 -0.00000000000E+00 -0.00000000000E+00 -0.18250000000E+03  0.18250000000E+03  0.00000000000E+00 0.  1.
        -11    1    1    2    0    0  0.60776397463E+01  0.53084938181E+00  0.18033402379E+03  0.18043719030E+03  0.00000000000E+00 0. -1.
         11    1    1    2    0    0  0.20453131705E-01 -0.35566505945E+01 -0.89984386623E+02  0.90054650173E+02  0.00000000000E+00 0.  1.
        -15    1    1    2    0    0  0.92642364177E+01  0.61203672674E+01 -0.48471446759E+02  0.49758656049E+02  0.17770000000E+01 0.  1.
         15    1    1    2    0    0 -0.15362329296E+02 -0.30945660547E+01 -0.41878190411E+02  0.44749503478E+02  0.17770000000E+01 0.  1.
</event>
<event>
 6    1  0.1059789E-002  0.1875700E+03  0.7546771E-02  0.1064489E+00
        -11   -1    0    0    0    0  0.00000000000E+00  0.00000000000E+00  0.18250000000E+03  0.18250000000E+03  0.00000000000E+00 0. -1.
         11   -1    0    0    0    0 -0.00000000000E+00 -0.00000000000E+00 -0.18250000000E+03  0.18250000000E+03  0.00000000000E+00 0.  1.
        -11    1    1    2    0    0 -0.47306211169E+01  0.31200746886E+01  0.17733946181E+03  0.17742998156E+03  0.00000000000E+00 0. -1.
         11    1    1    2    0    0  0.11150750513E+01 -0.28465057471E+01 -0.16516718582E+03  0.16519547591E+03  0.00000000000E+00 0.  1.
        -15    1    1    2    0    0  0.83030472510E+01  0.47620137230E+00  0.70696985172E+00  0.85337504516E+01  0.17770000000E+01 0.  1.
         15    1    1    2    0    0 -0.46875011853E+01 -0.74977031383E+00 -0.12879245841E+02  0.13840792077E+02  0.17770000000E+01 0. -1.
</event>
<event>
 6    1  0.1059789E-002  0.1851237E+03  0.7546771E-02  0.1066385E+00
        -11   -1    0    0    0    0  0.00000000000E+00  0.00000000000E+00  0.18250000000E+03  0.18250000000E+03  0.00000000000E+00 0.  1.
         11   -1    0    0    0    0 -0.00000000000E+00 -0.00000000000E+00 -0.18250000000E+03  0.18250000000E+03  0.00000000000E+00 0. -1.
        -11    1    1    2    0    0 -0.26874758170E+01 -0.22590583765E+01  0.17984199409E+03  0.17987625943E+03  0.00000000000E+00 0.  1.
         11    1    1    2    0    0 -0.16919265206E+01  0.25238162551E+01 -0.17256532898E+03  0.17259207696E+03  0.00000000000E+00 0. -1.
        -15    1    1    2    0    0  0.54343847548E+01 -0.25816963319E+01 -0.70226383826E+01  0.94166274465E+01  0.17770000000E+01 0. -1.
         15    1    1    2    0    0 -0.10549824172E+01  0.23169384533E+01 -0.25402672434E+00  0.31150361593E+01  0.17770000000E+01 0.  1.
</event>
<event>
 6    1  0.1059789E-002  0.1829008E+03  0.7546771E-02  0.1068136E+00
        -11   -1    0    0    0    0  0.00000000000E+00  0.00000000000E+00  0.18250000000E+03  0.18250000000E+03  0.00000000000E+00 0.  1.
         11   -1    0    0    0    0 -0.00000000000E+00 -0.00000000000E+00 -0.18250000000E+03  0.18250000000E+03  0.00000000000E+00 0.  1.
        -11    1    1    2    0    0 -0.32312889884E+01  0.33430234698E+01  0.18203979836E+03  0.18209916315E+03  0.00000000000E+00 0.  1.
         11    1    1    2    0    0  0.29183232688E-01 -0.33517698863E+01 -0.63600904450E+02  0.63689169094E+02  0.00000000000E+00 0.  1.
        -15    1    1    2    0    0  0.15250455080E+01  0.33717897060E+01 -0.10632789913E+03  0.10640711720E+03  0.17770000000E+01 0. -1.
         15    1    1    2    0    0  0.16770602477E+01 -0.33630432895E+01 -0.12110994779E+02  0.12804550549E+02  0.17770000000E+01 0. -1.
</event>
<event>
 6    1  0.1059789E-002  0.1834995E+03  0.7546771E-02  0.1067662E+00
        -11   -1    0    0    0    0  0.00000000000E+00  0.00000000000E+00  0.18250000000E+03  0.18250000000E+03  0.00000000000E+00 0. -1.
         11   -1    0    0    0    0 -0.00000000000E+00 -0.00000000000E+00 -0.18250000000E+03  0.18250000000E+03  0.00000000000E+00 0.  1.
        -11    1    1    2    0    0  0.64355199528E+01 -0.40871692323E+01  0.18134032106E+03  0.18150050389E+03  0.00000000000E+00 0. -1.
         11    1    1    2    0    0  0.42601522155E+01  0.35729833321E+01 -0.11053287755E+03  0.11067263495E+03  0.00000000000E+00 0.  1.
        -15    1    1    2    0    0 -0.21533421363E+01  0.24520158924E+01 -0.41400234428E+01  0.55629836778E+01  0.17770000000E+01 0. -1.
         15    1    1    2    0    0 -0.85423300321E+01 -0.19378299922E+01 -0.66667420063E+02  0.67263877485E+02  0.17770000000E+01 0.  1.
</event>
<event>
 6    1  0.1059789E-002  0.1838395E+03  0.7546771E-02  0.1067394E+00
        -11   -1    0    0    0    0  0.00000000000E+00  0.00000000000E+00  0.18250000000E+03  0.18250000000E+03  0.00000000000E+00 0. -1.
         11   -1    0    0    0    0 -0.00000000000E+00 -0.00000000000E+00 -0.18250000000E+03  0.18250000000E+03  0.00000000000E+00 0. -1.
        -11    1    1    2    0    0 -0.23241749906E+01  0.20490977763E+01  0.18113404607E+03  0.18116054548E+03  0.00000000000E+00 0. -1.
         11    1    1    2    0    0 -0.17901495997E+01  0.20821520426E+01 -0.14910601300E+03  0.14913129485E+03  0.00000000000E+00 0. -1.
        -15    1    1    2    0    0 -0.10528019296E+01  0.72229259528E+00 -0.37210834971E+00  0.22195252015E+01  0.17770000000E+01 0. -1.
         15    1    1    2    0    0  0.51671265198E+01 -0.48535424142E+01 -0.31655924724E+02  0.32488634468E+02  0.17770000000E+01 0. -1.
</event>
<event>
 6    1  0.1059789E-002  0.1852594E+03  0.7546771E-02  0.1066279E+00
        -11   -1    0    0    0    0  0.00000000000E+00  0.00000000000E+00  0.18250000000E+03  0.18250000000E+03  0.00000000000E+00 0. -1.
         11   -1    0    0    0    0 -0.00000000000E+00 -0.00000000000E+00 -0.18250000000E+03  0.18250000000E+03  0.00000000000E+00 0.  1.
        -11    1    1    2    0    0  0.23136717682E+01  0.57982410289E+00  0.17494478352E+03  0.17496104296E+03  0.00000000000E+00 0. -1.
         11    1    1    2    0    0  0.22475597158E+01 -0.41910586552E+01 -0.17967767759E+03  0.17974060288E+03  0.00000000000E+00 0.  1.
        -15    1    1    2    0    0 -0.15100848251E+01  0.12156593948E+01 -0.12804739323E+01  0.29249831512E+01  0.17770000000E+01 0.  1.
         15    1    1    2    0    0 -0.30511466589E+01  0.23955751575E+01  0.60133680120E+01  0.73733710145E+01  0.17770000000E+01 0. -1.
</event>
<event>
 6    1  0.1059789E-002  0.1850247E+03  0.7546771E-02  0.1066463E+00
        -11   -1    0    0    0    0  0.00000000000E+00  0.00000000000E+00  0.18250000000E+03  0.18250000000E+03  0.00000000000E+00 0. -1.
         11   -1    0    0    0    0 -0.00000000000E+00 -0.00000000000E+00 -0.18250000000E+03  0.18250000000E+03  0.00000000000E+00 0.  1.
        -11    1    1    2    0    0  0.18229012947E+01 -0.28232060188E+01  0.17073480578E+03  0.17076787568E+03  0.00000000000E+00 0. -1.
         11    1    1    2    0    0 -0.75691792226E+00  0.26031829025E+01 -0.17995492864E+03  0.17997534783E+03  0.00000000000E+00 0.  1.
        -15    1    1    2    0    0 -0.52277010152E+00 -0.84034251359E+00 -0.19892572901E+01  0.28450549530E+01  0.17770000000E+01 0. -1.
         15    1    1    2    0    0 -0.54321327096E+00  0.10603656299E+01  0.11209380153E+02  0.11411721533E+02  0.17770000000E+01 0.  1.
</event>
<event>
 6    1  0.1059789E-002  0.1831804E+03  0.7546771E-02  0.1067914E+00
        -11   -1    0    0    0    0  0.00000000000E+00  0.00000000000E+00  0.18250000000E+03  0.18250000000E+03  0.00000000000E+00 0. -1.
         11   -1    0    0    0    0 -0.00000000000E+00 -0.00000000000E+00 -0.18250000000E+03  0.18250000000E+03  0.00000000000E+00 0.  1.
        -11    1    1    2    0    0  0.14005859836E+01  0.23302018621E+01  0.18179927197E+03  0.18181959952E+03  0.00000000000E+00 0. -1.
         11    1    1    2    0    0  0.23143242456E+01 -0.35019380181E+00 -0.15645792670E+03  0.15647543436E+03  0.00000000000E+00 0.  1.
        -15    1    1    2    0    0  0.62123032123E+00  0.16294112455E+01 -0.83647438437E+01  0.87274037772E+01  0.17770000000E+01 0.  1.
         15    1    1    2    0    0 -0.43361405504E+01 -0.36094193058E+01 -0.16976601425E+02  0.17977562336E+02  0.17770000000E+01 0.  1.
</event>
<event>
 6    1  0.1059789E-002  0.1852842E+03  0.7546771E-02  0.1066260E+00
        -11   -1    0    0    0    0  0.00000000000E+00  0.00000000000E+00  0.18250000000E+03  0.18250000000E+03  0.00000000000E+00 0. -1.
         11   -1    0    0    0    0 -0.00000000000E+00 -0.00000000000E+00 -0.18250000000E+03  0.18250000000E+03  0.00000000000E+00 0.  1.
        -11    1    1    2    0    0 -0.10658352656E+01 -0.34771919623E+01  0.16455831418E+03  0.16459849827E+03  0.00000000000E+00 0. -1.
         11    1    1    2    0    0  0.32313376690E+00 -0.33003770685E+01 -0.17968517568E+03  0.17971577355E+03  0.00000000000E+00 0.  1.
        -15    1    1    2    0    0  0.27504264270E+01  0.14615242877E+01  0.14217543848E+02  0.14662782166E+02  0.17770000000E+01 0. -1.
         15    1    1    2    0    0 -0.20077249282E+01  0.53160447431E+01  0.90931765380E+00  0.60229460145E+01  0.17770000000E+01 0.  1.
</event>
<event>
 6    1  0.1333112E-002  0.1864523E+03  0.7546771E-02  0.1065352E+00
        -11   -1    0    0    0    0  0.00000000000E+00  0.00000000000E+00  0.18250000000E+03  0.18250000000E+03  0.00000000000E+00 0. -1.
         11   -1    0    0    0    0 -0.00000000000E+00 -0.00000000000E+00 -0.18250000000E+03  0.18250000000E+03  0.00000000000E+00 0.  1.
        -11    1    1    2    0    0  0.26265406806E+01 -0.40449521355E+00  0.17852790846E+03  0.17854768672E+03  0.00000000000E+00 0. -1.
         11    1    1    2    0    0 -0.20991392347E+01 -0.84087904611E+01 -0.40864904024E+02  0.41773849756E+02  0.00000000000E+00 0.  1.
        -15    1    1    2    0    0 -0.18107073290E+01 -0.24610712618E+01  0.23181250275E+01  0.42269333363E+01  0.17770000000E+01 0. -1.
         15    1    1    2    0    0  0.12833058830E+01  0.11274356936E+02 -0.13998112946E+03  0.14045153019E+03  0.17770000000E+01 0.  1.
</event>
<event>
 6    1  0.1059789E-002  0.1829001E+03  0.7546771E-02  0.1068137E+00
        -11   -1    0    0    0    0  0.00000000000E+00  0.00000000000E+00  0.18250000000E+03  0.18250000000E+03  0.00000000000E+00 0.  1.
         11   -1    0    0    0    0 -0.00000000000E+00 -0.00000000000E+00 -0.18250000000E+03  0.18250000000E+03  0.00000000000E+00 0. -1.
        -11    1    1    2    0    0  0.29014271516E+01  0.25259892321E+01  0.18205929954E+03  0.18209993809E+03  0.00000000000E+00 0.  1.
         11    1    1    2    0    0  0.17662524659E+01  0.39805561057E+00 -0.12893781170E+03  0.12895052300E+03  0.00000000000E+00 0. -1.
        -15    1    1    2    0    0 -0.37472665537E+01 -0.50119737061E+01 -0.35172752337E+02  0.35769290223E+02  0.17770000000E+01 0. -1.
         15    1    1    2    0    0 -0.92041306378E+00  0.20879288635E+01 -0.17948735509E+02  0.18180248693E+02  0.17770000000E+01 0. -1.
</event>
<event>
 6    1  0.1059789E-002  0.1829059E+03  0.7546771E-02  0.1068132E+00
        -11   -1    0    0    0    0  0.00000000000E+00  0.00000000000E+00  0.18250000000E+03  0.18250000000E+03  0.00000000000E+00 0.  1.
         11   -1    0    0    0    0 -0.00000000000E+00 -0.00000000000E+00 -0.18250000000E+03  0.18250000000E+03  0.00000000000E+00 0. -1.
        -11    1    1    2    0    0  0.21532413791E+01 -0.20568245388E+01  0.12290826901E+03  0.12294433523E+03  0.00000000000E+00 0.  1.
         11    1    1    2    0    0 -0.75705369092E+01  0.21008662638E+01 -0.18192456176E+03  0.18209413181E+03  0.00000000000E+00 0. -1.
        -15    1    1    2    0    0  0.57168097159E+01 -0.28260770591E+01  0.48089642638E+02  0.48543177512E+02  0.17770000000E+01 0.  1.
         15    1    1    2    0    0 -0.29951418578E+00  0.27820353341E+01  0.10926650113E+02  0.11418355444E+02  0.17770000000E+01 0. -1.
</event>
<event>
 6    1  0.1059789E-002  0.1886461E+03  0.7546771E-02  0.1063665E+00
        -11   -1    0    0    0    0  0.00000000000E+00  0.00000000000E+00  0.18250000000E+03  0.18250000000E+03  0.00000000000E+00 0. -1.
         11   -1    0    0    0    0 -0.00000000000E+00 -0.00000000000E+00 -0.18250000000E+03  0.18250000000E+03  0.00000000000E+00 0. -1.
        -11    1    1    2    0    0 -0.77747618424E+00 -0.25907876372E+01  0.16792079206E+03  0.16794257666E+03  0.00000000000E+00 0. -1.
         11    1    1    2    0    0 -0.99604334983E+00 -0.22033115113E+01 -0.17633729853E+03  0.17635387588E+03  0.00000000000E+00 0. -1.
        -15    1    1    2    0    0  0.93160111401E+01  0.50937602386E+01  0.27851589109E+01  0.11119770505E+02  0.17770000000E+01 0. -1.
         15    1    1    2    0    0 -0.75424916061E+01 -0.29966109015E+00  0.56313475616E+01  0.95837769567E+01  0.17770000000E+01 0.  1.
</event>
<event>
 6    1  0.1059789E-002  0.1996248E+03  0.7546771E-02  0.1055586E+00
        -11   -1    0    0    0    0  0.00000000000E+00  0.00000000000E+00  0.18250000000E+03  0.18250000000E+03  0.00000000000E+00 0.  1.
         11   -1    0    0    0    0 -0.00000000000E+00 -0.00000000000E+00 -0.18250000000E+03  0.18250000000E+03  0.00000000000E+00 0.  1.
        -11    1    1    2    0    0  0.87662639075E+00  0.16509041964E+01  0.12872739995E+03  0.12874097039E+03  0.00000000000E+00 0.  1.
         11    1    1    2    0    0  0.35623965915E+01  0.10770213305E+02 -0.16498568757E+03  0.16537522568E+03  0.00000000000E+00 0.  1.
        -15    1    1    2    0    0  0.21554461231E+02  0.35371410567E+01 -0.19043247981E+01  0.21997507762E+02  0.17770000000E+01 0. -1.
         15    1    1    2    0    0 -0.25993484213E+02 -0.15958258558E+02  0.38162612418E+02  0.48886296170E+02  0.17770000000E+01 0.  1.
</event>
<event>
 6    1  0.1059789E-002  0.1829923E+03  0.7546771E-02  0.1068064E+00
        -11   -1    0    0    0    0  0.00000000000E+00  0.00000000000E+00  0.18250000000E+03  0.18250000000E+03  0.00000000000E+00 0.  1.
         11   -1    0    0    0    0 -0.00000000000E+00 -0.00000000000E+00 -0.18250000000E+03  0.18250000000E+03  0.00000000000E+00 0. -1.
        -11    1    1    2    0    0  0.12488430186E+01 -0.35982541433E+01  0.10413044199E+03  0.10420007673E+03  0.00000000000E+00 0.  1.
         11    1    1    2    0    0 -0.18546304476E+01 -0.30272024297E+01 -0.18197304880E+03  0.18200767593E+03  0.00000000000E+00 0. -1.
        -15    1    1    2    0    0  0.83242576563E+00  0.42195140483E+00  0.26571631749E+01  0.33300481650E+01  0.17770000000E+01 0. -1.
         15    1    1    2    0    0 -0.22663833663E+00  0.62035051682E+01  0.75185443636E+02  0.75462199180E+02  0.17770000000E+01 0.  1.
</event>
<event>
 6    1  0.1059789E-002  0.1838733E+03  0.7546771E-02  0.1067367E+00
        -11   -1    0    0    0    0  0.00000000000E+00  0.00000000000E+00  0.18250000000E+03  0.18250000000E+03  0.00000000000E+00 0.  1.
         11   -1    0    0    0    0 -0.00000000000E+00 -0.00000000000E+00 -0.18250000000E+03  0.18250000000E+03  0.00000000000E+00 0. -1.
        -11    1    1    2    0    0 -0.22529971292E+01 -0.99146224552E+00  0.18110997257E+03  0.18112669918E+03  0.00000000000E+00 0.  1.
         11    1    1    2    0    0 -0.92567523342E+00 -0.21111414594E+01 -0.14923605824E+03  0.14925386050E+03  0.00000000000E+00 0. -1.
        -15    1    1    2    0    0 -0.10284264098E+01  0.64817453496E+01 -0.10545514025E+02  0.12547361424E+02  0.17770000000E+01 0.  1.
         15    1    1    2    0    0  0.42070987725E+01 -0.33791416447E+01 -0.21328400300E+02  0.22072078894E+02  0.17770000000E+01 0. -1.
</event>
<event>
 6    1  0.1059789E-002  0.1744170E+03  0.7546771E-02  0.1075077E+00
        -11   -1    0    0    0    0  0.00000000000E+00  0.00000000000E+00  0.18250000000E+03  0.18250000000E+03  0.00000000000E+00 0. -1.
         11   -1    0    0    0    0 -0.00000000000E+00 -0.00000000000E+00 -0.18250000000E+03  0.18250000000E+03  0.00000000000E+00 0. -1.
        -11    1    1    2    0    0  0.18986372805E+01 -0.36613243305E+01  0.17366362743E+03  0.17371259486E+03  0.00000000000E+00 0. -1.
         11    1    1    2    0    0 -0.18605699479E-01 -0.49997478119E+01 -0.17516583722E+03  0.17523717743E+03  0.00000000000E+00 0. -1.
        -15    1    1    2    0    0 -0.43863678746E+01  0.22977817654E+01  0.57595326553E+01  0.78006390495E+01  0.17770000000E+01 0. -1.
         15    1    1    2    0    0  0.25063362936E+01  0.63632903770E+01 -0.42573228663E+01  0.82495886580E+01  0.17770000000E+01 0. -1.
</event>
<event>
 6    1  0.1059789E-002  0.1848884E+03  0.7546771E-02  0.1066569E+00
        -11   -1    0    0    0    0  0.00000000000E+00  0.00000000000E+00  0.18250000000E+03  0.18250000000E+03  0.00000000000E+00 0. -1.
         11   -1    0    0    0    0 -0.00000000000E+00 -0.00000000000E+00 -0.18250000000E+03  0.18250000000E+03  0.00000000000E+00 0.  1.
        -11    1    1    2    0    0  0.20103524295E+01  0.29686995385E+01  0.17158195656E+03  0.17161941181E+03  0.00000000000E+00 0. -1.
         11    1    1    2    0    0 -0.37370342031E+01  0.35933459483E+01 -0.18003701309E+03  0.18011164216E+03  0.00000000000E+00 0.  1.
        -15    1    1    2    0    0  0.16465304151E+01 -0.20624323301E+00  0.55474042905E+01  0.60568161638E+01  0.17770000000E+01 0. -1.
         15    1    1    2    0    0  0.80151358527E-01 -0.63558022538E+01  0.29076522412E+01  0.72121298578E+01  0.17770000000E+01 0.  1.
</event>
<event>
 6    1  0.1059789E-002  0.1908342E+03  0.7546771E-02  0.1062008E+00
        -11   -1    0    0    0    0  0.00000000000E+00  0.00000000000E+00  0.18250000000E+03  0.18250000000E+03  0.00000000000E+00 0.  1.
         11   -1    0    0    0    0 -0.00000000000E+00 -0.00000000000E+00 -0.18250000000E+03  0.18250000000E+03  0.00000000000E+00 0.  1.
        -11    1    1    2    0    0 -0.79107933710E+01  0.29968320235E+01  0.84635059804E+02  0.85056775168E+02  0.00000000000E+00 0.  1.
         11    1    1    2    0    0 -0.41918806599E+01 -0.12334265368E+01 -0.17411095899E+03  0.17416578092E+03  0.00000000000E+00 0.  1.
        -15    1    1    2    0    0 -0.86469382942E+01 -0.30010122578E+01  0.83579400040E+02  0.84097856432E+02  0.17770000000E+01 0.  1.
         15    1    1    2    0    0  0.20749612325E+02  0.12376067711E+01  0.58964991420E+01  0.21679587480E+02  0.17770000000E+01 0. -1.
</event>
<event>
 6    1  0.1059789E-002  0.1968772E+03  0.7546771E-02  0.1057554E+00
        -11   -1    0    0    0    0  0.00000000000E+00  0.00000000000E+00  0.18250000000E+03  0.18250000000E+03  0.00000000000E+00 0.  1.
         11   -1    0    0    0    0 -0.00000000000E+00 -0.00000000000E+00 -0.18250000000E+03  0.18250000000E+03  0.00000000000E+00 0.  1.
        -11    1    1    2    0    0  0.42418897289E+01 -0.28923514265E+01  0.14223659589E+03  0.14232922587E+03  0.00000000000E+00 0.  1.
         11    1    1    2    0    0 -0.27829939581E+02 -0.25560858891E+02 -0.16382124651E+03  0.16812276423E+03  0.00000000000E+00 0.  1.
        -15    1    1    2    0    0  0.27235450467E+02  0.19354294830E+02  0.31672294561E+01  0.33608742344E+02  0.17770000000E+01 0. -1.
         15    1    1    2    0    0 -0.36474006143E+01  0.90989154873E+01  0.18417421168E+02  0.20939267555E+02  0.17770000000E+01 0.  1.
</event>
<event>
 6    1  0.1059789E-002  0.1896268E+03  0.7546771E-02  0.1062919E+00
        -11   -1    0    0    0    0  0.00000000000E+00  0.00000000000E+00  0.18250000000E+03  0.18250000000E+03  0.00000000000E+00 0. -1.
         11   -1    0    0    0    0 -0.00000000000E+00 -0.00000000000E+00 -0.18250000000E+03  0.18250000000E+03  0.00000000000E+00 0. -1.
        -11    1    1    2    0    0  0.43448218670E+01  0.12994363562E+01  0.16492380820E+03  0.16498614646E+03  0.00000000000E+00 0. -1.
         11    1    1    2    0    0 -0.27726439761E+01 -0.42687021739E+01 -0.17529929244E+03  0.17537317727E+03  0.00000000000E+00 0. -1.
        -15    1    1    2    0    0  0.20105033619E+01  0.96229737935E+01 -0.18488112835E+01  0.10159703763E+02  0.17770000000E+01 0. -1.
         15    1    1    2    0    0 -0.35826812528E+01 -0.66537079757E+01  0.12224295525E+02  0.14480972512E+02  0.17770000000E+01 0.  1.
</event>
<event>
 6    1  0.1059789E-002  0.1826131E+03  0.7546771E-02  0.1068365E+00
        -11   -1    0    0    0    0  0.00000000000E+00  0.00000000000E+00  0.18250000000E+03  0.18250000000E+03  0.00000000000E+00 0.  1.
         11   -1    0    0    0    0 -0.00000000000E+00 -0.00000000000E+00 -0.18250000000E+03  0.18250000000E+03  0.00000000000E+00 0.  1.
        -11    1    1    2    0    0 -0.96945431119E+00 -0.24181760137E+01  0.18236829723E+03  0.18238690537E+03  0.00000000000E+00 0.  1.
         11    1    1    2    0    0  0.15245544974E+01  0.22872818370E+00 -0.71577752320E+02  0.71594351804E+02  0.00000000000E+00 0.  1.
        -15    1    1    2    0    0 -0.84536876935E+00  0.31050933302E+01 -0.33374597627E+02  0.33576446339E+02  0.17770000000E+01 0. -1.
         15    1    1    2    0    0  0.29026858309E+00 -0.91564550017E+00 -0.77415947281E+02  0.77442296486E+02  0.17770000000E+01 0.  1.
</event>
<event>
 6    1  0.1059789E-002  0.1836109E+03  0.7546771E-02  0.1067574E+00
        -11   -1    0    0    0    0  0.00000000000E+00  0.00000000000E+00  0.18250000000E+03  0.18250000000E+03  0.00000000000E+00 0.  1.
         11   -1    0    0    0    0 -0.00000000000E+00 -0.00000000000E+00 -0.18250000000E+03  0.18250000000E+03  0.00000000000E+00 0. -1.
        -11    1    1    2    0    0 -0.19097150779E+01  0.22964863006E+01  0.16444395937E+03  0.16447108146E+03  0.00000000000E+00 0.  1.
         11    1    1    2    0    0 -0.14877183476E+01 -0.28460762583E+01 -0.18136067626E+03  0.18138910759E+03  0.00000000000E+00 0. -1.
        -15    1    1    2    0    0  0.65285122323E+00  0.23105512162E+01  0.16186592631E+01  0.33974473435E+01  0.17770000000E+01 0.  1.
         15    1    1    2    0    0  0.27445822023E+01 -0.17609612585E+01  0.15298057627E+02  0.15742363615E+02  0.17770000000E+01 0. -1.
</event>
<event>
 6    1  0.1059789E-002  0.1826335E+03  0.7546771E-02  0.1068349E+00
        -11   -1    0    0    0    0  0.00000000000E+00  0.00000000000E+00  0.18250000000E+03  0.18250000000E+03  0.00000000000E+00 0. -1.
         11   -1    0    0    0    0 -0.00000000000E+00 -0.00000000000E+00 -0.18250000000E+03  0.18250000000E+03  0.00000000000E+00 0.  1.
        -11    1    1    2    0    0 -0.18026589149E+01  0.10866775588E+01  0.10640916282E+03  0.10642997876E+03  0.00000000000E+00 0. -1.
         11    1    1    2    0    0 -0.28777829761E+01 -0.38379111410E+01 -0.18230339511E+03  0.18236649655E+03  0.00000000000E+00 0.  1.
        -15    1    1    2    0    0  0.13032936742E+01  0.10790532295E+01  0.19153337679E+02  0.19309868035E+02  0.17770000000E+01 0. -1.
         15    1    1    2    0    0  0.33771482168E+01  0.16721803527E+01  0.56740894610E+02  0.56893656653E+02  0.17770000000E+01 0.  1.
</event>
<event>
 6    1  0.1059789E-002  0.1833632E+03  0.7546771E-02  0.1067770E+00
        -11   -1    0    0    0    0  0.00000000000E+00  0.00000000000E+00  0.18250000000E+03  0.18250000000E+03  0.00000000000E+00 0.  1.
         11   -1    0    0    0    0 -0.00000000000E+00 -0.00000000000E+00 -0.18250000000E+03  0.18250000000E+03  0.00000000000E+00 0. -1.
        -11    1    1    2    0    0 -0.72827449200E+01 -0.29485156570E+01  0.18146681633E+03  0.18163682872E+03  0.00000000000E+00 0.  1.
         11    1    1    2    0    0  0.11698440829E+01  0.55383742189E+00 -0.70379966515E+02  0.70391867127E+02  0.00000000000E+00 0. -1.
        -15    1    1    2    0    0  0.11228608051E+02 -0.11443013152E+01 -0.40269336766E+02  0.41858909169E+02  0.17770000000E+01 0.  1.
         15    1    1    2    0    0 -0.51157072139E+01  0.35389795503E+01 -0.70817513051E+02  0.71112394983E+02  0.17770000000E+01 0. -1.
</event>
<event>
 6    1  0.1059789E-002  0.1858008E+03  0.7546771E-02  0.1065857E+00
        -11   -1    0    0    0    0  0.00000000000E+00  0.00000000000E+00  0.18250000000E+03  0.18250000000E+03  0.00000000000E+00 0.  1.
         11   -1    0    0    0    0 -0.00000000000E+00 -0.00000000000E+00 -0.18250000000E+03  0.18250000000E+03  0.00000000000E+00 0. -1.
        -11    1    1    2    0    0 -0.53105139722E+00 -0.23893248526E+01  0.17918244993E+03  0.17919916644E+03  0.00000000000E+00 0.  1.
         11    1    1    2    0    0  0.25213641290E+01  0.59982854697E+01 -0.13824782399E+03  0.13840085817E+03  0.00000000000E+00 0. -1.
        -15    1    1    2    0    0  0.86586550326E+01 -0.78114196846E+01 -0.25544904763E+02  0.28136994737E+02  0.17770000000E+01 0. -1.
         15    1    1    2    0    0 -0.10648967764E+02  0.42024590674E+01 -0.15389721181E+02  0.19262980654E+02  0.17770000000E+01 0.  1.
</event>
<event>
 6    1  0.1135959E-002  0.1826684E+03  0.7546771E-02  0.1068321E+00
        -11   -1    0    0    0    0  0.00000000000E+00  0.00000000000E+00  0.18250000000E+03  0.18250000000E+03  0.00000000000E+00 0. -1.
         11   -1    0    0    0    0 -0.00000000000E+00 -0.00000000000E+00 -0.18250000000E+03  0.18250000000E+03  0.00000000000E+00 0. -1.
        -11    1    1    2    0    0 -0.20148397438E+01  0.17691080107E+01  0.18231186168E+03  0.18233157772E+03  0.00000000000E+00 0. -1.
         11    1    1    2    0    0  0.18613874064E+01  0.42028120411E-01 -0.90485175830E+02  0.90504329037E+02  0.00000000000E+00 0. -1.
        -15    1    1    2    0    0 -0.67883731791E+00  0.85127669372E-01 -0.80156890708E+02  0.80179504388E+02  0.17770000000E+01 0. -1.
         15    1    1    2    0    0  0.83228965528E+00 -0.18962638005E+01 -0.11669795142E+02  0.11984588860E+02  0.17770000000E+01 0. -1.
</event>
<event>
 6    1  0.1059789E-002  0.1829091E+03  0.7546771E-02  0.1068130E+00
        -11   -1    0    0    0    0  0.00000000000E+00  0.00000000000E+00  0.18250000000E+03  0.18250000000E+03  0.00000000000E+00 0.  1.
         11   -1    0    0    0    0 -0.00000000000E+00 -0.00000000000E+00 -0.18250000000E+03  0.18250000000E+03  0.00000000000E+00 0. -1.
        -11    1    1    2    0    0 -0.17800326816E+01 -0.28072995190E+01  0.18206052163E+03  0.18209086463E+03  0.00000000000E+00 0.  1.
         11    1    1    2    0    0  0.85334506364E+00  0.18505855057E+01 -0.12155647407E+03  0.12157355491E+03  0.00000000000E+00 0. -1.
        -15    1    1    2    0    0 -0.76220274515E+00  0.32245658742E+01 -0.94220899350E+01  0.10144569278E+02  0.17770000000E+01 0.  1.
         15    1    1    2    0    0  0.16888903631E+01 -0.22678518609E+01 -0.51081957617E+02  0.51191011181E+02  0.17770000000E+01 0. -1.
</event>
<event>
 6    1  0.1059789E-002  0.1834767E+03  0.7546771E-02  0.1067680E+00
        -11   -1    0    0    0    0  0.00000000000E+00  0.00000000000E+00  0.18250000000E+03  0.18250000000E+03  0.00000000000E+00 0. -1.
         11   -1    0    0    0    0 -0.00000000000E+00 -0.00000000000E+00 -0.18250000000E+03  0.18250000000E+03  0.00000000000E+00 0. -1.
        -11    1    1    2    0    0 -0.44195273369E+01 -0.22728964360E+01  0.18145526103E+03  0.18152330438E+03  0.00000000000E+00 0. -1.
         11    1    1    2    0    0  0.34704124147E+00 -0.14990364981E+01 -0.55242032835E+02  0.55263457544E+02  0.00000000000E+00 0. -1.
        -15    1    1    2    0    0 -0.54971837002E+01  0.51038368353E+01 -0.18348875566E+02  0.19902440619E+02  0.17770000000E+01 0.  1.
         15    1    1    2    0    0  0.95696697956E+01 -0.13319039012E+01 -0.10786435263E+03  0.10831079745E+03  0.17770000000E+01 0. -1.
</event>
<event>
 6    1  0.1059789E-002  0.1670554E+03  0.7546771E-02  0.1081460E+00
        -11   -1    0    0    0    0  0.00000000000E+00  0.00000000000E+00  0.18250000000E+03  0.18250000000E+03  0.00000000000E+00 0.  1.
         11   -1    0    0    0    0 -0.00000000000E+00 -0.00000000000E+00 -0.18250000000E+03  0.18250000000E+03  0.00000000000E+00 0.  1.
        -11    1    1    2    0    0 -0.30467071971E+01  0.29181643930E+01  0.17173956268E+03  0.17179137201E+03  0.00000000000E+00 0.  1.
         11    1    1    2    0    0 -0.96736144890E+01  0.74261125369E+01 -0.16239468889E+03  0.16285196021E+03  0.00000000000E+00 0.  1.
        -15    1    1    2    0    0  0.48628811656E+01 -0.98722120997E+01 -0.16270230314E+02  0.19722735826E+02  0.17770000000E+01 0. -1.
         15    1    1    2    0    0  0.78574405205E+01 -0.47206483024E+00  0.69253565313E+01  0.10633931955E+02  0.17770000000E+01 0. -1.
</event>
<event>
 6    1  0.1059789E-002  0.1929850E+03  0.7546771E-02  0.1060402E+00
        -11   -1    0    0    0    0  0.00000000000E+00  0.00000000000E+00  0.18250000000E+03  0.18250000000E+03  0.00000000000E+00 0.  1.
         11   -1    0    0    0    0 -0.00000000000E+00 -0.00000000000E+00 -0.18250000000E+03  0.18250000000E+03  0.00000000000E+00 0. -1.
        -11    1    1    2    0    0 -0.12255800978E+01 -0.49428940415E+01  0.17193963875E+03  0.17201503894E+03  0.00000000000E+00 0.  1.
         11    1    1    2    0    0 -0.86013759076E-01 -0.51275454786E+01 -0.16496252879E+03  0.16504222195E+03  0.00000000000E+00 0. -1.
        -15    1    1    2    0    0 -0.76077025310E+01 -0.10638685569E+01  0.49099027584E+01  0.92883705892E+01  0.17770000000E+01 0. -1.
         15    1    1    2    0    0  0.89192963878E+01  0.11134308077E+02 -0.11887012722E+02  0.18654368519E+02  0.17770000000E+01 0.  1.
</event>
<event>
 6    1  0.1362787E-002  0.1870297E+03  0.7546771E-02  0.1064905E+00
        -11   -1    0    0    0    0  0.00000000000E+00  0.00000000000E+00  0.18250000000E+03  0.18250000000E+03  0.00000000000E+00 0.  1.
         11   -1    0    0    0    0 -0.00000000000E+00 -0.00000000000E+00 -0.18250000000E+03  0.18250000000E+03  0.00000000000E+00 0.  1.
        -11    1    1    2    0    0  0.12950300692E+01 -0.28877487475E+01  0.17794213786E+03  0.17797028016E+03  0.00000000000E+00 0.  1.
         11    1    1    2    0    0 -0.27409727647E+01  0.82132143748E+01 -0.15455428917E+03  0.15479663473E+03  0.00000000000E+00 0.  1.
        -15    1    1    2    0    0  0.16490473757E+01  0.18760892961E+01  0.33169534458E+01  0.45165227173E+01  0.17770000000E+01 0.  1.
         15    1    1    2    0    0 -0.20310468028E+00 -0.72015549235E+01 -0.26704802131E+02  0.27716562389E+02  0.17770000000E+01 0. -1.
</event>
<event>
 6    1  0.1059789E-002  0.1837804E+03  0.7546771E-02  0.1067440E+00
        -11   -1    0    0    0    0  0.00000000000E+00  0.00000000000E+00  0.18250000000E+03  0.18250000000E+03  0.00000000000E+00 0. -1.
         11   -1    0    0    0    0 -0.00000000000E+00 -0.00000000000E+00 -0.18250000000E+03  0.18250000000E+03  0.00000000000E+00 0. -1.
        -11    1    1    2    0    0 -0.25404372723E+01 -0.28120913334E+01  0.14713392814E+03  0.14718272483E+03  0.00000000000E+00 0. -1.
         11    1    1    2    0    0  0.31086986765E+01 -0.31734821500E+01 -0.18116516061E+03  0.18121961929E+03  0.00000000000E+00 0. -1.
        -15    1    1    2    0    0 -0.37844334303E+01 -0.20263343992E+01  0.11377721587E+02  0.12289761796E+02  0.17770000000E+01 0. -1.
         15    1    1    2    0    0  0.32161720261E+01  0.80119078827E+01  0.22653510886E+02  0.24307894086E+02  0.17770000000E+01 0.  1.
</event>
<event>
 6    1  0.1059789E-002  0.1779538E+03  0.7546771E-02  0.1072132E+00
        -11   -1    0    0    0    0  0.00000000000E+00  0.00000000000E+00  0.18250000000E+03  0.18250000000E+03  0.00000000000E+00 0.  1.
         11   -1    0    0    0    0 -0.00000000000E+00 -0.00000000000E+00 -0.18250000000E+03  0.18250000000E+03  0.00000000000E+00 0. -1.
        -11    1    1    2    0    0 -0.11995771337E+01 -0.23943023063E+01  0.17764827672E+03  0.17766846059E+03  0.00000000000E+00 0.  1.
         11    1    1    2    0    0  0.49298065206E+01 -0.12531847225E+01 -0.17820518146E+03  0.17827776127E+03  0.00000000000E+00 0. -1.
        -15    1    1    2    0    0 -0.45499790241E+00  0.17924947205E+01 -0.27331776952E+01  0.37480728018E+01  0.17770000000E+01 0.  1.
         15    1    1    2    0    0 -0.32752314845E+01  0.18549923083E+01  0.32900824347E+01  0.53057053412E+01  0.17770000000E+01 0. -1.
</event>
<event>
 6    1  0.1059789E-002  0.1852980E+03  0.7546771E-02  0.1066249E+00
        -11   -1    0    0    0    0  0.00000000000E+00  0.00000000000E+00  0.18250000000E+03  0.18250000000E+03  0.00000000000E+00 0.  1.
         11   -1    0    0    0    0 -0.00000000000E+00 -0.00000000000E+00 -0.18250000000E+03  0.18250000000E+03  0.00000000000E+00 0.  1.
        -11    1    1    2    0    0 -0.56872287655E+01  0.25765005382E+01  0.17959353531E+03  0.17970203352E+03  0.00000000000E+00 0.  1.
         11    1    1    2    0    0 -0.12055401363E+01 -0.99340636424E+00 -0.94776038485E+02  0.94788911029E+02  0.00000000000E+00 0.  1.
        -15    1    1    2    0    0  0.24942445178E+01 -0.30256569923E+01 -0.85407270828E+02  0.85515703208E+02  0.17770000000E+01 0.  1.
         15    1    1    2    0    0  0.43985243840E+01  0.14425628184E+01  0.58977400239E+00  0.49933522422E+01  0.17770000000E+01 0. -1.
</event>
<event>
 6    1  0.1059789E-002  0.1861330E+03  0.7546771E-02  0.1065599E+00
        -11   -1    0    0    0    0  0.00000000000E+00  0.00000000000E+00  0.18250000000E+03  0.18250000000E+03  0.00000000000E+00 0.  1.
         11   -1    0    0    0    0 -0.00000000000E+00 -0.00000000000E+00 -0.18250000000E+03  0.18250000000E+03  0.00000000000E+00 0.  1.
        -11    1    1    2    0    0 -0.32358194714E+01  0.42061986996E+01  0.16066687423E+03  0.16075449329E+03  0.00000000000E+00 0.  1.
         11    1    1    2    0    0 -0.58298092085E+01  0.54838450006E+01 -0.17868787064E+03  0.17886702979E+03  0.00000000000E+00 0.  1.
        -15    1    1    2    0    0 -0.22463463887E+01  0.46173089309E-02  0.27676351691E+01  0.39829168767E+01  0.17770000000E+01 0.  1.
         15    1    1    2    0    0  0.11311975069E+02 -0.96946610091E+01  0.15253361233E+02  0.21395560052E+02  0.17770000000E+01 0.  1.
</event>
<event>
 6    1  0.1059789E-002  0.1857108E+03  0.7546771E-02  0.1065927E+00
        -11   -1    0    0    0    0  0.00000000000E+00  0.00000000000E+00  0.18250000000E+03  0.18250000000E+03  0.00000000000E+00 0.  1.
         11   -1    0    0    0    0 -0.00000000000E+00 -0.00000000000E+00 -0.18250000000E+03  0.18250000000E+03  0.00000000000E+00 0. -1.
        -11    1    1    2    0    0 -0.50072908223E+01  0.14979366843E+01  0.17921298176E+03  0.17928917873E+03  0.00000000000E+00 0.  1.
         11    1    1    2    0    0 -0.38258184027E+01  0.18582584309E+01 -0.94147031542E+02  0.94243055760E+02  0.00000000000E+00 0. -1.
        -15    1    1    2    0    0  0.39419078031E+01  0.77198856133E+01 -0.75280729930E+02  0.75798953151E+02  0.17770000000E+01 0. -1.
         15    1    1    2    0    0  0.48912014220E+01 -0.11076080729E+02 -0.97852202923E+01  0.15668812362E+02  0.17770000000E+01 0.  1.
</event>
<event>
 6    1  0.1059789E-002  0.1832225E+03  0.7546771E-02  0.1067881E+00
        -11   -1    0    0    0    0  0.00000000000E+00  0.00000000000E+00  0.18250000000E+03  0.18250000000E+03  0.00000000000E+00 0. -1.
         11   -1    0    0    0    0 -0.00000000000E+00 -0.00000000000E+00 -0.18250000000E+03  0.18250000000E+03  0.00000000000E+00 0.  1.
        -11    1    1    2    0    0 -0.37029579076E+01 -0.30697683790E+00  0.16047583741E+03  0.16051884788E+03  0.00000000000E+00 0. -1.
         11    1    1    2    0    0 -0.57695372642E+00  0.24044814352E+01 -0.18176067818E+03  0.18177749734E+03  0.00000000000E+00 0.  1.
        -15    1    1    2    0    0  0.10307249198E+01  0.45279144075E+00  0.13894728064E+02  0.14053064111E+02  0.17770000000E+01 0. -1.
         15    1    1    2    0    0  0.32491867142E+01 -0.25502960381E+01  0.73901127016E+01  0.86505906693E+01  0.17770000000E+01 0.  1.
</event>
<event>
 6    1  0.1059789E-002  0.1876241E+03  0.7546771E-02  0.1064448E+00
        -11   -1    0    0    0    0  0.00000000000E+00  0.00000000000E+00  0.18250000000E+03  0.18250000000E+03  0.00000000000E+00 0. -1.
         11   -1    0    0    0    0 -0.00000000000E+00 -0.00000000000E+00 -0.18250000000E+03  0.18250000000E+03  0.00000000000E+00 0. -1.
        -11    1    1    2    0    0  0.74116258332E+01 -0.79298107406E+01  0.16794169861E+03  0.16829209199E+03  0.00000000000E+00 0. -1.
         11    1    1    2    0    0  0.14379821943E+01  0.23500427610E+01 -0.17735451159E+03  0.17737590951E+03  0.00000000000E+00 0. -1.
        -15    1    1    2    0    0 -0.10341814922E+02  0.78911618731E+01  0.92349581751E+01  0.16051970380E+02  0.17770000000E+01 0. -1.
         15    1    1    2    0    0  0.14922068947E+01 -0.23113938935E+01  0.17785480411E+00  0.32800281217E+01  0.17770000000E+01 0.  1.
</event>
<event>
 6    1  0.1059789E-002  0.1826656E+03  0.7546771E-02  0.1068323E+00
        -11   -1    0    0    0    0  0.00000000000E+00  0.00000000000E+00  0.18250000000E+03  0.18250000000E+03  0.00000000000E+00 0. -1.
         11   -1    0    0    0    0 -0.00000000000E+00 -0.00000000000E+00 -0.18250000000E+03  0.18250000000E+03  0.00000000000E+00 0.  1.
        -11    1    1    2    0    0 -0.45688701670E+01  0.12393841008E+01  0.54226761175E+02  0.54433007221E+02  0.00000000000E+00 0. -1.
         11    1    1    2    0    0  0.24128912655E+01 -0.12042822018E+01 -0.18231441629E+03  0.18233435970E+03  0.00000000000E+00 0.  1.
        -15    1    1    2    0    0  0.16562196590E+01 -0.20037034883E+01  0.50515228651E+02  0.50613278356E+02  0.17770000000E+01 0.  1.
         15    1    1    2    0    0  0.49975924250E+00  0.19686015894E+01  0.77572426463E+02  0.77619354725E+02  0.17770000000E+01 0. -1.
</event>
<event>
 6    1  0.1059789E-002  0.1827618E+03  0.7546771E-02  0.1068247E+00
        -11   -1    0    0    0    0  0.00000000000E+00  0.00000000000E+00  0.18250000000E+03  0.18250000000E+03  0.00000000000E+00 0.  1.
         11   -1    0    0    0    0 -0.00000000000E+00 -0.00000000000E+00 -0.18250000000E+03  0.18250000000E+03  0.00000000000E+00 0.  1.
        -11    1    1    2    0    0  0.19013026214E+01  0.20898204175E+01  0.18221629726E+03  0.18223819931E+03  0.00000000000E+00 0.  1.
         11    1    1    2    0    0 -0.17883076815E-01 -0.21575364418E+01 -0.15950061886E+03  0.15951521150E+03  0.00000000000E+00 0.  1.
        -15    1    1    2    0    0 -0.54260353004E+00 -0.10884806092E+01 -0.67528823708E+01  0.70879022243E+01  0.17770000000E+01 0.  1.
         15    1    1    2    0    0 -0.13408160146E+01  0.11561966335E+01 -0.15962796033E+02  0.16158686965E+02  0.17770000000E+01 0. -1.
</event>
<event>
 6    1  0.1059789E-002  0.1712166E+03  0.7546771E-02  0.1077809E+00
        -11   -1    0    0    0    0  0.00000000000E+00  0.00000000000E+00  0.18250000000E+03  0.18250000000E+03  0.00000000000E+00 0.  1.
         11   -1    0    0    0    0 -0.00000000000E+00 -0.00000000000E+00 -0.18250000000E+03  0.18250000000E+03  0.00000000000E+00 0. -1.
        -11    1    1    2    0    0 -0.47186631098E+00 -0.44520882048E+01  0.17089770904E+03  0.17095634151E+03  0.00000000000E+00 0.  1.
         11    1    1    2    0    0  0.38709161843E+01  0.31731279071E+01 -0.17142346086E+03  0.17149651794E+03  0.00000000000E+00 0. -1.
        -15    1    1    2    0    0 -0.12462940773E+02 -0.19487358270E+01  0.74288797193E+00  0.12760567212E+02  0.17770000000E+01 0.  1.
         15    1    1    2    0    0  0.90638908998E+01  0.32276961247E+01 -0.21713615368E+00  0.97865733343E+01  0.17770000000E+01 0. -1.
</event>
<event>
 6    1  0.1059789E-002  0.1860621E+03  0.7546771E-02  0.1065654E+00
        -11   -1    0    0    0    0  0.00000000000E+00  0.00000000000E+00  0.18250000000E+03  0.18250000000E+03  0.00000000000E+00 0. -1.
         11   -1    0    0    0    0 -0.00000000000E+00 -0.00000000000E+00 -0.18250000000E+03  0.18250000000E+03  0.00000000000E+00 0.  1.
        -11    1    1    2    0    0 -0.48744998030E+01  0.52439268879E+01  0.17213036343E+03  0.17227919646E+03  0.00000000000E+00 0. -1.
         11    1    1    2    0    0 -0.26349777592E+00  0.28706334478E+01 -0.17891472505E+03  0.17893794681E+03  0.00000000000E+00 0.  1.
        -15    1    1    2    0    0  0.50156382235E+01 -0.71197174389E+01  0.74906326320E+01  0.11623868092E+02  0.17770000000E+01 0. -1.
         15    1    1    2    0    0  0.12235935540E+00 -0.99484289678E+00 -0.70627101338E+00  0.21589886395E+01  0.17770000000E+01 0.  1.
</event>
<event>
 6    1  0.1059789E-002  0.1831094E+03  0.7546771E-02  0.1067971E+00
        -11   -1    0    0    0    0  0.00000000000E+00  0.00000000000E+00  0.18250000000E+03  0.18250000000E+03  0.00000000000E+00 0.  1.
         11   -1    0    0    0    0 -0.00000000000E+00 -0.00000000000E+00 -0.18250000000E+03  0.18250000000E+03  0.00000000000E+00 0. -1.
        -11    1    1    2    0    0  0.22176245918E+01  0.46718107384E+01  0.92562041160E+02  0.92706392110E+02  0.00000000000E+00 0.  1.
         11    1    1    2    0    0 -0.57097017774E+01  0.32784635157E+01 -0.18177135126E+03  0.18189055269E+03  0.00000000000E+00 0. -1.
        -15    1    1    2    0    0  0.64680303386E+01 -0.73306210182E+01  0.78579873255E+02  0.79205603531E+02  0.17770000000E+01 0. -1.
         15    1    1    2    0    0 -0.29759531529E+01 -0.61965323583E+00  0.10629436846E+02  0.11197451673E+02  0.17770000000E+01 0.  1.
</event>
<event>
 6    1  0.1059789E-002  0.1750457E+03  0.7546771E-02  0.1074548E+00
        -11   -1    0    0    0    0  0.00000000000E+00  0.00000000000E+00  0.18250000000E+03  0.18250000000E+03  0.00000000000E+00 0.  1.
         11   -1    0    0    0    0 -0.00000000000E+00 -0.00000000000E+00 -0.18250000000E+03  0.18250000000E+03  0.00000000000E+00 0. -1.
        -11    1    1    2    0    0 -0.38466350168E+01 -0.13767197670E+01  0.17494260952E+03  0.17499030997E+03  0.00000000000E+00 0.  1.
         11    1    1    2    0    0  0.14740329867E+01 -0.57597685187E+01 -0.17508105885E+03  0.17518197645E+03  0.00000000000E+00 0. -1.
        -15    1    1    2    0    0 -0.25332624926E+01  0.86851120174E+01 -0.97809583586E+00  0.92716228394E+01  0.17770000000E+01 0.  1.
         15    1    1    2    0    0  0.49058645227E+01 -0.15486237318E+01  0.11165451671E+01  0.55560907379E+01  0.17770000000E+01 0. -1.
</event>
<event>
 6    1  0.1059789E-002  0.1828687E+03  0.7546771E-02  0.1068162E+00
        -11   -1    0    0    0    0  0.00000000000E+00  0.00000000000E+00  0.18250000000E+03  0.18250000000E+03  0.00000000000E+00 0.  1.
         11   -1    0    0    0    0 -0.00000000000E+00 -0.00000000000E+00 -0.18250000000E+03  0.18250000000E+03  0.00000000000E+00 0.  1.
        -11    1    1    2    0    0  0.24695621075E+01  0.13663716257E+01  0.16390704090E+03  0.16393133857E+03  0.00000000000E+00 0.  1.
         11    1    1    2    0    0 -0.37744928837E+01  0.17813089208E+01 -0.18208345556E+03  0.18213128410E+03  0.00000000000E+00 0.  1.
        -15    1    1    2    0    0  0.16698095586E+01 -0.16710227477E+01  0.93412335510E+01  0.97978035416E+01  0.17770000000E+01 0.  1.
         15    1    1    2    0    0 -0.36487878243E+00 -0.14766577988E+01  0.88351811075E+01  0.91395737857E+01  0.17770000000E+01 0. -1.
</event>
<event>
 6    1  0.1059789E-002  0.1908583E+03  0.7546771E-02  0.1061990E+00
        -11   -1    0    0    0    0  0.00000000000E+00  0.00000000000E+00  0.18250000000E+03  0.18250000000E+03  0.00000000000E+00 0.  1.
         11   -1    0    0    0    0 -0.00000000000E+00 -0.00000000000E+00 -0.18250000000E+03  0.18250000000E+03  0.00000000000E+00 0. -1.
        -11    1    1    2    0    0  0.24580207136E+01  0.12098785374E+01  0.17412011761E+03  0.17414166942E+03  0.00000000000E+00 0.  1.
         11    1    1    2    0    0 -0.17131706637E+01 -0.44075454813E+01 -0.15635732790E+03  0.15642881896E+03  0.00000000000E+00 0. -1.
        -15    1    1    2    0    0 -0.12824531274E+01  0.10758831164E+02 -0.22696049252E+02  0.25212407950E+02  0.17770000000E+01 0. -1.
         15    1    1    2    0    0  0.53760307756E+00 -0.75611642197E+01  0.49332595449E+01  0.92171036755E+01  0.17770000000E+01 0.  1.
</event>
<event>
 6    1  0.1059789E-002  0.1833833E+03  0.7546771E-02  0.1067754E+00
        -11   -1    0    0    0    0  0.00000000000E+00  0.00000000000E+00  0.18250000000E+03  0.18250000000E+03  0.00000000000E+00 0.  1.
         11   -1    0    0    0    0 -0.00000000000E+00 -0.00000000000E+00 -0.18250000000E+03  0.18250000000E+03  0.00000000000E+00 0.  1.
        -11    1    1    2    0    0  0.18091717718E+01  0.50768552140E-01  0.11912414661E+03  0.11913789483E+03  0.00000000000E+00 0.  1.
         11    1    1    2    0    0 -0.76054953887E+00  0.23909652975E+01 -0.18159935058E+03  0.18161668228E+03  0.00000000000E+00 0.  1.
        -15    1    1    2    0    0  0.31069076005E-01 -0.17221542221E+01  0.61928903839E+02  0.61978332021E+02  0.17770000000E+01 0.  1.
         15    1    1    2    0    0 -0.10796913089E+01 -0.71957962752E+00  0.54630013524E+00  0.22670908673E+01  0.17770000000E+01 0. -1.
</event>
<event>
 6    1  0.1059789E-002  0.1832037E+03  0.7546771E-02  0.1067896E+00
        -11   -1    0    0    0    0  0.00000000000E+00  0.00000000000E+00  0.18250000000E+03  0.18250000000E+03  0.00000000000E+00 0. -1.
         11   -1    0    0    0    0 -0.00000000000E+00 -0.00000000000E+00 -0.18250000000E+03  0.18250000000E+03  0.00000000000E+00 0.  1.
        -11    1    1    2    0    0 -0.54629479300E+01  0.97638780483E+01  0.18145167233E+03  0.18179627748E+03  0.00000000000E+00 0. -1.
         11    1    1    2    0    0 -0.17561579756E+00  0.41012591918E+01 -0.66091317875E+02  0.66218679135E+02  0.00000000000E+00 0.  1.
        -15    1    1    2    0    0  0.50287610035E+01 -0.45449007652E+01 -0.20815229269E+02  0.21963061232E+02  0.17770000000E+01 0. -1.
         15    1    1    2    0    0  0.60980272408E+00 -0.93202364750E+01 -0.94545125184E+02  0.95021982154E+02  0.17770000000E+01 0.  1.
</event>
<event>
 6    1  0.1059789E-002  0.1892212E+03  0.7546771E-02  0.1063227E+00
        -11   -1    0    0    0    0  0.00000000000E+00  0.00000000000E+00  0.18250000000E+03  0.18250000000E+03  0.00000000000E+00 0. -1.
         11   -1    0    0    0    0 -0.00000000000E+00 -0.00000000000E+00 -0.18250000000E+03  0.18250000000E+03  0.00000000000E+00 0.  1.
        -11    1    1    2    0    0 -0.30482681652E+01 -0.77902324632E+01  0.17557963597E+03  0.17577880484E+03  0.00000000000E+00 0. -1.
         11    1    1    2    0    0  0.75829099060E+01 -0.51556365615E+01 -0.16432349141E+03  0.16457913276E+03  0.00000000000E+00 0.  1.
        -15    1    1    2    0    0 -0.31910499514E+01  0.75922669348E+01 -0.15373209373E+02  0.17530505196E+02  0.17770000000E+01 0.  1.
         15    1    1    2    0    0 -0.13435917894E+01  0.53536020899E+01  0.41170648100E+01  0.71115572052E+01  0.17770000000E+01 0. -1.
</event>
<event>
 6    1  0.1059789E-002  0.1840043E+03  0.7546771E-02  0.1067264E+00
        -11   -1    0    0    0    0  0.00000000000E+00  0.00000000000E+00  0.18250000000E+03  0.18250000000E+03  0.00000000000E+00 0. -1.
         11   -1    0    0    0    0 -0.00000000000E+00 -0.00000000000E+00 -0.18250000000E+03  0.18250000000E+03  0.00000000000E+00 0. -1.
        -11    1    1    2    0    0  0.26560504240E+01  0.51683127944E+00  0.18097548528E+03  0.18099571263E+03  0.00000000000E+00 0. -1.
         11    1    1    2    0    0 -0.23249434255E+01  0.22529845298E+01 -0.16295019669E+03  0.16298235457E+03  0.00000000000E+00 0. -1.
        -15    1    1    2    0    0  0.28511738237E+01 -0.39783102934E+01 -0.42496451719E+01  0.67211128580E+01  0.17770000000E+01 0.  1.
         15    1    1    2    0    0 -0.31822808222E+01  0.12084944842E+01 -0.13775643423E+02  0.14300819937E+02  0.17770000000E+01 0. -1.
</event>
<event>
 6    1  0.1059789E-002  0.1920787E+03  0.7546771E-02  0.1061076E+00
        -11   -1    0    0    0    0  0.00000000000E+00  0.00000000000E+00  0.18250000000E+03  0.18250000000E+03  0.00000000000E+00 0. -1.
         11   -1    0    0    0    0 -0.00000000000E+00 -0.00000000000E+00 -0.18250000000E+03  0.18250000000E+03  0.00000000000E+00 0.  1.
        -11    1    1    2    0    0 -0.15095580287E+00  0.30248967512E+01  0.13906832210E+03  0.13910129762E+03  0.00000000000E+00 0. -1.
         11    1    1    2    0    0  0.24583645600E+02 -0.67076059302E+01 -0.17103345643E+03  0.17292134289E+03  0.00000000000E+00 0.  1.
        -15    1    1    2    0    0 -0.27331838554E+02  0.10435532321E+02  0.12077414453E+02  0.31700968478E+02  0.17770000000E+01 0.  1.
         15    1    1    2    0    0  0.28991487566E+01 -0.67528231424E+01  0.19887719877E+02  0.21276391020E+02  0.17770000000E+01 0. -1.
</event>
<event>
 6    1  0.1059789E-002  0.1881140E+03  0.7546771E-02  0.1064072E+00
        -11   -1    0    0    0    0  0.00000000000E+00  0.00000000000E+00  0.18250000000E+03  0.18250000000E+03  0.00000000000E+00 0. -1.
         11   -1    0    0    0    0 -0.00000000000E+00 -0.00000000000E+00 -0.18250000000E+03  0.18250000000E+03  0.00000000000E+00 0.  1.
        -11    1    1    2    0    0 -0.15488434508E+01  0.20876277107E+01  0.16987910280E+03  0.16989898962E+03  0.00000000000E+00 0. -1.
         11    1    1    2    0    0 -0.32068192340E+01 -0.28553696888E+00 -0.17685673035E+03  0.17688603192E+03  0.00000000000E+00 0.  1.
        -15    1    1    2    0    0  0.22107961470E+01  0.55497211317E+01 -0.16654319393E+01  0.64512337415E+01  0.17770000000E+01 0. -1.
         15    1    1    2    0    0  0.25448665377E+01 -0.73518118735E+01  0.86430594857E+01  0.11763744718E+02  0.17770000000E+01 0.  1.
</event>
<event>
 6    1  0.1059789E-002  0.1852804E+03  0.7546771E-02  0.1066263E+00
        -11   -1    0    0    0    0  0.00000000000E+00  0.00000000000E+00  0.18250000000E+03  0.18250000000E+03  0.00000000000E+00 0.  1.
         11   -1    0    0    0    0 -0.00000000000E+00 -0.00000000000E+00 -0.18250000000E+03  0.18250000000E+03  0.00000000000E+00 0.  1.
        -11    1    1    2    0    0 -0.24123026309E+01  0.17923968988E+01  0.17969443801E+03  0.17971956750E+03  0.00000000000E+00 0.  1.
         11    1    1    2    0    0 -0.66191548109E+01 -0.43048981990E+01 -0.14565229336E+03  0.14586615755E+03  0.00000000000E+00 0.  1.
        -15    1    1    2    0    0  0.11150128134E+02 -0.43640935682E+01 -0.24542174407E+02  0.27365063927E+02  0.17770000000E+01 0.  1.
         15    1    1    2    0    0 -0.21186706918E+01  0.68765948684E+01 -0.94999702457E+01  0.12049211018E+02  0.17770000000E+01 0.  1.
</event>
<event>
 6    1  0.1059789E-002  0.1840885E+03  0.7546771E-02  0.1067197E+00
        -11   -1    0    0    0    0  0.00000000000E+00  0.00000000000E+00  0.18250000000E+03  0.18250000000E+03  0.00000000000E+00 0.  1.
         11   -1    0    0    0    0 -0.00000000000E+00 -0.00000000000E+00 -0.18250000000E+03  0.18250000000E+03  0.00000000000E+00 0.  1.
        -11    1    1    2    0    0 -0.12582996600E+02  0.61986740437E+01  0.63881512327E+02  0.65403386613E+02  0.00000000000E+00 0.  1.
         11    1    1    2    0    0  0.23610087862E+01 -0.17943151036E+01 -0.18088714718E+03  0.18091145333E+03  0.00000000000E+00 0.  1.
        -15    1    1    2    0    0 -0.14348210142E+00  0.42642017282E+01  0.13139400285E+02  0.13928588311E+02  0.17770000000E+01 0.  1.
         15    1    1    2    0    0  0.10365469915E+02 -0.86685606684E+01  0.10386623457E+03  0.10475657175E+03  0.17770000000E+01 0. -1.
</event>
<event>
 6    1  0.1059789E-002  0.1848929E+03  0.7546771E-02  0.1066566E+00
        -11   -1    0    0    0    0  0.00000000000E+00  0.00000000000E+00  0.18250000000E+03  0.18250000000E+03  0.00000000000E+00 0. -1.
         11   -1    0    0    0    0 -0.00000000000E+00 -0.00000000000E+00 -0.18250000000E+03  0.18250000000E+03  0.00000000000E+00 0.  1.
        -11    1    1    2    0    0  0.23906669469E+01 -0.39783337664E+00  0.91533313028E+02  0.91565391682E+02  0.00000000000E+00 0. -1.
         11    1    1    2    0    0  0.22946004880E+02 -0.46419411403E+00 -0.17863885197E+03  0.18010711826E+03  0.00000000000E+00 0.  1.
        -15    1    1    2    0    0 -0.25264475520E+02  0.58959198992E+01  0.55697053300E+02  0.61468488432E+02  0.17770000000E+01 0. -1.
         15    1    1    2    0    0 -0.72196306096E-01 -0.50338924085E+01  0.31408485642E+02  0.31859001622E+02  0.17770000000E+01 0. -1.
</event>
<event>
 6    1  0.1059789E-002  0.1929631E+03  0.7546771E-02  0.1060418E+00
        -11   -1    0    0    0    0  0.00000000000E+00  0.00000000000E+00  0.18250000000E+03  0.18250000000E+03  0.00000000000E+00 0. -1.
         11   -1    0    0    0    0 -0.00000000000E+00 -0.00000000000E+00 -0.18250000000E+03  0.18250000000E+03  0.00000000000E+00 0.  1.
        -11    1    1    2    0    0 -0.21535945357E+01 -0.18671325556E+01  0.16826287707E+03  0.16828701659E+03  0.00000000000E+00 0. -1.
         11    1    1    2    0    0  0.27411950128E-01  0.33097448143E+01 -0.17200507468E+03  0.17203691719E+03  0.00000000000E+00 0.  1.
        -15    1    1    2    0    0 -0.10297531908E+02  0.10896463135E+01  0.53193160185E+01  0.11776219443E+02  0.17770000000E+01 0. -1.
         15    1    1    2    0    0  0.12423714493E+02 -0.25322585722E+01 -0.15771184146E+01  0.12899846773E+02  0.17770000000E+01 0.  1.
</event>
<event>
 6    1  0.1059789E-002  0.2010591E+03  0.7546771E-02  0.1054572E+00
        -11   -1    0    0    0    0  0.00000000000E+00  0.00000000000E+00  0.18250000000E+03  0.18250000000E+03  0.00000000000E+00 0. -1.
         11   -1    0    0    0    0 -0.00000000000E+00 -0.00000000000E+00 -0.18250000000E+03  0.18250000000E+03  0.00000000000E+00 0. -1.
        -11    1    1    2    0    0  0.11825451568E+01  0.20922285212E+02  0.16259610047E+03  0.16394094156E+03  0.00000000000E+00 0. -1.
         11    1    1    2    0    0 -0.14489992221E+01 -0.44749869332E+01 -0.14705317774E+03  0.14712838676E+03  0.00000000000E+00 0. -1.
        -15    1    1    2    0    0 -0.80498505157E+01  0.33935890335E+00  0.15540495314E+02  0.17594885092E+02  0.17770000000E+01 0. -1.
         15    1    1    2    0    0  0.83163045810E+01 -0.16786657182E+02 -0.31083418037E+02  0.36335786590E+02  0.17770000000E+01 0.  1.
</event>
<event>
 6    1  0.1059789E-002  0.1828426E+03  0.7546771E-02  0.1068182E+00
        -11   -1    0    0    0    0  0.00000000000E+00  0.00000000000E+00  0.18250000000E+03  0.18250000000E+03  0.00000000000E+00 0.  1.
         11   -1    0    0    0    0 -0.00000000000E+00 -0.00000000000E+00 -0.18250000000E+03  0.18250000000E+03  0.00000000000E+00 0.  1.
        -11    1    1    2    0    0 -0.23369822680E+01  0.11026435207E+01  0.18213911930E+03  0.18215744862E+03  0.00000000000E+00 0.  1.
         11    1    1    2    0    0  0.25030110782E+01 -0.10739882144E+00 -0.13561214797E+03  0.13563528772E+03  0.00000000000E+00 0.  1.
        -15    1    1    2    0    0 -0.35635804143E+01 -0.44385428312E-01 -0.26064499633E+02  0.26366966939E+02  0.17770000000E+01 0.  1.
         15    1    1    2    0    0  0.33975516041E+01 -0.95085927098E+00 -0.20462471698E+02  0.20840296717E+02  0.17770000000E+01 0.  1.
</event>
<event>
 6    1  0.1059789E-002  0.1877719E+03  0.7546771E-02  0.1064334E+00
        -11   -1    0    0    0    0  0.00000000000E+00  0.00000000000E+00  0.18250000000E+03  0.18250000000E+03  0.00000000000E+00 0.  1.
         11   -1    0    0    0    0 -0.00000000000E+00 -0.00000000000E+00 -0.18250000000E+03  0.18250000000E+03  0.00000000000E+00 0. -1.
        -11    1    1    2    0    0  0.31289840761E+00 -0.53001485740E+01  0.17714855912E+03  0.17722810578E+03  0.00000000000E+00 0.  1.
         11    1    1    2    0    0 -0.51965934404E+01  0.59986692037E+00 -0.16947359707E+03  0.16955431144E+03  0.00000000000E+00 0. -1.
        -15    1    1    2    0    0  0.43441645101E+01  0.49521555105E+01 -0.11831611280E+02  0.13657978034E+02  0.17770000000E+01 0.  1.
         15    1    1    2    0    0  0.53953052268E+00 -0.25187385689E+00  0.41566492287E+01  0.45596047455E+01  0.17770000000E+01 0. -1.
</event>
<event>
 6    1  0.1059789E-002  0.1985449E+03  0.7546771E-02  0.1056355E+00
        -11   -1    0    0    0    0  0.00000000000E+00  0.00000000000E+00  0.18250000000E+03  0.18250000000E+03  0.00000000000E+00 0. -1.
         11   -1    0    0    0    0 -0.00000000000E+00 -0.00000000000E+00 -0.18250000000E+03  0.18250000000E+03  0.00000000000E+00 0. -1.
        -11    1    1    2    0    0 -0.17355403948E+01  0.14296175168E+01  0.14315679955E+03  0.14317445710E+03  0.00000000000E+00 0. -1.
         11    1    1    2    0    0  0.20192346293E+01 -0.10656688312E+01 -0.16643939314E+03  0.16645505264E+03  0.00000000000E+00 0. -1.
        -15    1    1    2    0    0 -0.61620373861E+01 -0.24296342824E+01 -0.15026430655E+02  0.16517420341E+02  0.17770000000E+01 0.  1.
         15    1    1    2    0    0  0.58783431516E+01  0.20656855968E+01  0.38309024245E+02  0.38853069928E+02  0.17770000000E+01 0.  1.
</event>
<event>
 6    1  0.1059789E-002  0.1950305E+03  0.7546771E-02  0.1058896E+00
        -11   -1    0    0    0    0  0.00000000000E+00  0.00000000000E+00  0.18250000000E+03  0.18250000000E+03  0.00000000000E+00 0. -1.
         11   -1    0    0    0    0 -0.00000000000E+00 -0.00000000000E+00 -0.18250000000E+03  0.18250000000E+03  0.00000000000E+00 0. -1.
        -11    1    1    2    0    0  0.18165858595E+02 -0.29240926580E+01  0.15127077510E+03  0.15238568219E+03  0.00000000000E+00 0. -1.
         11    1    1    2    0    0  0.19385204544E+01 -0.12335278538E+01 -0.16995400303E+03  0.16996953433E+03  0.00000000000E+00 0. -1.
        -15    1    1    2    0    0 -0.13049326111E+02 -0.63598136539E+01  0.24548926921E+02  0.28575158506E+02  0.17770000000E+01 0. -1.
         15    1    1    2    0    0 -0.70550529381E+01  0.10517434166E+02 -0.58656989900E+01  0.14069624978E+02  0.17770000000E+01 0.  1.
</event>
<event>
 6    1  0.1059789E-002  0.1961459E+03  0.7546771E-02  0.1058083E+00
        -11   -1    0    0    0    0  0.00000000000E+00  0.00000000000E+00  0.18250000000E+03  0.18250000000E+03  0.00000000000E+00 0.  1.
         11   -1    0    0    0    0 -0.00000000000E+00 -0.00000000000E+00 -0.18250000000E+03  0.18250000000E+03  0.00000000000E+00 0.  1.
        -11    1    1    2    0    0 -0.22241614276E+01 -0.27435249081E+01  0.15004501579E+03  0.15008657697E+03  0.00000000000E+00 0.  1.
         11    1    1    2    0    0  0.22179719717E+01  0.45063374789E+01 -0.16877940259E+03  0.16885411815E+03  0.00000000000E+00 0.  1.
        -15    1    1    2    0    0 -0.71072139732E+01  0.17965238421E+02  0.15356401328E+02  0.24743465253E+02  0.17770000000E+01 0. -1.
         15    1    1    2    0    0  0.71134034291E+01 -0.19728050992E+02  0.33779854783E+01  0.21315839631E+02  0.17770000000E+01 0.  1.
</event>
<event>
 6    1  0.1240172E-002  0.1845474E+03  0.7546771E-02  0.1066837E+00
        -11   -1    0    0    0    0  0.00000000000E+00  0.00000000000E+00  0.18250000000E+03  0.18250000000E+03  0.00000000000E+00 0.  1.
         11   -1    0    0    0    0 -0.00000000000E+00 -0.00000000000E+00 -0.18250000000E+03  0.18250000000E+03  0.00000000000E+00 0.  1.
        -11    1    1    2    0    0  0.43096590726E+00  0.93881126559E+00  0.63041411844E+02  0.63049874746E+02  0.00000000000E+00 0.  1.
         11    1    1    2    0    0  0.59470611909E+01  0.10302483040E+02 -0.18006004172E+03  0.18045256252E+03  0.00000000000E+00 0.  1.
        -15    1    1    2    0    0 -0.39602618328E+01  0.16119384259E+01  0.99276378221E+02  0.99384299670E+02  0.17770000000E+01 0.  1.
         15    1    1    2    0    0 -0.24177652653E+01 -0.12853232731E+02  0.17742251658E+02  0.22113263066E+02  0.17770000000E+01 0. -1.
</event>
<event>
 6    1  0.1059789E-002  0.1838865E+03  0.7546771E-02  0.1067356E+00
        -11   -1    0    0    0    0  0.00000000000E+00  0.00000000000E+00  0.18250000000E+03  0.18250000000E+03  0.00000000000E+00 0.  1.
         11   -1    0    0    0    0 -0.00000000000E+00 -0.00000000000E+00 -0.18250000000E+03  0.18250000000E+03  0.00000000000E+00 0.  1.
        -11    1    1    2    0    0 -0.27598704876E+01 -0.82469522206E+00  0.18109055505E+03  0.18111346205E+03  0.00000000000E+00 0.  1.
         11    1    1    2    0    0  0.28776063557E+01  0.27009087058E+01 -0.16700862281E+03  0.16705524721E+03  0.00000000000E+00 0.  1.
        -15    1    1    2    0    0 -0.15015851114E+01 -0.24667920630E+00  0.13664124188E+00  0.23435034257E+01  0.17770000000E+01 0. -1.
         15    1    1    2    0    0  0.13838492433E+01 -0.16295342774E+01 -0.14218573477E+02  0.14487787320E+02  0.17770000000E+01 0.  1.
</event>
<event>
 6    1  0.1059789E-002  0.1845849E+03  0.7546771E-02  0.1066807E+00
        -11   -1    0    0    0    0  0.00000000000E+00  0.00000000000E+00  0.18250000000E+03  0.18250000000E+03  0.00000000000E+00 0. -1.
         11   -1    0    0    0    0 -0.00000000000E+00 -0.00000000000E+00 -0.18250000000E+03  0.18250000000E+03  0.00000000000E+00 0. -1.
        -11    1    1    2    0    0 -0.14959044817E+00  0.24421973797E+01  0.59626728361E+02  0.59676908770E+02  0.00000000000E+00 0. -1.
         11    1    1    2    0    0  0.13147291965E+01 -0.21411150462E+01 -0.18039760018E+03  0.18041509648E+03  0.00000000000E+00 0. -1.
        -15    1    1    2    0    0  0.33811477372E+01 -0.76583290644E+01  0.11245167209E+03  0.11277685246E+03  0.17770000000E+01 0. -1.
         15    1    1    2    0    0 -0.45462864856E+01  0.73572467309E+01  0.83191997276E+01  0.12131142295E+02  0.17770000000E+01 0. -1.
</event>
<event>
 6    1  0.1059789E-002  0.1865824E+03  0.7546771E-02  0.1065251E+00
        -11   -1    0    0    0    0  0.00000000000E+00  0.00000000000E+00  0.18250000000E+03  0.18250000000E+03  0.00000000000E+00 0. -1.
         11   -1    0    0    0    0 -0.00000000000E+00 -0.00000000000E+00 -0.18250000000E+03  0.18250000000E+03  0.00000000000E+00 0. -1.
        -11    1    1    2    0    0 -0.28908951427E+01  0.10576454983E+02  0.17808036874E+03  0.17841758995E+03  0.00000000000E+00 0. -1.
         11    1    1    2    0    0 -0.80953337572E+00 -0.93860841660E+00 -0.89857378121E+02  0.89865926429E+02  0.00000000000E+00 0. -1.
        -15    1    1    2    0    0 -0.15468499800E+01 -0.22852720578E+02 -0.69110720520E+02  0.72829176863E+02  0.17770000000E+01 0. -1.
         15    1    1    2    0    0  0.52472784984E+01  0.13214874012E+02 -0.19112270097E+02  0.23887306756E+02  0.17770000000E+01 0.  1.
</event>
<event>
 6    1  0.1059789E-002  0.1696132E+03  0.7546771E-02  0.1079202E+00
        -11   -1    0    0    0    0  0.00000000000E+00  0.00000000000E+00  0.18250000000E+03  0.18250000000E+03  0.00000000000E+00 0. -1.
         11   -1    0    0    0    0 -0.00000000000E+00 -0.00000000000E+00 -0.18250000000E+03  0.18250000000E+03  0.00000000000E+00 0.  1.
        -11    1    1    2    0    0  0.14429933944E+01 -0.22487705016E+01  0.16893983398E+03  0.16896096207E+03  0.00000000000E+00 0. -1.
         11    1    1    2    0    0 -0.79998359449E+00 -0.36035634517E+01 -0.17027908430E+03  0.17031908934E+03  0.00000000000E+00 0.  1.
        -15    1    1    2    0    0  0.60758413708E+01  0.37879172152E+01  0.11242350771E+02  0.13446648097E+02  0.17770000000E+01 0. -1.
         15    1    1    2    0    0 -0.67188511707E+01  0.20644167381E+01 -0.99031004494E+01  0.12273300495E+02  0.17770000000E+01 0.  1.
</event>
<event>
 6    1  0.1059789E-002  0.1912680E+03  0.7546771E-02  0.1061682E+00
        -11   -1    0    0    0    0  0.00000000000E+00  0.00000000000E+00  0.18250000000E+03  0.18250000000E+03  0.00000000000E+00 0. -1.
         11   -1    0    0    0    0 -0.00000000000E+00 -0.00000000000E+00 -0.18250000000E+03  0.18250000000E+03  0.00000000000E+00 0. -1.
        -11    1    1    2    0    0  0.65358735193E+01  0.59603290688E-02  0.10877541149E+03  0.10897159182E+03  0.00000000000E+00 0. -1.
         11    1    1    2    0    0  0.59566505721E+01 -0.13697502124E+01 -0.17362443027E+03  0.17373197946E+03  0.00000000000E+00 0. -1.
        -15    1    1    2    0    0  0.10626518403E+01 -0.27128006485E+01 -0.76660785417E+01  0.83913649366E+01  0.17770000000E+01 0.  1.
         15    1    1    2    0    0 -0.13555175932E+02  0.40765905318E+01  0.72515097316E+02  0.73905063782E+02  0.17770000000E+01 0. -1.
</event>
<event>
 6    1  0.1059789E-002  0.1857275E+03  0.7546771E-02  0.1065914E+00
        -11   -1    0    0    0    0  0.00000000000E+00  0.00000000000E+00  0.18250000000E+03  0.18250000000E+03  0.00000000000E+00 0. -1.
         11   -1    0    0    0    0 -0.00000000000E+00 -0.00000000000E+00 -0.18250000000E+03  0.18250000000E+03  0.00000000000E+00 0. -1.
        -11    1    1    2    0    0  0.29508880516E+01  0.34084548354E+00  0.17924789925E+03  0.17927251128E+03  0.00000000000E+00 0. -1.
         11    1    1    2    0    0  0.40815803018E+01 -0.38410217002E+01 -0.16717714231E+03  0.16727106640E+03  0.00000000000E+00 0. -1.
        -15    1    1    2    0    0 -0.79900405499E+01  0.14277130186E+01 -0.12990714479E+02  0.15420619447E+02  0.17770000000E+01 0. -1.
         15    1    1    2    0    0  0.95757219648E+00  0.20724631981E+01  0.91995753961E+00  0.30358028746E+01  0.17770000000E+01 0.  1.
</event>
<event>
 6    1  0.1059789E-002  0.1880107E+03  0.7546771E-02  0.1064151E+00
        -11   -1    0    0    0    0  0.00000000000E+00  0.00000000000E+00  0.18250000000E+03  0.18250000000E+03  0.00000000000E+00 0. -1.
         11   -1    0    0    0    0 -0.00000000000E+00 -0.00000000000E+00 -0.18250000000E+03  0.18250000000E+03  0.00000000000E+00 0. -1.
        -11    1    1    2    0    0  0.30295920568E+01 -0.15201123949E+01  0.17695681990E+03  0.17698928012E+03  0.00000000000E+00 0. -1.
         11    1    1    2    0    0 -0.22021801031E+01  0.59233489144E+00 -0.16853508409E+03  0.16855051179E+03  0.00000000000E+00 0. -1.
        -15    1    1    2    0    0 -0.93738913516E+00 -0.64131923958E+00  0.52114547005E+01  0.56220083469E+01  0.17770000000E+01 0. -1.
         15    1    1    2    0    0  0.10997718153E+00  0.15690967431E+01 -0.13633190510E+02  0.13838199740E+02  0.17770000000E+01 0. -1.
</event>
<event>
 6    1  0.1059789E-002  0.1887618E+03  0.7546771E-02  0.1063577E+00
        -11   -1    0    0    0    0  0.00000000000E+00  0.00000000000E+00  0.18250000000E+03  0.18250000000E+03  0.00000000000E+00 0. -1.
         11   -1    0    0    0    0 -0.00000000000E+00 -0.00000000000E+00 -0.18250000000E+03  0.18250000000E+03  0.00000000000E+00 0.  1.
        -11    1    1    2    0    0  0.44067392380E+01 -0.34064946295E+01  0.17615019979E+03  0.17623823774E+03  0.00000000000E+00 0. -1.
         11    1    1    2    0    0  0.33266978892E+01 -0.28524092380E+00 -0.16989263133E+03  0.16992543794E+03  0.00000000000E+00 0.  1.
        -15    1    1    2    0    0 -0.85695733222E+01  0.17862273751E+01  0.28107898817E+01  0.93641050784E+01  0.17770000000E+01 0.  1.
         15    1    1    2    0    0  0.83613619503E+00  0.19055081782E+01 -0.90683583458E+01  0.94722192353E+01  0.17770000000E+01 0. -1.
</event>
<event>
 6    1  0.1059789E-002  0.1841529E+03  0.7546771E-02  0.1067147E+00
        -11   -1    0    0    0    0  0.00000000000E+00  0.00000000000E+00  0.18250000000E+03  0.18250000000E+03  0.00000000000E+00 0. -1.
         11   -1    0    0    0    0 -0.00000000000E+00 -0.00000000000E+00 -0.18250000000E+03  0.18250000000E+03  0.00000000000E+00 0.  1.
        -11    1    1    2    0    0  0.31876892497E+01  0.24674627064E+01  0.15596241334E+03  0.15601449968E+03  0.00000000000E+00 0. -1.
         11    1    1    2    0    0 -0.35297602567E+01 -0.13148962341E+00 -0.18081260924E+03  0.18084710713E+03  0.00000000000E+00 0.  1.
        -15    1    1    2    0    0 -0.24826266193E+01 -0.60921783342E+01  0.20100772952E+02  0.21224440488E+02  0.17770000000E+01 0. -1.
         15    1    1    2    0    0  0.28246976262E+01  0.37562052513E+01  0.47494229494E+01  0.69139526988E+01  0.17770000000E+01 0.  1.
</event>
<event>
 6    1  0.1059789E-002  0.1870457E+03  0.7546771E-02  0.1064893E+00
        -11   -1    0    0    0    0  0.00000000000E+00  0.00000000000E+00  0.18250000000E+03  0.18250000000E+03  0.00000000000E+00 0.  1.
         11   -1    0    0    0    0 -0.00000000000E+00 -0.00000000000E+00 -0.18250000000E+03  0.18250000000E+03  0.00000000000E+00 0. -1.
        -11    1    1    2    0    0 -0.34695417332E-01 -0.29039762382E+01  0.16091782002E+03  0.16094402468E+03  0.00000000000E+00 0.  1.
         11    1    1    2    0    0 -0.10156172835E+01  0.26556799242E+01 -0.17793162538E+03  0.17795434084E+03  0.00000000000E+00 0. -1.
        -15    1    1    2    0    0  0.36202418872E+01 -0.17916411580E+01  0.20515327387E+02  0.20984578055E+02  0.17770000000E+01 0. -1.
         15    1    1    2    0    0 -0.25699291863E+01  0.20399374720E+01 -0.35015220237E+01  0.51170564189E+01  0.17770000000E+01 0.  1.
</event>
<event>
 6    1  0.1059789E-002  0.1860882E+03  0.7546771E-02  0.1065634E+00
        -11   -1    0    0    0    0  0.00000000000E+00  0.00000000000E+00  0.18250000000E+03  0.18250000000E+03  0.00000000000E+00 0. -1.
         11   -1    0    0    0    0 -0.00000000000E+00 -0.00000000000E+00 -0.18250000000E+03  0.18250000000E+03  0.00000000000E+00 0.  1.
        -11    1    1    2    0    0  0.18718624652E+01  0.11568357511E+02  0.17852756506E+03  0.17891177226E+03  0.00000000000E+00 0. -1.
         11    1    1    2    0    0 -0.11248686810E+01 -0.18712175028E+01 -0.14963777378E+03  0.14965370068E+03  0.00000000000E+00 0.  1.
        -15    1    1    2    0    0 -0.27930424454E+01 -0.10563307669E+02 -0.46146226771E+01  0.11993207514E+02  0.17770000000E+01 0.  1.
         15    1    1    2    0    0  0.20460486612E+01  0.86616766170E+00 -0.24275168603E+02  0.24441319548E+02  0.17770000000E+01 0. -1.
</event>
<event>
 6    1  0.1059789E-002  0.1860939E+03  0.7546771E-02  0.1065629E+00
        -11   -1    0    0    0    0  0.00000000000E+00  0.00000000000E+00  0.18250000000E+03  0.18250000000E+03  0.00000000000E+00 0.  1.
         11   -1    0    0    0    0 -0.00000000000E+00 -0.00000000000E+00 -0.18250000000E+03  0.18250000000E+03  0.00000000000E+00 0.  1.
        -11    1    1    2    0    0 -0.35820186587E+01 -0.64609619415E+00  0.17406373103E+03  0.17410178276E+03  0.00000000000E+00 0.  1.
         11    1    1    2    0    0  0.53343209072E+00  0.33190435064E+01 -0.17887447924E+03  0.17890606452E+03  0.00000000000E+00 0.  1.
        -15    1    1    2    0    0  0.22539605287E+01 -0.22778961803E+01 -0.24872488426E+01  0.44286888441E+01  0.17770000000E+01 0. -1.
         15    1    1    2    0    0  0.79462603933E+00 -0.39505113195E+00  0.72979970470E+01  0.75634638782E+01  0.17770000000E+01 0.  1.
</event>
<event>
 6    1  0.1059789E-002  0.1855583E+03  0.7546771E-02  0.1066046E+00
        -11   -1    0    0    0    0  0.00000000000E+00  0.00000000000E+00  0.18250000000E+03  0.18250000000E+03  0.00000000000E+00 0. -1.
         11   -1    0    0    0    0 -0.00000000000E+00 -0.00000000000E+00 -0.18250000000E+03  0.18250000000E+03  0.00000000000E+00 0.  1.
        -11    1    1    2    0    0  0.22795523875E+01 -0.13758440164E+01  0.17221096349E+03  0.17223154546E+03  0.00000000000E+00 0. -1.
         11    1    1    2    0    0 -0.19592232697E+01 -0.35709478149E+01 -0.17939550661E+03  0.17944173990E+03  0.00000000000E+00 0.  1.
        -15    1    1    2    0    0  0.42410059081E-01 -0.26680514099E+01  0.32520332169E+01  0.45665901921E+01  0.17770000000E+01 0.  1.
         15    1    1    2    0    0 -0.36273917684E+00  0.76148432412E+01  0.39325099099E+01  0.87601244563E+01  0.17770000000E+01 0.  1.
</event>
<event>
 6    1  0.1059789E-002  0.1828901E+03  0.7546771E-02  0.1068145E+00
        -11   -1    0    0    0    0  0.00000000000E+00  0.00000000000E+00  0.18250000000E+03  0.18250000000E+03  0.00000000000E+00 0.  1.
         11   -1    0    0    0    0 -0.00000000000E+00 -0.00000000000E+00 -0.18250000000E+03  0.18250000000E+03  0.00000000000E+00 0. -1.
        -11    1    1    2    0    0 -0.21223241589E+01 -0.13156027086E+01  0.18209277265E+03  0.18210989243E+03  0.00000000000E+00 0.  1.
         11    1    1    2    0    0 -0.31219704563E+01 -0.22388195392E+01 -0.10231657544E+03  0.10238867428E+03  0.00000000000E+00 0. -1.
        -15    1    1    2    0    0  0.24529159203E+01  0.57768443541E+01 -0.57777310529E+02  0.58144338229E+02  0.17770000000E+01 0. -1.
         15    1    1    2    0    0  0.27913786949E+01 -0.22224221063E+01 -0.21998886682E+02  0.22357095055E+02  0.17770000000E+01 0.  1.
</event>
<event>
 6    1  0.1059789E-002  0.1837078E+03  0.7546771E-02  0.1067497E+00
        -11   -1    0    0    0    0  0.00000000000E+00  0.00000000000E+00  0.18250000000E+03  0.18250000000E+03  0.00000000000E+00 0. -1.
         11   -1    0    0    0    0 -0.00000000000E+00 -0.00000000000E+00 -0.18250000000E+03  0.18250000000E+03  0.00000000000E+00 0. -1.
        -11    1    1    2    0    0 -0.45421344252E+00  0.32547668451E+01  0.18126242401E+03  0.18129221212E+03  0.00000000000E+00 0. -1.
         11    1    1    2    0    0 -0.29255049897E+01  0.24189957257E+01 -0.16763826879E+03  0.16768124309E+03  0.00000000000E+00 0. -1.
        -15    1    1    2    0    0  0.39547566516E+01 -0.41470794537E+01 -0.91079321676E+01  0.10906444221E+02  0.17770000000E+01 0.  1.
         15    1    1    2    0    0 -0.57503821942E+00 -0.15266831170E+01 -0.45162230479E+01  0.51201005763E+01  0.17770000000E+01 0.  1.
</event>
<event>
 6    1  0.1059789E-002  0.1832388E+03  0.7546771E-02  0.1067868E+00
        -11   -1    0    0    0    0  0.00000000000E+00  0.00000000000E+00  0.18250000000E+03  0.18250000000E+03  0.00000000000E+00 0.  1.
         11   -1    0    0    0    0 -0.00000000000E+00 -0.00000000000E+00 -0.18250000000E+03  0.18250000000E+03  0.00000000000E+00 0. -1.
        -11    1    1    2    0    0 -0.50701717462E+01  0.19584504552E+01  0.16784927973E+03  0.16793725875E+03  0.00000000000E+00 0.  1.
         11    1    1    2    0    0  0.54898765805E+01 -0.86912457868E+00 -0.18167620163E+03  0.18176120698E+03  0.00000000000E+00 0. -1.
        -15    1    1    2    0    0 -0.17980831809E+01  0.14009242618E+01  0.87585058947E+01  0.92230605777E+01  0.17770000000E+01 0. -1.
         15    1    1    2    0    0  0.13783783465E+01 -0.24902501384E+01  0.50684160045E+01  0.60784736910E+01  0.17770000000E+01 0. -1.
</event>
<event>
 6    1  0.1059789E-002  0.1872065E+03  0.7546771E-02  0.1064769E+00
        -11   -1    0    0    0    0  0.00000000000E+00  0.00000000000E+00  0.18250000000E+03  0.18250000000E+03  0.00000000000E+00 0.  1.
         11   -1    0    0    0    0 -0.00000000000E+00 -0.00000000000E+00 -0.18250000000E+03  0.18250000000E+03  0.00000000000E+00 0.  1.
        -11    1    1    2    0    0 -0.11604880563E+02  0.10379165240E+01  0.16812396217E+03  0.16852720012E+03  0.00000000000E+00 0.  1.
         11    1    1    2    0    0  0.86735169342E+01  0.38033539378E+01 -0.17754109938E+03  0.17779352453E+03  0.00000000000E+00 0.  1.
        -15    1    1    2    0    0  0.78236135597E+01 -0.60375837282E+01  0.33238199120E+01  0.10576712827E+02  0.17770000000E+01 0.  1.
         15    1    1    2    0    0 -0.48922499309E+01  0.11963132665E+01  0.60933172926E+01  0.81025625234E+01  0.17770000000E+01 0. -1.
</event>
<event>
 6    1  0.1059789E-002  0.1825423E+03  0.7546771E-02  0.1068421E+00
        -11   -1    0    0    0    0  0.00000000000E+00  0.00000000000E+00  0.18250000000E+03  0.18250000000E+03  0.00000000000E+00 0. -1.
         11   -1    0    0    0    0 -0.00000000000E+00 -0.00000000000E+00 -0.18250000000E+03  0.18250000000E+03  0.00000000000E+00 0. -1.
        -11    1    1    2    0    0  0.10550581931E-01 -0.68118870280E+00  0.12495486746E+02  0.12514044845E+02  0.00000000000E+00 0. -1.
         11    1    1    2    0    0  0.28320913557E+01  0.15106750231E+00 -0.18243569376E+03  0.18245773736E+03  0.00000000000E+00 0. -1.
        -15    1    1    2    0    0 -0.89991370404E+00 -0.11944275198E+01  0.71726250260E+02  0.71763843314E+02  0.17770000000E+01 0.  1.
         15    1    1    2    0    0 -0.19427282336E+01  0.17245487203E+01  0.98213956758E+02  0.98264374482E+02  0.17770000000E+01 0. -1.
</event>
<event>
 6    1  0.1059789E-002  0.1836193E+03  0.7546771E-02  0.1067567E+00
        -11   -1    0    0    0    0  0.00000000000E+00  0.00000000000E+00  0.18250000000E+03  0.18250000000E+03  0.00000000000E+00 0. -1.
         11   -1    0    0    0    0 -0.00000000000E+00 -0.00000000000E+00 -0.18250000000E+03  0.18250000000E+03  0.00000000000E+00 0.  1.
        -11    1    1    2    0    0  0.29762603765E+01 -0.62951632076E+01  0.18124698886E+03  0.18138069957E+03  0.00000000000E+00 0. -1.
         11    1    1    2    0    0 -0.50779643120E+00  0.25198443635E+01 -0.17073276296E+03  0.17075211220E+03  0.00000000000E+00 0.  1.
        -15    1    1    2    0    0 -0.82586639688E+00  0.94364366237E+00 -0.57017056107E+00  0.22484088009E+01  0.17770000000E+01 0. -1.
         15    1    1    2    0    0 -0.16425975484E+01  0.28316751817E+01 -0.99440553362E+01  0.10618779429E+02  0.17770000000E+01 0.  1.
</event>
<event>
 6    1  0.1059789E-002  0.1760003E+03  0.7546771E-02  0.1073750E+00
        -11   -1    0    0    0    0  0.00000000000E+00  0.00000000000E+00  0.18250000000E+03  0.18250000000E+03  0.00000000000E+00 0. -1.
         11   -1    0    0    0    0 -0.00000000000E+00 -0.00000000000E+00 -0.18250000000E+03  0.18250000000E+03  0.00000000000E+00 0. -1.
        -11    1    1    2    0    0 -0.21470418857E+01  0.11062240138E+01  0.17690478782E+03  0.17692127479E+03  0.00000000000E+00 0. -1.
         11    1    1    2    0    0 -0.35540474618E+01 -0.13564500858E+01 -0.17508903885E+03  0.17513035926E+03  0.00000000000E+00 0. -1.
        -15    1    1    2    0    0  0.54472646975E+01 -0.29474928257E+01 -0.49492418682E+01  0.81248465039E+01  0.17770000000E+01 0.  1.
         15    1    1    2    0    0  0.25382465001E+00  0.31977188977E+01  0.31334928952E+01  0.48235194439E+01  0.17770000000E+01 0. -1.
</event>
<event>
 6    1  0.1059789E-002  0.1434813E+03  0.7546771E-02  0.1104606E+00
        -11   -1    0    0    0    0  0.00000000000E+00  0.00000000000E+00  0.18250000000E+03  0.18250000000E+03  0.00000000000E+00 0. -1.
         11   -1    0    0    0    0 -0.00000000000E+00 -0.00000000000E+00 -0.18250000000E+03  0.18250000000E+03  0.00000000000E+00 0.  1.
        -11    1    1    2    0    0 -0.13500587974E+00 -0.51055010723E+00  0.45943875202E+01  0.46246388708E+01  0.00000000000E+00 0. -1.
         11    1    1    2    0    0 -0.92730643159E+01  0.55408960090E+01 -0.15743557541E+03  0.15780574024E+03  0.00000000000E+00 0.  1.
        -15    1    1    2    0    0 -0.34016918113E+02 -0.47260654456E+02  0.29848656785E+02  0.65458538163E+02  0.17770000000E+01 0.  1.
         15    1    1    2    0    0  0.43424988309E+02  0.42230308555E+02  0.12299253110E+03  0.13711108272E+03  0.17770000000E+01 0. -1.
</event>
<event>
 6    1  0.1059789E-002  0.2142117E+03  0.7546771E-02  0.1045687E+00
        -11   -1    0    0    0    0  0.00000000000E+00  0.00000000000E+00  0.18250000000E+03  0.18250000000E+03  0.00000000000E+00 0.  1.
         11   -1    0    0    0    0 -0.00000000000E+00 -0.00000000000E+00 -0.18250000000E+03  0.18250000000E+03  0.00000000000E+00 0. -1.
        -11    1    1    2    0    0 -0.84369550237E+01  0.39911762437E+01  0.12124461859E+03  0.12160332740E+03  0.00000000000E+00 0.  1.
         11    1    1    2    0    0  0.90193115071E+01  0.17995491249E+02 -0.14943868447E+03  0.15078828237E+03  0.00000000000E+00 0. -1.
        -15    1    1    2    0    0  0.27354719761E+01 -0.12459104235E+02  0.58872532450E+02  0.60264789814E+02  0.17770000000E+01 0. -1.
         15    1    1    2    0    0 -0.33178284596E+01 -0.95275632584E+01 -0.30678466571E+02  0.32343600410E+02  0.17770000000E+01 0.  1.
</event>
<event>
 6    1  0.1059789E-002  0.2168728E+03  0.7546771E-02  0.1043973E+00
        -11   -1    0    0    0    0  0.00000000000E+00  0.00000000000E+00  0.18250000000E+03  0.18250000000E+03  0.00000000000E+00 0. -1.
         11   -1    0    0    0    0 -0.00000000000E+00 -0.00000000000E+00 -0.18250000000E+03  0.18250000000E+03  0.00000000000E+00 0. -1.
        -11    1    1    2    0    0 -0.80315352701E+00  0.37739460016E+01  0.14287943542E+03  0.14293152483E+03  0.00000000000E+00 0. -1.
         11    1    1    2    0    0  0.16535115411E+00  0.45555525516E+01 -0.14805701269E+03  0.14812717308E+03  0.00000000000E+00 0. -1.
        -15    1    1    2    0    0 -0.58734892670E+01  0.65048777954E+01 -0.32065107036E+02  0.33288738780E+02  0.17770000000E+01 0.  1.
         15    1    1    2    0    0  0.65112916399E+01 -0.14834376349E+02  0.37242684305E+02  0.40652563310E+02  0.17770000000E+01 0. -1.
</event>
<event>
 6    1  0.1602941E-002  0.1829686E+03  0.7546771E-02  0.1068082E+00
        -11   -1    0    0    0    0  0.00000000000E+00  0.00000000000E+00  0.18250000000E+03  0.18250000000E+03  0.00000000000E+00 0. -1.
         11   -1    0    0    0    0 -0.00000000000E+00 -0.00000000000E+00 -0.18250000000E+03  0.18250000000E+03  0.00000000000E+00 0. -1.
        -11    1    1    2    0    0  0.52953617064E+00  0.21220732205E+00  0.29038802081E+02  0.29044405086E+02  0.00000000000E+00 0. -1.
         11    1    1    2    0    0 -0.78660420200E+01 -0.16914073694E+01 -0.18185351065E+03  0.18203141161E+03  0.00000000000E+00 0. -1.
        -15    1    1    2    0    0  0.10481812748E+00  0.92109648639E+00  0.12786873969E+03  0.12788444677E+03  0.17770000000E+01 0. -1.
         15    1    1    2    0    0  0.72316877219E+01  0.55810356092E+00  0.24945968875E+02  0.26039736538E+02  0.17770000000E+01 0.  1.
</event>
<event>
 6    1  0.1059789E-002  0.1831157E+03  0.7546771E-02  0.1067966E+00
        -11   -1    0    0    0    0  0.00000000000E+00  0.00000000000E+00  0.18250000000E+03  0.18250000000E+03  0.00000000000E+00 0. -1.
         11   -1    0    0    0    0 -0.00000000000E+00 -0.00000000000E+00 -0.18250000000E+03  0.18250000000E+03  0.00000000000E+00 0. -1.
        -11    1    1    2    0    0 -0.13761359090E+01 -0.24579593968E+01  0.18186248001E+03  0.18188429550E+03  0.00000000000E+00 0. -1.
         11    1    1    2    0    0 -0.27005121411E+01 -0.21767002829E+00 -0.49320629752E+02  0.49394986236E+02  0.00000000000E+00 0. -1.
        -15    1    1    2    0    0  0.48118458139E+01 -0.13163662655E+01 -0.12386289774E+03  0.12397605352E+03  0.17770000000E+01 0. -1.
         15    1    1    2    0    0 -0.73519776382E+00  0.39919956905E+01 -0.86789525118E+01  0.97446647478E+01  0.17770000000E+01 0.  1.
</event>
<event>
 6    1  0.1059789E-002  0.1840725E+03  0.7546771E-02  0.1067210E+00
        -11   -1    0    0    0    0  0.00000000000E+00  0.00000000000E+00  0.18250000000E+03  0.18250000000E+03  0.00000000000E+00 0.  1.
         11   -1    0    0    0    0 -0.00000000000E+00 -0.00000000000E+00 -0.18250000000E+03  0.18250000000E+03  0.00000000000E+00 0. -1.
        -11    1    1    2    0    0  0.27472628627E+01  0.18425657186E+01  0.18089721261E+03  0.18092745516E+03  0.00000000000E+00 0.  1.
         11    1    1    2    0    0  0.72053032643E+01 -0.59633068235E+00 -0.15630593386E+03  0.15647305507E+03  0.00000000000E+00 0. -1.
        -15    1    1    2    0    0 -0.12342302613E+01  0.68325269895E+00 -0.11060664089E+02  0.11290977711E+02  0.17770000000E+01 0. -1.
         15    1    1    2    0    0 -0.87183358657E+01 -0.19294877352E+01 -0.13530614666E+02  0.16308512054E+02  0.17770000000E+01 0.  1.
</event>
<event>
 6    1  0.1059789E-002  0.1912117E+03  0.7546771E-02  0.1061724E+00
        -11   -1    0    0    0    0  0.00000000000E+00  0.00000000000E+00  0.18250000000E+03  0.18250000000E+03  0.00000000000E+00 0. -1.
         11   -1    0    0    0    0 -0.00000000000E+00 -0.00000000000E+00 -0.18250000000E+03  0.18250000000E+03  0.00000000000E+00 0. -1.
        -11    1    1    2    0    0  0.46137617115E+01  0.54945322894E+01  0.17364012138E+03  0.17378828624E+03  0.00000000000E+00 0. -1.
         11    1    1    2    0    0 -0.92980344514E+01 -0.87766620278E+01 -0.16208554700E+03  0.16258907647E+03  0.00000000000E+00 0. -1.
        -15    1    1    2    0    0  0.51273427897E+00  0.30435342809E+01  0.78891612112E+01  0.86557836720E+01  0.17770000000E+01 0. -1.
         15    1    1    2    0    0  0.41715384609E+01  0.23859545742E+00 -0.19443735586E+02  0.19966853619E+02  0.17770000000E+01 0.  1.
</event>
<event>
 6    1  0.1059789E-002  0.1833700E+03  0.7546771E-02  0.1067764E+00
        -11   -1    0    0    0    0  0.00000000000E+00  0.00000000000E+00  0.18250000000E+03  0.18250000000E+03  0.00000000000E+00 0. -1.
         11   -1    0    0    0    0 -0.00000000000E+00 -0.00000000000E+00 -0.18250000000E+03  0.18250000000E+03  0.00000000000E+00 0.  1.
        -11    1    1    2    0    0  0.25984395495E+01 -0.91804258162E+00  0.18160910216E+03  0.18163001040E+03  0.00000000000E+00 0. -1.
         11    1    1    2    0    0  0.83913384586E+00 -0.48249375297E+01 -0.13935690433E+03  0.13944293081E+03  0.00000000000E+00 0.  1.
        -15    1    1    2    0    0  0.12879909269E+01  0.24826348402E+01 -0.39482000146E+01  0.51544552314E+01  0.17770000000E+01 0. -1.
         15    1    1    2    0    0 -0.47255643223E+01  0.32603452711E+01 -0.38303997814E+02  0.38772603562E+02  0.17770000000E+01 0. -1.
</event>
<event>
 6    1  0.1059789E-002  0.1838223E+03  0.7546771E-02  0.1067407E+00
        -11   -1    0    0    0    0  0.00000000000E+00  0.00000000000E+00  0.18250000000E+03  0.18250000000E+03  0.00000000000E+00 0. -1.
         11   -1    0    0    0    0 -0.00000000000E+00 -0.00000000000E+00 -0.18250000000E+03  0.18250000000E+03  0.00000000000E+00 0.  1.
        -11    1    1    2    0    0 -0.27256355270E+01  0.24265073732E+01  0.11514287875E+03  0.11520069251E+03  0.00000000000E+00 0. -1.
         11    1    1    2    0    0 -0.67132991933E+00 -0.34730413277E+01 -0.18114318798E+03  0.18117772284E+03  0.00000000000E+00 0.  1.
        -15    1    1    2    0    0 -0.17754519656E+01  0.55296928020E+01  0.56248792792E+02  0.56575738190E+02  0.17770000000E+01 0. -1.
         15    1    1    2    0    0  0.51724174120E+01 -0.44831588475E+01  0.97515164400E+01  0.12045846463E+02  0.17770000000E+01 0.  1.
</event>
<event>
 6    1  0.1059789E-002  0.1830411E+03  0.7546771E-02  0.1068025E+00
        -11   -1    0    0    0    0  0.00000000000E+00  0.00000000000E+00  0.18250000000E+03  0.18250000000E+03  0.00000000000E+00 0.  1.
         11   -1    0    0    0    0 -0.00000000000E+00 -0.00000000000E+00 -0.18250000000E+03  0.18250000000E+03  0.00000000000E+00 0.  1.
        -11    1    1    2    0    0 -0.30771650847E+01 -0.25597810807E+01  0.18191490448E+03  0.18195893464E+03  0.00000000000E+00 0.  1.
         11    1    1    2    0    0  0.20229289263E+01  0.44931755143E+01 -0.12488515526E+03  0.12498233024E+03  0.00000000000E+00 0.  1.
        -15    1    1    2    0    0 -0.39828072066E+01 -0.14079681615E+01 -0.14910392293E+02  0.15598802996E+02  0.17770000000E+01 0. -1.
         15    1    1    2    0    0  0.50370433650E+01 -0.52542627221E+00 -0.42119356931E+02  0.42459932123E+02  0.17770000000E+01 0. -1.
</event>
<event>
 6    1  0.1059789E-002  0.1832803E+03  0.7546771E-02  0.1067835E+00
        -11   -1    0    0    0    0  0.00000000000E+00  0.00000000000E+00  0.18250000000E+03  0.18250000000E+03  0.00000000000E+00 0. -1.
         11   -1    0    0    0    0 -0.00000000000E+00 -0.00000000000E+00 -0.18250000000E+03  0.18250000000E+03  0.00000000000E+00 0. -1.
        -11    1    1    2    0    0 -0.68932489998E+00  0.19107598398E+01  0.14043656470E+03  0.14045125445E+03  0.00000000000E+00 0. -1.
         11    1    1    2    0    0 -0.30170371969E+01 -0.59055761305E+01 -0.18159868057E+03  0.18171972685E+03  0.00000000000E+00 0. -1.
        -15    1    1    2    0    0  0.13910993013E+01  0.63211060840E+01  0.34895834534E+02  0.35535454637E+02  0.17770000000E+01 0.  1.
         15    1    1    2    0    0  0.23152627956E+01 -0.23262897934E+01  0.62662813302E+01  0.72935640619E+01  0.17770000000E+01 0. -1.
</event>
<event>
 6    1  0.1059789E-002  0.1828118E+03  0.7546771E-02  0.1068207E+00
        -11   -1    0    0    0    0  0.00000000000E+00  0.00000000000E+00  0.18250000000E+03  0.18250000000E+03  0.00000000000E+00 0. -1.
         11   -1    0    0    0    0 -0.00000000000E+00 -0.00000000000E+00 -0.18250000000E+03  0.18250000000E+03  0.00000000000E+00 0.  1.
        -11    1    1    2    0    0  0.26158823840E+01 -0.15255174391E+01  0.18216304187E+03  0.18218821001E+03  0.00000000000E+00 0. -1.
         11    1    1    2    0    0 -0.14298419632E+01  0.37506454533E+01 -0.15817083286E+03  0.15822175627E+03  0.00000000000E+00 0.  1.
        -15    1    1    2    0    0 -0.21742429054E+01 -0.11055642397E+01 -0.11871589186E+02  0.12249161739E+02  0.17770000000E+01 0.  1.
         15    1    1    2    0    0  0.98820248458E+00 -0.11195637745E+01 -0.12120619830E+02  0.12340871982E+02  0.17770000000E+01 0. -1.
</event>
<event>
 6    1  0.1059789E-002  0.1614525E+03  0.7546771E-02  0.1086564E+00
        -11   -1    0    0    0    0  0.00000000000E+00  0.00000000000E+00  0.18250000000E+03  0.18250000000E+03  0.00000000000E+00 0.  1.
         11   -1    0    0    0    0 -0.00000000000E+00 -0.00000000000E+00 -0.18250000000E+03  0.18250000000E+03  0.00000000000E+00 0.  1.
        -11    1    1    2    0    0 -0.20782189484E+02  0.12904094415E+01  0.15852342966E+03  0.15988509095E+03  0.00000000000E+00 0.  1.
         11    1    1    2    0    0 -0.79021303768E+01  0.15658694343E+01 -0.16415547477E+03  0.16435302099E+03  0.00000000000E+00 0.  1.
        -15    1    1    2    0    0  0.10645809140E+01  0.97431197756E+01  0.13236362810E+01  0.10048455478E+02  0.17770000000E+01 0.  1.
         15    1    1    2    0    0  0.27619738947E+02 -0.12599398651E+02  0.43084088268E+01  0.30713432590E+02  0.17770000000E+01 0. -1.
</event>
<event>
 6    1  0.1059789E-002  0.1877631E+03  0.7546771E-02  0.1064341E+00
        -11   -1    0    0    0    0  0.00000000000E+00  0.00000000000E+00  0.18250000000E+03  0.18250000000E+03  0.00000000000E+00 0.  1.
         11   -1    0    0    0    0 -0.00000000000E+00 -0.00000000000E+00 -0.18250000000E+03  0.18250000000E+03  0.00000000000E+00 0.  1.
        -11    1    1    2    0    0  0.36806889705E+01 -0.74440773400E+01  0.17704226970E+03  0.17723692341E+03  0.00000000000E+00 0.  1.
         11    1    1    2    0    0 -0.20228045014E+01  0.12133607520E+01 -0.16605878228E+03  0.16607553449E+03  0.00000000000E+00 0.  1.
        -15    1    1    2    0    0 -0.29564753506E+01  0.62692721025E+01 -0.15273024151E+02  0.16866164796E+02  0.17770000000E+01 0.  1.
         15    1    1    2    0    0  0.12985908815E+01 -0.38555514507E-01  0.42895367323E+01  0.48213773118E+01  0.17770000000E+01 0. -1.
</event>
<event>
 6    1  0.1059789E-002  0.1855040E+03  0.7546771E-02  0.1066088E+00
        -11   -1    0    0    0    0  0.00000000000E+00  0.00000000000E+00  0.18250000000E+03  0.18250000000E+03  0.00000000000E+00 0.  1.
         11   -1    0    0    0    0 -0.00000000000E+00 -0.00000000000E+00 -0.18250000000E+03  0.18250000000E+03  0.00000000000E+00 0.  1.
        -11    1    1    2    0    0 -0.31283843521E+01 -0.13879483763E+01  0.17012324893E+03  0.17015767105E+03  0.00000000000E+00 0.  1.
         11    1    1    2    0    0  0.50275920265E+01  0.16867618005E+01 -0.17941767499E+03  0.17949602766E+03  0.00000000000E+00 0.  1.
        -15    1    1    2    0    0 -0.28919925353E+01 -0.18283864190E+01 -0.15882344522E+01  0.41697524383E+01  0.17770000000E+01 0.  1.
         15    1    1    2    0    0  0.99278486089E+00  0.15295729948E+01  0.10882660516E+02  0.11176548851E+02  0.17770000000E+01 0. -1.
</event>
<event>
 6    1  0.1059789E-002  0.1826978E+03  0.7546771E-02  0.1068297E+00
        -11   -1    0    0    0    0  0.00000000000E+00  0.00000000000E+00  0.18250000000E+03  0.18250000000E+03  0.00000000000E+00 0.  1.
         11   -1    0    0    0    0 -0.00000000000E+00 -0.00000000000E+00 -0.18250000000E+03  0.18250000000E+03  0.00000000000E+00 0. -1.
        -11    1    1    2    0    0 -0.26256029664E+01 -0.58309586828E+01  0.18218999715E+03  0.18230219124E+03  0.00000000000E+00 0.  1.
         11    1    1    2    0    0  0.61811776530E+00 -0.22568456978E+01 -0.60083373914E+02  0.60128921851E+02  0.00000000000E+00 0. -1.
        -15    1    1    2    0    0 -0.49572246646E+00  0.35099441820E+01 -0.80654746832E+02  0.80752160123E+02  0.17770000000E+01 0. -1.
         15    1    1    2    0    0  0.25032076675E+01  0.45778601987E+01 -0.41451876404E+02  0.41816726785E+02  0.17770000000E+01 0. -1.
</event>
<event>
 6    1  0.1059789E-002  0.1853953E+03  0.7546771E-02  0.1066173E+00
        -11   -1    0    0    0    0  0.00000000000E+00  0.00000000000E+00  0.18250000000E+03  0.18250000000E+03  0.00000000000E+00 0.  1.
         11   -1    0    0    0    0 -0.00000000000E+00 -0.00000000000E+00 -0.18250000000E+03  0.18250000000E+03  0.00000000000E+00 0. -1.
        -11    1    1    2    0    0 -0.32582852267E+01  0.40861590664E+01  0.15640753810E+03  0.15649482769E+03  0.00000000000E+00 0.  1.
         11    1    1    2    0    0 -0.72038008801E+00  0.31741141832E+01 -0.17957517512E+03  0.17960466995E+03  0.00000000000E+00 0. -1.
        -15    1    1    2    0    0 -0.28993268573E+01 -0.12137693292E+01 -0.32321250969E+00  0.36251244857E+01  0.17770000000E+01 0.  1.
         15    1    1    2    0    0  0.68779921720E+01 -0.60465039205E+01  0.23490849533E+02  0.25275377876E+02  0.17770000000E+01 0.  1.
</event>
<event>
 6    1  0.1059789E-002  0.1869425E+03  0.7546771E-02  0.1064973E+00
        -11   -1    0    0    0    0  0.00000000000E+00  0.00000000000E+00  0.18250000000E+03  0.18250000000E+03  0.00000000000E+00 0.  1.
         11   -1    0    0    0    0 -0.00000000000E+00 -0.00000000000E+00 -0.18250000000E+03  0.18250000000E+03  0.00000000000E+00 0.  1.
        -11    1    1    2    0    0 -0.34298979870E+01  0.48756795480E+01  0.16754101278E+03  0.16764703223E+03  0.00000000000E+00 0.  1.
         11    1    1    2    0    0 -0.31158556150E+01  0.32701274577E+01 -0.17800019169E+03  0.17805749221E+03  0.00000000000E+00 0.  1.
        -15    1    1    2    0    0  0.14915920272E+01 -0.28158040464E+01 -0.24091923978E+01  0.43721317698E+01  0.17770000000E+01 0. -1.
         15    1    1    2    0    0  0.50541615748E+01 -0.53300029593E+01  0.12868371312E+02  0.14923343794E+02  0.17770000000E+01 0.  1.
</event>
<event>
 6    1  0.1059789E-002  0.1889527E+03  0.7546771E-02  0.1063431E+00
        -11   -1    0    0    0    0  0.00000000000E+00  0.00000000000E+00  0.18250000000E+03  0.18250000000E+03  0.00000000000E+00 0. -1.
         11   -1    0    0    0    0 -0.00000000000E+00 -0.00000000000E+00 -0.18250000000E+03  0.18250000000E+03  0.00000000000E+00 0. -1.
        -11    1    1    2    0    0  0.56616455542E+01 -0.53593692875E+00  0.16483231984E+03  0.16493039478E+03  0.00000000000E+00 0. -1.
         11    1    1    2    0    0 -0.19456686953E+00  0.62971607751E+01 -0.17593451120E+03  0.17604727866E+03  0.00000000000E+00 0. -1.
        -15    1    1    2    0    0 -0.62392193003E+01 -0.12191159125E+02  0.43001694474E+01  0.14463796340E+02  0.17770000000E+01 0.  1.
         15    1    1    2    0    0  0.77214061561E+00  0.64299352787E+01  0.68020219191E+01  0.95585302221E+01  0.17770000000E+01 0. -1.
</event>
<event>
 6    1  0.1059789E-002  0.1843394E+03  0.7546771E-02  0.1067000E+00
        -11   -1    0    0    0    0  0.00000000000E+00  0.00000000000E+00  0.18250000000E+03  0.18250000000E+03  0.00000000000E+00 0. -1.
         11   -1    0    0    0    0 -0.00000000000E+00 -0.00000000000E+00 -0.18250000000E+03  0.18250000000E+03  0.00000000000E+00 0.  1.
        -11    1    1    2    0    0  0.21804893355E+01 -0.22421470855E+01  0.18063352144E+03  0.18066059566E+03  0.00000000000E+00 0. -1.
         11    1    1    2    0    0  0.45881810224E+01 -0.52710539831E+01 -0.86035981447E+02  0.86319322975E+02  0.00000000000E+00 0.  1.
        -15    1    1    2    0    0 -0.32830142774E+01  0.93841613906E+01 -0.13771830340E+02  0.17078106091E+02  0.17770000000E+01 0. -1.
         15    1    1    2    0    0 -0.34856560806E+01 -0.18709603219E+01 -0.80825709653E+02  0.80941975271E+02  0.17770000000E+01 0.  1.
</event>
<event>
 6    1  0.1059789E-002  0.1825514E+03  0.7546771E-02  0.1068414E+00
        -11   -1    0    0    0    0  0.00000000000E+00  0.00000000000E+00  0.18250000000E+03  0.18250000000E+03  0.00000000000E+00 0. -1.
         11   -1    0    0    0    0 -0.00000000000E+00 -0.00000000000E+00 -0.18250000000E+03  0.18250000000E+03  0.00000000000E+00 0. -1.
        -11    1    1    2    0    0 -0.22423665621E+01  0.22500343918E+01  0.18242094529E+03  0.18244860138E+03  0.00000000000E+00 0. -1.
         11    1    1    2    0    0 -0.54823912351E+00 -0.46266603873E+00 -0.50732525417E+02  0.50737597117E+02  0.00000000000E+00 0. -1.
        -15    1    1    2    0    0  0.23234739774E+00  0.46665378813E+00 -0.51445096855E+02  0.51478417522E+02  0.17770000000E+01 0. -1.
         15    1    1    2    0    0  0.25582582879E+01 -0.22540221412E+01 -0.80243323021E+02  0.80335383984E+02  0.17770000000E+01 0. -1.
</event>
<event>
 6    1  0.1059789E-002  0.1870929E+03  0.7546771E-02  0.1064857E+00
        -11   -1    0    0    0    0  0.00000000000E+00  0.00000000000E+00  0.18250000000E+03  0.18250000000E+03  0.00000000000E+00 0.  1.
         11   -1    0    0    0    0 -0.00000000000E+00 -0.00000000000E+00 -0.18250000000E+03  0.18250000000E+03  0.00000000000E+00 0. -1.
        -11    1    1    2    0    0 -0.31684197928E+01  0.20371598643E+01  0.17786719525E+03  0.17790707701E+03  0.00000000000E+00 0.  1.
         11    1    1    2    0    0  0.73137756148E+01  0.10938885656E+01 -0.17428307969E+03  0.17443990304E+03  0.00000000000E+00 0. -1.
        -15    1    1    2    0    0 -0.53248713855E+00 -0.48054223777E+01  0.20367227165E+01  0.55390969666E+01  0.17770000000E+01 0.  1.
         15    1    1    2    0    0 -0.36128686835E+01  0.16743739478E+01 -0.56208382789E+01  0.71139229824E+01  0.17770000000E+01 0. -1.
</event>
<event>
 6    1  0.1059789E-002  0.1825692E+03  0.7546771E-02  0.1068400E+00
        -11   -1    0    0    0    0  0.00000000000E+00  0.00000000000E+00  0.18250000000E+03  0.18250000000E+03  0.00000000000E+00 0. -1.
         11   -1    0    0    0    0 -0.00000000000E+00 -0.00000000000E+00 -0.18250000000E+03  0.18250000000E+03  0.00000000000E+00 0. -1.
        -11    1    1    2    0    0  0.12381778346E+01 -0.24552109736E+01  0.18241008194E+03  0.18243080644E+03  0.00000000000E+00 0. -1.
         11    1    1    2    0    0 -0.23656179118E+01  0.10094319208E+01 -0.67929495581E+02  0.67978169075E+02  0.00000000000E+00 0. -1.
        -15    1    1    2    0    0  0.15571113561E+01  0.11700502970E+01 -0.90838523912E+02  0.90876777941E+02  0.17770000000E+01 0. -1.
         15    1    1    2    0    0 -0.42967127889E+00  0.27572875577E+00 -0.23642062443E+02  0.23714246547E+02  0.17770000000E+01 0.  1.
</event>
<event>
 6    1  0.1059789E-002  0.1826236E+03  0.7546771E-02  0.1068356E+00
        -11   -1    0    0    0    0  0.00000000000E+00  0.00000000000E+00  0.18250000000E+03  0.18250000000E+03  0.00000000000E+00 0.  1.
         11   -1    0    0    0    0 -0.00000000000E+00 -0.00000000000E+00 -0.18250000000E+03  0.18250000000E+03  0.00000000000E+00 0. -1.
        -11    1    1    2    0    0  0.11153489089E+01 -0.17736413471E+01  0.95513303663E+02  0.95536280979E+02  0.00000000000E+00 0.  1.
         11    1    1    2    0    0 -0.34795328605E+01 -0.32672677406E+01 -0.18231395237E+03  0.18237642231E+03  0.00000000000E+00 0. -1.
        -15    1    1    2    0    0  0.16798721690E+01  0.11478046420E+01  0.29845517347E+02  0.29967516759E+02  0.17770000000E+01 0. -1.
         15    1    1    2    0    0  0.68431178268E+00  0.38931044457E+01  0.56955131357E+02  0.57119779951E+02  0.17770000000E+01 0.  1.
</event>
<event>
 6    1  0.1095497E-002  0.1465434E+03  0.7546771E-02  0.1101333E+00
        -11   -1    0    0    0    0  0.00000000000E+00  0.00000000000E+00  0.18250000000E+03  0.18250000000E+03  0.00000000000E+00 0.  1.
         11   -1    0    0    0    0 -0.00000000000E+00 -0.00000000000E+00 -0.18250000000E+03  0.18250000000E+03  0.00000000000E+00 0. -1.
        -11    1    1    2    0    0  0.15659519438E+02  0.24819760086E+02  0.15116774021E+03  0.15399002149E+03  0.00000000000E+00 0.  1.
         11    1    1    2    0    0 -0.40313174605E+01  0.40284618470E+01 -0.14080927178E+03  0.14092455799E+03  0.00000000000E+00 0. -1.
        -15    1    1    2    0    0  0.62534803294E+01 -0.19763462876E+01 -0.30996558419E+02  0.31732575120E+02  0.17770000000E+01 0.  1.
         15    1    1    2    0    0 -0.17881682307E+02 -0.26871875645E+02  0.20638089990E+02  0.38352845400E+02  0.17770000000E+01 0.  1.
</event>
<event>
 6    1  0.1059789E-002  0.1834505E+03  0.7546771E-02  0.1067701E+00
        -11   -1    0    0    0    0  0.00000000000E+00  0.00000000000E+00  0.18250000000E+03  0.18250000000E+03  0.00000000000E+00 0. -1.
         11   -1    0    0    0    0 -0.00000000000E+00 -0.00000000000E+00 -0.18250000000E+03  0.18250000000E+03  0.00000000000E+00 0. -1.
        -11    1    1    2    0    0 -0.10128478873E+01  0.31985563959E+01  0.18151851350E+03  0.18154951767E+03  0.00000000000E+00 0. -1.
         11    1    1    2    0    0  0.16422812122E+01 -0.21840861616E+01 -0.17233927096E+03  0.17236093419E+03  0.00000000000E+00 0. -1.
        -15    1    1    2    0    0 -0.14858675764E+01  0.46829584775E+00 -0.80240056592E+01  0.83647772997E+01  0.17770000000E+01 0.  1.
         15    1    1    2    0    0  0.85643425153E+00 -0.14827660821E+01 -0.11552368789E+01  0.27247708395E+01  0.17770000000E+01 0. -1.
</event>
<event>
 6    1  0.1059789E-002  0.1858683E+03  0.7546771E-02  0.1065805E+00
        -11   -1    0    0    0    0  0.00000000000E+00  0.00000000000E+00  0.18250000000E+03  0.18250000000E+03  0.00000000000E+00 0.  1.
         11   -1    0    0    0    0 -0.00000000000E+00 -0.00000000000E+00 -0.18250000000E+03  0.18250000000E+03  0.00000000000E+00 0. -1.
        -11    1    1    2    0    0 -0.11717044592E+01 -0.21158112047E+01  0.14271305416E+03  0.14273354678E+03  0.00000000000E+00 0.  1.
         11    1    1    2    0    0  0.40311461721E+01  0.63417003120E+01 -0.17897401171E+03  0.17913169505E+03  0.00000000000E+00 0. -1.
        -15    1    1    2    0    0 -0.30209671947E+01  0.37571054459E+01  0.34353127484E+02  0.34735244077E+02  0.17770000000E+01 0. -1.
         15    1    1    2    0    0  0.16152548186E+00 -0.79829945532E+01  0.19078300653E+01  0.83995140976E+01  0.17770000000E+01 0.  1.
</event>
<event>
 6    1  0.1059789E-002  0.1895217E+03  0.7546771E-02  0.1062999E+00
        -11   -1    0    0    0    0  0.00000000000E+00  0.00000000000E+00  0.18250000000E+03  0.18250000000E+03  0.00000000000E+00 0. -1.
         11   -1    0    0    0    0 -0.00000000000E+00 -0.00000000000E+00 -0.18250000000E+03  0.18250000000E+03  0.00000000000E+00 0. -1.
        -11    1    1    2    0    0  0.43730356455E+01  0.57618579059E+00  0.17542283531E+03  0.17547827951E+03  0.00000000000E+00 0. -1.
         11    1    1    2    0    0  0.42009393159E+00  0.87013887158E+01 -0.16607255863E+03  0.16630088808E+03  0.00000000000E+00 0. -1.
        -15    1    1    2    0    0  0.10751033844E+01 -0.34576803279E+01 -0.13294043252E+02  0.13892469742E+02  0.17770000000E+01 0. -1.
         15    1    1    2    0    0 -0.58682329614E+01 -0.58198941785E+01  0.39437665742E+01  0.93283626715E+01  0.17770000000E+01 0.  1.
</event>
<event>
 6    1  0.1059789E-002  0.1854193E+03  0.7546771E-02  0.1066154E+00
        -11   -1    0    0    0    0  0.00000000000E+00  0.00000000000E+00  0.18250000000E+03  0.18250000000E+03  0.00000000000E+00 0.  1.
         11   -1    0    0    0    0 -0.00000000000E+00 -0.00000000000E+00 -0.18250000000E+03  0.18250000000E+03  0.00000000000E+00 0. -1.
        -11    1    1    2    0    0 -0.50437445891E+00  0.42518567644E+01  0.17952962610E+03  0.17958067637E+03  0.00000000000E+00 0.  1.
         11    1    1    2    0    0 -0.25032938248E+01 -0.25578605740E+01 -0.13325365148E+03  0.13330170578E+03  0.00000000000E+00 0. -1.
        -15    1    1    2    0    0 -0.47778993255E+01  0.72717308374E+00 -0.55151706946E-01  0.51495507929E+01  0.17770000000E+01 0.  1.
         15    1    1    2    0    0  0.77855676091E+01 -0.24211692742E+01 -0.46220822909E+02  0.46968067056E+02  0.17770000000E+01 0. -1.
</event>
<event>
 6    1  0.1059789E-002  0.1879970E+03  0.7546771E-02  0.1064161E+00
        -11   -1    0    0    0    0  0.00000000000E+00  0.00000000000E+00  0.18250000000E+03  0.18250000000E+03  0.00000000000E+00 0. -1.
         11   -1    0    0    0    0 -0.00000000000E+00 -0.00000000000E+00 -0.18250000000E+03  0.18250000000E+03  0.00000000000E+00 0. -1.
        -11    1    1    2    0    0  0.11434841367E+00 -0.15670368860E+02  0.17630789478E+03  0.17700295845E+03  0.00000000000E+00 0. -1.
         11    1    1    2    0    0 -0.36630566169E+01  0.14961605660E+02 -0.14593742843E+03  0.14674808566E+03  0.00000000000E+00 0. -1.
        -15    1    1    2    0    0 -0.48962729424E+01 -0.93835585626E+01 -0.24466083680E+02  0.26716505004E+02  0.17770000000E+01 0. -1.
         15    1    1    2    0    0  0.84449811456E+01  0.10092321763E+02 -0.59043826692E+01  0.14532450888E+02  0.17770000000E+01 0.  1.
</event>
<event>
 6    1  0.1059789E-002  0.1839983E+03  0.7546771E-02  0.1067268E+00
        -11   -1    0    0    0    0  0.00000000000E+00  0.00000000000E+00  0.18250000000E+03  0.18250000000E+03  0.00000000000E+00 0.  1.
         11   -1    0    0    0    0 -0.00000000000E+00 -0.00000000000E+00 -0.18250000000E+03  0.18250000000E+03  0.00000000000E+00 0.  1.
        -11    1    1    2    0    0 -0.28094052370E+01 -0.28240814161E+01  0.18095783193E+03  0.18100167163E+03  0.00000000000E+00 0.  1.
         11    1    1    2    0    0  0.84036357722E+01  0.88198401116E+00 -0.16122803398E+03  0.16144930452E+03  0.00000000000E+00 0.  1.
        -15    1    1    2    0    0 -0.42173152466E+00  0.37005457895E+01 -0.37804628575E+01  0.55965636811E+01  0.17770000000E+01 0.  1.
         15    1    1    2    0    0 -0.51724990105E+01 -0.17584483845E+01 -0.15949335101E+02  0.16952460173E+02  0.17770000000E+01 0. -1.
</event>
<event>
 6    1  0.1151243E-002  0.1826817E+03  0.7546771E-02  0.1068310E+00
        -11   -1    0    0    0    0  0.00000000000E+00  0.00000000000E+00  0.18250000000E+03  0.18250000000E+03  0.00000000000E+00 0.  1.
         11   -1    0    0    0    0 -0.00000000000E+00 -0.00000000000E+00 -0.18250000000E+03  0.18250000000E+03  0.00000000000E+00 0.  1.
        -11    1    1    2    0    0  0.33946506149E+00 -0.29415691680E+01  0.18229424183E+03  0.18231828945E+03  0.00000000000E+00 0.  1.
         11    1    1    2    0    0 -0.19391452528E+01 -0.18605022760E+00 -0.12894094450E+03  0.12895565931E+03  0.00000000000E+00 0.  1.
        -15    1    1    2    0    0  0.52204316309E+00  0.31985039594E+01 -0.22390436833E+02  0.22693442824E+02  0.17770000000E+01 0. -1.
         15    1    1    2    0    0  0.10776370282E+01 -0.70884563769E-01 -0.30962860492E+02  0.31032608414E+02  0.17770000000E+01 0. -1.
</event>
<event>
 6    1  0.1059789E-002  0.1851821E+03  0.7546771E-02  0.1066340E+00
        -11   -1    0    0    0    0  0.00000000000E+00  0.00000000000E+00  0.18250000000E+03  0.18250000000E+03  0.00000000000E+00 0.  1.
         11   -1    0    0    0    0 -0.00000000000E+00 -0.00000000000E+00 -0.18250000000E+03  0.18250000000E+03  0.00000000000E+00 0. -1.
        -11    1    1    2    0    0  0.23147547815E+01 -0.36247290637E+01  0.17667122417E+03  0.17672356436E+03  0.00000000000E+00 0.  1.
         11    1    1    2    0    0 -0.47237327812E+01  0.34305915408E+01 -0.17972306966E+03  0.17981786445E+03  0.00000000000E+00 0. -1.
        -15    1    1    2    0    0 -0.21748631530E+01  0.83620102531E+00  0.11794894370E+01  0.31588267159E+01  0.17770000000E+01 0.  1.
         15    1    1    2    0    0  0.45838411528E+01 -0.64206350247E+00  0.18723560506E+01  0.52997444689E+01  0.17770000000E+01 0. -1.
</event>
<event>
 6    1  0.1059789E-002  0.1827165E+03  0.7546771E-02  0.1068283E+00
        -11   -1    0    0    0    0  0.00000000000E+00  0.00000000000E+00  0.18250000000E+03  0.18250000000E+03  0.00000000000E+00 0. -1.
         11   -1    0    0    0    0 -0.00000000000E+00 -0.00000000000E+00 -0.18250000000E+03  0.18250000000E+03  0.00000000000E+00 0. -1.
        -11    1    1    2    0    0  0.95244919943E+00  0.43476859134E+00  0.57266219583E+02  0.57275789724E+02  0.00000000000E+00 0. -1.
         11    1    1    2    0    0  0.39275429236E+01 -0.85018966001E+01 -0.18204278650E+03  0.18228352629E+03  0.00000000000E+00 0. -1.
        -15    1    1    2    0    0 -0.41673347090E+01  0.92577067744E+01  0.11136575978E+03  0.11184168272E+03  0.17770000000E+01 0. -1.
         15    1    1    2    0    0 -0.71265741403E+00 -0.11905787657E+01  0.13410807142E+02  0.13599001271E+02  0.17770000000E+01 0. -1.
</event>
<event>
 6    1  0.1059789E-002  0.1857389E+03  0.7546771E-02  0.1065905E+00
        -11   -1    0    0    0    0  0.00000000000E+00  0.00000000000E+00  0.18250000000E+03  0.18250000000E+03  0.00000000000E+00 0. -1.
         11   -1    0    0    0    0 -0.00000000000E+00 -0.00000000000E+00 -0.18250000000E+03  0.18250000000E+03  0.00000000000E+00 0. -1.
        -11    1    1    2    0    0 -0.78674307154E+00  0.26351948839E+01  0.17924000871E+03  0.17926110548E+03  0.00000000000E+00 0. -1.
         11    1    1    2    0    0 -0.11792589257E+01  0.60793711061E+01 -0.13070802716E+03  0.13085464367E+03  0.00000000000E+00 0. -1.
        -15    1    1    2    0    0 -0.33840078049E+00  0.23915439142E+01 -0.41096600947E+02  0.41205853174E+02  0.17770000000E+01 0.  1.
         15    1    1    2    0    0  0.23044027778E+01 -0.11106109904E+02 -0.74353806001E+01  0.13678397678E+02  0.17770000000E+01 0. -1.
</event>
<event>
 6    1  0.1059789E-002  0.1844130E+03  0.7546771E-02  0.1066942E+00
        -11   -1    0    0    0    0  0.00000000000E+00  0.00000000000E+00  0.18250000000E+03  0.18250000000E+03  0.00000000000E+00 0. -1.
         11   -1    0    0    0    0 -0.00000000000E+00 -0.00000000000E+00 -0.18250000000E+03  0.18250000000E+03  0.00000000000E+00 0.  1.
        -11    1    1    2    0    0 -0.88972945101E+00  0.33044113131E+01  0.18055455229E+03  0.18058697934E+03  0.00000000000E+00 0. -1.
         11    1    1    2    0    0 -0.19063577045E+01 -0.20545350876E+01 -0.17580386026E+03  0.17582619997E+03  0.00000000000E+00 0.  1.
        -15    1    1    2    0    0 -0.34412860669E+00  0.15916354247E+01 -0.24986088853E+01  0.34716715261E+01  0.17770000000E+01 0.  1.
         15    1    1    2    0    0  0.31402157622E+01 -0.28415116502E+01 -0.22520831508E+01  0.51151491679E+01  0.17770000000E+01 0. -1.
</event>
<event>
 6    1  0.1059789E-002  0.1833356E+03  0.7546771E-02  0.1067792E+00
        -11   -1    0    0    0    0  0.00000000000E+00  0.00000000000E+00  0.18250000000E+03  0.18250000000E+03  0.00000000000E+00 0.  1.
         11   -1    0    0    0    0 -0.00000000000E+00 -0.00000000000E+00 -0.18250000000E+03  0.18250000000E+03  0.00000000000E+00 0. -1.
        -11    1    1    2    0    0  0.28420968700E+01  0.29920782088E+01  0.72920057330E+02  0.73036736015E+02  0.00000000000E+00 0.  1.
         11    1    1    2    0    0 -0.18564453822E+01  0.50141477410E+01 -0.18158569798E+03  0.18166439876E+03  0.00000000000E+00 0. -1.
        -15    1    1    2    0    0 -0.50799571562E+01 -0.13795667850E+00  0.11332299707E+02  0.12546064817E+02  0.17770000000E+01 0. -1.
         15    1    1    2    0    0  0.40943056684E+01 -0.78682692713E+01  0.97333340939E+02  0.97752800408E+02  0.17770000000E+01 0.  1.
</event>
<event>
 6    1  0.1059789E-002  0.1744347E+03  0.7546771E-02  0.1075062E+00
        -11   -1    0    0    0    0  0.00000000000E+00  0.00000000000E+00  0.18250000000E+03  0.18250000000E+03  0.00000000000E+00 0. -1.
         11   -1    0    0    0    0 -0.00000000000E+00 -0.00000000000E+00 -0.18250000000E+03  0.18250000000E+03  0.00000000000E+00 0.  1.
        -11    1    1    2    0    0  0.47644813960E+01  0.35499013494E+01  0.17237022261E+03  0.17247259413E+03  0.00000000000E+00 0. -1.
         11    1    1    2    0    0  0.35346387807E+00 -0.13614216301E+02 -0.17607318369E+03  0.17659908787E+03  0.00000000000E+00 0.  1.
        -15    1    1    2    0    0 -0.50656481968E+00  0.10105105898E+02  0.38853400785E+01  0.10982867096E+02  0.17770000000E+01 0. -1.
         15    1    1    2    0    0 -0.46113804544E+01 -0.40790946239E-01 -0.18237900366E+00  0.49454509094E+01  0.17770000000E+01 0.  1.
</event>
<event>
 6    1  0.1116430E-002  0.1870261E+03  0.7546771E-02  0.1064908E+00
        -11   -1    0    0    0    0  0.00000000000E+00  0.00000000000E+00  0.18250000000E+03  0.18250000000E+03  0.00000000000E+00 0. -1.
         11   -1    0    0    0    0 -0.00000000000E+00 -0.00000000000E+00 -0.18250000000E+03  0.18250000000E+03  0.00000000000E+00 0.  1.
        -11    1    1    2    0    0  0.32418364927E+01 -0.12810618241E+01  0.17793977596E+03  0.17797391520E+03  0.00000000000E+00 0. -1.
         11    1    1    2    0    0 -0.17413630528E+01  0.79690130136E+01 -0.16806450025E+03  0.16826233613E+03  0.00000000000E+00 0.  1.
        -15    1    1    2    0    0 -0.92488410046E+00 -0.89552912424E+01 -0.12022857396E+02  0.15124796885E+02  0.17770000000E+01 0.  1.
         15    1    1    2    0    0 -0.57558933941E+00  0.22673400529E+01  0.21475816948E+01  0.36389517912E+01  0.17770000000E+01 0. -1.
</event>
<event>
 6    1  0.1059789E-002  0.1840714E+03  0.7546771E-02  0.1067211E+00
        -11   -1    0    0    0    0  0.00000000000E+00  0.00000000000E+00  0.18250000000E+03  0.18250000000E+03  0.00000000000E+00 0. -1.
         11   -1    0    0    0    0 -0.00000000000E+00 -0.00000000000E+00 -0.18250000000E+03  0.18250000000E+03  0.00000000000E+00 0. -1.
        -11    1    1    2    0    0 -0.67033267959E+01  0.46229115095E+01  0.18074529121E+03  0.18092862183E+03  0.00000000000E+00 0. -1.
         11    1    1    2    0    0 -0.18898983280E+01  0.10361441401E+01 -0.14162198605E+03  0.14163838549E+03  0.00000000000E+00 0. -1.
        -15    1    1    2    0    0 -0.24499064578E+01 -0.40596192422E+01 -0.13936419922E+02  0.14827814380E+02  0.17770000000E+01 0.  1.
         15    1    1    2    0    0  0.11043131582E+02 -0.15994364075E+01 -0.25186885240E+02  0.27605178301E+02  0.17770000000E+01 0. -1.
</event>
<event>
 6    1  0.1059789E-002  0.1826356E+03  0.7546771E-02  0.1068347E+00
        -11   -1    0    0    0    0  0.00000000000E+00  0.00000000000E+00  0.18250000000E+03  0.18250000000E+03  0.00000000000E+00 0.  1.
         11   -1    0    0    0    0 -0.00000000000E+00 -0.00000000000E+00 -0.18250000000E+03  0.18250000000E+03  0.00000000000E+00 0. -1.
        -11    1    1    2    0    0  0.25391322984E+01  0.32972544677E+01  0.18231691791E+03  0.18236440891E+03  0.00000000000E+00 0.  1.
         11    1    1    2    0    0  0.12951603878E+01 -0.27327053987E-01 -0.45407800348E+02  0.45426275652E+02  0.00000000000E+00 0. -1.
        -15    1    1    2    0    0 -0.25082495082E+01 -0.28757360948E+00 -0.19627281156E+02  0.19868616177E+02  0.17770000000E+01 0.  1.
         15    1    1    2    0    0 -0.13260431781E+01 -0.29823538042E+01 -0.11728183640E+03  0.11734069927E+03  0.17770000000E+01 0. -1.
</event>
<event>
 6    1  0.1059789E-002  0.1827888E+03  0.7546771E-02  0.1068225E+00
        -11   -1    0    0    0    0  0.00000000000E+00  0.00000000000E+00  0.18250000000E+03  0.18250000000E+03  0.00000000000E+00 0. -1.
         11   -1    0    0    0    0 -0.00000000000E+00 -0.00000000000E+00 -0.18250000000E+03  0.18250000000E+03  0.00000000000E+00 0.  1.
        -11    1    1    2    0    0 -0.17709411138E+01 -0.20443187493E+01  0.18219109696E+03  0.18221117222E+03  0.00000000000E+00 0. -1.
         11    1    1    2    0    0 -0.62928991621E+00  0.21077894304E+01 -0.12182991438E+03  0.12184977152E+03  0.00000000000E+00 0.  1.
        -15    1    1    2    0    0  0.36789040871E+01  0.24217569228E+01 -0.43274760768E+02  0.43534605665E+02  0.17770000000E+01 0.  1.
         15    1    1    2    0    0 -0.12786730571E+01 -0.24852276039E+01 -0.17086421811E+02  0.17404450589E+02  0.17770000000E+01 0. -1.
</event>
<event>
 6    1  0.1059789E-002  0.1829949E+03  0.7546771E-02  0.1068062E+00
        -11   -1    0    0    0    0  0.00000000000E+00  0.00000000000E+00  0.18250000000E+03  0.18250000000E+03  0.00000000000E+00 0. -1.
         11   -1    0    0    0    0 -0.00000000000E+00 -0.00000000000E+00 -0.18250000000E+03  0.18250000000E+03  0.00000000000E+00 0.  1.
        -11    1    1    2    0    0 -0.21307528689E+01 -0.31515104249E+01  0.13348768292E+03  0.13354187964E+03  0.00000000000E+00 0. -1.
         11    1    1    2    0    0 -0.22104286184E+01  0.41134637565E+01 -0.18194520780E+03  0.18200512416E+03  0.00000000000E+00 0.  1.
        -15    1    1    2    0    0  0.23254169781E+01 -0.43684263340E+01  0.20645934883E+02  0.21305001032E+02  0.17770000000E+01 0. -1.
         15    1    1    2    0    0  0.20157645092E+01  0.34064730024E+01  0.27811589994E+02  0.28147995167E+02  0.17770000000E+01 0.  1.
</event>
<event>
 6    1  0.1609900E-002  0.1980941E+03  0.7546771E-02  0.1056678E+00
        -11   -1    0    0    0    0  0.00000000000E+00  0.00000000000E+00  0.18250000000E+03  0.18250000000E+03  0.00000000000E+00 0. -1.
         11   -1    0    0    0    0 -0.00000000000E+00 -0.00000000000E+00 -0.18250000000E+03  0.18250000000E+03  0.00000000000E+00 0. -1.
        -11    1    1    2    0    0 -0.12750409765E+01 -0.14738721175E+01  0.11889782908E+03  0.11891379982E+03  0.00000000000E+00 0. -1.
         11    1    1    2    0    0  0.99666135339E+00 -0.49468601368E+01 -0.16682962162E+03  0.16690592382E+03  0.00000000000E+00 0. -1.
        -15    1    1    2    0    0  0.18559921913E+01  0.97790875111E+00  0.62960587191E+02  0.63020586168E+02  0.17770000000E+01 0. -1.
         15    1    1    2    0    0 -0.15776125683E+01  0.54428235032E+01 -0.15028794654E+02  0.16159690184E+02  0.17770000000E+01 0. -1.
</event>
<event>
 6    1  0.1059789E-002  0.1826061E+03  0.7546771E-02  0.1068370E+00
        -11   -1    0    0    0    0  0.00000000000E+00  0.00000000000E+00  0.18250000000E+03  0.18250000000E+03  0.00000000000E+00 0. -1.
         11   -1    0    0    0    0 -0.00000000000E+00 -0.00000000000E+00 -0.18250000000E+03  0.18250000000E+03  0.00000000000E+00 0.  1.
        -11    1    1    2    0    0 -0.77677786509E+00 -0.13983340561E+01  0.85314039882E+02  0.85329034466E+02  0.00000000000E+00 0. -1.
         11    1    1    2    0    0 -0.23634570026E+01 -0.12967636270E+01 -0.18237397988E+03  0.18239390358E+03  0.00000000000E+00 0.  1.
        -15    1    1    2    0    0  0.16881013731E+01 -0.55359440237E+00  0.39549506927E+02  0.39629249048E+02  0.17770000000E+01 0. -1.
         15    1    1    2    0    0  0.14521334947E+01  0.32486920855E+01  0.57510433072E+02  0.57647812908E+02  0.17770000000E+01 0.  1.
</event>
<event>
 6    1  0.1059789E-002  0.2112269E+03  0.7546771E-02  0.1047641E+00
        -11   -1    0    0    0    0  0.00000000000E+00  0.00000000000E+00  0.18250000000E+03  0.18250000000E+03  0.00000000000E+00 0. -1.
         11   -1    0    0    0    0 -0.00000000000E+00 -0.00000000000E+00 -0.18250000000E+03  0.18250000000E+03  0.00000000000E+00 0.  1.
        -11    1    1    2    0    0  0.69109815807E+01 -0.40779155749E+01  0.12609494376E+03  0.12635001347E+03  0.00000000000E+00 0. -1.
         11    1    1    2    0    0 -0.40511638768E+01  0.33782076366E+01 -0.15368264038E+03  0.15377313864E+03  0.00000000000E+00 0.  1.
        -15    1    1    2    0    0 -0.30826808550E+01  0.11465550820E+02 -0.26820592214E+02  0.29384752382E+02  0.17770000000E+01 0.  1.
         15    1    1    2    0    0  0.22286315109E+00 -0.10765842882E+02  0.54408288833E+02  0.55492095506E+02  0.17770000000E+01 0. -1.
</event>
<event>
 6    1  0.1059789E-002  0.1836447E+03  0.7546771E-02  0.1067547E+00
        -11   -1    0    0    0    0  0.00000000000E+00  0.00000000000E+00  0.18250000000E+03  0.18250000000E+03  0.00000000000E+00 0. -1.
         11   -1    0    0    0    0 -0.00000000000E+00 -0.00000000000E+00 -0.18250000000E+03  0.18250000000E+03  0.00000000000E+00 0.  1.
        -11    1    1    2    0    0 -0.55045093385E+01  0.41898170165E+00  0.11771441532E+03  0.11784378959E+03  0.00000000000E+00 0. -1.
         11    1    1    2    0    0  0.45729874301E+00 -0.54577257425E+01 -0.18127253317E+03  0.18135525130E+03  0.00000000000E+00 0.  1.
        -15    1    1    2    0    0  0.25922443427E+01  0.48261316306E+00  0.57689347816E+02  0.57776909113E+02  0.17770000000E+01 0.  1.
         15    1    1    2    0    0  0.24549662528E+01  0.45561308778E+01  0.58687700249E+01  0.80240500050E+01  0.17770000000E+01 0. -1.
</event>
<event>
 6    1  0.1059789E-002  0.1826109E+03  0.7546771E-02  0.1068367E+00
        -11   -1    0    0    0    0  0.00000000000E+00  0.00000000000E+00  0.18250000000E+03  0.18250000000E+03  0.00000000000E+00 0. -1.
         11   -1    0    0    0    0 -0.00000000000E+00 -0.00000000000E+00 -0.18250000000E+03  0.18250000000E+03  0.00000000000E+00 0. -1.
        -11    1    1    2    0    0 -0.28591930487E+00 -0.31085649808E+01  0.18236236717E+03  0.18238908379E+03  0.00000000000E+00 0. -1.
         11    1    1    2    0    0 -0.14521278554E+01  0.12813168781E+01 -0.36445253731E+02  0.36496670640E+02  0.00000000000E+00 0. -1.
        -15    1    1    2    0    0  0.10293775075E+01  0.84936033680E+00 -0.13308150320E+03  0.13310005730E+03  0.17770000000E+01 0. -1.
         15    1    1    2    0    0  0.70866965277E+00  0.97788776585E+00 -0.12835610237E+02  0.13014188270E+02  0.17770000000E+01 0.  1.
</event>
<event>
 6    1  0.1059789E-002  0.1722588E+03  0.7546771E-02  0.1076912E+00
        -11   -1    0    0    0    0  0.00000000000E+00  0.00000000000E+00  0.18250000000E+03  0.18250000000E+03  0.00000000000E+00 0. -1.
         11   -1    0    0    0    0 -0.00000000000E+00 -0.00000000000E+00 -0.18250000000E+03  0.18250000000E+03  0.00000000000E+00 0.  1.
        -11    1    1    2    0    0  0.22371182477E+01 -0.26734272577E+01  0.17409218273E+03  0.17412708003E+03  0.00000000000E+00 0. -1.
         11    1    1    2    0    0  0.45750190733E+01 -0.42567345176E+01 -0.17043239366E+03  0.17054691846E+03  0.00000000000E+00 0.  1.
        -15    1    1    2    0    0  0.42821462948E+01  0.20158510214E+01  0.34782373719E+01  0.61364726387E+01  0.17770000000E+01 0.  1.
         15    1    1    2    0    0 -0.11094283616E+02  0.49143107539E+01 -0.71380264463E+01  0.14189528875E+02  0.17770000000E+01 0. -1.
</event>
<event>
 6    1  0.1059789E-002  0.1835971E+03  0.7546771E-02  0.1067585E+00
        -11   -1    0    0    0    0  0.00000000000E+00  0.00000000000E+00  0.18250000000E+03  0.18250000000E+03  0.00000000000E+00 0.  1.
         11   -1    0    0    0    0 -0.00000000000E+00 -0.00000000000E+00 -0.18250000000E+03  0.18250000000E+03  0.00000000000E+00 0. -1.
        -11    1    1    2    0    0 -0.12983675852E+01 -0.24243436873E+01  0.18138203023E+03  0.18140287785E+03  0.00000000000E+00 0.  1.
         11    1    1    2    0    0  0.19174495282E+01 -0.43990759943E+00 -0.12309524849E+03  0.12311096755E+03  0.00000000000E+00 0. -1.
        -15    1    1    2    0    0  0.30937439714E+01  0.10390353862E+01 -0.24118214075E+01  0.44300629562E+01  0.17770000000E+01 0. -1.
         15    1    1    2    0    0 -0.37128259144E+01  0.18252159005E+01 -0.55874960333E+02  0.56056091646E+02  0.17770000000E+01 0.  1.
</event>
<event>
 6    1  0.1059789E-002  0.1838234E+03  0.7546771E-02  0.1067406E+00
        -11   -1    0    0    0    0  0.00000000000E+00  0.00000000000E+00  0.18250000000E+03  0.18250000000E+03  0.00000000000E+00 0.  1.
         11   -1    0    0    0    0 -0.00000000000E+00 -0.00000000000E+00 -0.18250000000E+03  0.18250000000E+03  0.00000000000E+00 0. -1.
        -11    1    1    2    0    0 -0.54200650055E+01 -0.39588973558E+00  0.15603345898E+03  0.15612806972E+03  0.00000000000E+00 0.  1.
         11    1    1    2    0    0 -0.17940425694E+01 -0.41803053092E+01 -0.18111943755E+03  0.18117655533E+03  0.00000000000E+00 0. -1.
        -15    1    1    2    0    0  0.53267703038E+01  0.61114818917E+01  0.21280404073E+02  0.22841585306E+02  0.17770000000E+01 0.  1.
         15    1    1    2    0    0  0.18873372711E+01 -0.15352868469E+01  0.38055744981E+01  0.48537896471E+01  0.17770000000E+01 0.  1.
</event>
<event>
 6    1  0.1059789E-002  0.1828492E+03  0.7546771E-02  0.1068177E+00
        -11   -1    0    0    0    0  0.00000000000E+00  0.00000000000E+00  0.18250000000E+03  0.18250000000E+03  0.00000000000E+00 0.  1.
         11   -1    0    0    0    0 -0.00000000000E+00 -0.00000000000E+00 -0.18250000000E+03  0.18250000000E+03  0.00000000000E+00 0. -1.
        -11    1    1    2    0    0 -0.23930987526E+01 -0.31162051798E+00  0.14972083928E+03  0.14974028764E+03  0.00000000000E+00 0.  1.
         11    1    1    2    0    0 -0.28455477280E+00 -0.40236022372E+01 -0.18210615874E+03  0.18215082596E+03  0.00000000000E+00 0. -1.
        -15    1    1    2    0    0  0.22087501599E+01  0.20543797190E+01  0.11557855303E+02  0.12076456496E+02  0.17770000000E+01 0. -1.
         15    1    1    2    0    0  0.46890336547E+00  0.22808430362E+01  0.20827464161E+02  0.21032429905E+02  0.17770000000E+01 0.  1.
</event>
<event>
 6    1  0.1059789E-002  0.1829184E+03  0.7546771E-02  0.1068122E+00
        -11   -1    0    0    0    0  0.00000000000E+00  0.00000000000E+00  0.18250000000E+03  0.18250000000E+03  0.00000000000E+00 0.  1.
         11   -1    0    0    0    0 -0.00000000000E+00 -0.00000000000E+00 -0.18250000000E+03  0.18250000000E+03  0.00000000000E+00 0. -1.
        -11    1    1    2    0    0  0.17770719894E+01 -0.17809137883E+01  0.15291777037E+03  0.15293846519E+03  0.00000000000E+00 0.  1.
         11    1    1    2    0    0  0.59792753343E+00  0.39565361513E+01 -0.18203766638E+03  0.18208164014E+03  0.00000000000E+00 0. -1.
        -15    1    1    2    0    0 -0.33525845428E+01 -0.16187020282E+00  0.11028114993E+02  0.11663750442E+02  0.17770000000E+01 0. -1.
         15    1    1    2    0    0  0.97758501996E+00 -0.20137521602E+01  0.18091781013E+02  0.18316144230E+02  0.17770000000E+01 0.  1.
</event>
<event>
 6    1  0.1059789E-002  0.1846949E+03  0.7546771E-02  0.1066721E+00
        -11   -1    0    0    0    0  0.00000000000E+00  0.00000000000E+00  0.18250000000E+03  0.18250000000E+03  0.00000000000E+00 0.  1.
         11   -1    0    0    0    0 -0.00000000000E+00 -0.00000000000E+00 -0.18250000000E+03  0.18250000000E+03  0.00000000000E+00 0. -1.
        -11    1    1    2    0    0 -0.54501731652E+01  0.40563362864E+01  0.16033711229E+03  0.16048098899E+03  0.00000000000E+00 0.  1.
         11    1    1    2    0    0 -0.47257363729E+01  0.77938446840E+00 -0.18024144043E+03  0.18030506613E+03  0.00000000000E+00 0. -1.
        -15    1    1    2    0    0  0.91171667152E+01 -0.26465292266E+01  0.10174927725E+02  0.14029031651E+02  0.17770000000E+01 0.  1.
         15    1    1    2    0    0  0.10587428229E+01 -0.21891915283E+01  0.97294004176E+01  0.10184913225E+02  0.17770000000E+01 0. -1.
</event>
<event>
 6    1  0.1059789E-002  0.1877391E+03  0.7546771E-02  0.1064359E+00
        -11   -1    0    0    0    0  0.00000000000E+00  0.00000000000E+00  0.18250000000E+03  0.18250000000E+03  0.00000000000E+00 0.  1.
         11   -1    0    0    0    0 -0.00000000000E+00 -0.00000000000E+00 -0.18250000000E+03  0.18250000000E+03  0.00000000000E+00 0.  1.
        -11    1    1    2    0    0  0.52313221632E+01 -0.41379257301E+01  0.17713531863E+03  0.17726085374E+03  0.00000000000E+00 0.  1.
         11    1    1    2    0    0  0.34356842100E+01  0.88231996118E+01 -0.15329207733E+03  0.15358422364E+03  0.00000000000E+00 0.  1.
        -15    1    1    2    0    0 -0.11449393412E+02 -0.11798725924E+02 -0.14885252165E+02  0.22249202322E+02  0.17770000000E+01 0. -1.
         15    1    1    2    0    0  0.27823870391E+01  0.71134520420E+01 -0.89579891326E+01  0.11905720301E+02  0.17770000000E+01 0.  1.
</event>
<event>
 6    1  0.1059789E-002  0.1840202E+03  0.7546771E-02  0.1067251E+00
        -11   -1    0    0    0    0  0.00000000000E+00  0.00000000000E+00  0.18250000000E+03  0.18250000000E+03  0.00000000000E+00 0.  1.
         11   -1    0    0    0    0 -0.00000000000E+00 -0.00000000000E+00 -0.18250000000E+03  0.18250000000E+03  0.00000000000E+00 0.  1.
        -11    1    1    2    0    0 -0.48321543105E+01 -0.12798473526E+00  0.10223844656E+03  0.10235265532E+03  0.00000000000E+00 0.  1.
         11    1    1    2    0    0  0.86068370495E+01 -0.95773735007E+01 -0.18052110307E+03  0.18097975683E+03  0.00000000000E+00 0.  1.
        -15    1    1    2    0    0 -0.10399177520E+02  0.77900815520E+01  0.28430699699E+02  0.31309594026E+02  0.17770000000E+01 0.  1.
         15    1    1    2    0    0  0.66244947810E+01  0.19152766839E+01  0.49851956811E+02  0.50357993831E+02  0.17770000000E+01 0.  1.
</event>
<event>
 6    1  0.1059789E-002  0.1836470E+03  0.7546771E-02  0.1067545E+00
        -11   -1    0    0    0    0  0.00000000000E+00  0.00000000000E+00  0.18250000000E+03  0.18250000000E+03  0.00000000000E+00 0. -1.
         11   -1    0    0    0    0 -0.00000000000E+00 -0.00000000000E+00 -0.18250000000E+03  0.18250000000E+03  0.00000000000E+00 0. -1.
        -11    1    1    2    0    0 -0.52226741165E+01  0.94148074887E+00  0.14778374703E+03  0.14787899985E+03  0.00000000000E+00 0. -1.
         11    1    1    2    0    0 -0.55187875505E+00 -0.54055940789E+01 -0.18127156888E+03  0.18135298923E+03  0.00000000000E+00 0. -1.
        -15    1    1    2    0    0  0.34618894497E+01  0.74064922969E+01  0.23949194151E+02  0.25368532401E+02  0.17770000000E+01 0. -1.
         15    1    1    2    0    0  0.23126634219E+01 -0.29423789669E+01  0.95386276972E+01  0.10399478517E+02  0.17770000000E+01 0.  1.
</event>
<event>
 6    1  0.1059789E-002  0.1837536E+03  0.7546771E-02  0.1067461E+00
        -11   -1    0    0    0    0  0.00000000000E+00  0.00000000000E+00  0.18250000000E+03  0.18250000000E+03  0.00000000000E+00 0.  1.
         11   -1    0    0    0    0 -0.00000000000E+00 -0.00000000000E+00 -0.18250000000E+03  0.18250000000E+03  0.00000000000E+00 0. -1.
        -11    1    1    2    0    0 -0.24416496369E+00  0.33107805568E+01  0.18121595716E+03  0.18124636277E+03  0.00000000000E+00 0.  1.
         11    1    1    2    0    0  0.18950704021E+01  0.36838738348E+01 -0.15111404208E+03  0.15117081706E+03  0.00000000000E+00 0. -1.
        -15    1    1    2    0    0  0.17662621517E+01 -0.11549740711E+01 -0.15049305752E+01  0.31426409483E+01  0.17770000000E+01 0.  1.
         15    1    1    2    0    0 -0.34171675901E+01 -0.58396803204E+01 -0.28596984513E+02  0.29440179225E+02  0.17770000000E+01 0. -1.
</event>
<event>
 6    1  0.1059789E-002  0.1841349E+03  0.7546771E-02  0.1067161E+00
        -11   -1    0    0    0    0  0.00000000000E+00  0.00000000000E+00  0.18250000000E+03  0.18250000000E+03  0.00000000000E+00 0. -1.
         11   -1    0    0    0    0 -0.00000000000E+00 -0.00000000000E+00 -0.18250000000E+03  0.18250000000E+03  0.00000000000E+00 0.  1.
        -11    1    1    2    0    0 -0.59370900062E+01  0.33183489189E+01  0.15739831392E+03  0.15754519892E+03  0.00000000000E+00 0. -1.
         11    1    1    2    0    0 -0.59318542519E+00 -0.51678683573E+01 -0.18079027557E+03  0.18086509468E+03  0.00000000000E+00 0.  1.
        -15    1    1    2    0    0  0.55075168997E+01  0.53425903887E+01  0.10831602109E+02  0.13392436213E+02  0.17770000000E+01 0.  1.
         15    1    1    2    0    0  0.10227585317E+01 -0.34930709503E+01  0.12560359542E+02  0.13197270191E+02  0.17770000000E+01 0. -1.
</event>
<event>
 6    1  0.1059789E-002  0.1885222E+03  0.7546771E-02  0.1063760E+00
        -11   -1    0    0    0    0  0.00000000000E+00  0.00000000000E+00  0.18250000000E+03  0.18250000000E+03  0.00000000000E+00 0.  1.
         11   -1    0    0    0    0 -0.00000000000E+00 -0.00000000000E+00 -0.18250000000E+03  0.18250000000E+03  0.00000000000E+00 0.  1.
        -11    1    1    2    0    0  0.43681156059E+01  0.18772342582E+02  0.15846095310E+03  0.15962880359E+03  0.00000000000E+00 0.  1.
         11    1    1    2    0    0 -0.56756973164E+00 -0.35041091025E+01 -0.17644213819E+03  0.17647784293E+03  0.00000000000E+00 0.  1.
        -15    1    1    2    0    0 -0.30318322411E+01 -0.17237049048E+02  0.19052132965E+02  0.25931628683E+02  0.17770000000E+01 0. -1.
         15    1    1    2    0    0 -0.76871363322E+00  0.19688155687E+01 -0.10709478691E+01  0.29617247900E+01  0.17770000000E+01 0.  1.
</event>
<event>
 6    1  0.1059789E-002  0.1879956E+03  0.7546771E-02  0.1064163E+00
        -11   -1    0    0    0    0  0.00000000000E+00  0.00000000000E+00  0.18250000000E+03  0.18250000000E+03  0.00000000000E+00 0. -1.
         11   -1    0    0    0    0 -0.00000000000E+00 -0.00000000000E+00 -0.18250000000E+03  0.18250000000E+03  0.00000000000E+00 0. -1.
        -11    1    1    2    0    0 -0.75861110771E+01  0.10658938983E+01  0.17683856314E+03  0.17700441414E+03  0.00000000000E+00 0. -1.
         11    1    1    2    0    0 -0.28699780925E+01  0.13794665182E+00 -0.15529866577E+03  0.15532524390E+03  0.00000000000E+00 0. -1.
        -15    1    1    2    0    0  0.48990193904E+01 -0.69379273303E+01  0.95943390766E+00  0.87300325916E+01  0.17770000000E+01 0. -1.
         15    1    1    2    0    0  0.55570697792E+01  0.57340867802E+01 -0.22499331276E+02  0.23940309367E+02  0.17770000000E+01 0. -1.
</event>
<event>
 6    1  0.1059789E-002  0.1739796E+03  0.7546771E-02  0.1075447E+00
        -11   -1    0    0    0    0  0.00000000000E+00  0.00000000000E+00  0.18250000000E+03  0.18250000000E+03  0.00000000000E+00 0. -1.
         11   -1    0    0    0    0 -0.00000000000E+00 -0.00000000000E+00 -0.18250000000E+03  0.18250000000E+03  0.00000000000E+00 0. -1.
        -11    1    1    2    0    0  0.26426943309E+01  0.22033274110E+01  0.17503800996E+03  0.17507182359E+03  0.00000000000E+00 0. -1.
         11    1    1    2    0    0  0.12469638541E+01  0.48941741103E+01 -0.17291426771E+03  0.17298801067E+03  0.00000000000E+00 0. -1.
        -15    1    1    2    0    0 -0.47932300784E+01 -0.23736562606E+01 -0.75846049657E+01  0.94495111045E+01  0.17770000000E+01 0.  1.
         15    1    1    2    0    0  0.90357189345E+00 -0.47238452606E+01  0.54608627146E+01  0.74906546310E+01  0.17770000000E+01 0. -1.
</event>
<event>
 6    1  0.1059789E-002  0.1931569E+03  0.7546771E-02  0.1060275E+00
        -11   -1    0    0    0    0  0.00000000000E+00  0.00000000000E+00  0.18250000000E+03  0.18250000000E+03  0.00000000000E+00 0.  1.
         11   -1    0    0    0    0 -0.00000000000E+00 -0.00000000000E+00 -0.18250000000E+03  0.18250000000E+03  0.00000000000E+00 0.  1.
        -11    1    1    2    0    0 -0.18325158009E+01  0.15305833469E+01  0.17182646321E+03  0.17184305124E+03  0.00000000000E+00 0.  1.
         11    1    1    2    0    0 -0.81536545675E+00 -0.10385641216E+01 -0.88730866336E+02  0.88740690087E+02  0.00000000000E+00 0.  1.
        -15    1    1    2    0    0  0.90527467071E+01 -0.17881325340E+02 -0.90237639055E+00  0.20141152673E+02  0.17770000000E+01 0. -1.
         15    1    1    2    0    0 -0.64048654495E+01  0.17389306114E+02 -0.82193220485E+02  0.84275106000E+02  0.17770000000E+01 0.  1.
</event>
<event>
 6    1  0.1059789E-002  0.1874601E+03  0.7546771E-02  0.1064574E+00
        -11   -1    0    0    0    0  0.00000000000E+00  0.00000000000E+00  0.18250000000E+03  0.18250000000E+03  0.00000000000E+00 0. -1.
         11   -1    0    0    0    0 -0.00000000000E+00 -0.00000000000E+00 -0.18250000000E+03  0.18250000000E+03  0.00000000000E+00 0. -1.
        -11    1    1    2    0    0 -0.10647934008E+01 -0.33959720326E+01  0.17750421265E+03  0.17753988825E+03  0.00000000000E+00 0. -1.
         11    1    1    2    0    0 -0.11587553789E+00 -0.72327238836E+00 -0.37502669114E+02  0.37509821924E+02  0.00000000000E+00 0. -1.
        -15    1    1    2    0    0  0.13853033069E+02  0.11538570638E+02 -0.13179560937E+03  0.13303490337E+03  0.17770000000E+01 0. -1.
         15    1    1    2    0    0 -0.12672364130E+02 -0.74193262172E+01 -0.82059341748E+01  0.16915386453E+02  0.17770000000E+01 0. -1.
</event>
<event>
 6    1  0.1059789E-002  0.1836938E+03  0.7546771E-02  0.1067509E+00
        -11   -1    0    0    0    0  0.00000000000E+00  0.00000000000E+00  0.18250000000E+03  0.18250000000E+03  0.00000000000E+00 0. -1.
         11   -1    0    0    0    0 -0.00000000000E+00 -0.00000000000E+00 -0.18250000000E+03  0.18250000000E+03  0.00000000000E+00 0. -1.
        -11    1    1    2    0    0  0.36758323777E+01  0.70695018230E+00  0.16390993712E+03  0.16395267307E+03  0.00000000000E+00 0. -1.
         11    1    1    2    0    0  0.29429327078E+01 -0.10536192993E+01 -0.18127927516E+03  0.18130622320E+03  0.00000000000E+00 0. -1.
        -15    1    1    2    0    0 -0.43242125507E+01  0.21704032285E+01  0.62270736344E+01  0.80835412664E+01  0.17770000000E+01 0. -1.
         15    1    1    2    0    0 -0.22945525348E+01 -0.18237341114E+01  0.11142264411E+02  0.11657562466E+02  0.17770000000E+01 0. -1.
</event>
<event>
 6    1  0.1059789E-002  0.1839816E+03  0.7546771E-02  0.1067282E+00
        -11   -1    0    0    0    0  0.00000000000E+00  0.00000000000E+00  0.18250000000E+03  0.18250000000E+03  0.00000000000E+00 0. -1.
         11   -1    0    0    0    0 -0.00000000000E+00 -0.00000000000E+00 -0.18250000000E+03  0.18250000000E+03  0.00000000000E+00 0. -1.
        -11    1    1    2    0    0 -0.46134808079E+01  0.65773258198E+00  0.18095838468E+03  0.18101837974E+03  0.00000000000E+00 0. -1.
         11    1    1    2    0    0 -0.37420976935E+01  0.17315209624E+01 -0.13215087770E+03  0.13221518799E+03  0.00000000000E+00 0. -1.
        -15    1    1    2    0    0  0.17103457298E+01 -0.28479625054E+00 -0.41279547641E+02  0.41354143370E+02  0.17770000000E+01 0. -1.
         15    1    1    2    0    0  0.66452327716E+01 -0.21044572939E+01 -0.75279593482E+01  0.10412288895E+02  0.17770000000E+01 0. -1.
</event>
<event>
 6    1  0.1059789E-002  0.1871449E+03  0.7546771E-02  0.1064816E+00
        -11   -1    0    0    0    0  0.00000000000E+00  0.00000000000E+00  0.18250000000E+03  0.18250000000E+03  0.00000000000E+00 0. -1.
         11   -1    0    0    0    0 -0.00000000000E+00 -0.00000000000E+00 -0.18250000000E+03  0.18250000000E+03  0.00000000000E+00 0. -1.
        -11    1    1    2    0    0  0.90906021792E+01  0.54132432546E+01  0.17754008420E+03  0.17785506388E+03  0.00000000000E+00 0. -1.
         11    1    1    2    0    0 -0.12174452189E+01 -0.28490457713E+01 -0.15745427665E+03  0.15748475631E+03  0.00000000000E+00 0. -1.
        -15    1    1    2    0    0  0.25317012318E+01  0.13095922585E+01 -0.17891637453E+02  0.18204201789E+02  0.17770000000E+01 0.  1.
         15    1    1    2    0    0 -0.10404858192E+02 -0.38737897418E+01 -0.21941700994E+01  0.11455978020E+02  0.17770000000E+01 0. -1.
</event>
<event>
 6    1  0.1059789E-002  0.1826637E+03  0.7546771E-02  0.1068325E+00
        -11   -1    0    0    0    0  0.00000000000E+00  0.00000000000E+00  0.18250000000E+03  0.18250000000E+03  0.00000000000E+00 0. -1.
         11   -1    0    0    0    0 -0.00000000000E+00 -0.00000000000E+00 -0.18250000000E+03  0.18250000000E+03  0.00000000000E+00 0.  1.
        -11    1    1    2    0    0 -0.43351915659E+01 -0.22971801823E+00  0.18228462261E+03  0.18233631096E+03  0.00000000000E+00 0. -1.
         11    1    1    2    0    0 -0.14001363469E+01 -0.11197769546E+00 -0.54313435065E+02  0.54331594394E+02  0.00000000000E+00 0.  1.
        -15    1    1    2    0    0  0.64608278299E+01 -0.87302056878E+00 -0.11155856450E+03  0.11176303281E+03  0.17770000000E+01 0.  1.
         15    1    1    2    0    0 -0.72549991715E+00  0.12147162825E+01 -0.16412623046E+02  0.16569061833E+02  0.17770000000E+01 0.  1.
</event>
<event>
 6    1  0.1059789E-002  0.1837188E+03  0.7546771E-02  0.1067489E+00
        -11   -1    0    0    0    0  0.00000000000E+00  0.00000000000E+00  0.18250000000E+03  0.18250000000E+03  0.00000000000E+00 0.  1.
         11   -1    0    0    0    0 -0.00000000000E+00 -0.00000000000E+00 -0.18250000000E+03  0.18250000000E+03  0.00000000000E+00 0. -1.
        -11    1    1    2    0    0 -0.22504066018E+01  0.35426335664E+01  0.18123264704E+03  0.18128123714E+03  0.00000000000E+00 0.  1.
         11    1    1    2    0    0 -0.16781851903E+00  0.23486486602E+01 -0.14159237970E+03  0.14161195678E+03  0.00000000000E+00 0. -1.
        -15    1    1    2    0    0 -0.12864743845E+01 -0.24450019290E+01 -0.15347499901E+01  0.36257740286E+01  0.17770000000E+01 0.  1.
         15    1    1    2    0    0  0.37046995053E+01 -0.34462802976E+01 -0.38105517351E+02  0.38481032053E+02  0.17770000000E+01 0. -1.
</event>
<event>
 6    1  0.1059789E-002  0.1933549E+03  0.7546771E-02  0.1060128E+00
        -11   -1    0    0    0    0  0.00000000000E+00  0.00000000000E+00  0.18250000000E+03  0.18250000000E+03  0.00000000000E+00 0. -1.
         11   -1    0    0    0    0 -0.00000000000E+00 -0.00000000000E+00 -0.18250000000E+03  0.18250000000E+03  0.00000000000E+00 0. -1.
        -11    1    1    2    0    0  0.37151119093E+01  0.18097951307E+01  0.17159538004E+03  0.17164513353E+03  0.00000000000E+00 0. -1.
         11    1    1    2    0    0 -0.10632236986E+01 -0.13665731373E+02 -0.14906069173E+03  0.14968958707E+03  0.00000000000E+00 0. -1.
        -15    1    1    2    0    0  0.24590326235E+01 -0.40248050236E+01 -0.26042045829E+02  0.26525304463E+02  0.17770000000E+01 0.  1.
         15    1    1    2    0    0 -0.51109208342E+01  0.15880741266E+02  0.35073575229E+01  0.17139974933E+02  0.17770000000E+01 0. -1.
</event>
<event>
 6    1  0.1059789E-002  0.1837766E+03  0.7546771E-02  0.1067443E+00
        -11   -1    0    0    0    0  0.00000000000E+00  0.00000000000E+00  0.18250000000E+03  0.18250000000E+03  0.00000000000E+00 0.  1.
         11   -1    0    0    0    0 -0.00000000000E+00 -0.00000000000E+00 -0.18250000000E+03  0.18250000000E+03  0.00000000000E+00 0.  1.
        -11    1    1    2    0    0 -0.27731154508E+01 -0.45190651071E+01  0.18114578643E+03  0.18122336510E+03  0.00000000000E+00 0.  1.
         11    1    1    2    0    0 -0.36842132751E+01  0.39314319501E+01 -0.16179787991E+03  0.16188756446E+03  0.00000000000E+00 0.  1.
        -15    1    1    2    0    0  0.70959021025E+01  0.16044042407E+00 -0.10287276885E+02  0.12623920250E+02  0.17770000000E+01 0.  1.
         15    1    1    2    0    0 -0.63857337662E+00  0.42719273296E+00 -0.90606296327E+01  0.92651501839E+01  0.17770000000E+01 0. -1.
</event>
<event>
 6    1  0.1059789E-002  0.1927536E+03  0.7546771E-02  0.1060574E+00
        -11   -1    0    0    0    0  0.00000000000E+00  0.00000000000E+00  0.18250000000E+03  0.18250000000E+03  0.00000000000E+00 0. -1.
         11   -1    0    0    0    0 -0.00000000000E+00 -0.00000000000E+00 -0.18250000000E+03  0.18250000000E+03  0.00000000000E+00 0. -1.
        -11    1    1    2    0    0 -0.35218262057E+01  0.60622558965E+00  0.17220936488E+03  0.17224644008E+03  0.00000000000E+00 0. -1.
         11    1    1    2    0    0 -0.56437342715E+01  0.17931426136E+01 -0.14637571088E+03  0.14649544646E+03  0.00000000000E+00 0. -1.
        -15    1    1    2    0    0  0.40190007329E+01 -0.94688888253E+00  0.94831283360E+01  0.10494589915E+02  0.17770000000E+01 0.  1.
         15    1    1    2    0    0  0.51465597443E+01 -0.14524793207E+01 -0.35316782330E+02  0.35763523547E+02  0.17770000000E+01 0. -1.
</event>
<event>
 6    1  0.1059789E-002  0.1825770E+03  0.7546771E-02  0.1068394E+00
        -11   -1    0    0    0    0  0.00000000000E+00  0.00000000000E+00  0.18250000000E+03  0.18250000000E+03  0.00000000000E+00 0. -1.
         11   -1    0    0    0    0 -0.00000000000E+00 -0.00000000000E+00 -0.18250000000E+03  0.18250000000E+03  0.00000000000E+00 0. -1.
        -11    1    1    2    0    0 -0.19465002982E-01 -0.26399325320E+01  0.18240387255E+03  0.18242297647E+03  0.00000000000E+00 0. -1.
         11    1    1    2    0    0 -0.13608268009E+01  0.64238534041E+00 -0.91010566956E+02  0.91023007016E+02  0.00000000000E+00 0. -1.
        -15    1    1    2    0    0  0.39502980224E+00  0.18115785391E+01 -0.73483235976E+02  0.73528100505E+02  0.17770000000E+01 0. -1.
         15    1    1    2    0    0  0.98526200167E+00  0.18596865250E+00 -0.17910069614E+02  0.18025916014E+02  0.17770000000E+01 0.  1.
</event>
<event>
 6    1  0.1059789E-002  0.1829783E+03  0.7546771E-02  0.1068075E+00
        -11   -1    0    0    0    0  0.00000000000E+00  0.00000000000E+00  0.18250000000E+03  0.18250000000E+03  0.00000000000E+00 0. -1.
         11   -1    0    0    0    0 -0.00000000000E+00 -0.00000000000E+00 -0.18250000000E+03  0.18250000000E+03  0.00000000000E+00 0. -1.
        -11    1    1    2    0    0  0.42882705394E+00 -0.31819932674E+00  0.31788610312E+02  0.31793094989E+02  0.00000000000E+00 0. -1.
         11    1    1    2    0    0  0.55021409412E+01 -0.63089477996E+00 -0.18193744928E+03  0.18202172132E+03  0.00000000000E+00 0. -1.
        -15    1    1    2    0    0 -0.43688749801E+01 -0.35869314176E+01  0.18264142288E+02  0.19201296001E+02  0.17770000000E+01 0.  1.
         15    1    1    2    0    0 -0.15620930151E+01  0.45360255243E+01  0.13188469668E+03  0.13198388769E+03  0.17770000000E+01 0. -1.
</event>
<event>
 6    1  0.1059789E-002  0.1844065E+03  0.7546771E-02  0.1066947E+00
        -11   -1    0    0    0    0  0.00000000000E+00  0.00000000000E+00  0.18250000000E+03  0.18250000000E+03  0.00000000000E+00 0. -1.
         11   -1    0    0    0    0 -0.00000000000E+00 -0.00000000000E+00 -0.18250000000E+03  0.18250000000E+03  0.00000000000E+00 0. -1.
        -11    1    1    2    0    0 -0.44309436658E+01  0.68211517716E+01  0.18041019635E+03  0.18059346700E+03  0.00000000000E+00 0. -1.
         11    1    1    2    0    0 -0.27740559217E+01 -0.10065165268E+01 -0.13473600262E+03  0.13476831551E+03  0.00000000000E+00 0. -1.
        -15    1    1    2    0    0  0.26368717571E+01  0.50281111391E+01 -0.70608205077E+01  0.92329794504E+01  0.17770000000E+01 0. -1.
         15    1    1    2    0    0  0.45681278304E+01 -0.10842746384E+02 -0.38613373224E+02  0.40405238049E+02  0.17770000000E+01 0.  1.
</event>
<event>
 6    1  0.1059789E-002  0.1838777E+03  0.7546771E-02  0.1067363E+00
        -11   -1    0    0    0    0  0.00000000000E+00  0.00000000000E+00  0.18250000000E+03  0.18250000000E+03  0.00000000000E+00 0.  1.
         11   -1    0    0    0    0 -0.00000000000E+00 -0.00000000000E+00 -0.18250000000E+03  0.18250000000E+03  0.00000000000E+00 0. -1.
        -11    1    1    2    0    0  0.55517101523E+01 -0.12244148341E+01  0.18103306002E+03  0.18112230536E+03  0.00000000000E+00 0.  1.
         11    1    1    2    0    0 -0.26925993823E+01 -0.80848372342E+01 -0.12199555758E+03  0.12229280744E+03  0.00000000000E+00 0. -1.
        -15    1    1    2    0    0  0.44660727173E+01  0.87238408613E+01 -0.32611037019E+02  0.34098220912E+02  0.17770000000E+01 0. -1.
         15    1    1    2    0    0 -0.73251834873E+01  0.58541120697E+00 -0.26426465428E+02  0.27486666284E+02  0.17770000000E+01 0. -1.
</event>
<event>
 6    1  0.1059789E-002  0.1835873E+03  0.7546771E-02  0.1067593E+00
        -11   -1    0    0    0    0  0.00000000000E+00  0.00000000000E+00  0.18250000000E+03  0.18250000000E+03  0.00000000000E+00 0. -1.
         11   -1    0    0    0    0 -0.00000000000E+00 -0.00000000000E+00 -0.18250000000E+03  0.18250000000E+03  0.00000000000E+00 0.  1.
        -11    1    1    2    0    0 -0.40759695269E+01 -0.25009675634E+01  0.13762481949E+03  0.13770787670E+03  0.00000000000E+00 0. -1.
         11    1    1    2    0    0  0.36240203506E+01  0.65172761463E+00 -0.18137537650E+03  0.18141274892E+03  0.00000000000E+00 0.  1.
        -15    1    1    2    0    0  0.32325675356E+01  0.40916933446E+01  0.69757446783E+01  0.88887676376E+01  0.17770000000E+01 0. -1.
         15    1    1    2    0    0 -0.27806183594E+01 -0.22424533958E+01  0.36774812330E+02  0.36990606734E+02  0.17770000000E+01 0.  1.
</event>
<event>
 6    1  0.1059789E-002  0.1869667E+03  0.7546771E-02  0.1064954E+00
        -11   -1    0    0    0    0  0.00000000000E+00  0.00000000000E+00  0.18250000000E+03  0.18250000000E+03  0.00000000000E+00 0. -1.
         11   -1    0    0    0    0 -0.00000000000E+00 -0.00000000000E+00 -0.18250000000E+03  0.18250000000E+03  0.00000000000E+00 0.  1.
        -11    1    1    2    0    0  0.40679419842E+00 -0.70405615441E+01  0.17164098739E+03  0.17178580716E+03  0.00000000000E+00 0. -1.
         11    1    1    2    0    0  0.48580494125E+01  0.34421326265E+01 -0.17793375684E+03  0.17803334167E+03  0.00000000000E+00 0.  1.
        -15    1    1    2    0    0 -0.13524793307E+01  0.27448916435E+01 -0.31714845718E+01  0.47518074312E+01  0.17770000000E+01 0.  1.
         15    1    1    2    0    0 -0.39123642803E+01  0.85353727416E+00  0.94642540271E+01  0.10429043745E+02  0.17770000000E+01 0. -1.
</event>
<event>
 6    1  0.1059789E-002  0.1826801E+03  0.7546771E-02  0.1068312E+00
        -11   -1    0    0    0    0  0.00000000000E+00  0.00000000000E+00  0.18250000000E+03  0.18250000000E+03  0.00000000000E+00 0. -1.
         11   -1    0    0    0    0 -0.00000000000E+00 -0.00000000000E+00 -0.18250000000E+03  0.18250000000E+03  0.00000000000E+00 0. -1.
        -11    1    1    2    0    0  0.55137070025E+00  0.25199167792E+01  0.18230166917E+03  0.18231991820E+03  0.00000000000E+00 0. -1.
         11    1    1    2    0    0  0.23005708274E+00  0.78319009323E+00 -0.41221250336E+02  0.41229331697E+02  0.00000000000E+00 0. -1.
        -15    1    1    2    0    0 -0.23607247960E+01 -0.29800111758E+01 -0.13174936043E+03  0.13181617955E+03  0.17770000000E+01 0. -1.
         15    1    1    2    0    0  0.15792970130E+01 -0.32309569656E+00 -0.93310584060E+01  0.96345705593E+01  0.17770000000E+01 0. -1.
</event>
<event>
 6    1  0.1059789E-002  0.1842386E+03  0.7546771E-02  0.1067079E+00
        -11   -1    0    0    0    0  0.00000000000E+00  0.00000000000E+00  0.18250000000E+03  0.18250000000E+03  0.00000000000E+00 0. -1.
         11   -1    0    0    0    0 -0.00000000000E+00 -0.00000000000E+00 -0.18250000000E+03  0.18250000000E+03  0.00000000000E+00 0.  1.
        -11    1    1    2    0    0 -0.19797800204E+01 -0.17326344853E+01  0.16769453269E+03  0.16771516880E+03  0.00000000000E+00 0. -1.
         11    1    1    2    0    0 -0.51574414509E+01 -0.29284084404E+01 -0.18066409074E+03  0.18076141309E+03  0.00000000000E+00 0.  1.
        -15    1    1    2    0    0  0.62061645860E+01  0.49626555814E+01  0.11086681476E+02  0.13755604837E+02  0.17770000000E+01 0. -1.
         15    1    1    2    0    0  0.93105688534E+00 -0.30161265567E+00  0.18828765740E+01  0.27678132724E+01  0.17770000000E+01 0.  1.
</event>
<event>
 6    1  0.1059789E-002  0.1832635E+03  0.7546771E-02  0.1067849E+00
        -11   -1    0    0    0    0  0.00000000000E+00  0.00000000000E+00  0.18250000000E+03  0.18250000000E+03  0.00000000000E+00 0. -1.
         11   -1    0    0    0    0 -0.00000000000E+00 -0.00000000000E+00 -0.18250000000E+03  0.18250000000E+03  0.00000000000E+00 0.  1.
        -11    1    1    2    0    0  0.18803115444E+01 -0.17803569439E+01  0.18171803432E+03  0.18173648297E+03  0.00000000000E+00 0. -1.
         11    1    1    2    0    0  0.19813948955E+01  0.33297592740E+01 -0.16377754607E+03  0.16382337385E+03  0.00000000000E+00 0.  1.
        -15    1    1    2    0    0 -0.14183339918E+01 -0.32606372577E+01 -0.10569807688E+02  0.11292563491E+02  0.17770000000E+01 0. -1.
         15    1    1    2    0    0 -0.24433724481E+01  0.17112349276E+01 -0.73706805668E+01  0.81475796968E+01  0.17770000000E+01 0. -1.
</event>
<event>
 6    1  0.1059789E-002  0.1840934E+03  0.7546771E-02  0.1067194E+00
        -11   -1    0    0    0    0  0.00000000000E+00  0.00000000000E+00  0.18250000000E+03  0.18250000000E+03  0.00000000000E+00 0.  1.
         11   -1    0    0    0    0 -0.00000000000E+00 -0.00000000000E+00 -0.18250000000E+03  0.18250000000E+03  0.00000000000E+00 0. -1.
        -11    1    1    2    0    0 -0.91764164297E+00 -0.49281714440E+01  0.18083714426E+03  0.18090661039E+03  0.00000000000E+00 0.  1.
         11    1    1    2    0    0  0.27679680853E+01  0.26825992384E+01 -0.16950975849E+03  0.16955357917E+03  0.00000000000E+00 0. -1.
        -15    1    1    2    0    0  0.13442392866E-01  0.36477438985E+01 -0.15689025896E+01  0.43503333875E+01  0.17770000000E+01 0.  1.
         15    1    1    2    0    0 -0.18637688352E+01 -0.14021716929E+01 -0.97584831751E+01  0.10189477053E+02  0.17770000000E+01 0.  1.
</event>
<event>
 6    1  0.1059789E-002  0.1869986E+03  0.7546771E-02  0.1064929E+00
        -11   -1    0    0    0    0  0.00000000000E+00  0.00000000000E+00  0.18250000000E+03  0.18250000000E+03  0.00000000000E+00 0.  1.
         11   -1    0    0    0    0 -0.00000000000E+00 -0.00000000000E+00 -0.18250000000E+03  0.18250000000E+03  0.00000000000E+00 0.  1.
        -11    1    1    2    0    0  0.35915855306E+01 -0.51851641736E+01  0.15147083558E+03  0.15160210898E+03  0.00000000000E+00 0.  1.
         11    1    1    2    0    0 -0.93550390660E+01 -0.15919596985E+01 -0.17774822960E+03  0.17800136015E+03  0.00000000000E+00 0.  1.
        -15    1    1    2    0    0  0.73067256366E+01  0.70901666636E+01  0.29577408403E+02  0.31331127009E+02  0.17770000000E+01 0.  1.
         15    1    1    2    0    0 -0.15432721012E+01 -0.31304279143E+00 -0.33000143909E+01  0.40654038604E+01  0.17770000000E+01 0. -1.
</event>
<event>
 6    1  0.1059789E-002  0.1828266E+03  0.7546771E-02  0.1068195E+00
        -11   -1    0    0    0    0  0.00000000000E+00  0.00000000000E+00  0.18250000000E+03  0.18250000000E+03  0.00000000000E+00 0.  1.
         11   -1    0    0    0    0 -0.00000000000E+00 -0.00000000000E+00 -0.18250000000E+03  0.18250000000E+03  0.00000000000E+00 0.  1.
        -11    1    1    2    0    0 -0.16982488441E+01  0.28105077873E+01  0.10096021370E+03  0.10101360182E+03  0.00000000000E+00 0.  1.
         11    1    1    2    0    0  0.18014183127E+01  0.33386572798E+01 -0.18213384742E+03  0.18217335183E+03  0.00000000000E+00 0.  1.
        -15    1    1    2    0    0 -0.63582079354E+00 -0.41593854253E+01  0.74001273807E+02  0.74142100114E+02  0.17770000000E+01 0.  1.
         15    1    1    2    0    0  0.53265132502E+00 -0.19897796419E+01  0.71723599155E+01  0.76709462399E+01  0.17770000000E+01 0. -1.
</event>
<event>
 6    1  0.1059789E-002  0.1881150E+03  0.7546771E-02  0.1064071E+00
        -11   -1    0    0    0    0  0.00000000000E+00  0.00000000000E+00  0.18250000000E+03  0.18250000000E+03  0.00000000000E+00 0. -1.
         11   -1    0    0    0    0 -0.00000000000E+00 -0.00000000000E+00 -0.18250000000E+03  0.18250000000E+03  0.00000000000E+00 0. -1.
        -11    1    1    2    0    0 -0.57500466024E-01 -0.26510891054E+01  0.17686512536E+03  0.17688500261E+03  0.00000000000E+00 0. -1.
         11    1    1    2    0    0  0.24655061920E+01 -0.20516407453E+01 -0.16402317230E+03  0.16405453057E+03  0.00000000000E+00 0. -1.
        -15    1    1    2    0    0 -0.21856412531E+01  0.98472644186E+00  0.49589044584E+01  0.57875017305E+01  0.17770000000E+01 0. -1.
         15    1    1    2    0    0 -0.22236447286E+00  0.37180034088E+01 -0.17800857527E+02  0.18272965085E+02  0.17770000000E+01 0.  1.
</event>
<event>
 6    1  0.1059789E-002  0.1838244E+03  0.7546771E-02  0.1067405E+00
        -11   -1    0    0    0    0  0.00000000000E+00  0.00000000000E+00  0.18250000000E+03  0.18250000000E+03  0.00000000000E+00 0. -1.
         11   -1    0    0    0    0 -0.00000000000E+00 -0.00000000000E+00 -0.18250000000E+03  0.18250000000E+03  0.00000000000E+00 0. -1.
        -11    1    1    2    0    0 -0.30200981227E+01 -0.50495876254E+00  0.18114975950E+03  0.18117563672E+03  0.00000000000E+00 0. -1.
         11    1    1    2    0    0  0.24765167889E+01  0.87587865683E+00 -0.16909611293E+03  0.16911651518E+03  0.00000000000E+00 0. -1.
        -15    1    1    2    0    0  0.25758703908E+01 -0.21451993918E+01 -0.23083825596E+01  0.44410975831E+01  0.17770000000E+01 0. -1.
         15    1    1    2    0    0 -0.20322890571E+01  0.17742794976E+01 -0.97452640029E+01  0.10266750510E+02  0.17770000000E+01 0.  1.
</event>
<event>
 6    1  0.1059789E-002  0.1829007E+03  0.7546771E-02  0.1068136E+00
        -11   -1    0    0    0    0  0.00000000000E+00  0.00000000000E+00  0.18250000000E+03  0.18250000000E+03  0.00000000000E+00 0. -1.
         11   -1    0    0    0    0 -0.00000000000E+00 -0.00000000000E+00 -0.18250000000E+03  0.18250000000E+03  0.00000000000E+00 0. -1.
        -11    1    1    2    0    0  0.25001943487E+01 -0.23464174084E+00  0.13371564715E+03  0.13373922507E+03  0.00000000000E+00 0. -1.
         11    1    1    2    0    0 -0.23542188182E+01  0.90088493444E+00 -0.18208182361E+03  0.18209927081E+03  0.00000000000E+00 0. -1.
        -15    1    1    2    0    0 -0.20651568032E+01  0.12064786386E+01  0.41186197069E+02  0.41293837571E+02  0.17770000000E+01 0. -1.
         15    1    1    2    0    0  0.19191812726E+01 -0.18727218322E+01  0.71799793953E+01  0.78676665495E+01  0.17770000000E+01 0.  1.
</event>
<event>
 6    1  0.1059789E-002  0.1841730E+03  0.7546771E-02  0.1067131E+00
        -11   -1    0    0    0    0  0.00000000000E+00  0.00000000000E+00  0.18250000000E+03  0.18250000000E+03  0.00000000000E+00 0. -1.
         11   -1    0    0    0    0 -0.00000000000E+00 -0.00000000000E+00 -0.18250000000E+03  0.18250000000E+03  0.00000000000E+00 0.  1.
        -11    1    1    2    0    0 -0.35626571383E+01 -0.83856169107E+00  0.13429453431E+03  0.13434439942E+03  0.00000000000E+00 0. -1.
         11    1    1    2    0    0 -0.44438932194E+01 -0.38552551987E+01 -0.18073132076E+03  0.18082704854E+03  0.00000000000E+00 0.  1.
        -15    1    1    2    0    0  0.67711373509E+01  0.42443980436E+01  0.46867014053E+02  0.47576653423E+02  0.17770000000E+01 0.  1.
         15    1    1    2    0    0  0.12354130068E+01  0.44941884613E+00 -0.43022760101E+00  0.22518986179E+01  0.17770000000E+01 0. -1.
</event>
<event>
 6    1  0.1059789E-002  0.1842277E+03  0.7546771E-02  0.1067088E+00
        -11   -1    0    0    0    0  0.00000000000E+00  0.00000000000E+00  0.18250000000E+03  0.18250000000E+03  0.00000000000E+00 0.  1.
         11   -1    0    0    0    0 -0.00000000000E+00 -0.00000000000E+00 -0.18250000000E+03  0.18250000000E+03  0.00000000000E+00 0. -1.
        -11    1    1    2    0    0  0.23630926936E+01  0.11455108432E+01  0.15436526008E+03  0.15438759640E+03  0.00000000000E+00 0.  1.
         11    1    1    2    0    0  0.83270993312E+01 -0.26319499260E+01 -0.18056121284E+03  0.18077228584E+03  0.00000000000E+00 0. -1.
        -15    1    1    2    0    0 -0.10344818657E+02  0.33476563538E+01  0.16786337449E+02  0.20078867748E+02  0.17770000000E+01 0. -1.
         15    1    1    2    0    0 -0.34537336822E+00 -0.18612172710E+01  0.94096153146E+01  0.97612500153E+01  0.17770000000E+01 0.  1.
</event>
<event>
 6    1  0.1059789E-002  0.1856538E+03  0.7546771E-02  0.1065972E+00
        -11   -1    0    0    0    0  0.00000000000E+00  0.00000000000E+00  0.18250000000E+03  0.18250000000E+03  0.00000000000E+00 0.  1.
         11   -1    0    0    0    0 -0.00000000000E+00 -0.00000000000E+00 -0.18250000000E+03  0.18250000000E+03  0.00000000000E+00 0. -1.
        -11    1    1    2    0    0 -0.51918595176E+01  0.34036290777E+00  0.17927067539E+03  0.17934616334E+03  0.00000000000E+00 0.  1.
         11    1    1    2    0    0  0.19281397733E+01  0.62266359985E+01 -0.14871073718E+03  0.14885352556E+03  0.00000000000E+00 0. -1.
        -15    1    1    2    0    0  0.46544456050E+01 -0.43633981181E+01 -0.32452960651E+02  0.33121828014E+02  0.17770000000E+01 0. -1.
         15    1    1    2    0    0 -0.13907258607E+01 -0.22036007882E+01  0.18930224410E+01  0.36784830862E+01  0.17770000000E+01 0.  1.
</event>
<event>
 6    1  0.1059789E-002  0.1885697E+03  0.7546771E-02  0.1063723E+00
        -11   -1    0    0    0    0  0.00000000000E+00  0.00000000000E+00  0.18250000000E+03  0.18250000000E+03  0.00000000000E+00 0.  1.
         11   -1    0    0    0    0 -0.00000000000E+00 -0.00000000000E+00 -0.18250000000E+03  0.18250000000E+03  0.00000000000E+00 0. -1.
        -11    1    1    2    0    0 -0.83134221897E+01  0.25295530464E+01  0.13871983570E+03  0.13899174235E+03  0.00000000000E+00 0.  1.
         11    1    1    2    0    0 -0.48473312085E-01  0.32931523998E+01 -0.17639959730E+03  0.17643034073E+03  0.00000000000E+00 0. -1.
        -15    1    1    2    0    0  0.40211047180E+01 -0.55976476375E+00  0.41379630825E+02  0.41616273210E+02  0.17770000000E+01 0.  1.
         15    1    1    2    0    0  0.43407907838E+01 -0.52629406825E+01 -0.36998692237E+01  0.79616437077E+01  0.17770000000E+01 0. -1.
</event>
<event>
 6    1  0.1059789E-002  0.1885822E+03  0.7546771E-02  0.1063714E+00
        -11   -1    0    0    0    0  0.00000000000E+00  0.00000000000E+00  0.18250000000E+03  0.18250000000E+03  0.00000000000E+00 0. -1.
         11   -1    0    0    0    0 -0.00000000000E+00 -0.00000000000E+00 -0.18250000000E+03  0.18250000000E+03  0.00000000000E+00 0.  1.
        -11    1    1    2    0    0 -0.57472943191E+01  0.55741595519E+00  0.17632326100E+03  0.17641778389E+03  0.00000000000E+00 0. -1.
         11    1    1    2    0    0  0.64222564637E+01 -0.56353912492E+01 -0.16408420524E+03  0.16430651059E+03  0.00000000000E+00 0.  1.
        -15    1    1    2    0    0 -0.89983662554E+01  0.88151283963E+00 -0.11530453657E+02  0.14759971229E+02  0.17770000000E+01 0.  1.
         15    1    1    2    0    0  0.83234041108E+01  0.41964624543E+01 -0.70860209476E+00  0.95157342886E+01  0.17770000000E+01 0. -1.
</event>
<event>
 6    1  0.1059789E-002  0.1764233E+03  0.7546771E-02  0.1073397E+00
        -11   -1    0    0    0    0  0.00000000000E+00  0.00000000000E+00  0.18250000000E+03  0.18250000000E+03  0.00000000000E+00 0.  1.
         11   -1    0    0    0    0 -0.00000000000E+00 -0.00000000000E+00 -0.18250000000E+03  0.18250000000E+03  0.00000000000E+00 0. -1.
        -11    1    1    2    0    0 -0.26145788895E+01 -0.26616094534E+01  0.17657180877E+03  0.17661122230E+03  0.00000000000E+00 0.  1.
         11    1    1    2    0    0  0.30255359301E+01  0.33431463919E+01 -0.17617889790E+03  0.17623658690E+03  0.00000000000E+00 0. -1.
        -15    1    1    2    0    0 -0.13041628594E+01 -0.37829846899E+01 -0.47407416905E+01  0.64532297885E+01  0.17770000000E+01 0. -1.
         15    1    1    2    0    0  0.89320581889E+00  0.31014477514E+01  0.43478308216E+01  0.56989610144E+01  0.17770000000E+01 0.  1.
</event>
<event>
 6    1  0.1059789E-002  0.1838586E+03  0.7546771E-02  0.1067378E+00
        -11   -1    0    0    0    0  0.00000000000E+00  0.00000000000E+00  0.18250000000E+03  0.18250000000E+03  0.00000000000E+00 0. -1.
         11   -1    0    0    0    0 -0.00000000000E+00 -0.00000000000E+00 -0.18250000000E+03  0.18250000000E+03  0.00000000000E+00 0.  1.
        -11    1    1    2    0    0 -0.36779160337E+01 -0.28657864834E+01  0.16639195644E+03  0.16645727069E+03  0.00000000000E+00 0. -1.
         11    1    1    2    0    0  0.63240984327E+01  0.12506572358E+01 -0.18102661587E+03  0.18114136474E+03  0.00000000000E+00 0.  1.
        -15    1    1    2    0    0  0.17247986911E+01  0.25454190890E+01  0.10413478222E+02  0.11002379131E+02  0.17770000000E+01 0.  1.
         15    1    1    2    0    0 -0.43709810901E+01 -0.93028984140E+00  0.42211812125E+01  0.63989854437E+01  0.17770000000E+01 0. -1.
</event>
<event>
 6    1  0.1059789E-002  0.2018428E+03  0.7546771E-02  0.1054022E+00
        -11   -1    0    0    0    0  0.00000000000E+00  0.00000000000E+00  0.18250000000E+03  0.18250000000E+03  0.00000000000E+00 0.  1.
         11   -1    0    0    0    0 -0.00000000000E+00 -0.00000000000E+00 -0.18250000000E+03  0.18250000000E+03  0.00000000000E+00 0. -1.
        -11    1    1    2    0    0 -0.51604054112E+01  0.16834108482E+02  0.14541801519E+03  0.14648008784E+03  0.00000000000E+00 0.  1.
         11    1    1    2    0    0  0.10973898183E+02 -0.12639553512E+02 -0.16229631592E+03  0.16315722146E+03  0.00000000000E+00 0. -1.
        -15    1    1    2    0    0 -0.56117655358E+01  0.11636691711E+02 -0.14908198042E+02  0.19806983725E+02  0.17770000000E+01 0.  1.
         15    1    1    2    0    0 -0.20172723553E+00 -0.15831246681E+02  0.31786498767E+02  0.35555706971E+02  0.17770000000E+01 0. -1.
</event>
<event>
 6    1  0.1059789E-002  0.1914936E+03  0.7546771E-02  0.1061513E+00
        -11   -1    0    0    0    0  0.00000000000E+00  0.00000000000E+00  0.18250000000E+03  0.18250000000E+03  0.00000000000E+00 0. -1.
         11   -1    0    0    0    0 -0.00000000000E+00 -0.00000000000E+00 -0.18250000000E+03  0.18250000000E+03  0.00000000000E+00 0. -1.
        -11    1    1    2    0    0 -0.36228311724E+00  0.51027457802E+01  0.17343097301E+03  0.17350640236E+03  0.00000000000E+00 0. -1.
         11    1    1    2    0    0 -0.34036366123E+01 -0.13047718314E+01 -0.14117639276E+03  0.14122344368E+03  0.00000000000E+00 0. -1.
        -15    1    1    2    0    0 -0.33670977719E+00  0.25394358670E+01 -0.39520073633E+02  0.39642856317E+02  0.17770000000E+01 0.  1.
         15    1    1    2    0    0  0.41026295067E+01 -0.63374098157E+01  0.72654933857E+01  0.10627297642E+02  0.17770000000E+01 0. -1.
</event>
<event>
 6    1  0.1059789E-002  0.1864748E+03  0.7546771E-02  0.1065334E+00
        -11   -1    0    0    0    0  0.00000000000E+00  0.00000000000E+00  0.18250000000E+03  0.18250000000E+03  0.00000000000E+00 0.  1.
         11   -1    0    0    0    0 -0.00000000000E+00 -0.00000000000E+00 -0.18250000000E+03  0.18250000000E+03  0.00000000000E+00 0. -1.
        -11    1    1    2    0    0 -0.60594049955E+01  0.25843691059E+01  0.17840362462E+03  0.17852520447E+03  0.00000000000E+00 0.  1.
         11    1    1    2    0    0 -0.71254702945E+01  0.19456000332E+01 -0.11768554678E+03  0.11791711329E+03  0.00000000000E+00 0. -1.
        -15    1    1    2    0    0  0.51315710906E+01 -0.55477406029E+01 -0.51119454833E+00  0.77800704702E+01  0.17770000000E+01 0.  1.
         15    1    1    2    0    0  0.80533041994E+01  0.10177714638E+01 -0.60206883293E+02  0.60777611767E+02  0.17770000000E+01 0. -1.
</event>
<event>
 6    1  0.1059789E-002  0.1724588E+03  0.7546771E-02  0.1076741E+00
        -11   -1    0    0    0    0  0.00000000000E+00  0.00000000000E+00  0.18250000000E+03  0.18250000000E+03  0.00000000000E+00 0. -1.
         11   -1    0    0    0    0 -0.00000000000E+00 -0.00000000000E+00 -0.18250000000E+03  0.18250000000E+03  0.00000000000E+00 0.  1.
        -11    1    1    2    0    0 -0.94989299358E+01  0.84799529727E+01  0.17215146327E+03  0.17262174133E+03  0.00000000000E+00 0. -1.
         11    1    1    2    0    0  0.14273440496E+01  0.39088985245E+01 -0.17256281757E+03  0.17261298562E+03  0.00000000000E+00 0.  1.
        -15    1    1    2    0    0  0.34363172980E+01 -0.72962383218E+01 -0.59858518664E+01  0.10199584393E+02  0.17770000000E+01 0. -1.
         15    1    1    2    0    0  0.46352685882E+01 -0.50926131754E+01  0.63972061629E+01  0.95656886595E+01  0.17770000000E+01 0.  1.
</event>
<event>
 6    1  0.1059789E-002  0.1828615E+03  0.7546771E-02  0.1068167E+00
        -11   -1    0    0    0    0  0.00000000000E+00  0.00000000000E+00  0.18250000000E+03  0.18250000000E+03  0.00000000000E+00 0. -1.
         11   -1    0    0    0    0 -0.00000000000E+00 -0.00000000000E+00 -0.18250000000E+03  0.18250000000E+03  0.00000000000E+00 0.  1.
        -11    1    1    2    0    0  0.39267676977E+01  0.25869047498E+01  0.13617972514E+03  0.13626088625E+03  0.00000000000E+00 0. -1.
         11    1    1    2    0    0 -0.36652665057E+00 -0.41070787218E+01 -0.18209184505E+03  0.18213852550E+03  0.00000000000E+00 0.  1.
        -15    1    1    2    0    0 -0.18257524420E+01  0.19907213682E+00  0.39690677549E+02  0.39772862796E+02  0.17770000000E+01 0.  1.
         15    1    1    2    0    0 -0.17344886052E+01  0.13211018352E+01  0.62214423623E+01  0.68277254520E+01  0.17770000000E+01 0. -1.
</event>
<event>
 6    1  0.1059789E-002  0.1888864E+03  0.7546771E-02  0.1063482E+00
        -11   -1    0    0    0    0  0.00000000000E+00  0.00000000000E+00  0.18250000000E+03  0.18250000000E+03  0.00000000000E+00 0. -1.
         11   -1    0    0    0    0 -0.00000000000E+00 -0.00000000000E+00 -0.18250000000E+03  0.18250000000E+03  0.00000000000E+00 0. -1.
        -11    1    1    2    0    0  0.28850800274E+01 -0.28808618268E+01  0.16683606117E+03  0.16688587225E+03  0.00000000000E+00 0. -1.
         11    1    1    2    0    0 -0.27345132913E+01 -0.10587028904E+01 -0.17608922907E+03  0.17611364232E+03  0.00000000000E+00 0. -1.
        -15    1    1    2    0    0  0.69430113008E+01  0.41453931987E+01 -0.20565561931E+01  0.85309344782E+01  0.17770000000E+01 0.  1.
         15    1    1    2    0    0 -0.70935780369E+01 -0.20582848145E+00  0.11309724099E+02  0.13469550955E+02  0.17770000000E+01 0. -1.
</event>
<event>
 6    1  0.1059789E-002  0.1831598E+03  0.7546771E-02  0.1067931E+00
        -11   -1    0    0    0    0  0.00000000000E+00  0.00000000000E+00  0.18250000000E+03  0.18250000000E+03  0.00000000000E+00 0.  1.
         11   -1    0    0    0    0 -0.00000000000E+00 -0.00000000000E+00 -0.18250000000E+03  0.18250000000E+03  0.00000000000E+00 0.  1.
        -11    1    1    2    0    0  0.70704894314E+00 -0.31354707985E+00  0.15397650485E+02  0.15417064261E+02  0.00000000000E+00 0.  1.
         11    1    1    2    0    0  0.42290374479E+00  0.29099767310E+01 -0.18181642905E+03  0.18184020646E+03  0.00000000000E+00 0.  1.
        -15    1    1    2    0    0 -0.16039589361E+01 -0.63571700517E+01  0.17605080366E+02  0.18870158427E+02  0.17770000000E+01 0. -1.
         15    1    1    2    0    0  0.47400624815E+00  0.37607404006E+01  0.14881369820E+03  0.14887257085E+03  0.17770000000E+01 0.  1.
</event>
<event>
 6    1  0.1059789E-002  0.1826947E+03  0.7546771E-02  0.1068300E+00
        -11   -1    0    0    0    0  0.00000000000E+00  0.00000000000E+00  0.18250000000E+03  0.18250000000E+03  0.00000000000E+00 0.  1.
         11   -1    0    0    0    0 -0.00000000000E+00 -0.00000000000E+00 -0.18250000000E+03  0.18250000000E+03  0.00000000000E+00 0.  1.
        -11    1    1    2    0    0 -0.17752788211E+01  0.27959570124E+00  0.10115841236E+03  0.10117437511E+03  0.00000000000E+00 0.  1.
         11    1    1    2    0    0  0.69364849880E-01 -0.33515648406E+01 -0.18227451003E+03  0.18230533400E+03  0.00000000000E+00 0.  1.
        -15    1    1    2    0    0  0.37914925689E+01  0.15748045219E+01  0.60944950983E+02  0.61108920826E+02  0.17770000000E+01 0.  1.
         15    1    1    2    0    0 -0.20855785977E+01  0.14971646175E+01  0.20171146689E+02  0.20411370060E+02  0.17770000000E+01 0. -1.
</event>
<event>
 6    1  0.1059789E-002  0.1829155E+03  0.7546771E-02  0.1068125E+00
        -11   -1    0    0    0    0  0.00000000000E+00  0.00000000000E+00  0.18250000000E+03  0.18250000000E+03  0.00000000000E+00 0. -1.
         11   -1    0    0    0    0 -0.00000000000E+00 -0.00000000000E+00 -0.18250000000E+03  0.18250000000E+03  0.00000000000E+00 0. -1.
        -11    1    1    2    0    0 -0.33862344696E+01 -0.30684990987E+00  0.18205277817E+03  0.18208452647E+03  0.00000000000E+00 0. -1.
         11    1    1    2    0    0 -0.19909248495E+01  0.10015129082E+01 -0.91583319815E+01  0.94255957130E+01  0.00000000000E+00 0. -1.
        -15    1    1    2    0    0  0.62466751605E+01 -0.50963281979E+01 -0.14001608605E+03  0.14025924424E+03  0.17770000000E+01 0.  1.
         15    1    1    2    0    0 -0.86951584144E+00  0.44016651996E+01 -0.32878360130E+02  0.33230633581E+02  0.17770000000E+01 0. -1.
</event>
<event>
 6    1  0.1059789E-002  0.9639266E+02  0.7546771E-02  0.1170207E+00
        -11   -1    0    0    0    0  0.00000000000E+00  0.00000000000E+00  0.18250000000E+03  0.18250000000E+03  0.00000000000E+00 0. -1.
         11   -1    0    0    0    0 -0.00000000000E+00 -0.00000000000E+00 -0.18250000000E+03  0.18250000000E+03  0.00000000000E+00 0.  1.
        -11    1    1    2    0    0  0.12563648486E+01  0.10704030966E+01  0.10419146047E+03  0.10420453277E+03  0.00000000000E+00 0. -1.
         11    1    1    2    0    0 -0.28424080663E+01 -0.30338609441E+01 -0.12473147070E+03  0.12480073468E+03  0.00000000000E+00 0.  1.
        -15    1    1    2    0    0 -0.26379394998E+02  0.34676572361E+01  0.72331023988E+02  0.77089765127E+02  0.17770000000E+01 0. -1.
         15    1    1    2    0    0  0.27965438215E+02 -0.15041993886E+01 -0.51791013764E+02  0.58904967414E+02  0.17770000000E+01 0.  1.
</event>
<event>
 6    1  0.1059789E-002  0.1863557E+03  0.7546771E-02  0.1065426E+00
        -11   -1    0    0    0    0  0.00000000000E+00  0.00000000000E+00  0.18250000000E+03  0.18250000000E+03  0.00000000000E+00 0. -1.
         11   -1    0    0    0    0 -0.00000000000E+00 -0.00000000000E+00 -0.18250000000E+03  0.18250000000E+03  0.00000000000E+00 0.  1.
        -11    1    1    2    0    0  0.59642424738E-01 -0.34817472649E+01  0.15678788153E+03  0.15682654723E+03  0.00000000000E+00 0. -1.
         11    1    1    2    0    0  0.26353542922E+01  0.11250100334E+02 -0.17827024770E+03  0.17864431439E+03  0.00000000000E+00 0.  1.
        -15    1    1    2    0    0 -0.71004571557E+01 -0.10174598298E+02  0.75939173955E+01  0.14654837179E+02  0.17770000000E+01 0. -1.
         15    1    1    2    0    0  0.44054604388E+01  0.24062452284E+01  0.13888448772E+02  0.14874301196E+02  0.17770000000E+01 0.  1.
</event>
<event>
 6    1  0.1059789E-002  0.1875538E+03  0.7546771E-02  0.1064502E+00
        -11   -1    0    0    0    0  0.00000000000E+00  0.00000000000E+00  0.18250000000E+03  0.18250000000E+03  0.00000000000E+00 0. -1.
         11   -1    0    0    0    0 -0.00000000000E+00 -0.00000000000E+00 -0.18250000000E+03  0.18250000000E+03  0.00000000000E+00 0.  1.
        -11    1    1    2    0    0 -0.23287380411E+01 -0.22296516484E+01  0.17741686352E+03  0.17744615473E+03  0.00000000000E+00 0. -1.
         11    1    1    2    0    0 -0.27092148465E+01  0.18353626716E+01 -0.16850296176E+03  0.16853473388E+03  0.00000000000E+00 0.  1.
        -15    1    1    2    0    0  0.65547635901E+01  0.25365968496E+01  0.21084602175E+01  0.75500054827E+01  0.17770000000E+01 0. -1.
         15    1    1    2    0    0 -0.15168107025E+01 -0.21423078728E+01 -0.11022361975E+02  0.11469105904E+02  0.17770000000E+01 0. -1.
</event>
<event>
 6    1  0.2404301E-002  0.2055876E+03  0.7546771E-02  0.1051431E+00
        -11   -1    0    0    0    0  0.00000000000E+00  0.00000000000E+00  0.18250000000E+03  0.18250000000E+03  0.00000000000E+00 0.  1.
         11   -1    0    0    0    0 -0.00000000000E+00 -0.00000000000E+00 -0.18250000000E+03  0.18250000000E+03  0.00000000000E+00 0.  1.
        -11    1    1    2    0    0  0.41870537519E+01 -0.31205207645E+01  0.14448715772E+03  0.14458149195E+03  0.00000000000E+00 0.  1.
         11    1    1    2    0    0  0.12115811020E+01  0.15622451079E+02 -0.15864037546E+03  0.15941235094E+03  0.00000000000E+00 0.  1.
        -15    1    1    2    0    0 -0.21786889318E+00 -0.10574439980E+01  0.35829465270E+02  0.35889747355E+02  0.17770000000E+01 0. -1.
         15    1    1    2    0    0 -0.51807659607E+01 -0.11444486317E+02 -0.21676247533E+02  0.25116409757E+02  0.17770000000E+01 0.  1.
</event>
<event>
 6    1  0.1059789E-002  0.1861791E+03  0.7546771E-02  0.1065563E+00
        -11   -1    0    0    0    0  0.00000000000E+00  0.00000000000E+00  0.18250000000E+03  0.18250000000E+03  0.00000000000E+00 0.  1.
         11   -1    0    0    0    0 -0.00000000000E+00 -0.00000000000E+00 -0.18250000000E+03  0.18250000000E+03  0.00000000000E+00 0. -1.
        -11    1    1    2    0    0 -0.44927245962E+01  0.16077304818E+02  0.17804004259E+03  0.17882091899E+03  0.00000000000E+00 0.  1.
         11    1    1    2    0    0 -0.39448493237E+01  0.20237344898E-01 -0.14273667126E+03  0.14279117468E+03  0.00000000000E+00 0. -1.
        -15    1    1    2    0    0  0.60009443617E+01 -0.20528229434E+01 -0.24620066089E+02  0.25485894108E+02  0.17770000000E+01 0.  1.
         15    1    1    2    0    0  0.24366295582E+01 -0.14044719220E+02 -0.10683305242E+02  0.17902012218E+02  0.17770000000E+01 0. -1.
</event>
<event>
 6    1  0.1059789E-002  0.1846212E+03  0.7546771E-02  0.1066779E+00
        -11   -1    0    0    0    0  0.00000000000E+00  0.00000000000E+00  0.18250000000E+03  0.18250000000E+03  0.00000000000E+00 0. -1.
         11   -1    0    0    0    0 -0.00000000000E+00 -0.00000000000E+00 -0.18250000000E+03  0.18250000000E+03  0.00000000000E+00 0.  1.
        -11    1    1    2    0    0 -0.78823177782E+01  0.12972169155E+01  0.13596499683E+03  0.13619946427E+03  0.00000000000E+00 0. -1.
         11    1    1    2    0    0  0.14869923487E+01 -0.33680074005E+01 -0.18034122448E+03  0.18037880104E+03  0.00000000000E+00 0.  1.
        -15    1    1    2    0    0 -0.52756956670E+01 -0.36160050788E+00  0.24900648745E+02  0.25517910507E+02  0.17770000000E+01 0.  1.
         15    1    1    2    0    0  0.11671021096E+02  0.24323909928E+01  0.19475578901E+02  0.22903824177E+02  0.17770000000E+01 0. -1.
</event>
<event>
 6    1  0.1059789E-002  0.1833917E+03  0.7546771E-02  0.1067747E+00
        -11   -1    0    0    0    0  0.00000000000E+00  0.00000000000E+00  0.18250000000E+03  0.18250000000E+03  0.00000000000E+00 0. -1.
         11   -1    0    0    0    0 -0.00000000000E+00 -0.00000000000E+00 -0.18250000000E+03  0.18250000000E+03  0.00000000000E+00 0. -1.
        -11    1    1    2    0    0  0.45126059274E+01 -0.22340831390E+01  0.18153843605E+03  0.18160825561E+03  0.00000000000E+00 0. -1.
         11    1    1    2    0    0 -0.20201147341E+01  0.42111866609E+00 -0.11541597323E+03  0.11543441896E+03  0.00000000000E+00 0. -1.
        -15    1    1    2    0    0 -0.22981700384E+01 -0.67613384790E+00 -0.16433816457E+01  0.34054624853E+01  0.17770000000E+01 0. -1.
         15    1    1    2    0    0 -0.19432115493E+00  0.24890983208E+01 -0.64479081176E+02  0.64551862944E+02  0.17770000000E+01 0.  1.
</event>
<event>
 6    1  0.1059789E-002  0.1851412E+03  0.7546771E-02  0.1066372E+00
        -11   -1    0    0    0    0  0.00000000000E+00  0.00000000000E+00  0.18250000000E+03  0.18250000000E+03  0.00000000000E+00 0.  1.
         11   -1    0    0    0    0 -0.00000000000E+00 -0.00000000000E+00 -0.18250000000E+03  0.18250000000E+03  0.00000000000E+00 0.  1.
        -11    1    1    2    0    0 -0.10057916096E+02 -0.52604733473E+01  0.17950029819E+03  0.17985880937E+03  0.00000000000E+00 0.  1.
         11    1    1    2    0    0  0.94431005832E+01  0.84227426623E+00 -0.98449952102E+02  0.98905382277E+02  0.00000000000E+00 0.  1.
        -15    1    1    2    0    0  0.15788172645E+01  0.63239312617E+01 -0.18743900238E+01  0.70111224151E+01  0.17770000000E+01 0.  1.
         15    1    1    2    0    0 -0.96400175132E+00 -0.19057321806E+01 -0.79175956066E+02  0.79224685941E+02  0.17770000000E+01 0. -1.
</event>
<event>
 6    1  0.1059789E-002  0.1833949E+03  0.7546771E-02  0.1067745E+00
        -11   -1    0    0    0    0  0.00000000000E+00  0.00000000000E+00  0.18250000000E+03  0.18250000000E+03  0.00000000000E+00 0.  1.
         11   -1    0    0    0    0 -0.00000000000E+00 -0.00000000000E+00 -0.18250000000E+03  0.18250000000E+03  0.00000000000E+00 0. -1.
        -11    1    1    2    0    0 -0.22736217833E+01 -0.21128527874E+01  0.13814809583E+03  0.13818295801E+03  0.00000000000E+00 0.  1.
         11    1    1    2    0    0 -0.22314920338E+01  0.13926491084E+01 -0.18158608884E+03  0.18160513949E+03  0.00000000000E+00 0. -1.
        -15    1    1    2    0    0  0.20968371240E+01 -0.12438347310E+01  0.20000942371E+01  0.36196625147E+01  0.17770000000E+01 0.  1.
         15    1    1    2    0    0  0.24082766931E+01  0.19640384100E+01  0.41437898768E+02  0.41592239984E+02  0.17770000000E+01 0.  1.
</event>
<event>
 6    1  0.1059789E-002  0.1827763E+03  0.7546771E-02  0.1068235E+00
        -11   -1    0    0    0    0  0.00000000000E+00  0.00000000000E+00  0.18250000000E+03  0.18250000000E+03  0.00000000000E+00 0. -1.
         11   -1    0    0    0    0 -0.00000000000E+00 -0.00000000000E+00 -0.18250000000E+03  0.18250000000E+03  0.00000000000E+00 0. -1.
        -11    1    1    2    0    0  0.31477044536E+01 -0.84170844271E+00  0.18219455755E+03  0.18222369033E+03  0.00000000000E+00 0. -1.
         11    1    1    2    0    0 -0.23806396598E+01  0.21852248897E+01 -0.14133142911E+03  0.14136836813E+03  0.00000000000E+00 0. -1.
        -15    1    1    2    0    0 -0.24487734814E+01  0.57148805769E+00 -0.12435351680E+02  0.12810885628E+02  0.17770000000E+01 0. -1.
         15    1    1    2    0    0  0.16817086876E+01 -0.19150045047E+01 -0.28427776757E+02  0.28597055910E+02  0.17770000000E+01 0.  1.
</event>
<event>
 6    1  0.1059789E-002  0.1952939E+03  0.7546771E-02  0.1058704E+00
        -11   -1    0    0    0    0  0.00000000000E+00  0.00000000000E+00  0.18250000000E+03  0.18250000000E+03  0.00000000000E+00 0.  1.
         11   -1    0    0    0    0 -0.00000000000E+00 -0.00000000000E+00 -0.18250000000E+03  0.18250000000E+03  0.00000000000E+00 0. -1.
        -11    1    1    2    0    0 -0.14979669096E+01 -0.39947815482E+01  0.16088504268E+03  0.16094160165E+03  0.00000000000E+00 0.  1.
         11    1    1    2    0    0 -0.20888790526E+01  0.12200090951E+01 -0.16968885641E+03  0.16970609838E+03  0.00000000000E+00 0. -1.
        -15    1    1    2    0    0 -0.74487334440E+01 -0.86652196056E+01 -0.55815341778E+01  0.12840596307E+02  0.17770000000E+01 0. -1.
         15    1    1    2    0    0  0.11035579406E+02  0.11439992059E+02  0.14385347905E+02  0.21511703663E+02  0.17770000000E+01 0.  1.
</event>
<event>
 6    1  0.1059789E-002  0.1908310E+03  0.7546771E-02  0.1062010E+00
        -11   -1    0    0    0    0  0.00000000000E+00  0.00000000000E+00  0.18250000000E+03  0.18250000000E+03  0.00000000000E+00 0.  1.
         11   -1    0    0    0    0 -0.00000000000E+00 -0.00000000000E+00 -0.18250000000E+03  0.18250000000E+03  0.00000000000E+00 0. -1.
        -11    1    1    2    0    0  0.83761622084E+00 -0.44878019815E+01  0.17410918599E+03  0.17416902886E+03  0.00000000000E+00 0.  1.
         11    1    1    2    0    0 -0.12616546780E+01 -0.18193085741E+01 -0.16172515961E+03  0.16174031318E+03  0.00000000000E+00 0. -1.
        -15    1    1    2    0    0 -0.58635999270E+00  0.22872170836E+01 -0.20012138906E+02  0.20229152543E+02  0.17770000000E+01 0.  1.
         15    1    1    2    0    0  0.10103984499E+01  0.40198934720E+01  0.76281125225E+01  0.88615054145E+01  0.17770000000E+01 0. -1.
</event>
<event>
 6    1  0.1059789E-002  0.1825945E+03  0.7546771E-02  0.1068380E+00
        -11   -1    0    0    0    0  0.00000000000E+00  0.00000000000E+00  0.18250000000E+03  0.18250000000E+03  0.00000000000E+00 0. -1.
         11   -1    0    0    0    0 -0.00000000000E+00 -0.00000000000E+00 -0.18250000000E+03  0.18250000000E+03  0.00000000000E+00 0. -1.
        -11    1    1    2    0    0 -0.14550925322E+01 -0.58135457035E+00  0.47489759020E+02  0.47515602482E+02  0.00000000000E+00 0. -1.
         11    1    1    2    0    0 -0.31752052255E+01  0.92290919300E+00 -0.18237555409E+03  0.18240552738E+03  0.00000000000E+00 0. -1.
        -15    1    1    2    0    0  0.16245082081E+01  0.84362310231E+00  0.91839622681E+02  0.91875049660E+02  0.17770000000E+01 0.  1.
         15    1    1    2    0    0  0.30057895495E+01 -0.11851777250E+01  0.43046172391E+02  0.43203820474E+02  0.17770000000E+01 0. -1.
</event>
<event>
 6    1  0.1059789E-002  0.1850061E+03  0.7546771E-02  0.1066477E+00
        -11   -1    0    0    0    0  0.00000000000E+00  0.00000000000E+00  0.18250000000E+03  0.18250000000E+03  0.00000000000E+00 0.  1.
         11   -1    0    0    0    0 -0.00000000000E+00 -0.00000000000E+00 -0.18250000000E+03  0.18250000000E+03  0.00000000000E+00 0.  1.
        -11    1    1    2    0    0  0.96871314847E+01  0.37649199381E+01  0.17969363390E+03  0.17999393657E+03  0.00000000000E+00 0.  1.
         11    1    1    2    0    0 -0.26379094037E+01 -0.45995313819E+01 -0.13973943038E+03  0.13983998948E+03  0.00000000000E+00 0.  1.
        -15    1    1    2    0    0  0.41141480256E+01  0.41207623418E+00 -0.29244282585E+02  0.29588541933E+02  0.17770000000E+01 0. -1.
         15    1    1    2    0    0 -0.11163370107E+02  0.42253520962E+00 -0.10709920934E+02  0.15577532011E+02  0.17770000000E+01 0. -1.
</event>
<event>
 6    1  0.1059789E-002  0.1731876E+03  0.7546771E-02  0.1076119E+00
        -11   -1    0    0    0    0  0.00000000000E+00  0.00000000000E+00  0.18250000000E+03  0.18250000000E+03  0.00000000000E+00 0.  1.
         11   -1    0    0    0    0 -0.00000000000E+00 -0.00000000000E+00 -0.18250000000E+03  0.18250000000E+03  0.00000000000E+00 0. -1.
        -11    1    1    2    0    0  0.29607829905E+01 -0.68608175119E+01  0.17172366572E+03  0.17188616705E+03  0.00000000000E+00 0.  1.
         11    1    1    2    0    0  0.23121015289E+01  0.94206080425E+00 -0.17457354309E+03  0.17459139509E+03  0.00000000000E+00 0. -1.
        -15    1    1    2    0    0 -0.21816946597E+01 -0.55642965966E+01  0.15751516445E+01  0.64311756240E+01  0.17770000000E+01 0. -1.
         15    1    1    2    0    0 -0.30911898596E+01  0.11483053304E+02  0.12747257196E+01  0.12091262242E+02  0.17770000000E+01 0.  1.
</event>
<event>
 6    1  0.1059789E-002  0.1829777E+03  0.7546771E-02  0.1068075E+00
        -11   -1    0    0    0    0  0.00000000000E+00  0.00000000000E+00  0.18250000000E+03  0.18250000000E+03  0.00000000000E+00 0.  1.
         11   -1    0    0    0    0 -0.00000000000E+00 -0.00000000000E+00 -0.18250000000E+03  0.18250000000E+03  0.00000000000E+00 0.  1.
        -11    1    1    2    0    0  0.37821637821E+01  0.25401138450E+01  0.14969788022E+03  0.14976719362E+03  0.00000000000E+00 0.  1.
         11    1    1    2    0    0  0.18062824252E+01 -0.22271370227E+01 -0.18199966432E+03  0.18202225306E+03  0.00000000000E+00 0.  1.
        -15    1    1    2    0    0 -0.21513045378E+01  0.14771574542E+01  0.94205756607E+01  0.99355462929E+01  0.17770000000E+01 0.  1.
         15    1    1    2    0    0 -0.34371416695E+01 -0.17901342765E+01  0.22881208441E+02  0.23275007031E+02  0.17770000000E+01 0. -1.
</event>
<event>
 6    1  0.1059789E-002  0.1848298E+03  0.7546771E-02  0.1066615E+00
        -11   -1    0    0    0    0  0.00000000000E+00  0.00000000000E+00  0.18250000000E+03  0.18250000000E+03  0.00000000000E+00 0.  1.
         11   -1    0    0    0    0 -0.00000000000E+00 -0.00000000000E+00 -0.18250000000E+03  0.18250000000E+03  0.00000000000E+00 0.  1.
        -11    1    1    2    0    0 -0.63658301172E+01  0.15368039635E+01  0.18005117914E+03  0.18017023247E+03  0.00000000000E+00 0.  1.
         11    1    1    2    0    0  0.14519921416E+01 -0.21414284931E+00 -0.78176053606E+02  0.78189829874E+02  0.00000000000E+00 0.  1.
        -15    1    1    2    0    0 -0.63461272442E+01 -0.81632992221E+01 -0.12671305217E+02  0.16450911528E+02  0.17770000000E+01 0. -1.
         15    1    1    2    0    0  0.11259965220E+02  0.68406381079E+01 -0.89203820314E+02  0.90189026129E+02  0.17770000000E+01 0.  1.
</event>
<event>
 6    1  0.1059789E-002  0.1848426E+03  0.7546771E-02  0.1066605E+00
        -11   -1    0    0    0    0  0.00000000000E+00  0.00000000000E+00  0.18250000000E+03  0.18250000000E+03  0.00000000000E+00 0.  1.
         11   -1    0    0    0    0 -0.00000000000E+00 -0.00000000000E+00 -0.18250000000E+03  0.18250000000E+03  0.00000000000E+00 0. -1.
        -11    1    1    2    0    0  0.27745785305E+01 -0.24087650693E+01  0.18011993664E+03  0.18015740898E+03  0.00000000000E+00 0.  1.
         11    1    1    2    0    0  0.33654987992E+01  0.19009271379E+01 -0.15954438274E+03  0.15959119703E+03  0.00000000000E+00 0. -1.
        -15    1    1    2    0    0  0.30226379591E+01  0.25640903636E+01 -0.31114377073E+01  0.53431894250E+01  0.17770000000E+01 0. -1.
         15    1    1    2    0    0 -0.91627152888E+01 -0.20562524322E+01 -0.17464116197E+02  0.19908204567E+02  0.17770000000E+01 0.  1.
</event>
<event>
 6    1  0.1059789E-002  0.1840488E+03  0.7546771E-02  0.1067229E+00
        -11   -1    0    0    0    0  0.00000000000E+00  0.00000000000E+00  0.18250000000E+03  0.18250000000E+03  0.00000000000E+00 0.  1.
         11   -1    0    0    0    0 -0.00000000000E+00 -0.00000000000E+00 -0.18250000000E+03  0.18250000000E+03  0.00000000000E+00 0.  1.
        -11    1    1    2    0    0  0.61099440424E-03  0.97544119834E+00  0.71442544410E+02  0.71449203198E+02  0.00000000000E+00 0.  1.
         11    1    1    2    0    0 -0.30113851972E+01  0.77699652946E+01 -0.18075919128E+03  0.18095117030E+03  0.00000000000E+00 0.  1.
        -15    1    1    2    0    0  0.12318192736E+02  0.15901712050E+01  0.61631277311E+02  0.62895457616E+02  0.17770000000E+01 0. -1.
         15    1    1    2    0    0 -0.93074185336E+01 -0.10335577698E+02  0.47685369555E+02  0.49704168887E+02  0.17770000000E+01 0.  1.
</event>
<event>
 6    1  0.1059789E-002  0.1829044E+03  0.7546771E-02  0.1068133E+00
        -11   -1    0    0    0    0  0.00000000000E+00  0.00000000000E+00  0.18250000000E+03  0.18250000000E+03  0.00000000000E+00 0.  1.
         11   -1    0    0    0    0 -0.00000000000E+00 -0.00000000000E+00 -0.18250000000E+03  0.18250000000E+03  0.00000000000E+00 0. -1.
        -11    1    1    2    0    0 -0.42941704338E+01 -0.45949158732E+01  0.18198694737E+03  0.18209558525E+03  0.00000000000E+00 0.  1.
         11    1    1    2    0    0 -0.12291973789E+01  0.48840919223E+01 -0.14346956999E+03  0.14355794228E+03  0.00000000000E+00 0. -1.
        -15    1    1    2    0    0  0.30659666868E+01  0.20717782582E+00 -0.31320318622E+02  0.31520836949E+02  0.17770000000E+01 0. -1.
         15    1    1    2    0    0  0.24574011259E+01 -0.49635387494E+00 -0.71970587657E+01  0.78256355230E+01  0.17770000000E+01 0.  1.
</event>
<event>
 6    1  0.1059789E-002  0.1829047E+03  0.7546771E-02  0.1068133E+00
        -11   -1    0    0    0    0  0.00000000000E+00  0.00000000000E+00  0.18250000000E+03  0.18250000000E+03  0.00000000000E+00 0. -1.
         11   -1    0    0    0    0 -0.00000000000E+00 -0.00000000000E+00 -0.18250000000E+03  0.18250000000E+03  0.00000000000E+00 0.  1.
        -11    1    1    2    0    0 -0.29181335738E+01 -0.36505609573E+01  0.18203535250E+03  0.18209533673E+03  0.00000000000E+00 0. -1.
         11    1    1    2    0    0 -0.11598702416E+01 -0.49078309570E+00 -0.37024821808E+02  0.37046235934E+02  0.00000000000E+00 0.  1.
        -15    1    1    2    0    0  0.58914229624E+01  0.13588707201E+01 -0.13524325076E+03  0.13538999224E+03  0.17770000000E+01 0.  1.
         15    1    1    2    0    0 -0.18134191469E+01  0.27824733328E+01 -0.97672799387E+01  0.10468435091E+02  0.17770000000E+01 0. -1.
</event>
<event>
 6    1  0.1059789E-002  0.2118876E+03  0.7546771E-02  0.1047205E+00
        -11   -1    0    0    0    0  0.00000000000E+00  0.00000000000E+00  0.18250000000E+03  0.18250000000E+03  0.00000000000E+00 0.  1.
         11   -1    0    0    0    0 -0.00000000000E+00 -0.00000000000E+00 -0.18250000000E+03  0.18250000000E+03  0.00000000000E+00 0.  1.
        -11    1    1    2    0    0  0.93052399727E+00 -0.79123763680E+01  0.12295272810E+03  0.12321057147E+03  0.00000000000E+00 0.  1.
         11    1    1    2    0    0 -0.26195483842E+01  0.41582457985E+01 -0.15303352661E+03  0.15311242049E+03  0.00000000000E+00 0.  1.
        -15    1    1    2    0    0  0.82298874385E+01 -0.12097951422E+02 -0.26065025449E+02  0.29943860080E+02  0.17770000000E+01 0. -1.
         15    1    1    2    0    0 -0.65408630516E+01  0.15852081991E+02  0.56145823956E+02  0.58733147963E+02  0.17770000000E+01 0.  1.
</event>
<event>
 6    1  0.1059789E-002  0.1873007E+03  0.7546771E-02  0.1064696E+00
        -11   -1    0    0    0    0  0.00000000000E+00  0.00000000000E+00  0.18250000000E+03  0.18250000000E+03  0.00000000000E+00 0. -1.
         11   -1    0    0    0    0 -0.00000000000E+00 -0.00000000000E+00 -0.18250000000E+03  0.18250000000E+03  0.00000000000E+00 0. -1.
        -11    1    1    2    0    0 -0.21832462660E+01 -0.85933523423E+01  0.12694617727E+03  0.12725542893E+03  0.00000000000E+00 0. -1.
         11    1    1    2    0    0  0.51810314809E+01  0.69739682098E+00 -0.17762243440E+03  0.17769934905E+03  0.00000000000E+00 0. -1.
        -15    1    1    2    0    0  0.67956583530E+01 -0.27972196041E+01  0.27079933013E+00  0.75654789168E+01  0.17770000000E+01 0.  1.
         15    1    1    2    0    0 -0.97934435679E+01  0.10693175125E+02  0.50405457805E+02  0.52479743108E+02  0.17770000000E+01 0. -1.
</event>
<event>
 6    1  0.1059789E-002  0.1776057E+03  0.7546771E-02  0.1072419E+00
        -11   -1    0    0    0    0  0.00000000000E+00  0.00000000000E+00  0.18250000000E+03  0.18250000000E+03  0.00000000000E+00 0.  1.
         11   -1    0    0    0    0 -0.00000000000E+00 -0.00000000000E+00 -0.18250000000E+03  0.18250000000E+03  0.00000000000E+00 0.  1.
        -11    1    1    2    0    0  0.34971545654E+01 -0.33619011412E+01  0.17880702572E+03  0.17887281771E+03  0.00000000000E+00 0.  1.
         11    1    1    2    0    0  0.33394611277E+01  0.10655036870E+01 -0.17638521030E+03  0.17642003773E+03  0.00000000000E+00 0.  1.
        -15    1    1    2    0    0 -0.14235987427E+01  0.98717131663E-01 -0.27745214865E+01  0.35905538475E+01  0.17770000000E+01 0.  1.
         15    1    1    2    0    0 -0.54130169504E+01  0.21976803226E+01  0.35270606806E+00  0.61165907069E+01  0.17770000000E+01 0. -1.
</event>
<event>
 6    1  0.1059789E-002  0.1827569E+03  0.7546771E-02  0.1068251E+00
        -11   -1    0    0    0    0  0.00000000000E+00  0.00000000000E+00  0.18250000000E+03  0.18250000000E+03  0.00000000000E+00 0. -1.
         11   -1    0    0    0    0 -0.00000000000E+00 -0.00000000000E+00 -0.18250000000E+03  0.18250000000E+03  0.00000000000E+00 0.  1.
        -11    1    1    2    0    0  0.18567310850E+01  0.99919938050E+00  0.90473949669E+02  0.90498516112E+02  0.00000000000E+00 0. -1.
         11    1    1    2    0    0 -0.26276622021E+01 -0.31583545097E+01 -0.18219683049E+03  0.18224314762E+03  0.00000000000E+00 0.  1.
        -15    1    1    2    0    0 -0.29930375256E+01 -0.94829263183E+00  0.18316720222E+02  0.18668623442E+02  0.17770000000E+01 0.  1.
         15    1    1    2    0    0  0.37639686427E+01  0.31074477610E+01  0.73406160600E+02  0.73589712831E+02  0.17770000000E+01 0. -1.
</event>
<event>
 6    1  0.1059789E-002  0.1826153E+03  0.7546771E-02  0.1068363E+00
        -11   -1    0    0    0    0  0.00000000000E+00  0.00000000000E+00  0.18250000000E+03  0.18250000000E+03  0.00000000000E+00 0.  1.
         11   -1    0    0    0    0 -0.00000000000E+00 -0.00000000000E+00 -0.18250000000E+03  0.18250000000E+03  0.00000000000E+00 0.  1.
        -11    1    1    2    0    0 -0.16899662422E+01 -0.45155020897E+01  0.18232094273E+03  0.18238468111E+03  0.00000000000E+00 0.  1.
         11    1    1    2    0    0  0.39451395294E-01  0.12059212256E+01 -0.85823397815E+02  0.85831878780E+02  0.00000000000E+00 0.  1.
        -15    1    1    2    0    0  0.98894841619E-01  0.77651304256E+00 -0.85467042682E+01  0.87645100002E+01  0.17770000000E+01 0.  1.
         15    1    1    2    0    0  0.15516200053E+01  0.25330678215E+01 -0.87950840651E+02  0.88018930108E+02  0.17770000000E+01 0.  1.
</event>
<event>
 6    1  0.1059789E-002  0.1839696E+03  0.7546771E-02  0.1067291E+00
        -11   -1    0    0    0    0  0.00000000000E+00  0.00000000000E+00  0.18250000000E+03  0.18250000000E+03  0.00000000000E+00 0. -1.
         11   -1    0    0    0    0 -0.00000000000E+00 -0.00000000000E+00 -0.18250000000E+03  0.18250000000E+03  0.00000000000E+00 0. -1.
        -11    1    1    2    0    0  0.36978974111E+01 -0.39174310938E+01  0.11055169161E+03  0.11068286783E+03  0.00000000000E+00 0. -1.
         11    1    1    2    0    0 -0.70715453238E+00  0.63109430932E+01 -0.18091900562E+03  0.18103042469E+03  0.00000000000E+00 0. -1.
        -15    1    1    2    0    0 -0.29078562714E+01 -0.88525564154E+01  0.16725895415E+02  0.19228538416E+02  0.17770000000E+01 0.  1.
         15    1    1    2    0    0 -0.82886607348E-01  0.64590444159E+01  0.53641418591E+02  0.54058169063E+02  0.17770000000E+01 0. -1.
</event>
<event>
 6    1  0.1059789E-002  0.1848660E+03  0.7546771E-02  0.1066587E+00
        -11   -1    0    0    0    0  0.00000000000E+00  0.00000000000E+00  0.18250000000E+03  0.18250000000E+03  0.00000000000E+00 0.  1.
         11   -1    0    0    0    0 -0.00000000000E+00 -0.00000000000E+00 -0.18250000000E+03  0.18250000000E+03  0.00000000000E+00 0. -1.
        -11    1    1    2    0    0 -0.16250836116E+01 -0.20843094979E+01  0.18011458572E+03  0.18013397578E+03  0.00000000000E+00 0.  1.
         11    1    1    2    0    0 -0.12636145725E+01 -0.31907915442E+01 -0.14652752717E+03  0.14656771162E+03  0.00000000000E+00 0. -1.
        -15    1    1    2    0    0  0.37133222624E+01  0.42831730215E+01 -0.14879936962E+01  0.61242295513E+01  0.17770000000E+01 0. -1.
         15    1    1    2    0    0 -0.82462407828E+00  0.99192802063E+00 -0.32099064854E+02  0.32174083042E+02  0.17770000000E+01 0. -1.
</event>
<event>
 6    1  0.1059789E-002  0.1832613E+03  0.7546771E-02  0.1067850E+00
        -11   -1    0    0    0    0  0.00000000000E+00  0.00000000000E+00  0.18250000000E+03  0.18250000000E+03  0.00000000000E+00 0.  1.
         11   -1    0    0    0    0 -0.00000000000E+00 -0.00000000000E+00 -0.18250000000E+03  0.18250000000E+03  0.00000000000E+00 0. -1.
        -11    1    1    2    0    0 -0.26105023837E+01  0.23224856759E+01  0.16255952800E+03  0.16259707502E+03  0.00000000000E+00 0.  1.
         11    1    1    2    0    0 -0.27381682958E+01 -0.29983533675E+01 -0.18169328519E+03  0.18173865184E+03  0.00000000000E+00 0. -1.
        -15    1    1    2    0    0  0.90825666061E+00  0.15418885084E+01  0.10053082362E+02  0.10364581242E+02  0.17770000000E+01 0. -1.
         15    1    1    2    0    0  0.44404140189E+01 -0.86602081687E+00  0.90806748360E+01  0.10299691898E+02  0.17770000000E+01 0.  1.
</event>
<event>
 6    1  0.1059789E-002  0.1770785E+03  0.7546771E-02  0.1072854E+00
        -11   -1    0    0    0    0  0.00000000000E+00  0.00000000000E+00  0.18250000000E+03  0.18250000000E+03  0.00000000000E+00 0.  1.
         11   -1    0    0    0    0 -0.00000000000E+00 -0.00000000000E+00 -0.18250000000E+03  0.18250000000E+03  0.00000000000E+00 0.  1.
        -11    1    1    2    0    0 -0.35511359294E+01  0.17934907510E+01  0.17883395932E+03  0.17887820488E+03  0.00000000000E+00 0.  1.
         11    1    1    2    0    0  0.25423575308E+01  0.43671278194E+01 -0.17527875594E+03  0.17535158303E+03  0.00000000000E+00 0.  1.
        -15    1    1    2    0    0 -0.12964971842E+00 -0.65335142129E+01 -0.47918057647E+01  0.82959477160E+01  0.17770000000E+01 0. -1.
         15    1    1    2    0    0  0.11384281171E+01  0.37289564242E+00  0.12366023874E+01  0.24742643760E+01  0.17770000000E+01 0.  1.
</event>
<event>
 6    1  0.1059789E-002  0.1382555E+03  0.7546771E-02  0.1110405E+00
        -11   -1    0    0    0    0  0.00000000000E+00  0.00000000000E+00  0.18250000000E+03  0.18250000000E+03  0.00000000000E+00 0. -1.
         11   -1    0    0    0    0 -0.00000000000E+00 -0.00000000000E+00 -0.18250000000E+03  0.18250000000E+03  0.00000000000E+00 0. -1.
        -11    1    1    2    0    0 -0.10894498261E+01 -0.32262823484E+00  0.48088620152E+02  0.48102041309E+02  0.00000000000E+00 0. -1.
         11    1    1    2    0    0  0.22216794775E+02  0.23390713719E+02 -0.15419442771E+03  0.15753295844E+03  0.00000000000E+00 0. -1.
        -15    1    1    2    0    0  0.11483083298E+01  0.67011183656E+00  0.12274338723E+03  0.12276344936E+03  0.17770000000E+01 0. -1.
         15    1    1    2    0    0 -0.22275653278E+02 -0.23738197321E+02 -0.16637579674E+02  0.36601550888E+02  0.17770000000E+01 0. -1.
</event>
<event>
 6    1  0.1059789E-002  0.1852013E+03  0.7546771E-02  0.1066325E+00
        -11   -1    0    0    0    0  0.00000000000E+00  0.00000000000E+00  0.18250000000E+03  0.18250000000E+03  0.00000000000E+00 0.  1.
         11   -1    0    0    0    0 -0.00000000000E+00 -0.00000000000E+00 -0.18250000000E+03  0.18250000000E+03  0.00000000000E+00 0. -1.
        -11    1    1    2    0    0 -0.28462787558E+01  0.92005458281E+01  0.17954056265E+03  0.17979867903E+03  0.00000000000E+00 0.  1.
         11    1    1    2    0    0 -0.23842451073E+01  0.64662547641E+00 -0.16231720702E+03  0.16233600477E+03  0.00000000000E+00 0. -1.
        -15    1    1    2    0    0  0.46218285371E+01 -0.66135180978E+01 -0.17249094071E+02  0.19125608381E+02  0.17770000000E+01 0.  1.
         15    1    1    2    0    0  0.60869532598E+00 -0.32336532067E+01  0.25738448602E-01  0.37397078133E+01  0.17770000000E+01 0. -1.
</event>
<event>
 6    1  0.1059789E-002  0.1836005E+03  0.7546771E-02  0.1067582E+00
        -11   -1    0    0    0    0  0.00000000000E+00  0.00000000000E+00  0.18250000000E+03  0.18250000000E+03  0.00000000000E+00 0. -1.
         11   -1    0    0    0    0 -0.00000000000E+00 -0.00000000000E+00 -0.18250000000E+03  0.18250000000E+03  0.00000000000E+00 0. -1.
        -11    1    1    2    0    0  0.11272127665E+01  0.25472893281E+01  0.18137807854E+03  0.18139946711E+03  0.00000000000E+00 0. -1.
         11    1    1    2    0    0  0.53584583750E+00  0.23163230614E+01 -0.16360527733E+03  0.16362255117E+03  0.00000000000E+00 0. -1.
        -15    1    1    2    0    0  0.96116298142E+00 -0.54781328041E+01 -0.10345736548E+02  0.11879636653E+02  0.17770000000E+01 0. -1.
         15    1    1    2    0    0 -0.26242215854E+01  0.61452041459E+00 -0.74270646668E+01  0.80983450676E+01  0.17770000000E+01 0.  1.
</event>
<event>
 6    1  0.1059789E-002  0.2042264E+03  0.7546771E-02  0.1052366E+00
        -11   -1    0    0    0    0  0.00000000000E+00  0.00000000000E+00  0.18250000000E+03  0.18250000000E+03  0.00000000000E+00 0.  1.
         11   -1    0    0    0    0 -0.00000000000E+00 -0.00000000000E+00 -0.18250000000E+03  0.18250000000E+03  0.00000000000E+00 0. -1.
        -11    1    1    2    0    0 -0.66749332807E+01 -0.20345546341E+01  0.15410113644E+03  0.15425904965E+03  0.00000000000E+00 0.  1.
         11    1    1    2    0    0  0.31271917558E+01 -0.29303389704E+01 -0.16071648833E+03  0.16077361673E+03  0.00000000000E+00 0. -1.
        -15    1    1    2    0    0  0.27964354615E+01 -0.41077082428E+01  0.27032080935E+02  0.27542411785E+02  0.17770000000E+01 0. -1.
         15    1    1    2    0    0  0.75130606341E+00  0.90726018473E+01 -0.20416729048E+02  0.22424921831E+02  0.17770000000E+01 0.  1.
</event>
<event>
 6    1  0.1059789E-002  0.2116054E+03  0.7546771E-02  0.1047391E+00
        -11   -1    0    0    0    0  0.00000000000E+00  0.00000000000E+00  0.18250000000E+03  0.18250000000E+03  0.00000000000E+00 0. -1.
         11   -1    0    0    0    0 -0.00000000000E+00 -0.00000000000E+00 -0.18250000000E+03  0.18250000000E+03  0.00000000000E+00 0.  1.
        -11    1    1    2    0    0  0.18642002733E+00 -0.11493625615E+01  0.83075411585E+02  0.83083571160E+02  0.00000000000E+00 0. -1.
         11    1    1    2    0    0  0.68024384098E+01  0.84816124490E+01 -0.15300884655E+03  0.15339464802E+03  0.00000000000E+00 0.  1.
        -15    1    1    2    0    0 -0.14062853033E+02  0.52353633520E+01  0.96802758379E+02  0.97975020407E+02  0.17770000000E+01 0. -1.
         15    1    1    2    0    0  0.70739945958E+01 -0.12567613240E+02 -0.26869323410E+02  0.30546760410E+02  0.17770000000E+01 0.  1.
</event>
<event>
 6    1  0.1059789E-002  0.1853750E+03  0.7546771E-02  0.1066189E+00
        -11   -1    0    0    0    0  0.00000000000E+00  0.00000000000E+00  0.18250000000E+03  0.18250000000E+03  0.00000000000E+00 0. -1.
         11   -1    0    0    0    0 -0.00000000000E+00 -0.00000000000E+00 -0.18250000000E+03  0.18250000000E+03  0.00000000000E+00 0.  1.
        -11    1    1    2    0    0 -0.30723159858E+00 -0.48471974863E+00  0.34440829201E+02  0.34445610179E+02  0.00000000000E+00 0. -1.
         11    1    1    2    0    0 -0.45383168332E+01  0.15841869199E+02 -0.17886753342E+03  0.17962504182E+03  0.00000000000E+00 0.  1.
        -15    1    1    2    0    0  0.11537252187E+02 -0.30860032354E+01  0.13070676327E+03  0.13126327475E+03  0.17770000000E+01 0. -1.
         15    1    1    2    0    0 -0.66917037551E+01 -0.12271146215E+02  0.13719940945E+02  0.19666073251E+02  0.17770000000E+01 0.  1.
</event>
<event>
 6    1  0.1059789E-002  0.1868750E+03  0.7546771E-02  0.1065025E+00
        -11   -1    0    0    0    0  0.00000000000E+00  0.00000000000E+00  0.18250000000E+03  0.18250000000E+03  0.00000000000E+00 0. -1.
         11   -1    0    0    0    0 -0.00000000000E+00 -0.00000000000E+00 -0.18250000000E+03  0.18250000000E+03  0.00000000000E+00 0. -1.
        -11    1    1    2    0    0 -0.39424518387E+01  0.13918026766E+01  0.17807594050E+03  0.17812501404E+03  0.00000000000E+00 0. -1.
         11    1    1    2    0    0  0.22074562078E+01 -0.89286585544E+01 -0.16881999323E+03  0.16907035199E+03  0.00000000000E+00 0. -1.
        -15    1    1    2    0    0 -0.31440857068E+01  0.24025202001E-01 -0.77478718386E+01  0.85482804803E+01  0.17770000000E+01 0.  1.
         15    1    1    2    0    0  0.48790813377E+01  0.75128306758E+01 -0.15080754301E+01  0.92563534918E+01  0.17770000000E+01 0. -1.
</event>
<event>
 6    1  0.1059789E-002  0.1715945E+03  0.7546771E-02  0.1077483E+00
        -11   -1    0    0    0    0  0.00000000000E+00  0.00000000000E+00  0.18250000000E+03  0.18250000000E+03  0.00000000000E+00 0. -1.
         11   -1    0    0    0    0 -0.00000000000E+00 -0.00000000000E+00 -0.18250000000E+03  0.18250000000E+03  0.00000000000E+00 0. -1.
        -11    1    1    2    0    0 -0.88686102495E+00 -0.28243727338E+01  0.17551434341E+03  0.17553930713E+03  0.00000000000E+00 0. -1.
         11    1    1    2    0    0 -0.15626777728E+01 -0.11900575793E+02 -0.16763543263E+03  0.16806458265E+03  0.00000000000E+00 0. -1.
        -15    1    1    2    0    0  0.29181870822E+01  0.10419642296E+02 -0.11186285758E+02  0.15664465503E+02  0.17770000000E+01 0.  1.
         15    1    1    2    0    0 -0.46864828438E+00  0.43053062310E+01  0.33073749835E+01  0.57316447237E+01  0.17770000000E+01 0. -1.
</event>
<event>
 6    1  0.1059789E-002  0.1831879E+03  0.7546771E-02  0.1067909E+00
        -11   -1    0    0    0    0  0.00000000000E+00  0.00000000000E+00  0.18250000000E+03  0.18250000000E+03  0.00000000000E+00 0.  1.
         11   -1    0    0    0    0 -0.00000000000E+00 -0.00000000000E+00 -0.18250000000E+03  0.18250000000E+03  0.00000000000E+00 0. -1.
        -11    1    1    2    0    0 -0.15110189502E+00 -0.26458776803E+01  0.15661862536E+03  0.15664104605E+03  0.00000000000E+00 0.  1.
         11    1    1    2    0    0  0.26654798095E+01 -0.21677384786E+01 -0.18177963516E+03  0.18181209979E+03  0.00000000000E+00 0. -1.
        -15    1    1    2    0    0 -0.10794019115E+01  0.58132797180E+00  0.21802874150E+01  0.30682947885E+01  0.17770000000E+01 0. -1.
         15    1    1    2    0    0 -0.14349760030E+01  0.42322881871E+01  0.22980722388E+02  0.23478559366E+02  0.17770000000E+01 0.  1.
</event>
<event>
 6    1  0.1609451E-002  0.1828101E+03  0.7546771E-02  0.1068208E+00
        -11   -1    0    0    0    0  0.00000000000E+00  0.00000000000E+00  0.18250000000E+03  0.18250000000E+03  0.00000000000E+00 0. -1.
         11   -1    0    0    0    0 -0.00000000000E+00 -0.00000000000E+00 -0.18250000000E+03  0.18250000000E+03  0.00000000000E+00 0.  1.
        -11    1    1    2    0    0 -0.13703260171E+01 -0.28207853825E+01  0.18216295627E+03  0.18218994830E+03  0.00000000000E+00 0. -1.
         11    1    1    2    0    0 -0.89110138329E+00  0.48735564912E+00 -0.60395118285E+02  0.60403657918E+02  0.00000000000E+00 0.  1.
        -15    1    1    2    0    0  0.28415627779E+00  0.13851641136E+01 -0.39615074955E+01  0.45662561304E+01  0.17770000000E+01 0.  1.
         15    1    1    2    0    0  0.19772711226E+01  0.94826561972E+00 -0.11780633049E+03  0.11784013765E+03  0.17770000000E+01 0. -1.
</event>
<event>
 6    1  0.1059789E-002  0.1827412E+03  0.7546771E-02  0.1068263E+00
        -11   -1    0    0    0    0  0.00000000000E+00  0.00000000000E+00  0.18250000000E+03  0.18250000000E+03  0.00000000000E+00 0. -1.
         11   -1    0    0    0    0 -0.00000000000E+00 -0.00000000000E+00 -0.18250000000E+03  0.18250000000E+03  0.00000000000E+00 0. -1.
        -11    1    1    2    0    0 -0.11728087158E+01 -0.36278021443E+00  0.87186547682E+02  0.87195190157E+02  0.00000000000E+00 0. -1.
         11    1    1    2    0    0  0.18276955694E+01  0.40380888540E+01 -0.18220485909E+03  0.18225876470E+03  0.00000000000E+00 0. -1.
        -15    1    1    2    0    0 -0.44942099660E+01 -0.11584242858E+01  0.55568785184E+02  0.55790568073E+02  0.17770000000E+01 0. -1.
         15    1    1    2    0    0  0.38393231124E+01 -0.25168843538E+01  0.39449526225E+02  0.39755477072E+02  0.17770000000E+01 0.  1.
</event>
<event>
 6    1  0.1059789E-002  0.1839530E+03  0.7546771E-02  0.1067304E+00
        -11   -1    0    0    0    0  0.00000000000E+00  0.00000000000E+00  0.18250000000E+03  0.18250000000E+03  0.00000000000E+00 0.  1.
         11   -1    0    0    0    0 -0.00000000000E+00 -0.00000000000E+00 -0.18250000000E+03  0.18250000000E+03  0.00000000000E+00 0.  1.
        -11    1    1    2    0    0 -0.33276246161E+01  0.14212601168E+00  0.18101638236E+03  0.18104702143E+03  0.00000000000E+00 0.  1.
         11    1    1    2    0    0 -0.25781755651E+01  0.52070191263E+01 -0.15189612327E+03  0.15200721135E+03  0.00000000000E+00 0.  1.
        -15    1    1    2    0    0  0.22998886456E+01  0.79303526089E-01 -0.10771785034E+01  0.31006159645E+01  0.17770000000E+01 0.  1.
         15    1    1    2    0    0  0.36059115356E+01 -0.54284486641E+01 -0.28043080590E+02  0.28845151254E+02  0.17770000000E+01 0.  1.
</event>
<event>
 6    1  0.1059789E-002  0.1834348E+03  0.7546771E-02  0.1067713E+00
        -11   -1    0    0    0    0  0.00000000000E+00  0.00000000000E+00  0.18250000000E+03  0.18250000000E+03  0.00000000000E+00 0. -1.
         11   -1    0    0    0    0 -0.00000000000E+00 -0.00000000000E+00 -0.18250000000E+03  0.18250000000E+03  0.00000000000E+00 0. -1.
        -11    1    1    2    0    0  0.45932511651E+01  0.38261121401E+01  0.14498219495E+03  0.14510538909E+03  0.00000000000E+00 0. -1.
         11    1    1    2    0    0 -0.20525254986E+01 -0.24031797741E+01 -0.18153764244E+03  0.18156515017E+03  0.00000000000E+00 0. -1.
        -15    1    1    2    0    0  0.30439839055E+01  0.14455638399E+01  0.61702061268E+01  0.72515284927E+01  0.17770000000E+01 0.  1.
         15    1    1    2    0    0 -0.55847095720E+01 -0.28684962058E+01  0.30385241360E+02  0.31077932251E+02  0.17770000000E+01 0. -1.
</event>
<event>
 6    1  0.1059789E-002  0.1764271E+03  0.7546771E-02  0.1073394E+00
        -11   -1    0    0    0    0  0.00000000000E+00  0.00000000000E+00  0.18250000000E+03  0.18250000000E+03  0.00000000000E+00 0. -1.
         11   -1    0    0    0    0 -0.00000000000E+00 -0.00000000000E+00 -0.18250000000E+03  0.18250000000E+03  0.00000000000E+00 0. -1.
        -11    1    1    2    0    0 -0.22107800675E+01 -0.14412552485E+01  0.17544539407E+03  0.17546524175E+03  0.00000000000E+00 0. -1.
         11    1    1    2    0    0  0.20985824238E+01 -0.31242026930E+01 -0.17738388828E+03  0.17742381044E+03  0.00000000000E+00 0. -1.
        -15    1    1    2    0    0 -0.20077108648E+01  0.10744153745E+01 -0.38462773268E+01  0.48100779191E+01  0.17770000000E+01 0. -1.
         15    1    1    2    0    0  0.21199085086E+01  0.34910425670E+01  0.57847715405E+01  0.73008698841E+01  0.17770000000E+01 0.  1.
</event>
<event>
 6    1  0.1059789E-002  0.1845503E+03  0.7546771E-02  0.1066834E+00
        -11   -1    0    0    0    0  0.00000000000E+00  0.00000000000E+00  0.18250000000E+03  0.18250000000E+03  0.00000000000E+00 0. -1.
         11   -1    0    0    0    0 -0.00000000000E+00 -0.00000000000E+00 -0.18250000000E+03  0.18250000000E+03  0.00000000000E+00 0. -1.
        -11    1    1    2    0    0  0.27274666655E+01  0.12122552189E+01  0.16408908939E+03  0.16411623288E+03  0.00000000000E+00 0. -1.
         11    1    1    2    0    0 -0.58785823426E+01 -0.80362618099E+01 -0.18017474397E+03  0.18044965392E+03  0.00000000000E+00 0. -1.
        -15    1    1    2    0    0 -0.15161751348E+01  0.33862080503E+01  0.12991467223E+02  0.13627220612E+02  0.17770000000E+01 0. -1.
         15    1    1    2    0    0  0.46672908118E+01  0.34377985407E+01  0.30941873558E+01  0.68068925892E+01  0.17770000000E+01 0.  1.
</event>
<event>
 6    1  0.1059789E-002  0.1865795E+03  0.7546771E-02  0.1065253E+00
        -11   -1    0    0    0    0  0.00000000000E+00  0.00000000000E+00  0.18250000000E+03  0.18250000000E+03  0.00000000000E+00 0.  1.
         11   -1    0    0    0    0 -0.00000000000E+00 -0.00000000000E+00 -0.18250000000E+03  0.18250000000E+03  0.00000000000E+00 0. -1.
        -11    1    1    2    0    0 -0.79785534727E+00  0.35125655550E+01  0.17838414218E+03  0.17842050575E+03  0.00000000000E+00 0.  1.
         11    1    1    2    0    0 -0.55126484594E+01 -0.35973873109E+01 -0.16147600633E+03  0.16161012068E+03  0.00000000000E+00 0. -1.
        -15    1    1    2    0    0  0.74135017519E+01 -0.73431301293E+01 -0.86792592758E+01  0.13688273773E+02  0.17770000000E+01 0. -1.
         15    1    1    2    0    0 -0.11029979452E+01  0.74279518852E+01 -0.82288765833E+01  0.11281099791E+02  0.17770000000E+01 0.  1.
</event>
<event>
 6    1  0.1059789E-002  0.1843512E+03  0.7546771E-02  0.1066991E+00
        -11   -1    0    0    0    0  0.00000000000E+00  0.00000000000E+00  0.18250000000E+03  0.18250000000E+03  0.00000000000E+00 0.  1.
         11   -1    0    0    0    0 -0.00000000000E+00 -0.00000000000E+00 -0.18250000000E+03  0.18250000000E+03  0.00000000000E+00 0.  1.
        -11    1    1    2    0    0  0.32511194324E+00 -0.23673394508E+01  0.16503151200E+03  0.16504881080E+03  0.00000000000E+00 0.  1.
         11    1    1    2    0    0 -0.11774183006E+01 -0.21716962956E+01 -0.18063188697E+03  0.18064877849E+03  0.00000000000E+00 0.  1.
        -15    1    1    2    0    0  0.51508588147E+01  0.37736639163E+01  0.84769122378E+01  0.10760467275E+02  0.17770000000E+01 0.  1.
         15    1    1    2    0    0 -0.42985524574E+01  0.76537183016E+00  0.71234627342E+01  0.85419434318E+01  0.17770000000E+01 0. -1.
</event>
<event>
 6    1  0.1059789E-002  0.1833007E+03  0.7546771E-02  0.1067819E+00
        -11   -1    0    0    0    0  0.00000000000E+00  0.00000000000E+00  0.18250000000E+03  0.18250000000E+03  0.00000000000E+00 0. -1.
         11   -1    0    0    0    0 -0.00000000000E+00 -0.00000000000E+00 -0.18250000000E+03  0.18250000000E+03  0.00000000000E+00 0. -1.
        -11    1    1    2    0    0  0.33928229059E+01  0.59494857632E+00  0.69749162709E+02  0.69834167208E+02  0.00000000000E+00 0. -1.
         11    1    1    2    0    0 -0.41564933278E+01  0.17706439541E+01 -0.18164311509E+03  0.18169929244E+03  0.00000000000E+00 0. -1.
        -15    1    1    2    0    0 -0.84177549766E+00 -0.16163985762E+00  0.10926487516E+03  0.10928268567E+03  0.17770000000E+01 0. -1.
         15    1    1    2    0    0  0.16054459195E+01 -0.22039526728E+01  0.26290772174E+01  0.41838546819E+01  0.17770000000E+01 0.  1.
</event>
<event>
 6    1  0.1059789E-002  0.1720023E+03  0.7546771E-02  0.1077132E+00
        -11   -1    0    0    0    0  0.00000000000E+00  0.00000000000E+00  0.18250000000E+03  0.18250000000E+03  0.00000000000E+00 0. -1.
         11   -1    0    0    0    0 -0.00000000000E+00 -0.00000000000E+00 -0.18250000000E+03  0.18250000000E+03  0.00000000000E+00 0. -1.
        -11    1    1    2    0    0  0.90397067494E+01 -0.32919691085E+01  0.17275652999E+03  0.17302419488E+03  0.00000000000E+00 0. -1.
         11    1    1    2    0    0  0.13248758336E+01  0.30504694585E+01 -0.17110830502E+03  0.17114062260E+03  0.00000000000E+00 0. -1.
        -15    1    1    2    0    0 -0.65213071658E+01  0.20407631863E+01  0.76811458759E+01  0.10433115187E+02  0.17770000000E+01 0. -1.
         15    1    1    2    0    0 -0.38432754173E+01 -0.17992635363E+01 -0.93293708526E+01  0.10402067329E+02  0.17770000000E+01 0. -1.
</event>
<event>
 6    1  0.1059789E-002  0.1838068E+03  0.7546771E-02  0.1067419E+00
        -11   -1    0    0    0    0  0.00000000000E+00  0.00000000000E+00  0.18250000000E+03  0.18250000000E+03  0.00000000000E+00 0.  1.
         11   -1    0    0    0    0 -0.00000000000E+00 -0.00000000000E+00 -0.18250000000E+03  0.18250000000E+03  0.00000000000E+00 0.  1.
        -11    1    1    2    0    0 -0.15499251035E+01  0.22169325746E+01  0.18117299224E+03  0.18119318468E+03  0.00000000000E+00 0.  1.
         11    1    1    2    0    0 -0.10731992401E+01 -0.35615539183E+01 -0.17324451742E+03  0.17328444604E+03  0.00000000000E+00 0.  1.
        -15    1    1    2    0    0 -0.35505594616E+00 -0.68339172085E+00 -0.54927662024E+01  0.58241993890E+01  0.17770000000E+01 0.  1.
         15    1    1    2    0    0  0.29781802898E+01  0.20280130645E+01 -0.24357086148E+01  0.46981698867E+01  0.17770000000E+01 0. -1.
</event>
<event>
 6    1  0.1059789E-002  0.1835577E+03  0.7546771E-02  0.1067616E+00
        -11   -1    0    0    0    0  0.00000000000E+00  0.00000000000E+00  0.18250000000E+03  0.18250000000E+03  0.00000000000E+00 0. -1.
         11   -1    0    0    0    0 -0.00000000000E+00 -0.00000000000E+00 -0.18250000000E+03  0.18250000000E+03  0.00000000000E+00 0. -1.
        -11    1    1    2    0    0 -0.17143612865E+01  0.51889516812E+00  0.75412053880E+02  0.75433322592E+02  0.00000000000E+00 0. -1.
         11    1    1    2    0    0 -0.25632822438E+01 -0.45622035104E+01 -0.18136686187E+03  0.18144233988E+03  0.00000000000E+00 0. -1.
        -15    1    1    2    0    0  0.69052850970E+00  0.12229286258E+02  0.65022205047E+02  0.66189705772E+02  0.17770000000E+01 0.  1.
         15    1    1    2    0    0  0.35871150206E+01 -0.81859779153E+01  0.40932602938E+02  0.41934631760E+02  0.17770000000E+01 0. -1.
</event>
<event>
 6    1  0.1059789E-002  0.1826301E+03  0.7546771E-02  0.1068351E+00
        -11   -1    0    0    0    0  0.00000000000E+00  0.00000000000E+00  0.18250000000E+03  0.18250000000E+03  0.00000000000E+00 0. -1.
         11   -1    0    0    0    0 -0.00000000000E+00 -0.00000000000E+00 -0.18250000000E+03  0.18250000000E+03  0.00000000000E+00 0. -1.
        -11    1    1    2    0    0 -0.95938965948E+00  0.75220970436E+00  0.33631624399E+02  0.33653713133E+02  0.00000000000E+00 0. -1.
         11    1    1    2    0    0  0.55830274762E+00  0.37666091137E+01 -0.18233009977E+03  0.18236985587E+03  0.00000000000E+00 0. -1.
        -15    1    1    2    0    0  0.13082831610E+01  0.15152626231E+01  0.36427663670E+02  0.36525881716E+02  0.17770000000E+01 0. -1.
         15    1    1    2    0    0 -0.90719624913E+00 -0.60340814411E+01  0.11227081171E+03  0.11245054928E+03  0.17770000000E+01 0. -1.
</event>
<event>
 6    1  0.1059789E-002  0.1843622E+03  0.7546771E-02  0.1066982E+00
        -11   -1    0    0    0    0  0.00000000000E+00  0.00000000000E+00  0.18250000000E+03  0.18250000000E+03  0.00000000000E+00 0. -1.
         11   -1    0    0    0    0 -0.00000000000E+00 -0.00000000000E+00 -0.18250000000E+03  0.18250000000E+03  0.00000000000E+00 0. -1.
        -11    1    1    2    0    0 -0.53111512367E+00 -0.18164666566E+01  0.10110000499E+03  0.10111771677E+03  0.00000000000E+00 0. -1.
         11    1    1    2    0    0  0.51196867326E+01 -0.67741822167E+01 -0.18043812158E+03  0.18063780462E+03  0.00000000000E+00 0. -1.
        -15    1    1    2    0    0 -0.33295308616E+01  0.41833890493E+01  0.23582945823E+01  0.61078475778E+01  0.17770000000E+01 0. -1.
         15    1    1    2    0    0 -0.12590407473E+01  0.44072598240E+01  0.76979822005E+02  0.77136631037E+02  0.17770000000E+01 0.  1.
</event>
<event>
 6    1  0.1059789E-002  0.1837601E+03  0.7546771E-02  0.1067456E+00
        -11   -1    0    0    0    0  0.00000000000E+00  0.00000000000E+00  0.18250000000E+03  0.18250000000E+03  0.00000000000E+00 0. -1.
         11   -1    0    0    0    0 -0.00000000000E+00 -0.00000000000E+00 -0.18250000000E+03  0.18250000000E+03  0.00000000000E+00 0. -1.
        -11    1    1    2    0    0  0.90845309342E+01  0.10988392612E+01  0.18100874504E+03  0.18123990160E+03  0.00000000000E+00 0. -1.
         11    1    1    2    0    0  0.45931992539E+00  0.26753527713E+01 -0.14123528821E+03  0.14126137166E+03  0.00000000000E+00 0. -1.
        -15    1    1    2    0    0 -0.90608681287E+01 -0.25104752238E+01 -0.38966312823E+02  0.40123971403E+02  0.17770000000E+01 0. -1.
         15    1    1    2    0    0 -0.48298273091E+00 -0.12637168088E+01 -0.80714400590E+00  0.23747553426E+01  0.17770000000E+01 0.  1.
</event>
<event>
 6    1  0.1059789E-002  0.1874946E+03  0.7546771E-02  0.1064547E+00
        -11   -1    0    0    0    0  0.00000000000E+00  0.00000000000E+00  0.18250000000E+03  0.18250000000E+03  0.00000000000E+00 0. -1.
         11   -1    0    0    0    0 -0.00000000000E+00 -0.00000000000E+00 -0.18250000000E+03  0.18250000000E+03  0.00000000000E+00 0. -1.
        -11    1    1    2    0    0 -0.13494104111E+01  0.42099432553E+01  0.17745033655E+03  0.17750539843E+03  0.00000000000E+00 0. -1.
         11    1    1    2    0    0 -0.26486339465E+01 -0.89207278436E+00 -0.17178186386E+03  0.17180459774E+03  0.00000000000E+00 0. -1.
        -15    1    1    2    0    0 -0.18734048633E+01 -0.25248459064E+01  0.32352161691E+01  0.48485920940E+01  0.17770000000E+01 0.  1.
         15    1    1    2    0    0  0.58714492208E+01 -0.79302456452E+00 -0.89036888647E+01  0.10841411731E+02  0.17770000000E+01 0. -1.
</event>
<event>
 6    1  0.1059789E-002  0.1268547E+03  0.7546771E-02  0.1124101E+00
        -11   -1    0    0    0    0  0.00000000000E+00  0.00000000000E+00  0.18250000000E+03  0.18250000000E+03  0.00000000000E+00 0. -1.
         11   -1    0    0    0    0 -0.00000000000E+00 -0.00000000000E+00 -0.18250000000E+03  0.18250000000E+03  0.00000000000E+00 0. -1.
        -11    1    1    2    0    0  0.88254324689E+00 -0.65156111487E+00  0.31342698203E+02  0.31361890011E+02  0.00000000000E+00 0. -1.
         11    1    1    2    0    0 -0.20055426791E+02  0.17465103696E+02 -0.15742395492E+03  0.15965447558E+03  0.00000000000E+00 0. -1.
        -15    1    1    2    0    0  0.32392899298E+02 -0.52063182922E+02  0.25246694247E+02  0.66335723711E+02  0.17770000000E+01 0.  1.
         15    1    1    2    0    0 -0.13220015754E+02  0.35249640340E+02  0.10083456247E+03  0.10764791070E+03  0.17770000000E+01 0. -1.
</event>
<event>
 6    1  0.1059789E-002  0.1889034E+03  0.7546771E-02  0.1063469E+00
        -11   -1    0    0    0    0  0.00000000000E+00  0.00000000000E+00  0.18250000000E+03  0.18250000000E+03  0.00000000000E+00 0.  1.
         11   -1    0    0    0    0 -0.00000000000E+00 -0.00000000000E+00 -0.18250000000E+03  0.18250000000E+03  0.00000000000E+00 0.  1.
        -11    1    1    2    0    0 -0.57144045760E-01 -0.25443852452E+01  0.17607824151E+03  0.17609663340E+03  0.00000000000E+00 0.  1.
         11    1    1    2    0    0  0.98272099400E+01  0.11833624011E+02 -0.87057136514E+02  0.88405620469E+02  0.00000000000E+00 0.  1.
        -15    1    1    2    0    0 -0.31894813013E+01  0.60440251707E+00  0.47155065522E+01  0.59943160091E+01  0.17770000000E+01 0. -1.
         15    1    1    2    0    0 -0.65805845930E+01 -0.98936412824E+01 -0.93736611548E+02  0.94503430122E+02  0.17770000000E+01 0.  1.
</event>
<event>
 6    1  0.1059789E-002  0.1856958E+03  0.7546771E-02  0.1065939E+00
        -11   -1    0    0    0    0  0.00000000000E+00  0.00000000000E+00  0.18250000000E+03  0.18250000000E+03  0.00000000000E+00 0. -1.
         11   -1    0    0    0    0 -0.00000000000E+00 -0.00000000000E+00 -0.18250000000E+03  0.18250000000E+03  0.00000000000E+00 0.  1.
        -11    1    1    2    0    0  0.25854606303E+01 -0.80804866496E+00  0.17928375987E+03  0.17930422221E+03  0.00000000000E+00 0. -1.
         11    1    1    2    0    0  0.31600095079E+00 -0.17744933695E+01 -0.12024612760E+03  0.12025963531E+03  0.00000000000E+00 0.  1.
        -15    1    1    2    0    0 -0.36845946798E+01  0.48348273766E+01 -0.95694401735E-02  0.63332151621E+01  0.17770000000E+01 0.  1.
         15    1    1    2    0    0  0.78313309870E+00 -0.22522853421E+01 -0.59028062831E+02  0.59102927315E+02  0.17770000000E+01 0. -1.
</event>
<event>
 6    1  0.1059789E-002  0.1954956E+03  0.7546771E-02  0.1058557E+00
        -11   -1    0    0    0    0  0.00000000000E+00  0.00000000000E+00  0.18250000000E+03  0.18250000000E+03  0.00000000000E+00 0.  1.
         11   -1    0    0    0    0 -0.00000000000E+00 -0.00000000000E+00 -0.18250000000E+03  0.18250000000E+03  0.00000000000E+00 0.  1.
        -11    1    1    2    0    0  0.41767342206E+01  0.80420806745E+00  0.16945101307E+03  0.16950438841E+03  0.00000000000E+00 0.  1.
         11    1    1    2    0    0 -0.29952537977E+01 -0.11171840316E+01 -0.92726649192E+02  0.92781739129E+02  0.00000000000E+00 0.  1.
        -15    1    1    2    0    0  0.67349303175E+01  0.17825067429E+02  0.41381639892E+01  0.19579950087E+02  0.17770000000E+01 0. -1.
         15    1    1    2    0    0 -0.79164107404E+01 -0.17512091465E+02 -0.80862527870E+02  0.83133922372E+02  0.17770000000E+01 0.  1.
</event>
<event>
 6    1  0.1059789E-002  0.1878964E+03  0.7546771E-02  0.1064239E+00
        -11   -1    0    0    0    0  0.00000000000E+00  0.00000000000E+00  0.18250000000E+03  0.18250000000E+03  0.00000000000E+00 0.  1.
         11   -1    0    0    0    0 -0.00000000000E+00 -0.00000000000E+00 -0.18250000000E+03  0.18250000000E+03  0.00000000000E+00 0.  1.
        -11    1    1    2    0    0  0.25917444373E+00  0.31622863419E+01  0.17707516551E+03  0.17710358965E+03  0.00000000000E+00 0.  1.
         11    1    1    2    0    0 -0.41050544423E+01  0.59815527831E+01 -0.15428366551E+03  0.15445413523E+03  0.00000000000E+00 0.  1.
        -15    1    1    2    0    0 -0.65270165595E+00 -0.15199104610E+01  0.42713321500E+01  0.49130595963E+01  0.17770000000E+01 0. -1.
         15    1    1    2    0    0  0.44985816545E+01 -0.76239286640E+01 -0.27062832156E+02  0.28529215525E+02  0.17770000000E+01 0. -1.
</event>
<event>
 6    1  0.1059789E-002  0.1828570E+03  0.7546771E-02  0.1068171E+00
        -11   -1    0    0    0    0  0.00000000000E+00  0.00000000000E+00  0.18250000000E+03  0.18250000000E+03  0.00000000000E+00 0.  1.
         11   -1    0    0    0    0 -0.00000000000E+00 -0.00000000000E+00 -0.18250000000E+03  0.18250000000E+03  0.00000000000E+00 0. -1.
        -11    1    1    2    0    0 -0.44044593431E+01  0.14318552725E+01  0.18208411238E+03  0.18214300276E+03  0.00000000000E+00 0.  1.
         11    1    1    2    0    0 -0.38005431689E+01  0.16992410951E+01 -0.78374629833E+02  0.78485120565E+02  0.00000000000E+00 0. -1.
        -15    1    1    2    0    0  0.15259519489E+01  0.72143442403E+00 -0.52265371652E+02  0.52322803823E+02  0.17770000000E+01 0. -1.
         15    1    1    2    0    0  0.66790505632E+01 -0.38525307916E+01 -0.51444110897E+02  0.52049072853E+02  0.17770000000E+01 0.  1.
</event>
<event>
 6    1  0.1059789E-002  0.1839200E+03  0.7546771E-02  0.1067330E+00
        -11   -1    0    0    0    0  0.00000000000E+00  0.00000000000E+00  0.18250000000E+03  0.18250000000E+03  0.00000000000E+00 0.  1.
         11   -1    0    0    0    0 -0.00000000000E+00 -0.00000000000E+00 -0.18250000000E+03  0.18250000000E+03  0.00000000000E+00 0.  1.
        -11    1    1    2    0    0 -0.42225706099E+01 -0.82653377509E-01  0.46890445523E+02  0.47080259297E+02  0.00000000000E+00 0.  1.
         11    1    1    2    0    0  0.38381810285E+00  0.69425188925E+01 -0.18094643072E+03  0.18107997315E+03  0.00000000000E+00 0.  1.
        -15    1    1    2    0    0  0.59051104848E+01 -0.30827156249E+01  0.13118976941E+03  0.13137079886E+03  0.17770000000E+01 0.  1.
         15    1    1    2    0    0 -0.20663579778E+01 -0.37771498900E+01  0.28662157878E+01  0.54689686894E+01  0.17770000000E+01 0. -1.
</event>
<event>
 6    1  0.1059789E-002  0.1907435E+03  0.7546771E-02  0.1062076E+00
        -11   -1    0    0    0    0  0.00000000000E+00  0.00000000000E+00  0.18250000000E+03  0.18250000000E+03  0.00000000000E+00 0.  1.
         11   -1    0    0    0    0 -0.00000000000E+00 -0.00000000000E+00 -0.18250000000E+03  0.18250000000E+03  0.00000000000E+00 0.  1.
        -11    1    1    2    0    0 -0.26594196112E+00  0.23755156745E+01  0.17424008869E+03  0.17425648426E+03  0.00000000000E+00 0.  1.
         11    1    1    2    0    0  0.20618343267E+02  0.48456599295E+01 -0.14438889391E+03  0.14593405766E+03  0.00000000000E+00 0.  1.
        -15    1    1    2    0    0 -0.23031729111E+02 -0.83817998189E+01 -0.32314077382E+02  0.40596458467E+02  0.17770000000E+01 0.  1.
         15    1    1    2    0    0  0.26793278049E+01  0.11606242149E+01  0.24628825997E+01  0.42129996148E+01  0.17770000000E+01 0.  1.
</event>
<event>
 6    1  0.1059789E-002  0.1848724E+03  0.7546771E-02  0.1066582E+00
        -11   -1    0    0    0    0  0.00000000000E+00  0.00000000000E+00  0.18250000000E+03  0.18250000000E+03  0.00000000000E+00 0. -1.
         11   -1    0    0    0    0 -0.00000000000E+00 -0.00000000000E+00 -0.18250000000E+03  0.18250000000E+03  0.00000000000E+00 0. -1.
        -11    1    1    2    0    0  0.21049237464E+01  0.28282758708E+01  0.17222475325E+03  0.17226083560E+03  0.00000000000E+00 0. -1.
         11    1    1    2    0    0 -0.21627913975E+01  0.14785716099E+01 -0.18010851274E+03  0.18012756647E+03  0.00000000000E+00 0. -1.
        -15    1    1    2    0    0 -0.13693517486E+01 -0.11897297487E+01 -0.11496438182E+01  0.27874703577E+01  0.17770000000E+01 0.  1.
         15    1    1    2    0    0  0.14272193998E+01 -0.31171177320E+01  0.90334033134E+01  0.98241275741E+01  0.17770000000E+01 0. -1.
</event>
<event>
 6    1  0.1059789E-002  0.1835766E+03  0.7546771E-02  0.1067601E+00
        -11   -1    0    0    0    0  0.00000000000E+00  0.00000000000E+00  0.18250000000E+03  0.18250000000E+03  0.00000000000E+00 0. -1.
         11   -1    0    0    0    0 -0.00000000000E+00 -0.00000000000E+00 -0.18250000000E+03  0.18250000000E+03  0.00000000000E+00 0.  1.
        -11    1    1    2    0    0 -0.25674614791E+01  0.15964284180E+01  0.17284368751E+03  0.17287012684E+03  0.00000000000E+00 0. -1.
         11    1    1    2    0    0  0.32775609682E+01  0.64150682533E+00 -0.18139263478E+03  0.18142337747E+03  0.00000000000E+00 0.  1.
        -15    1    1    2    0    0  0.61211952862E+00 -0.24958078597E+01  0.18157331766E+01  0.36136357258E+01  0.17770000000E+01 0. -1.
         15    1    1    2    0    0 -0.13222190178E+01  0.25787261635E+00  0.67332140990E+01  0.70928599676E+01  0.17770000000E+01 0.  1.
</event>
<event>
 6    1  0.1059789E-002  0.1680582E+03  0.7546771E-02  0.1080569E+00
        -11   -1    0    0    0    0  0.00000000000E+00  0.00000000000E+00  0.18250000000E+03  0.18250000000E+03  0.00000000000E+00 0. -1.
         11   -1    0    0    0    0 -0.00000000000E+00 -0.00000000000E+00 -0.18250000000E+03  0.18250000000E+03  0.00000000000E+00 0.  1.
        -11    1    1    2    0    0 -0.87704894521E+01 -0.16609975888E+01  0.16998503654E+03  0.17021924993E+03  0.00000000000E+00 0. -1.
         11    1    1    2    0    0 -0.91872716594E+01 -0.21674992899E+01 -0.16615211475E+03  0.16642003861E+03  0.00000000000E+00 0.  1.
        -15    1    1    2    0    0  0.26047603403E+01 -0.59969958059E+01  0.46089637784E+01  0.81944500265E+01  0.17770000000E+01 0. -1.
         15    1    1    2    0    0  0.15353000771E+02  0.98254926846E+01 -0.84418855692E+01  0.20166261432E+02  0.17770000000E+01 0.  1.
</event>
<event>
 6    1  0.1059789E-002  0.2157174E+03  0.7546771E-02  0.1044714E+00
        -11   -1    0    0    0    0  0.00000000000E+00  0.00000000000E+00  0.18250000000E+03  0.18250000000E+03  0.00000000000E+00 0. -1.
         11   -1    0    0    0    0 -0.00000000000E+00 -0.00000000000E+00 -0.18250000000E+03  0.18250000000E+03  0.00000000000E+00 0. -1.
        -11    1    1    2    0    0 -0.32087731831E+02 -0.35206178169E+01  0.14575077255E+03  0.14928263456E+03  0.00000000000E+00 0. -1.
         11    1    1    2    0    0 -0.25205917081E+00  0.26873163943E+01 -0.10549526967E+03  0.10552979260E+03  0.00000000000E+00 0. -1.
        -15    1    1    2    0    0  0.29942547496E+02  0.52076780854E+01  0.28217711237E+02  0.41509914696E+02  0.17770000000E+01 0.  1.
         15    1    1    2    0    0  0.23972435059E+01 -0.43743766628E+01 -0.68473214118E+02  0.68677658145E+02  0.17770000000E+01 0. -1.
</event>
<event>
 6    1  0.1059789E-002  0.1844020E+03  0.7546771E-02  0.1066951E+00
        -11   -1    0    0    0    0  0.00000000000E+00  0.00000000000E+00  0.18250000000E+03  0.18250000000E+03  0.00000000000E+00 0.  1.
         11   -1    0    0    0    0 -0.00000000000E+00 -0.00000000000E+00 -0.18250000000E+03  0.18250000000E+03  0.00000000000E+00 0.  1.
        -11    1    1    2    0    0  0.10163234473E+01  0.73488942676E+01  0.18044557682E+03  0.18059802146E+03  0.00000000000E+00 0.  1.
         11    1    1    2    0    0  0.10122125914E+01  0.24192616823E+01 -0.88510546587E+02  0.88549388809E+02  0.00000000000E+00 0.  1.
        -15    1    1    2    0    0  0.34659648239E+01 -0.15709466362E+02 -0.38270624518E+02  0.41552360649E+02  0.17770000000E+01 0. -1.
         15    1    1    2    0    0 -0.54945008627E+01  0.59413104117E+01 -0.53664405714E+02  0.54300229086E+02  0.17770000000E+01 0.  1.
</event>
<event>
 6    1  0.1059789E-002  0.1841854E+03  0.7546771E-02  0.1067121E+00
        -11   -1    0    0    0    0  0.00000000000E+00  0.00000000000E+00  0.18250000000E+03  0.18250000000E+03  0.00000000000E+00 0. -1.
         11   -1    0    0    0    0 -0.00000000000E+00 -0.00000000000E+00 -0.18250000000E+03  0.18250000000E+03  0.00000000000E+00 0.  1.
        -11    1    1    2    0    0 -0.29484877264E+01 -0.20570014484E+01  0.12911677109E+03  0.12916681235E+03  0.00000000000E+00 0. -1.
         11    1    1    2    0    0 -0.15036690883E+01  0.42883148430E+01 -0.18075744275E+03  0.18081455631E+03  0.00000000000E+00 0.  1.
        -15    1    1    2    0    0 -0.21963717305E+01  0.53950474631E+01  0.34516779463E+02  0.35049912687E+02  0.17770000000E+01 0. -1.
         15    1    1    2    0    0  0.66485285452E+01 -0.76263608577E+01  0.17123892192E+02  0.19968718651E+02  0.17770000000E+01 0.  1.
</event>
<event>
 6    1  0.1059789E-002  0.1839508E+03  0.7546771E-02  0.1067306E+00
        -11   -1    0    0    0    0  0.00000000000E+00  0.00000000000E+00  0.18250000000E+03  0.18250000000E+03  0.00000000000E+00 0.  1.
         11   -1    0    0    0    0 -0.00000000000E+00 -0.00000000000E+00 -0.18250000000E+03  0.18250000000E+03  0.00000000000E+00 0. -1.
        -11    1    1    2    0    0  0.13449246802E+01  0.72731354786E+01  0.18089809843E+03  0.18104924562E+03  0.00000000000E+00 0.  1.
         11    1    1    2    0    0 -0.29377376903E+00  0.22806035652E+01 -0.16157753373E+03  0.16159389488E+03  0.00000000000E+00 0. -1.
        -15    1    1    2    0    0  0.75854907781E+00 -0.16454088778E+01 -0.23303350815E+01  0.34454256153E+01  0.17770000000E+01 0. -1.
         15    1    1    2    0    0 -0.18096999890E+01 -0.79083301661E+01 -0.16990229626E+02  0.18911433891E+02  0.17770000000E+01 0.  1.
</event>
<event>
 6    1  0.1059789E-002  0.1826023E+03  0.7546771E-02  0.1068373E+00
        -11   -1    0    0    0    0  0.00000000000E+00  0.00000000000E+00  0.18250000000E+03  0.18250000000E+03  0.00000000000E+00 0. -1.
         11   -1    0    0    0    0 -0.00000000000E+00 -0.00000000000E+00 -0.18250000000E+03  0.18250000000E+03  0.00000000000E+00 0. -1.
        -11    1    1    2    0    0 -0.30798657919E+01 -0.45745122830E+00  0.18237112255E+03  0.18239770058E+03  0.00000000000E+00 0. -1.
         11    1    1    2    0    0  0.27200516765E+01 -0.44869906784E+00 -0.24585927282E+02  0.24740004695E+02  0.00000000000E+00 0. -1.
        -15    1    1    2    0    0  0.16402188670E+01  0.12051812040E+01 -0.93900230422E+02  0.93939096131E+02  0.17770000000E+01 0. -1.
         15    1    1    2    0    0 -0.12804047515E+01 -0.29903090781E+00 -0.63884964850E+02  0.63923198595E+02  0.17770000000E+01 0.  1.
</event>
<event>
 6    1  0.1059789E-002  0.1832450E+03  0.7546771E-02  0.1067863E+00
        -11   -1    0    0    0    0  0.00000000000E+00  0.00000000000E+00  0.18250000000E+03  0.18250000000E+03  0.00000000000E+00 0. -1.
         11   -1    0    0    0    0 -0.00000000000E+00 -0.00000000000E+00 -0.18250000000E+03  0.18250000000E+03  0.00000000000E+00 0.  1.
        -11    1    1    2    0    0  0.23241160641E+01  0.21499508619E+01  0.18172738770E+03  0.18175496484E+03  0.00000000000E+00 0. -1.
         11    1    1    2    0    0  0.14092862999E+01 -0.30425328448E+01 -0.75742852274E+02  0.75817034791E+02  0.00000000000E+00 0.  1.
        -15    1    1    2    0    0 -0.17522829985E+01  0.17360494418E+01 -0.10389846897E+03  0.10394293601E+03  0.17770000000E+01 0.  1.
         15    1    1    2    0    0 -0.19811193654E+01 -0.84346745882E+00 -0.20860664609E+01  0.34850643572E+01  0.17770000000E+01 0. -1.
</event>
<event>
 6    1  0.1059789E-002  0.1912493E+03  0.7546771E-02  0.1061696E+00
        -11   -1    0    0    0    0  0.00000000000E+00  0.00000000000E+00  0.18250000000E+03  0.18250000000E+03  0.00000000000E+00 0.  1.
         11   -1    0    0    0    0 -0.00000000000E+00 -0.00000000000E+00 -0.18250000000E+03  0.18250000000E+03  0.00000000000E+00 0.  1.
        -11    1    1    2    0    0  0.46357671287E+01 -0.43651049263E+01  0.17363396410E+03  0.17375067760E+03  0.00000000000E+00 0.  1.
         11    1    1    2    0    0  0.58787809191E+01  0.14505676075E+02 -0.93829555057E+02  0.95126022232E+02  0.00000000000E+00 0.  1.
        -15    1    1    2    0    0 -0.67637275290E+01 -0.24308019683E+00  0.62620078894E+01  0.93902912562E+01  0.17770000000E+01 0. -1.
         15    1    1    2    0    0 -0.37508205188E+01 -0.98974909517E+01 -0.86066416933E+02  0.86733008909E+02  0.17770000000E+01 0.  1.
</event>
<event>
 6    1  0.1059789E-002  0.1829704E+03  0.7546771E-02  0.1068081E+00
        -11   -1    0    0    0    0  0.00000000000E+00  0.00000000000E+00  0.18250000000E+03  0.18250000000E+03  0.00000000000E+00 0.  1.
         11   -1    0    0    0    0 -0.00000000000E+00 -0.00000000000E+00 -0.18250000000E+03  0.18250000000E+03  0.00000000000E+00 0. -1.
        -11    1    1    2    0    0 -0.17787181673E-01 -0.29220223241E+01  0.18200617107E+03  0.18202962626E+03  0.00000000000E+00 0.  1.
         11    1    1    2    0    0  0.32943413587E+01 -0.24001664741E+01 -0.14122224844E+03  0.14128105654E+03  0.00000000000E+00 0. -1.
        -15    1    1    2    0    0 -0.38763856745E+01  0.42063120491E+01 -0.34970614325E+02  0.35479867844E+02  0.17770000000E+01 0.  1.
         15    1    1    2    0    0  0.59983149749E+00  0.11158767490E+01 -0.58133083076E+01  0.62094493494E+01  0.17770000000E+01 0. -1.
</event>
<event>
 6    1  0.1059789E-002  0.1843894E+03  0.7546771E-02  0.1066961E+00
        -11   -1    0    0    0    0  0.00000000000E+00  0.00000000000E+00  0.18250000000E+03  0.18250000000E+03  0.00000000000E+00 0. -1.
         11   -1    0    0    0    0 -0.00000000000E+00 -0.00000000000E+00 -0.18250000000E+03  0.18250000000E+03  0.00000000000E+00 0.  1.
        -11    1    1    2    0    0  0.41102528726E+01 -0.99666048169E+00  0.18056111450E+03  0.18061064083E+03  0.00000000000E+00 0. -1.
         11    1    1    2    0    0  0.57263992258E+00 -0.27121204751E+01 -0.14851600152E+03  0.14854186690E+03  0.00000000000E+00 0.  1.
        -15    1    1    2    0    0 -0.73595494678E+01  0.17464007650E+01 -0.30973553162E+02  0.31933236737E+02  0.17770000000E+01 0.  1.
         15    1    1    2    0    0  0.26766566726E+01  0.19623801917E+01 -0.10715598220E+01  0.39142555374E+01  0.17770000000E+01 0. -1.
</event>
<event>
 6    1  0.1059789E-002  0.1835565E+03  0.7546771E-02  0.1067617E+00
        -11   -1    0    0    0    0  0.00000000000E+00  0.00000000000E+00  0.18250000000E+03  0.18250000000E+03  0.00000000000E+00 0. -1.
         11   -1    0    0    0    0 -0.00000000000E+00 -0.00000000000E+00 -0.18250000000E+03  0.18250000000E+03  0.00000000000E+00 0. -1.
        -11    1    1    2    0    0 -0.25795546025E+01 -0.53686486108E+01  0.18134572852E+03  0.18144351668E+03  0.00000000000E+00 0. -1.
         11    1    1    2    0    0 -0.13574356763E+01  0.64721801389E+01 -0.16497309191E+03  0.16510558077E+03  0.00000000000E+00 0. -1.
        -15    1    1    2    0    0  0.29161173074E+01 -0.32811924867E+01 -0.59324004688E+01  0.75908542739E+01  0.17770000000E+01 0. -1.
         15    1    1    2    0    0  0.10208729714E+01  0.21776609586E+01 -0.10440236141E+02  0.10860048276E+02  0.17770000000E+01 0.  1.
</event>
<event>
 6    1  0.1059789E-002  0.1835519E+03  0.7546771E-02  0.1067621E+00
        -11   -1    0    0    0    0  0.00000000000E+00  0.00000000000E+00  0.18250000000E+03  0.18250000000E+03  0.00000000000E+00 0.  1.
         11   -1    0    0    0    0 -0.00000000000E+00 -0.00000000000E+00 -0.18250000000E+03  0.18250000000E+03  0.00000000000E+00 0.  1.
        -11    1    1    2    0    0  0.24840735136E+01  0.50795568765E+01  0.13096426685E+03  0.13108627583E+03  0.00000000000E+00 0.  1.
         11    1    1    2    0    0  0.24537243599E+01  0.10422996919E+01 -0.18142846542E+03  0.18144805101E+03  0.00000000000E+00 0.  1.
        -15    1    1    2    0    0 -0.12920993612E+01 -0.28369011376E+01  0.44052021628E+02  0.44197917002E+02  0.17770000000E+01 0.  1.
         15    1    1    2    0    0 -0.36456985123E+01 -0.32849554309E+01  0.64121769388E+01  0.82677561599E+01  0.17770000000E+01 0.  1.
</event>
<event>
 6    1  0.1059789E-002  0.1856334E+03  0.7546771E-02  0.1065988E+00
        -11   -1    0    0    0    0  0.00000000000E+00  0.00000000000E+00  0.18250000000E+03  0.18250000000E+03  0.00000000000E+00 0. -1.
         11   -1    0    0    0    0 -0.00000000000E+00 -0.00000000000E+00 -0.18250000000E+03  0.18250000000E+03  0.00000000000E+00 0. -1.
        -11    1    1    2    0    0  0.63648443274E+01 -0.39380200463E+01  0.12563132888E+03  0.12585408234E+03  0.00000000000E+00 0. -1.
         11    1    1    2    0    0  0.18582830786E+01  0.26689496536E+01 -0.17933708057E+03  0.17936656593E+03  0.00000000000E+00 0. -1.
        -15    1    1    2    0    0 -0.92247621761E+01 -0.23965009146E+01  0.54630146251E+02  0.55483781975E+02  0.17770000000E+01 0. -1.
         15    1    1    2    0    0  0.10016347701E+01  0.36655713073E+01 -0.92439455939E+00  0.42955697553E+01  0.17770000000E+01 0.  1.
</event>
<event>
 6    1  0.2665070E-002  0.1697743E+03  0.7546771E-02  0.1079061E+00
        -11   -1    0    0    0    0  0.00000000000E+00  0.00000000000E+00  0.18250000000E+03  0.18250000000E+03  0.00000000000E+00 0.  1.
         11   -1    0    0    0    0 -0.00000000000E+00 -0.00000000000E+00 -0.18250000000E+03  0.18250000000E+03  0.00000000000E+00 0. -1.
        -11    1    1    2    0    0  0.49285392571E+00 -0.26636650203E+01  0.16958448694E+03  0.16960612085E+03  0.00000000000E+00 0.  1.
         11    1    1    2    0    0  0.55207235162E+00  0.68101424391E+01 -0.16983212609E+03  0.16996950867E+03  0.00000000000E+00 0. -1.
        -15    1    1    2    0    0 -0.79746922192E+00 -0.50940695475E+01 -0.11909627374E+02  0.13098948618E+02  0.17770000000E+01 0.  1.
         15    1    1    2    0    0 -0.24745705541E+00  0.94759212881E+00  0.12157266523E+02  0.12325421865E+02  0.17770000000E+01 0. -1.
</event>
<event>
 6    1  0.1059789E-002  0.1343196E+03  0.7546771E-02  0.1114963E+00
        -11   -1    0    0    0    0  0.00000000000E+00  0.00000000000E+00  0.18250000000E+03  0.18250000000E+03  0.00000000000E+00 0. -1.
         11   -1    0    0    0    0 -0.00000000000E+00 -0.00000000000E+00 -0.18250000000E+03  0.18250000000E+03  0.00000000000E+00 0.  1.
        -11    1    1    2    0    0  0.22265586902E-01 -0.10581257026E+01  0.25646889087E+02  0.25668717256E+02  0.00000000000E+00 0. -1.
         11    1    1    2    0    0 -0.20007879582E+01 -0.10986399227E+01 -0.11751796486E+03  0.11754013029E+03  0.00000000000E+00 0.  1.
        -15    1    1    2    0    0 -0.15463054450E+02 -0.19971777969E+02  0.15267090923E+03  0.15475639639E+03  0.17770000000E+01 0. -1.
         15    1    1    2    0    0  0.17441576822E+02  0.22128543595E+02 -0.60799833457E+02  0.67034756068E+02  0.17770000000E+01 0.  1.
</event>
<event>
 6    1  0.1059789E-002  0.1862306E+03  0.7546771E-02  0.1065523E+00
        -11   -1    0    0    0    0  0.00000000000E+00  0.00000000000E+00  0.18250000000E+03  0.18250000000E+03  0.00000000000E+00 0. -1.
         11   -1    0    0    0    0 -0.00000000000E+00 -0.00000000000E+00 -0.18250000000E+03  0.18250000000E+03  0.00000000000E+00 0. -1.
        -11    1    1    2    0    0 -0.25590236921E+01  0.57206527099E+00  0.17268505108E+03  0.17270495861E+03  0.00000000000E+00 0. -1.
         11    1    1    2    0    0 -0.16397056749E+01  0.43834135840E+01 -0.17870814727E+03  0.17876941811E+03  0.00000000000E+00 0. -1.
        -15    1    1    2    0    0  0.39862267951E+01 -0.24044912220E+01  0.82898935011E+01  0.96722099522E+01  0.17770000000E+01 0.  1.
         15    1    1    2    0    0  0.21250257182E+00 -0.25509876330E+01 -0.22667973092E+01  0.38534133294E+01  0.17770000000E+01 0. -1.
</event>
<event>
 6    1  0.1059789E-002  0.1748612E+03  0.7546771E-02  0.1074703E+00
        -11   -1    0    0    0    0  0.00000000000E+00  0.00000000000E+00  0.18250000000E+03  0.18250000000E+03  0.00000000000E+00 0. -1.
         11   -1    0    0    0    0 -0.00000000000E+00 -0.00000000000E+00 -0.18250000000E+03  0.18250000000E+03  0.00000000000E+00 0. -1.
        -11    1    1    2    0    0  0.22804688927E+01  0.11804118546E+01  0.17654960705E+03  0.17656828044E+03  0.00000000000E+00 0. -1.
         11    1    1    2    0    0  0.14159025853E+01 -0.92537125317E+01 -0.17303153289E+03  0.17328458486E+03  0.00000000000E+00 0. -1.
        -15    1    1    2    0    0 -0.33195019636E+01 -0.16757619170E+01  0.10133276008E+01  0.42440350040E+01  0.17770000000E+01 0. -1.
         15    1    1    2    0    0 -0.37686951443E+00  0.97490625941E+01 -0.45314017612E+01  0.10903099698E+02  0.17770000000E+01 0. -1.
</event>
<event>
 6    1  0.1059789E-002  0.1899099E+03  0.7546771E-02  0.1062705E+00
        -11   -1    0    0    0    0  0.00000000000E+00  0.00000000000E+00  0.18250000000E+03  0.18250000000E+03  0.00000000000E+00 0.  1.
         11   -1    0    0    0    0 -0.00000000000E+00 -0.00000000000E+00 -0.18250000000E+03  0.18250000000E+03  0.00000000000E+00 0. -1.
        -11    1    1    2    0    0 -0.74843319677E+01  0.35268556186E+01  0.17489455160E+03  0.17509014283E+03  0.00000000000E+00 0.  1.
         11    1    1    2    0    0  0.55923978173E+01 -0.23969541292E+01 -0.14785752065E+03  0.14798265681E+03  0.00000000000E+00 0. -1.
        -15    1    1    2    0    0  0.11396205990E+02  0.31915133239E+00  0.16170151070E+01  0.11651087305E+02  0.17770000000E+01 0. -1.
         15    1    1    2    0    0 -0.95042718395E+01 -0.14490528218E+01 -0.28654046057E+02  0.30276113055E+02  0.17770000000E+01 0.  1.
</event>
<event>
 6    1  0.1059789E-002  0.1848453E+03  0.7546771E-02  0.1066603E+00
        -11   -1    0    0    0    0  0.00000000000E+00  0.00000000000E+00  0.18250000000E+03  0.18250000000E+03  0.00000000000E+00 0. -1.
         11   -1    0    0    0    0 -0.00000000000E+00 -0.00000000000E+00 -0.18250000000E+03  0.18250000000E+03  0.00000000000E+00 0. -1.
        -11    1    1    2    0    0  0.66498316550E+01  0.50895777046E+00  0.18003116819E+03  0.18015465805E+03  0.00000000000E+00 0. -1.
         11    1    1    2    0    0  0.34724409832E+01 -0.23441842998E+01 -0.15784132250E+03  0.15789691616E+03  0.00000000000E+00 0. -1.
        -15    1    1    2    0    0 -0.10223199396E+02 -0.24047124761E+01 -0.16386906751E+02  0.19544433731E+02  0.17770000000E+01 0.  1.
         15    1    1    2    0    0  0.10092675819E+00  0.42399390054E+01 -0.58029389417E+01  0.74039920544E+01  0.17770000000E+01 0. -1.
</event>
<event>
 6    1  0.1059789E-002  0.1832296E+03  0.7546771E-02  0.1067876E+00
        -11   -1    0    0    0    0  0.00000000000E+00  0.00000000000E+00  0.18250000000E+03  0.18250000000E+03  0.00000000000E+00 0.  1.
         11   -1    0    0    0    0 -0.00000000000E+00 -0.00000000000E+00 -0.18250000000E+03  0.18250000000E+03  0.00000000000E+00 0. -1.
        -11    1    1    2    0    0  0.26702847742E+01 -0.57171684933E+01  0.89022805004E+02  0.89246155363E+02  0.00000000000E+00 0.  1.
         11    1    1    2    0    0 -0.93361501344E+01 -0.94787738880E+01 -0.18128280897E+03  0.18177037075E+03  0.00000000000E+00 0. -1.
        -15    1    1    2    0    0  0.18966523708E+01  0.21833541015E+01  0.10410399101E+02  0.10949815696E+02  0.17770000000E+01 0.  1.
         15    1    1    2    0    0  0.47692129894E+01  0.13012588280E+02  0.81849604868E+02  0.83033658189E+02  0.17770000000E+01 0. -1.
</event>
<event>
 6    1  0.1059789E-002  0.1857188E+03  0.7546771E-02  0.1065921E+00
        -11   -1    0    0    0    0  0.00000000000E+00  0.00000000000E+00  0.18250000000E+03  0.18250000000E+03  0.00000000000E+00 0.  1.
         11   -1    0    0    0    0 -0.00000000000E+00 -0.00000000000E+00 -0.18250000000E+03  0.18250000000E+03  0.00000000000E+00 0.  1.
        -11    1    1    2    0    0 -0.50991178945E+01 -0.14965982713E+01  0.17024206607E+03  0.17032498897E+03  0.00000000000E+00 0.  1.
         11    1    1    2    0    0 -0.20009441274E+01  0.28892912268E+01 -0.17924675434E+03  0.17928120572E+03  0.00000000000E+00 0.  1.
        -15    1    1    2    0    0  0.91247584320E+00 -0.29501625540E+01 -0.71308928660E+00  0.36334964690E+01  0.17770000000E+01 0. -1.
         15    1    1    2    0    0  0.61875861787E+01  0.15574695984E+01  0.97177775613E+01  0.11760308839E+02  0.17770000000E+01 0.  1.
</event>
<event>
 6    1  0.1059789E-002  0.1826144E+03  0.7546771E-02  0.1068364E+00
        -11   -1    0    0    0    0  0.00000000000E+00  0.00000000000E+00  0.18250000000E+03  0.18250000000E+03  0.00000000000E+00 0. -1.
         11   -1    0    0    0    0 -0.00000000000E+00 -0.00000000000E+00 -0.18250000000E+03  0.18250000000E+03  0.00000000000E+00 0. -1.
        -11    1    1    2    0    0 -0.42936647916E+01 -0.14709932772E+01  0.18232914746E+03  0.18238562825E+03  0.00000000000E+00 0. -1.
         11    1    1    2    0    0  0.24001836056E+01  0.37821627320E+01 -0.57812209195E+02  0.57985491015E+02  0.00000000000E+00 0. -1.
        -15    1    1    2    0    0 -0.21746647336E+00 -0.14601719486E+01 -0.44600688720E+02  0.44660480932E+02  0.17770000000E+01 0. -1.
         15    1    1    2    0    0  0.21109476594E+01 -0.85099750618E+00 -0.79916249545E+02  0.79968399803E+02  0.17770000000E+01 0. -1.
</event>
<event>
 6    1  0.1059789E-002  0.1860479E+03  0.7546771E-02  0.1065665E+00
        -11   -1    0    0    0    0  0.00000000000E+00  0.00000000000E+00  0.18250000000E+03  0.18250000000E+03  0.00000000000E+00 0. -1.
         11   -1    0    0    0    0 -0.00000000000E+00 -0.00000000000E+00 -0.18250000000E+03  0.18250000000E+03  0.00000000000E+00 0.  1.
        -11    1    1    2    0    0  0.34961768943E+01 -0.47232789671E+01  0.17885557027E+03  0.17895208194E+03  0.00000000000E+00 0. -1.
         11    1    1    2    0    0  0.38258936795E+01  0.10246970008E+01 -0.16848946769E+03  0.16853601451E+03  0.00000000000E+00 0.  1.
        -15    1    1    2    0    0 -0.52933380023E+01  0.40493732807E+01 -0.12349982726E+02  0.14145552429E+02  0.17770000000E+01 0. -1.
         15    1    1    2    0    0 -0.20287325715E+01 -0.35079131443E+00  0.19838801473E+01  0.33663511154E+01  0.17770000000E+01 0.  1.
</event>
<event>
 6    1  0.1059789E-002  0.1831992E+03  0.7546771E-02  0.1067900E+00
        -11   -1    0    0    0    0  0.00000000000E+00  0.00000000000E+00  0.18250000000E+03  0.18250000000E+03  0.00000000000E+00 0.  1.
         11   -1    0    0    0    0 -0.00000000000E+00 -0.00000000000E+00 -0.18250000000E+03  0.18250000000E+03  0.00000000000E+00 0. -1.
        -11    1    1    2    0    0 -0.17649638824E+01 -0.55550037515E+01  0.18170733592E+03  0.18180079507E+03  0.00000000000E+00 0.  1.
         11    1    1    2    0    0  0.65977032209E+01  0.37456601801E+01 -0.11165516353E+03  0.11191262307E+03  0.00000000000E+00 0. -1.
        -15    1    1    2    0    0 -0.11171588758E+01  0.54806721251E+01 -0.17769689557E+02  0.18713775858E+02  0.17770000000E+01 0. -1.
         15    1    1    2    0    0 -0.37155804627E+01 -0.36713285537E+01 -0.52282482824E+02  0.52572806001E+02  0.17770000000E+01 0.  1.
</event>
<event>
 6    1  0.1059789E-002  0.1827986E+03  0.7546771E-02  0.1068217E+00
        -11   -1    0    0    0    0  0.00000000000E+00  0.00000000000E+00  0.18250000000E+03  0.18250000000E+03  0.00000000000E+00 0. -1.
         11   -1    0    0    0    0 -0.00000000000E+00 -0.00000000000E+00 -0.18250000000E+03  0.18250000000E+03  0.00000000000E+00 0. -1.
        -11    1    1    2    0    0  0.32103317996E+00  0.48483744468E+00  0.36677688926E+02  0.36682298110E+02  0.00000000000E+00 0. -1.
         11    1    1    2    0    0  0.38129144493E+01  0.37293522901E+01 -0.18212327853E+03  0.18220135830E+03  0.00000000000E+00 0. -1.
        -15    1    1    2    0    0 -0.66018574451E+01 -0.93607090532E+00  0.41122103736E+02  0.41697072980E+02  0.17770000000E+01 0.  1.
         15    1    1    2    0    0  0.24679098159E+01 -0.32781188294E+01  0.10432348587E+03  0.10441927061E+03  0.17770000000E+01 0. -1.
</event>
<event>
 6    1  0.1059789E-002  0.1506410E+03  0.7546771E-02  0.1097087E+00
        -11   -1    0    0    0    0  0.00000000000E+00  0.00000000000E+00  0.18250000000E+03  0.18250000000E+03  0.00000000000E+00 0. -1.
         11   -1    0    0    0    0 -0.00000000000E+00 -0.00000000000E+00 -0.18250000000E+03  0.18250000000E+03  0.00000000000E+00 0.  1.
        -11    1    1    2    0    0 -0.49103987518E+01 -0.11813231625E+01  0.14918874774E+03  0.14927421074E+03  0.00000000000E+00 0. -1.
         11    1    1    2    0    0 -0.38039843747E+01 -0.29381294488E+01 -0.15210016954E+03  0.15217609693E+03  0.00000000000E+00 0.  1.
        -15    1    1    2    0    0  0.37598061218E+01  0.10374893514E+02 -0.28751846879E+02  0.30848030496E+02  0.17770000000E+01 0.  1.
         15    1    1    2    0    0  0.49545770047E+01 -0.62554409029E+01  0.31663268679E+02  0.32701661833E+02  0.17770000000E+01 0. -1.
</event>
<event>
 6    1  0.1059789E-002  0.1856164E+03  0.7546771E-02  0.1066001E+00
        -11   -1    0    0    0    0  0.00000000000E+00  0.00000000000E+00  0.18250000000E+03  0.18250000000E+03  0.00000000000E+00 0. -1.
         11   -1    0    0    0    0 -0.00000000000E+00 -0.00000000000E+00 -0.18250000000E+03  0.18250000000E+03  0.00000000000E+00 0. -1.
        -11    1    1    2    0    0 -0.32643039735E+01 -0.47245672287E+01  0.16270031144E+03  0.16280162333E+03  0.00000000000E+00 0. -1.
         11    1    1    2    0    0  0.16573181457E+01 -0.23579740247E+01 -0.17936043062E+03  0.17938358570E+03  0.00000000000E+00 0. -1.
        -15    1    1    2    0    0  0.61034313946E+01  0.56284427401E+01  0.15440247828E+02  0.17620732802E+02  0.17770000000E+01 0.  1.
         15    1    1    2    0    0 -0.44964455667E+01  0.14540985132E+01  0.12198713556E+01  0.51940581769E+01  0.17770000000E+01 0. -1.
</event>
<event>
 6    1  0.1059789E-002  0.1846911E+03  0.7546771E-02  0.1066724E+00
        -11   -1    0    0    0    0  0.00000000000E+00  0.00000000000E+00  0.18250000000E+03  0.18250000000E+03  0.00000000000E+00 0.  1.
         11   -1    0    0    0    0 -0.00000000000E+00 -0.00000000000E+00 -0.18250000000E+03  0.18250000000E+03  0.00000000000E+00 0.  1.
        -11    1    1    2    0    0 -0.99593174743E+00 -0.36848108963E+01  0.18026853708E+03  0.18030894368E+03  0.00000000000E+00 0.  1.
         11    1    1    2    0    0  0.24479112813E+01 -0.11443175371E+01 -0.17049991206E+03  0.17052132343E+03  0.00000000000E+00 0.  1.
        -15    1    1    2    0    0 -0.48684305077E+01  0.24641599854E+01 -0.57146517089E+01  0.80986834236E+01  0.17770000000E+01 0. -1.
         15    1    1    2    0    0  0.34164509738E+01  0.23649684481E+01 -0.40539733059E+01  0.60710494630E+01  0.17770000000E+01 0. -1.
</event>
<event>
 6    1  0.1059789E-002  0.1842440E+03  0.7546771E-02  0.1067075E+00
        -11   -1    0    0    0    0  0.00000000000E+00  0.00000000000E+00  0.18250000000E+03  0.18250000000E+03  0.00000000000E+00 0. -1.
         11   -1    0    0    0    0 -0.00000000000E+00 -0.00000000000E+00 -0.18250000000E+03  0.18250000000E+03  0.00000000000E+00 0. -1.
        -11    1    1    2    0    0 -0.65109880193E+01 -0.48382300870E+01  0.10718464040E+03  0.10749115579E+03  0.00000000000E+00 0. -1.
         11    1    1    2    0    0  0.23763597953E+01 -0.41846685742E+01 -0.18069189839E+03  0.18075596997E+03  0.00000000000E+00 0. -1.
        -15    1    1    2    0    0 -0.19106805232E+01  0.18908259262E+01  0.66336481576E+00  0.32899399119E+01  0.17770000000E+01 0.  1.
         15    1    1    2    0    0  0.60453087472E+01  0.71320727349E+01  0.72843893170E+02  0.73462934331E+02  0.17770000000E+01 0. -1.
</event>
<event>
 6    1  0.1059789E-002  0.1919233E+03  0.7546771E-02  0.1061192E+00
        -11   -1    0    0    0    0  0.00000000000E+00  0.00000000000E+00  0.18250000000E+03  0.18250000000E+03  0.00000000000E+00 0. -1.
         11   -1    0    0    0    0 -0.00000000000E+00 -0.00000000000E+00 -0.18250000000E+03  0.18250000000E+03  0.00000000000E+00 0.  1.
        -11    1    1    2    0    0 -0.79106617221E+00  0.12594352229E+01  0.92671479027E+02  0.92683412690E+02  0.00000000000E+00 0. -1.
         11    1    1    2    0    0 -0.18926510368E+01  0.34167136712E+01 -0.17303261227E+03  0.17307669101E+03  0.00000000000E+00 0.  1.
        -15    1    1    2    0    0  0.19191659725E+02  0.15763765416E+01  0.26375736716E+01  0.19517153734E+02  0.17770000000E+01 0. -1.
         15    1    1    2    0    0 -0.16507942516E+02 -0.62525254356E+01  0.77723559575E+02  0.79722742567E+02  0.17770000000E+01 0.  1.
</event>
<event>
 6    1  0.1059789E-002  0.1875958E+03  0.7546771E-02  0.1064469E+00
        -11   -1    0    0    0    0  0.00000000000E+00  0.00000000000E+00  0.18250000000E+03  0.18250000000E+03  0.00000000000E+00 0.  1.
         11   -1    0    0    0    0 -0.00000000000E+00 -0.00000000000E+00 -0.18250000000E+03  0.18250000000E+03  0.00000000000E+00 0. -1.
        -11    1    1    2    0    0  0.29415166433E+01  0.28468976951E+01  0.17647355515E+03  0.17652102712E+03  0.00000000000E+00 0.  1.
         11    1    1    2    0    0 -0.31198196261E+01 -0.18944545622E+01 -0.17736665869E+03  0.17740421034E+03  0.00000000000E+00 0. -1.
        -15    1    1    2    0    0  0.25051014468E+01 -0.22532534494E+01  0.47319650863E+01  0.60746939794E+01  0.17770000000E+01 0.  1.
         15    1    1    2    0    0 -0.23267984641E+01  0.13008103165E+01 -0.38388615519E+01  0.50000685581E+01  0.17770000000E+01 0. -1.
</event>
<event>
 6    1  0.1059789E-002  0.1827802E+03  0.7546771E-02  0.1068232E+00
        -11   -1    0    0    0    0  0.00000000000E+00  0.00000000000E+00  0.18250000000E+03  0.18250000000E+03  0.00000000000E+00 0. -1.
         11   -1    0    0    0    0 -0.00000000000E+00 -0.00000000000E+00 -0.18250000000E+03  0.18250000000E+03  0.00000000000E+00 0. -1.
        -11    1    1    2    0    0 -0.16624722584E+01 -0.12247412009E+01  0.11117241999E+03  0.11119159488E+03  0.00000000000E+00 0. -1.
         11    1    1    2    0    0  0.69876321367E+00  0.29891794499E+01 -0.18219397616E+03  0.18221983540E+03  0.00000000000E+00 0. -1.
        -15    1    1    2    0    0  0.43150328358E+01 -0.18767188728E+01  0.33484674373E+02  0.33860341537E+02  0.17770000000E+01 0.  1.
         15    1    1    2    0    0 -0.33513237910E+01  0.11228062380E+00  0.37536881798E+02  0.37728228188E+02  0.17770000000E+01 0. -1.
</event>
<event>
 6    1  0.1059789E-002  0.1834695E+03  0.7546771E-02  0.1067686E+00
        -11   -1    0    0    0    0  0.00000000000E+00  0.00000000000E+00  0.18250000000E+03  0.18250000000E+03  0.00000000000E+00 0. -1.
         11   -1    0    0    0    0 -0.00000000000E+00 -0.00000000000E+00 -0.18250000000E+03  0.18250000000E+03  0.00000000000E+00 0.  1.
        -11    1    1    2    0    0 -0.64720759473E+01 -0.43066182447E+01  0.18136400225E+03  0.18153053749E+03  0.00000000000E+00 0. -1.
         11    1    1    2    0    0 -0.17606454878E+01  0.12825394159E+01 -0.15421963598E+03  0.15423501840E+03  0.00000000000E+00 0.  1.
        -15    1    1    2    0    0  0.41840090350E+01  0.28140848928E+01 -0.20947573995E+02  0.21619056193E+02  0.17770000000E+01 0. -1.
         15    1    1    2    0    0  0.40487124000E+01  0.20999393604E+00 -0.61967922827E+01  0.76153879183E+01  0.17770000000E+01 0.  1.
</event>
<event>
 6    1  0.1059789E-002  0.1838004E+03  0.7546771E-02  0.1067424E+00
        -11   -1    0    0    0    0  0.00000000000E+00  0.00000000000E+00  0.18250000000E+03  0.18250000000E+03  0.00000000000E+00 0.  1.
         11   -1    0    0    0    0 -0.00000000000E+00 -0.00000000000E+00 -0.18250000000E+03  0.18250000000E+03  0.00000000000E+00 0.  1.
        -11    1    1    2    0    0  0.36523025094E+01  0.35923298545E+01  0.18112716804E+03  0.18119960030E+03  0.00000000000E+00 0.  1.
         11    1    1    2    0    0  0.22957427097E+01 -0.27261881337E+00 -0.13859351294E+03  0.13861279372E+03  0.00000000000E+00 0.  1.
        -15    1    1    2    0    0  0.36132405906E+01 -0.21889815680E+01 -0.21554674890E+02  0.22036535265E+02  0.17770000000E+01 0. -1.
         15    1    1    2    0    0 -0.95612858098E+01 -0.11307294732E+01 -0.20978980209E+02  0.23151070711E+02  0.17770000000E+01 0. -1.
</event>
<event>
 6    1  0.1059789E-002  0.1883815E+03  0.7546771E-02  0.1063867E+00
        -11   -1    0    0    0    0  0.00000000000E+00  0.00000000000E+00  0.18250000000E+03  0.18250000000E+03  0.00000000000E+00 0.  1.
         11   -1    0    0    0    0 -0.00000000000E+00 -0.00000000000E+00 -0.18250000000E+03  0.18250000000E+03  0.00000000000E+00 0. -1.
        -11    1    1    2    0    0 -0.44396724795E+01 -0.24648264644E+00  0.16744532704E+03  0.16750435514E+03  0.00000000000E+00 0.  1.
         11    1    1    2    0    0 -0.11665217966E+01  0.27999204915E+01 -0.17659241375E+03  0.17661846144E+03  0.00000000000E+00 0. -1.
        -15    1    1    2    0    0  0.44198411412E+00  0.15255766189E+01 -0.47968226302E+01  0.53563019260E+01  0.17770000000E+01 0.  1.
         15    1    1    2    0    0  0.51642101621E+01 -0.40790144639E+01  0.13943909340E+02  0.15520881492E+02  0.17770000000E+01 0. -1.
</event>
<event>
 6    1  0.1059789E-002  0.1827462E+03  0.7546771E-02  0.1068259E+00
        -11   -1    0    0    0    0  0.00000000000E+00  0.00000000000E+00  0.18250000000E+03  0.18250000000E+03  0.00000000000E+00 0. -1.
         11   -1    0    0    0    0 -0.00000000000E+00 -0.00000000000E+00 -0.18250000000E+03  0.18250000000E+03  0.00000000000E+00 0. -1.
        -11    1    1    2    0    0  0.18996662158E+01  0.44569692942E+01  0.18218939950E+03  0.18225380818E+03  0.00000000000E+00 0. -1.
         11    1    1    2    0    0  0.27283710766E+01 -0.14819378072E+01 -0.68332164148E+02  0.68402666655E+02  0.00000000000E+00 0. -1.
        -15    1    1    2    0    0 -0.21054542057E+01  0.59371693926E+00 -0.88878381705E+02  0.88923056070E+02  0.17770000000E+01 0.  1.
         15    1    1    2    0    0 -0.25225830867E+01 -0.35687484263E+01 -0.24978853643E+02  0.25420469096E+02  0.17770000000E+01 0.  1.
</event>
<event>
 6    1  0.1059789E-002  0.1841109E+03  0.7546771E-02  0.1067180E+00
        -11   -1    0    0    0    0  0.00000000000E+00  0.00000000000E+00  0.18250000000E+03  0.18250000000E+03  0.00000000000E+00 0.  1.
         11   -1    0    0    0    0 -0.00000000000E+00 -0.00000000000E+00 -0.18250000000E+03  0.18250000000E+03  0.00000000000E+00 0. -1.
        -11    1    1    2    0    0  0.30503864271E+01  0.41650754136E+00  0.18086290683E+03  0.18088910802E+03  0.00000000000E+00 0.  1.
         11    1    1    2    0    0 -0.15986934443E-01  0.56945772609E+01 -0.13152859227E+03  0.13165180990E+03  0.00000000000E+00 0. -1.
        -15    1    1    2    0    0 -0.30522984811E+01 -0.28706490241E+01 -0.19843892591E+01  0.49651466815E+01  0.17770000000E+01 0.  1.
         15    1    1    2    0    0  0.17898988473E-01 -0.32404357781E+01 -0.47349925298E+02  0.47493935393E+02  0.17770000000E+01 0. -1.
</event>
<event>
 6    1  0.1059789E-002  0.1827223E+03  0.7546771E-02  0.1068278E+00
        -11   -1    0    0    0    0  0.00000000000E+00  0.00000000000E+00  0.18250000000E+03  0.18250000000E+03  0.00000000000E+00 0. -1.
         11   -1    0    0    0    0 -0.00000000000E+00 -0.00000000000E+00 -0.18250000000E+03  0.18250000000E+03  0.00000000000E+00 0. -1.
        -11    1    1    2    0    0  0.90994319507E+00 -0.17015320231E+01  0.59264098611E+02  0.59295502291E+02  0.00000000000E+00 0. -1.
         11    1    1    2    0    0 -0.16537039599E+01 -0.58237611128E+01 -0.18217715945E+03  0.18227772315E+03  0.00000000000E+00 0. -1.
        -15    1    1    2    0    0  0.98782208064E+00 -0.55051615344E+00  0.50284418443E+02  0.50328514062E+02  0.17770000000E+01 0. -1.
         15    1    1    2    0    0 -0.24406131578E+00  0.80758092893E+01  0.72628642400E+02  0.73098260496E+02  0.17770000000E+01 0.  1.
</event>
<event>
 6    1  0.1059789E-002  0.1831022E+03  0.7546771E-02  0.1067976E+00
        -11   -1    0    0    0    0  0.00000000000E+00  0.00000000000E+00  0.18250000000E+03  0.18250000000E+03  0.00000000000E+00 0. -1.
         11   -1    0    0    0    0 -0.00000000000E+00 -0.00000000000E+00 -0.18250000000E+03  0.18250000000E+03  0.00000000000E+00 0.  1.
        -11    1    1    2    0    0 -0.75290390921E+00  0.44508367200E+01  0.64996807773E+02  0.65153371612E+02  0.00000000000E+00 0. -1.
         11    1    1    2    0    0  0.55679304573E+01  0.49448505237E+01 -0.18174534589E+03  0.18189783987E+03  0.00000000000E+00 0.  1.
        -15    1    1    2    0    0 -0.12237555131E+01 -0.90329022796E+01  0.10700552865E+03  0.10740778273E+03  0.17770000000E+01 0. -1.
         15    1    1    2    0    0 -0.35912710350E+01 -0.36278496407E+00  0.97430094639E+01  0.10541005786E+02  0.17770000000E+01 0.  1.
</event>
<event>
 6    1  0.1059789E-002  0.1846304E+03  0.7546771E-02  0.1066772E+00
        -11   -1    0    0    0    0  0.00000000000E+00  0.00000000000E+00  0.18250000000E+03  0.18250000000E+03  0.00000000000E+00 0.  1.
         11   -1    0    0    0    0 -0.00000000000E+00 -0.00000000000E+00 -0.18250000000E+03  0.18250000000E+03  0.00000000000E+00 0. -1.
        -11    1    1    2    0    0 -0.11022314329E+01  0.57949334964E+01  0.18027308771E+03  0.18036957149E+03  0.00000000000E+00 0.  1.
         11    1    1    2    0    0 -0.86098284069E+00  0.19201442402E+01 -0.14798260465E+03  0.14799756594E+03  0.00000000000E+00 0. -1.
        -15    1    1    2    0    0  0.29321247613E+01  0.30694656932E+01 -0.33790228245E+01  0.57091592644E+01  0.17770000000E+01 0.  1.
         15    1    1    2    0    0 -0.96891048771E+00 -0.10784543430E+02 -0.28911460235E+02  0.30923703310E+02  0.17770000000E+01 0. -1.
</event>
<event>
 6    1  0.1059789E-002  0.1826525E+03  0.7546771E-02  0.1068333E+00
        -11   -1    0    0    0    0  0.00000000000E+00  0.00000000000E+00  0.18250000000E+03  0.18250000000E+03  0.00000000000E+00 0. -1.
         11   -1    0    0    0    0 -0.00000000000E+00 -0.00000000000E+00 -0.18250000000E+03  0.18250000000E+03  0.00000000000E+00 0.  1.
        -11    1    1    2    0    0 -0.30750767862E+01 -0.29190874860E+01  0.18229820234E+03  0.18234750271E+03  0.00000000000E+00 0. -1.
         11    1    1    2    0    0  0.89641238482E+00  0.21661836009E+01 -0.45705994343E+02  0.45766077235E+02  0.00000000000E+00 0.  1.
        -15    1    1    2    0    0  0.27597325699E+01 -0.27615582536E+01 -0.96948071691E+02  0.97042921748E+02  0.17770000000E+01 0.  1.
         15    1    1    2    0    0 -0.58106816843E+00  0.35144621388E+01 -0.39644136309E+02  0.39843498303E+02  0.17770000000E+01 0. -1.
</event>
<event>
 6    1  0.1059789E-002  0.1896620E+03  0.7546771E-02  0.1062893E+00
        -11   -1    0    0    0    0  0.00000000000E+00  0.00000000000E+00  0.18250000000E+03  0.18250000000E+03  0.00000000000E+00 0. -1.
         11   -1    0    0    0    0 -0.00000000000E+00 -0.00000000000E+00 -0.18250000000E+03  0.18250000000E+03  0.00000000000E+00 0.  1.
        -11    1    1    2    0    0 -0.11389198504E+01 -0.40849086208E+00  0.73248448621E+02  0.73258441347E+02  0.00000000000E+00 0. -1.
         11    1    1    2    0    0  0.18370089160E+01  0.32980932459E+01 -0.17529737536E+03  0.17533802163E+03  0.00000000000E+00 0.  1.
        -15    1    1    2    0    0  0.46895196494E+01 -0.82910526395E+01 -0.36946572408E+01  0.10370215501E+02  0.17770000000E+01 0.  1.
         15    1    1    2    0    0 -0.53876087150E+01  0.54014502557E+01  0.10574358398E+03  0.10603332153E+03  0.17770000000E+01 0. -1.
</event>
<event>
 6    1  0.1059789E-002  0.1834127E+03  0.7546771E-02  0.1067731E+00
        -11   -1    0    0    0    0  0.00000000000E+00  0.00000000000E+00  0.18250000000E+03  0.18250000000E+03  0.00000000000E+00 0. -1.
         11   -1    0    0    0    0 -0.00000000000E+00 -0.00000000000E+00 -0.18250000000E+03  0.18250000000E+03  0.00000000000E+00 0. -1.
        -11    1    1    2    0    0  0.13140011337E+02 -0.15566149229E+01  0.18110452322E+03  0.18158725528E+03  0.00000000000E+00 0. -1.
         11    1    1    2    0    0 -0.21909976028E+01  0.35207396306E+01 -0.49691822275E+02  0.49864549322E+02  0.00000000000E+00 0. -1.
        -15    1    1    2    0    0 -0.12668534855E+02 -0.88770532616E+01 -0.10443128696E+03  0.10558572477E+03  0.17770000000E+01 0. -1.
         15    1    1    2    0    0  0.17195211211E+01  0.69129285539E+01 -0.26981413986E+02  0.27962470630E+02  0.17770000000E+01 0.  1.
</event>
<event>
 6    1  0.1059789E-002  0.1843860E+03  0.7546771E-02  0.1066963E+00
        -11   -1    0    0    0    0  0.00000000000E+00  0.00000000000E+00  0.18250000000E+03  0.18250000000E+03  0.00000000000E+00 0. -1.
         11   -1    0    0    0    0 -0.00000000000E+00 -0.00000000000E+00 -0.18250000000E+03  0.18250000000E+03  0.00000000000E+00 0. -1.
        -11    1    1    2    0    0 -0.49395201261E+01 -0.16593837435E+01  0.99247906679E+02  0.99384603403E+02  0.00000000000E+00 0. -1.
         11    1    1    2    0    0 -0.23940699789E+01 -0.81971075769E+00 -0.18059629303E+03  0.18061402092E+03  0.00000000000E+00 0. -1.
        -15    1    1    2    0    0  0.52826557331E+01  0.49034018291E+01  0.59458363304E+01  0.95110724821E+01  0.17770000000E+01 0. -1.
         15    1    1    2    0    0  0.20509343719E+01 -0.24243073279E+01  0.75402550020E+02  0.75490303195E+02  0.17770000000E+01 0.  1.
</event>
<event>
 6    1  0.1059789E-002  0.1846943E+03  0.7546771E-02  0.1066721E+00
        -11   -1    0    0    0    0  0.00000000000E+00  0.00000000000E+00  0.18250000000E+03  0.18250000000E+03  0.00000000000E+00 0.  1.
         11   -1    0    0    0    0 -0.00000000000E+00 -0.00000000000E+00 -0.18250000000E+03  0.18250000000E+03  0.00000000000E+00 0. -1.
        -11    1    1    2    0    0 -0.10306892060E+02 -0.43784212077E+00  0.18001031229E+03  0.18030567451E+03  0.00000000000E+00 0.  1.
         11    1    1    2    0    0  0.26526035297E+01  0.10942025821E+02 -0.12501744025E+03  0.12552340260E+03  0.00000000000E+00 0. -1.
        -15    1    1    2    0    0  0.12481142660E+02 -0.50414578570E+01 -0.27451258374E+02  0.30625553624E+02  0.17770000000E+01 0. -1.
         15    1    1    2    0    0 -0.48268541293E+01 -0.54627258430E+01 -0.27541613667E+02  0.28545369271E+02  0.17770000000E+01 0.  1.
</event>
<event>
 6    1  0.1059789E-002  0.1859334E+03  0.7546771E-02  0.1065754E+00
        -11   -1    0    0    0    0  0.00000000000E+00  0.00000000000E+00  0.18250000000E+03  0.18250000000E+03  0.00000000000E+00 0.  1.
         11   -1    0    0    0    0 -0.00000000000E+00 -0.00000000000E+00 -0.18250000000E+03  0.18250000000E+03  0.00000000000E+00 0.  1.
        -11    1    1    2    0    0 -0.24198889090E+01 -0.49947999352E+00  0.16472466923E+03  0.16474320015E+03  0.00000000000E+00 0.  1.
         11    1    1    2    0    0  0.43042436028E+01 -0.58474583909E+01 -0.17891928943E+03  0.17906655582E+03  0.00000000000E+00 0.  1.
        -15    1    1    2    0    0 -0.66873926326E+01 -0.44159403645E+00  0.43662428203E+01  0.81937800118E+01  0.17770000000E+01 0.  1.
         15    1    1    2    0    0  0.48030379389E+01  0.67885324209E+01  0.98283773807E+01  0.12996464012E+02  0.17770000000E+01 0. -1.
</event>
<event>
 6    1  0.1059789E-002  0.1742078E+03  0.7546771E-02  0.1075254E+00
        -11   -1    0    0    0    0  0.00000000000E+00  0.00000000000E+00  0.18250000000E+03  0.18250000000E+03  0.00000000000E+00 0.  1.
         11   -1    0    0    0    0 -0.00000000000E+00 -0.00000000000E+00 -0.18250000000E+03  0.18250000000E+03  0.00000000000E+00 0.  1.
        -11    1    1    2    0    0  0.20391273583E+01  0.38398150778E+01  0.17278676453E+03  0.17284145399E+03  0.00000000000E+00 0.  1.
         11    1    1    2    0    0  0.96240138541E+00  0.31827881632E+01 -0.17563797375E+03  0.17566944578E+03  0.00000000000E+00 0.  1.
        -15    1    1    2    0    0 -0.91892466814E+00 -0.32677249018E+01  0.84112817168E+01  0.92428262831E+01  0.17770000000E+01 0.  1.
         15    1    1    2    0    0 -0.20826040755E+01 -0.37548783391E+01 -0.55600724945E+01  0.72462739543E+01  0.17770000000E+01 0.  1.
</event>
<event>
 6    1  0.1059789E-002  0.1840106E+03  0.7546771E-02  0.1067259E+00
        -11   -1    0    0    0    0  0.00000000000E+00  0.00000000000E+00  0.18250000000E+03  0.18250000000E+03  0.00000000000E+00 0. -1.
         11   -1    0    0    0    0 -0.00000000000E+00 -0.00000000000E+00 -0.18250000000E+03  0.18250000000E+03  0.00000000000E+00 0.  1.
        -11    1    1    2    0    0 -0.16803254492E+01  0.45408448561E+01  0.10847589520E+03  0.10858389662E+03  0.00000000000E+00 0. -1.
         11    1    1    2    0    0 -0.12604710212E+01 -0.80504766159E+01 -0.18080583979E+03  0.18098936616E+03  0.00000000000E+00 0.  1.
        -15    1    1    2    0    0 -0.90197947580E-01 -0.57055061656E+01  0.56226897083E+02  0.56543634663E+02  0.17770000000E+01 0. -1.
         15    1    1    2    0    0  0.30309944180E+01  0.92151379254E+01  0.16103047508E+02  0.18883102557E+02  0.17770000000E+01 0. -1.
</event>
<event>
 6    1  0.1059789E-002  0.1844009E+03  0.7546771E-02  0.1066952E+00
        -11   -1    0    0    0    0  0.00000000000E+00  0.00000000000E+00  0.18250000000E+03  0.18250000000E+03  0.00000000000E+00 0.  1.
         11   -1    0    0    0    0 -0.00000000000E+00 -0.00000000000E+00 -0.18250000000E+03  0.18250000000E+03  0.00000000000E+00 0. -1.
        -11    1    1    2    0    0 -0.12867238369E+01  0.38542819978E+01  0.18055341501E+03  0.18059913295E+03  0.00000000000E+00 0.  1.
         11    1    1    2    0    0 -0.16652809290E+01 -0.15655329615E+01 -0.14535666101E+03  0.14537462968E+03  0.00000000000E+00 0. -1.
        -15    1    1    2    0    0 -0.35931692399E+01  0.37005247978E+01 -0.46523514925E+01  0.71698572075E+01  0.17770000000E+01 0. -1.
         15    1    1    2    0    0  0.65451740058E+01 -0.59892738341E+01 -0.30544402509E+02  0.31856380168E+02  0.17770000000E+01 0.  1.
</event>
<event>
 6    1  0.1059789E-002  0.1832229E+03  0.7546771E-02  0.1067881E+00
        -11   -1    0    0    0    0  0.00000000000E+00  0.00000000000E+00  0.18250000000E+03  0.18250000000E+03  0.00000000000E+00 0. -1.
         11   -1    0    0    0    0 -0.00000000000E+00 -0.00000000000E+00 -0.18250000000E+03  0.18250000000E+03  0.00000000000E+00 0. -1.
        -11    1    1    2    0    0 -0.25720089557E+01 -0.20468351606E+01  0.18174741574E+03  0.18177713798E+03  0.00000000000E+00 0. -1.
         11    1    1    2    0    0 -0.67948180169E+00  0.30238202690E+01 -0.14852631994E+03  0.14855865138E+03  0.00000000000E+00 0. -1.
        -15    1    1    2    0    0  0.27065975560E+00  0.16545458672E+01 -0.20467608116E+01  0.31871205735E+01  0.17770000000E+01 0. -1.
         15    1    1    2    0    0  0.29808310018E+01 -0.26315309756E+01 -0.31174334984E+02  0.31477090073E+02  0.17770000000E+01 0.  1.
</event>
<event>
 6    1  0.1059789E-002  0.1827858E+03  0.7546771E-02  0.1068228E+00
        -11   -1    0    0    0    0  0.00000000000E+00  0.00000000000E+00  0.18250000000E+03  0.18250000000E+03  0.00000000000E+00 0.  1.
         11   -1    0    0    0    0 -0.00000000000E+00 -0.00000000000E+00 -0.18250000000E+03  0.18250000000E+03  0.00000000000E+00 0. -1.
        -11    1    1    2    0    0 -0.15642253217E+01 -0.78845535076E+00  0.12462865672E+03  0.12464096653E+03  0.00000000000E+00 0.  1.
         11    1    1    2    0    0  0.39596080362E+00 -0.46423404484E+01 -0.18215458475E+03  0.18221416206E+03  0.00000000000E+00 0. -1.
        -15    1    1    2    0    0  0.26862771196E+01  0.50679974972E+01  0.44848072219E+02  0.45248292721E+02  0.17770000000E+01 0.  1.
         15    1    1    2    0    0 -0.15180126016E+01  0.36279830197E+00  0.12677855811E+02  0.12896578687E+02  0.17770000000E+01 0. -1.
</event>
<event>
 6    1  0.1059789E-002  0.1833688E+03  0.7546771E-02  0.1067765E+00
        -11   -1    0    0    0    0  0.00000000000E+00  0.00000000000E+00  0.18250000000E+03  0.18250000000E+03  0.00000000000E+00 0. -1.
         11   -1    0    0    0    0 -0.00000000000E+00 -0.00000000000E+00 -0.18250000000E+03  0.18250000000E+03  0.00000000000E+00 0.  1.
        -11    1    1    2    0    0 -0.50896001991E+01  0.22096372531E+01  0.18154639694E+03  0.18163116684E+03  0.00000000000E+00 0. -1.
         11    1    1    2    0    0  0.11608364335E+01 -0.28468338648E+01 -0.13389113989E+03  0.13392643258E+03  0.00000000000E+00 0.  1.
        -15    1    1    2    0    0 -0.96774270220E+00  0.17085891105E+01 -0.40187078309E+02  0.40274244806E+02  0.17770000000E+01 0. -1.
         15    1    1    2    0    0  0.48965064678E+01 -0.10713924988E+01 -0.74681787433E+01  0.91681557697E+01  0.17770000000E+01 0.  1.
</event>
<event>
 6    1  0.1059789E-002  0.1854808E+03  0.7546771E-02  0.1066107E+00
        -11   -1    0    0    0    0  0.00000000000E+00  0.00000000000E+00  0.18250000000E+03  0.18250000000E+03  0.00000000000E+00 0. -1.
         11   -1    0    0    0    0 -0.00000000000E+00 -0.00000000000E+00 -0.18250000000E+03  0.18250000000E+03  0.00000000000E+00 0. -1.
        -11    1    1    2    0    0  0.15842384634E+01  0.37371404682E+01  0.17947328353E+03  0.17951917873E+03  0.00000000000E+00 0. -1.
         11    1    1    2    0    0 -0.20508769707E+01  0.30327504235E+01 -0.15447602608E+03  0.15451940430E+03  0.00000000000E+00 0. -1.
        -15    1    1    2    0    0  0.30239244474E+01  0.89678625801E+00  0.93654734174E+00  0.37394109936E+01  0.17770000000E+01 0. -1.
         15    1    1    2    0    0 -0.25572859401E+01 -0.76666771497E+01 -0.25933804791E+02  0.27222005985E+02  0.17770000000E+01 0.  1.
</event>
<event>
 6    1  0.1059789E-002  0.1830198E+03  0.7546771E-02  0.1068042E+00
        -11   -1    0    0    0    0  0.00000000000E+00  0.00000000000E+00  0.18250000000E+03  0.18250000000E+03  0.00000000000E+00 0.  1.
         11   -1    0    0    0    0 -0.00000000000E+00 -0.00000000000E+00 -0.18250000000E+03  0.18250000000E+03  0.00000000000E+00 0.  1.
        -11    1    1    2    0    0  0.62511981246E+01  0.63723405501E+00  0.18187167368E+03  0.18198018912E+03  0.00000000000E+00 0.  1.
         11    1    1    2    0    0 -0.15293824758E+01  0.76794124338E+00 -0.11620588069E+03  0.11621848154E+03  0.00000000000E+00 0.  1.
        -15    1    1    2    0    0 -0.34120609261E+01  0.29086999037E+01 -0.53333409498E+02  0.53551031667E+02  0.17770000000E+01 0. -1.
         15    1    1    2    0    0 -0.13097547226E+01 -0.43138752021E+01 -0.12332383494E+02  0.13250297669E+02  0.17770000000E+01 0.  1.
</event>
<event>
 6    1  0.1059789E-002  0.2027316E+03  0.7546771E-02  0.1053402E+00
        -11   -1    0    0    0    0  0.00000000000E+00  0.00000000000E+00  0.18250000000E+03  0.18250000000E+03  0.00000000000E+00 0. -1.
         11   -1    0    0    0    0 -0.00000000000E+00 -0.00000000000E+00 -0.18250000000E+03  0.18250000000E+03  0.00000000000E+00 0. -1.
        -11    1    1    2    0    0 -0.36259974637E+01  0.21420143278E+01  0.16221376173E+03  0.16226842138E+03  0.00000000000E+00 0. -1.
         11    1    1    2    0    0 -0.99541193864E+01  0.82281916060E+01 -0.80422127305E+02  0.81452478109E+02  0.00000000000E+00 0. -1.
        -15    1    1    2    0    0  0.14857129342E+02 -0.40823754596E+02 -0.79559889051E+02  0.90665577296E+02  0.17770000000E+01 0. -1.
         15    1    1    2    0    0 -0.12770124918E+01  0.30453548662E+02 -0.22317453762E+01  0.30613523212E+02  0.17770000000E+01 0.  1.
</event>
<event>
 6    1  0.1059789E-002  0.1853709E+03  0.7546771E-02  0.1066192E+00
        -11   -1    0    0    0    0  0.00000000000E+00  0.00000000000E+00  0.18250000000E+03  0.18250000000E+03  0.00000000000E+00 0. -1.
         11   -1    0    0    0    0 -0.00000000000E+00 -0.00000000000E+00 -0.18250000000E+03  0.18250000000E+03  0.00000000000E+00 0. -1.
        -11    1    1    2    0    0  0.31487432277E+01  0.92727877590E+00  0.17959915459E+03  0.17962914785E+03  0.00000000000E+00 0. -1.
         11    1    1    2    0    0  0.12296909197E+01  0.11898056127E+01 -0.11819928128E+03  0.11821166555E+03  0.00000000000E+00 0. -1.
        -15    1    1    2    0    0 -0.15553123678E-01 -0.84165512751E+01 -0.57924141532E+02  0.58559392743E+02  0.17770000000E+01 0. -1.
         15    1    1    2    0    0 -0.43628810237E+01  0.62994668865E+01 -0.34757317756E+01  0.85997938497E+01  0.17770000000E+01 0.  1.
</event>
<event>
 6    1  0.1059789E-002  0.1879556E+03  0.7546771E-02  0.1064193E+00
        -11   -1    0    0    0    0  0.00000000000E+00  0.00000000000E+00  0.18250000000E+03  0.18250000000E+03  0.00000000000E+00 0. -1.
         11   -1    0    0    0    0 -0.00000000000E+00 -0.00000000000E+00 -0.18250000000E+03  0.18250000000E+03  0.00000000000E+00 0. -1.
        -11    1    1    2    0    0  0.79474264892E+00 -0.29804008232E+01  0.17701756647E+03  0.17704443861E+03  0.00000000000E+00 0. -1.
         11    1    1    2    0    0  0.30800547064E+01  0.16237916005E+01 -0.17241022018E+03  0.17244537529E+03  0.00000000000E+00 0. -1.
        -15    1    1    2    0    0  0.22212428748E+01  0.41391159416E+01  0.24753867687E+01  0.55992382823E+01  0.17770000000E+01 0.  1.
         15    1    1    2    0    0 -0.60960402302E+01 -0.27825067189E+01 -0.70827330516E+01  0.99109478159E+01  0.17770000000E+01 0. -1.
</event>
<event>
 6    1  0.1059789E-002  0.1843437E+03  0.7546771E-02  0.1066997E+00
        -11   -1    0    0    0    0  0.00000000000E+00  0.00000000000E+00  0.18250000000E+03  0.18250000000E+03  0.00000000000E+00 0. -1.
         11   -1    0    0    0    0 -0.00000000000E+00 -0.00000000000E+00 -0.18250000000E+03  0.18250000000E+03  0.00000000000E+00 0. -1.
        -11    1    1    2    0    0 -0.40639964931E+00  0.37683475646E+01  0.18061654463E+03  0.18065630849E+03  0.00000000000E+00 0. -1.
         11    1    1    2    0    0 -0.17369287726E+01 -0.48174567485E+01 -0.16627458339E+03  0.16635342465E+03  0.00000000000E+00 0. -1.
        -15    1    1    2    0    0  0.20481079189E+01 -0.23207024332E+00  0.68323223047E+00  0.28059112470E+01  0.17770000000E+01 0. -1.
         15    1    1    2    0    0  0.95220502981E-01  0.12811794272E+01 -0.15025193466E+02  0.15184355612E+02  0.17770000000E+01 0.  1.
</event>
<event>
 6    1  0.1059789E-002  0.1825582E+03  0.7546771E-02  0.1068409E+00
        -11   -1    0    0    0    0  0.00000000000E+00  0.00000000000E+00  0.18250000000E+03  0.18250000000E+03  0.00000000000E+00 0. -1.
         11   -1    0    0    0    0 -0.00000000000E+00 -0.00000000000E+00 -0.18250000000E+03  0.18250000000E+03  0.00000000000E+00 0. -1.
        -11    1    1    2    0    0 -0.75148418413E+00  0.41359071474E+01  0.18239339683E+03  0.18244183091E+03  0.00000000000E+00 0. -1.
         11    1    1    2    0    0  0.40311013097E+00  0.33431916821E+00 -0.26926888919E+02  0.26931981248E+02  0.00000000000E+00 0. -1.
        -15    1    1    2    0    0  0.59197037592E+00 -0.11769434437E+01 -0.10388265675E+03  0.10390620639E+03  0.17770000000E+01 0. -1.
         15    1    1    2    0    0 -0.24359632276E+00 -0.32932828718E+01 -0.51583851166E+02  0.51719981451E+02  0.17770000000E+01 0.  1.
</event>
<event>
 6    1  0.1059789E-002  0.1858898E+03  0.7546771E-02  0.1065788E+00
        -11   -1    0    0    0    0  0.00000000000E+00  0.00000000000E+00  0.18250000000E+03  0.18250000000E+03  0.00000000000E+00 0. -1.
         11   -1    0    0    0    0 -0.00000000000E+00 -0.00000000000E+00 -0.18250000000E+03  0.18250000000E+03  0.00000000000E+00 0.  1.
        -11    1    1    2    0    0  0.75458153598E+01  0.91366986046E+01  0.13126427334E+03  0.13179805783E+03  0.00000000000E+00 0. -1.
         11    1    1    2    0    0 -0.12320469762E+02 -0.25812022460E+01 -0.17866734520E+03  0.17911023651E+03  0.00000000000E+00 0.  1.
        -15    1    1    2    0    0 -0.67054546015E+01 -0.18392191467E+01  0.37316471678E+02  0.38000297840E+02  0.17770000000E+01 0.  1.
         15    1    1    2    0    0  0.11480109004E+02 -0.47162772119E+01  0.10086600185E+02  0.16091407824E+02  0.17770000000E+01 0. -1.
</event>
<event>
 6    1  0.1059789E-002  0.1827872E+03  0.7546771E-02  0.1068226E+00
        -11   -1    0    0    0    0  0.00000000000E+00  0.00000000000E+00  0.18250000000E+03  0.18250000000E+03  0.00000000000E+00 0.  1.
         11   -1    0    0    0    0 -0.00000000000E+00 -0.00000000000E+00 -0.18250000000E+03  0.18250000000E+03  0.00000000000E+00 0. -1.
        -11    1    1    2    0    0 -0.43211196355E+00  0.98961478070E+00  0.69131965204E+02  0.69140398257E+02  0.00000000000E+00 0.  1.
         11    1    1    2    0    0 -0.29003026944E+01  0.38734602327E+01 -0.18214857171E+03  0.18221283606E+03  0.00000000000E+00 0. -1.
        -15    1    1    2    0    0 -0.17817704400E+01  0.33547681531E-01  0.82299230675E+01  0.86061137597E+01  0.17770000000E+01 0. -1.
         15    1    1    2    0    0  0.51141850980E+01 -0.48966226949E+01  0.10478668343E+03  0.10504065193E+03  0.17770000000E+01 0.  1.
</event>
<event>
 6    1  0.1059789E-002  0.1827787E+03  0.7546771E-02  0.1068233E+00
        -11   -1    0    0    0    0  0.00000000000E+00  0.00000000000E+00  0.18250000000E+03  0.18250000000E+03  0.00000000000E+00 0. -1.
         11   -1    0    0    0    0 -0.00000000000E+00 -0.00000000000E+00 -0.18250000000E+03  0.18250000000E+03  0.00000000000E+00 0.  1.
        -11    1    1    2    0    0  0.47307305525E+00  0.12679402555E+01  0.84861443368E+02  0.84872233629E+02  0.00000000000E+00 0. -1.
         11    1    1    2    0    0 -0.36462447847E+01  0.13107504952E+01 -0.18218009633E+03  0.18222129586E+03  0.00000000000E+00 0.  1.
        -15    1    1    2    0    0 -0.48354262679E+00  0.79057689229E+00  0.72713838416E+02  0.72741452085E+02  0.17770000000E+01 0.  1.
         15    1    1    2    0    0  0.36567143562E+01 -0.33692676430E+01  0.24604814546E+02  0.25165018422E+02  0.17770000000E+01 0. -1.
</event>
<event>
 6    1  0.1059789E-002  0.1871171E+03  0.7546771E-02  0.1064838E+00
        -11   -1    0    0    0    0  0.00000000000E+00  0.00000000000E+00  0.18250000000E+03  0.18250000000E+03  0.00000000000E+00 0.  1.
         11   -1    0    0    0    0 -0.00000000000E+00 -0.00000000000E+00 -0.18250000000E+03  0.18250000000E+03  0.00000000000E+00 0. -1.
        -11    1    1    2    0    0 -0.90152309098E+00  0.12488771096E+02  0.14911135392E+03  0.14963615210E+03  0.00000000000E+00 0.  1.
         11    1    1    2    0    0 -0.18250305316E+01  0.19810283821E+01 -0.17786247462E+03  0.17788286901E+03  0.00000000000E+00 0. -1.
        -15    1    1    2    0    0 -0.78249902206E+00 -0.15292178415E+02  0.29600500866E+02  0.33373798195E+02  0.17770000000E+01 0.  1.
         15    1    1    2    0    0  0.35090526447E+01  0.82237893731E+00 -0.84938016348E+00  0.41071806926E+01  0.17770000000E+01 0. -1.
</event>
<event>
 6    1  0.1059789E-002  0.1833376E+03  0.7546771E-02  0.1067790E+00
        -11   -1    0    0    0    0  0.00000000000E+00  0.00000000000E+00  0.18250000000E+03  0.18250000000E+03  0.00000000000E+00 0. -1.
         11   -1    0    0    0    0 -0.00000000000E+00 -0.00000000000E+00 -0.18250000000E+03  0.18250000000E+03  0.00000000000E+00 0.  1.
        -11    1    1    2    0    0 -0.26957086233E+00 -0.29238719740E+01  0.12315824957E+03  0.12319324711E+03  0.00000000000E+00 0. -1.
         11    1    1    2    0    0  0.33932190784E+01 -0.51358721692E+01 -0.18155806792E+03  0.18166238781E+03  0.00000000000E+00 0.  1.
        -15    1    1    2    0    0  0.20420067011E+01 -0.11976972380E+01  0.64878620850E+01  0.71312238414E+01  0.17770000000E+01 0. -1.
         15    1    1    2    0    0 -0.51656549172E+01  0.92574413811E+01  0.51911956266E+02  0.53013141239E+02  0.17770000000E+01 0. -1.
</event>
<event>
 6    1  0.1059789E-002  0.1997610E+03  0.7546771E-02  0.1055489E+00
        -11   -1    0    0    0    0  0.00000000000E+00  0.00000000000E+00  0.18250000000E+03  0.18250000000E+03  0.00000000000E+00 0.  1.
         11   -1    0    0    0    0 -0.00000000000E+00 -0.00000000000E+00 -0.18250000000E+03  0.18250000000E+03  0.00000000000E+00 0. -1.
        -11    1    1    2    0    0 -0.20756438185E+01 -0.14588961886E+01  0.16521952313E+03  0.16523900114E+03  0.00000000000E+00 0.  1.
         11    1    1    2    0    0 -0.26904194164E+01 -0.17671156964E+01 -0.11499009343E+03  0.11503513655E+03  0.00000000000E+00 0. -1.
        -15    1    1    2    0    0  0.89028228421E+01  0.96552898086E+01  0.14429565376E+02  0.19592216867E+02  0.17770000000E+01 0.  1.
         15    1    1    2    0    0 -0.41367596071E+01 -0.64292779236E+01 -0.64658995078E+02  0.65133645439E+02  0.17770000000E+01 0. -1.
</event>
<event>
 6    1  0.1059789E-002  0.1765270E+03  0.7546771E-02  0.1073311E+00
        -11   -1    0    0    0    0  0.00000000000E+00  0.00000000000E+00  0.18250000000E+03  0.18250000000E+03  0.00000000000E+00 0. -1.
         11   -1    0    0    0    0 -0.00000000000E+00 -0.00000000000E+00 -0.18250000000E+03  0.18250000000E+03  0.00000000000E+00 0. -1.
        -11    1    1    2    0    0  0.59861865436E+01  0.17997845429E+01  0.17608479966E+03  0.17619571597E+03  0.00000000000E+00 0. -1.
         11    1    1    2    0    0  0.31692717091E+00  0.36501530459E+01 -0.17691972359E+03  0.17695765780E+03  0.00000000000E+00 0. -1.
        -15    1    1    2    0    0 -0.30914951871E+01 -0.49060495849E+01  0.37476127167E+01  0.71294456373E+01  0.17770000000E+01 0.  1.
         15    1    1    2    0    0 -0.32116185274E+01 -0.54388800392E+00 -0.29126887959E+01  0.47171805932E+01  0.17770000000E+01 0. -1.
</event>
<event>
 6    1  0.1059789E-002  0.1834137E+03  0.7546771E-02  0.1067730E+00
        -11   -1    0    0    0    0  0.00000000000E+00  0.00000000000E+00  0.18250000000E+03  0.18250000000E+03  0.00000000000E+00 0. -1.
         11   -1    0    0    0    0 -0.00000000000E+00 -0.00000000000E+00 -0.18250000000E+03  0.18250000000E+03  0.00000000000E+00 0. -1.
        -11    1    1    2    0    0 -0.23273211505E-01 -0.59900814560E+01  0.18148747376E+03  0.18158630111E+03  0.00000000000E+00 0. -1.
         11    1    1    2    0    0  0.76023362088E+01  0.24524816895E+01 -0.13750608552E+03  0.13773791685E+03  0.00000000000E+00 0. -1.
        -15    1    1    2    0    0 -0.48131734538E+00  0.22394629835E+01 -0.36287103105E+01  0.46445805364E+01  0.17770000000E+01 0.  1.
         15    1    1    2    0    0 -0.70977456519E+01  0.12981367830E+01 -0.40352677925E+02  0.41031201508E+02  0.17770000000E+01 0. -1.
</event>
<event>
 6    1  0.1059789E-002  0.1825594E+03  0.7546771E-02  0.1068408E+00
        -11   -1    0    0    0    0  0.00000000000E+00  0.00000000000E+00  0.18250000000E+03  0.18250000000E+03  0.00000000000E+00 0. -1.
         11   -1    0    0    0    0 -0.00000000000E+00 -0.00000000000E+00 -0.18250000000E+03  0.18250000000E+03  0.00000000000E+00 0.  1.
        -11    1    1    2    0    0  0.24794563456E+01 -0.30529976571E+00  0.18242348412E+03  0.18244058888E+03  0.00000000000E+00 0. -1.
         11    1    1    2    0    0 -0.37195840652E+00 -0.12041572924E+01 -0.76872628870E+02  0.76882959213E+02  0.00000000000E+00 0.  1.
        -15    1    1    2    0    0 -0.13626722838E+01  0.21520219205E+01 -0.67537594694E+02  0.67608967602E+02  0.17770000000E+01 0. -1.
         15    1    1    2    0    0 -0.74482565526E+00 -0.64256486245E+00 -0.38013260553E+02  0.38067484310E+02  0.17770000000E+01 0.  1.
</event>
<event>
 6    1  0.1059789E-002  0.1829296E+03  0.7546771E-02  0.1068113E+00
        -11   -1    0    0    0    0  0.00000000000E+00  0.00000000000E+00  0.18250000000E+03  0.18250000000E+03  0.00000000000E+00 0.  1.
         11   -1    0    0    0    0 -0.00000000000E+00 -0.00000000000E+00 -0.18250000000E+03  0.18250000000E+03  0.00000000000E+00 0.  1.
        -11    1    1    2    0    0  0.28295894722E+01  0.15572837211E+01  0.18204171712E+03  0.18207036684E+03  0.00000000000E+00 0.  1.
         11    1    1    2    0    0 -0.40703373989E+01  0.29931066778E+01 -0.11460343612E+03  0.11471475016E+03  0.00000000000E+00 0.  1.
        -15    1    1    2    0    0  0.36669296359E+01 -0.17724761173E+01 -0.15753704724E+02  0.16368414281E+02  0.17770000000E+01 0. -1.
         15    1    1    2    0    0 -0.24261817092E+01 -0.27779142816E+01 -0.51684576277E+02  0.51846468726E+02  0.17770000000E+01 0.  1.
</event>
<event>
 6    1  0.1059789E-002  0.1857316E+03  0.7546771E-02  0.1065911E+00
        -11   -1    0    0    0    0  0.00000000000E+00  0.00000000000E+00  0.18250000000E+03  0.18250000000E+03  0.00000000000E+00 0. -1.
         11   -1    0    0    0    0 -0.00000000000E+00 -0.00000000000E+00 -0.18250000000E+03  0.18250000000E+03  0.00000000000E+00 0. -1.
        -11    1    1    2    0    0 -0.25735659539E+01  0.48547715616E+00  0.13588914253E+03  0.13591437741E+03  0.00000000000E+00 0. -1.
         11    1    1    2    0    0 -0.13148543188E+02  0.11030990401E+02 -0.17844497770E+03  0.17926844955E+03  0.00000000000E+00 0. -1.
        -15    1    1    2    0    0  0.12745751161E+02 -0.11282780677E+02  0.17342028943E+02  0.24365118702E+02  0.17770000000E+01 0. -1.
         15    1    1    2    0    0  0.29763579807E+01 -0.23368687996E+00  0.25213806228E+02  0.25452054336E+02  0.17770000000E+01 0.  1.
</event>
<event>
 6    1  0.1059789E-002  0.1854428E+03  0.7546771E-02  0.1066136E+00
        -11   -1    0    0    0    0  0.00000000000E+00  0.00000000000E+00  0.18250000000E+03  0.18250000000E+03  0.00000000000E+00 0. -1.
         11   -1    0    0    0    0 -0.00000000000E+00 -0.00000000000E+00 -0.18250000000E+03  0.18250000000E+03  0.00000000000E+00 0.  1.
        -11    1    1    2    0    0 -0.34708068200E+01  0.48800737113E+00  0.58556865485E+02  0.58661666756E+02  0.00000000000E+00 0. -1.
         11    1    1    2    0    0  0.40115420536E+01 -0.31605542311E+01 -0.17948459720E+03  0.17955723935E+03  0.00000000000E+00 0.  1.
        -15    1    1    2    0    0 -0.73177478782E+01  0.77298631031E+01  0.77793004781E+01  0.13303212489E+02  0.17770000000E+01 0. -1.
         15    1    1    2    0    0  0.67770126447E+01 -0.50573162431E+01  0.11314843123E+03  0.11347788140E+03  0.17770000000E+01 0.  1.
</event>
<event>
 6    1  0.1059789E-002  0.1660177E+03  0.7546771E-02  0.1082388E+00
        -11   -1    0    0    0    0  0.00000000000E+00  0.00000000000E+00  0.18250000000E+03  0.18250000000E+03  0.00000000000E+00 0. -1.
         11   -1    0    0    0    0 -0.00000000000E+00 -0.00000000000E+00 -0.18250000000E+03  0.18250000000E+03  0.00000000000E+00 0.  1.
        -11    1    1    2    0    0  0.66722195173E+01  0.31024757713E+01  0.16802721212E+03  0.16818825132E+03  0.00000000000E+00 0. -1.
         11    1    1    2    0    0  0.42420980072E+00  0.22076311429E+01 -0.16397464418E+03  0.16399005312E+03  0.00000000000E+00 0.  1.
        -15    1    1    2    0    0  0.48123037833E+01  0.57553442728E+00 -0.14779684327E+02  0.15655232525E+02  0.17770000000E+01 0.  1.
         15    1    1    2    0    0 -0.11908733101E+02 -0.58856413414E+01  0.10727116391E+02  0.17166463036E+02  0.17770000000E+01 0. -1.
</event>
<event>
 6    1  0.1059789E-002  0.1847952E+03  0.7546771E-02  0.1066642E+00
        -11   -1    0    0    0    0  0.00000000000E+00  0.00000000000E+00  0.18250000000E+03  0.18250000000E+03  0.00000000000E+00 0.  1.
         11   -1    0    0    0    0 -0.00000000000E+00 -0.00000000000E+00 -0.18250000000E+03  0.18250000000E+03  0.00000000000E+00 0. -1.
        -11    1    1    2    0    0 -0.56072494451E+01 -0.74732398524E+00  0.15609597301E+03  0.15619843959E+03  0.00000000000E+00 0.  1.
         11    1    1    2    0    0 -0.84162952871E+00 -0.69608203854E+01 -0.18006830562E+03  0.18020476145E+03  0.00000000000E+00 0. -1.
        -15    1    1    2    0    0 -0.19297069340E+01  0.15265902805E+01  0.13066350233E+02  0.13414226931E+02  0.17770000000E+01 0. -1.
         15    1    1    2    0    0  0.83785859078E+01  0.61815540901E+01  0.10905982381E+02  0.15182572031E+02  0.17770000000E+01 0.  1.
</event>
<event>
 6    1  0.1059789E-002  0.1849988E+03  0.7546771E-02  0.1066483E+00
        -11   -1    0    0    0    0  0.00000000000E+00  0.00000000000E+00  0.18250000000E+03  0.18250000000E+03  0.00000000000E+00 0. -1.
         11   -1    0    0    0    0 -0.00000000000E+00 -0.00000000000E+00 -0.18250000000E+03  0.18250000000E+03  0.00000000000E+00 0.  1.
        -11    1    1    2    0    0  0.27757494338E+00  0.20741485042E+01  0.14711012849E+03  0.14712501162E+03  0.00000000000E+00 0. -1.
         11    1    1    2    0    0  0.31869958088E+01 -0.34906231478E+01 -0.17993917845E+03  0.18000124814E+03  0.00000000000E+00 0.  1.
        -15    1    1    2    0    0 -0.52829892366E+01  0.20283401802E+01  0.34343383298E+02  0.34851826990E+02  0.17770000000E+01 0. -1.
         15    1    1    2    0    0  0.18184184843E+01 -0.61186553648E+00 -0.15143333362E+01  0.30219132469E+01  0.17770000000E+01 0.  1.
</event>
<event>
 6    1  0.1059789E-002  0.1882878E+03  0.7546771E-02  0.1063939E+00
        -11   -1    0    0    0    0  0.00000000000E+00  0.00000000000E+00  0.18250000000E+03  0.18250000000E+03  0.00000000000E+00 0.  1.
         11   -1    0    0    0    0 -0.00000000000E+00 -0.00000000000E+00 -0.18250000000E+03  0.18250000000E+03  0.00000000000E+00 0. -1.
        -11    1    1    2    0    0 -0.10709925990E+01 -0.72986746330E+01  0.17655815521E+03  0.17671219496E+03  0.00000000000E+00 0.  1.
         11    1    1    2    0    0  0.17706791873E+01  0.15176573996E+01 -0.13714187545E+03  0.13716170235E+03  0.00000000000E+00 0. -1.
        -15    1    1    2    0    0 -0.29562150920E+01  0.66789029494E+01  0.33673784597E+01  0.82367420118E+01  0.17770000000E+01 0. -1.
         15    1    1    2    0    0  0.22565285037E+01 -0.89788571594E+00 -0.42783658217E+02  0.42889360675E+02  0.17770000000E+01 0.  1.
</event>
<event>
 6    1  0.1059789E-002  0.1828299E+03  0.7546771E-02  0.1068192E+00
        -11   -1    0    0    0    0  0.00000000000E+00  0.00000000000E+00  0.18250000000E+03  0.18250000000E+03  0.00000000000E+00 0. -1.
         11   -1    0    0    0    0 -0.00000000000E+00 -0.00000000000E+00 -0.18250000000E+03  0.18250000000E+03  0.00000000000E+00 0.  1.
        -11    1    1    2    0    0 -0.20485347061E+01  0.62638801283E+00  0.27277106781E+02  0.27361093010E+02  0.00000000000E+00 0. -1.
         11    1    1    2    0    0 -0.26421352318E+01  0.45149420478E+01 -0.18209493032E+03  0.18217005579E+03  0.00000000000E+00 0.  1.
        -15    1    1    2    0    0  0.84246098144E+01 -0.42137614370E+01  0.89001463405E+02  0.89516188778E+02  0.17770000000E+01 0. -1.
         15    1    1    2    0    0 -0.37339398765E+01 -0.92756862370E+00  0.65816360130E+02  0.65952662420E+02  0.17770000000E+01 0.  1.
</event>
<event>
 6    1  0.1059789E-002  0.1842677E+03  0.7546771E-02  0.1067056E+00
        -11   -1    0    0    0    0  0.00000000000E+00  0.00000000000E+00  0.18250000000E+03  0.18250000000E+03  0.00000000000E+00 0.  1.
         11   -1    0    0    0    0 -0.00000000000E+00 -0.00000000000E+00 -0.18250000000E+03  0.18250000000E+03  0.00000000000E+00 0. -1.
        -11    1    1    2    0    0 -0.38591714549E+01 -0.14058988426E+01  0.18068561940E+03  0.18073229599E+03  0.00000000000E+00 0.  1.
         11    1    1    2    0    0  0.32774175278E+01 -0.24153980510E+00 -0.12257602204E+03  0.12262006763E+03  0.00000000000E+00 0. -1.
        -15    1    1    2    0    0  0.20312177373E+01 -0.15260239668E+01 -0.57618280912E+02  0.57701634456E+02  0.17770000000E+01 0. -1.
         15    1    1    2    0    0 -0.14494638102E+01  0.31734626146E+01 -0.49131645244E+00  0.39460019209E+01  0.17770000000E+01 0. -1.
</event>
<event>
 6    1  0.1059789E-002  0.1388686E+03  0.7546771E-02  0.1109710E+00
        -11   -1    0    0    0    0  0.00000000000E+00  0.00000000000E+00  0.18250000000E+03  0.18250000000E+03  0.00000000000E+00 0. -1.
         11   -1    0    0    0    0 -0.00000000000E+00 -0.00000000000E+00 -0.18250000000E+03  0.18250000000E+03  0.00000000000E+00 0.  1.
        -11    1    1    2    0    0 -0.28050262213E+02 -0.56811474938E+01  0.39453853045E+02  0.48741144500E+02  0.00000000000E+00 0. -1.
         11    1    1    2    0    0 -0.34513041549E+01  0.41066019200E+01 -0.13925302932E+03  0.13935631258E+03  0.00000000000E+00 0.  1.
        -15    1    1    2    0    0  0.38472506374E+02  0.27631507380E+01  0.13527877742E+03  0.14068146324E+03  0.17770000000E+01 0. -1.
         15    1    1    2    0    0 -0.69709400067E+01 -0.11886051642E+01 -0.35479601148E+02  0.36221079684E+02  0.17770000000E+01 0.  1.
</event>
<event>
 6    1  0.1059789E-002  0.1840539E+03  0.7546771E-02  0.1067225E+00
        -11   -1    0    0    0    0  0.00000000000E+00  0.00000000000E+00  0.18250000000E+03  0.18250000000E+03  0.00000000000E+00 0. -1.
         11   -1    0    0    0    0 -0.00000000000E+00 -0.00000000000E+00 -0.18250000000E+03  0.18250000000E+03  0.00000000000E+00 0. -1.
        -11    1    1    2    0    0  0.20496557678E+00  0.35878342922E+01  0.18091042152E+03  0.18094611126E+03  0.00000000000E+00 0. -1.
         11    1    1    2    0    0  0.26888099504E+01 -0.39657744644E+00 -0.17533235368E+03  0.17535341804E+03  0.00000000000E+00 0. -1.
        -15    1    1    2    0    0 -0.55137197464E+00 -0.12188799098E+01 -0.16238790631E+00  0.22301968794E+01  0.17770000000E+01 0. -1.
         15    1    1    2    0    0 -0.23424035526E+01 -0.19723769360E+01 -0.54156799332E+01  0.64702738210E+01  0.17770000000E+01 0.  1.
</event>
<event>
 6    1  0.1059789E-002  0.1852119E+03  0.7546771E-02  0.1066316E+00
        -11   -1    0    0    0    0  0.00000000000E+00  0.00000000000E+00  0.18250000000E+03  0.18250000000E+03  0.00000000000E+00 0. -1.
         11   -1    0    0    0    0 -0.00000000000E+00 -0.00000000000E+00 -0.18250000000E+03  0.18250000000E+03  0.00000000000E+00 0. -1.
        -11    1    1    2    0    0 -0.31733845684E+01 -0.72363169642E+00  0.17975865206E+03  0.17978811697E+03  0.00000000000E+00 0. -1.
         11    1    1    2    0    0 -0.39291359379E+01  0.27492114107E+01 -0.16475118281E+03  0.16482095895E+03  0.00000000000E+00 0. -1.
        -15    1    1    2    0    0  0.99436687712E+00 -0.55425852193E+01 -0.98281528003E+01  0.11465571633E+02  0.17770000000E+01 0.  1.
         15    1    1    2    0    0  0.61081536291E+01  0.35170055050E+01 -0.51793164449E+01  0.89253524477E+01  0.17770000000E+01 0.  1.
</event>
<event>
 6    1  0.1059789E-002  0.1833199E+03  0.7546771E-02  0.1067804E+00
        -11   -1    0    0    0    0  0.00000000000E+00  0.00000000000E+00  0.18250000000E+03  0.18250000000E+03  0.00000000000E+00 0.  1.
         11   -1    0    0    0    0 -0.00000000000E+00 -0.00000000000E+00 -0.18250000000E+03  0.18250000000E+03  0.00000000000E+00 0.  1.
        -11    1    1    2    0    0  0.80928311933E+00 -0.23258244539E+01  0.27765605704E+02  0.27874598807E+02  0.00000000000E+00 0.  1.
         11    1    1    2    0    0 -0.35800511713E+01 -0.29978166714E+01 -0.18162012232E+03  0.18168013789E+03  0.00000000000E+00 0.  1.
        -15    1    1    2    0    0  0.32451958074E+01  0.46048555539E+01  0.10273560048E+02  0.11850728060E+02  0.17770000000E+01 0.  1.
         15    1    1    2    0    0 -0.47442775542E+00  0.71878557135E+00  0.14358095657E+03  0.14359453525E+03  0.17770000000E+01 0.  1.
</event>
<event>
 6    1  0.1059789E-002  0.1055822E+03  0.7546771E-02  0.1154495E+00
        -11   -1    0    0    0    0  0.00000000000E+00  0.00000000000E+00  0.18250000000E+03  0.18250000000E+03  0.00000000000E+00 0.  1.
         11   -1    0    0    0    0 -0.00000000000E+00 -0.00000000000E+00 -0.18250000000E+03  0.18250000000E+03  0.00000000000E+00 0.  1.
        -11    1    1    2    0    0  0.13075719548E+01 -0.79793402119E-01  0.71970859235E+02  0.71982780513E+02  0.00000000000E+00 0.  1.
         11    1    1    2    0    0  0.96557820503E+00  0.88217889538E+01 -0.11093602740E+03  0.11129042401E+03  0.00000000000E+00 0.  1.
        -15    1    1    2    0    0  0.38661304271E+02  0.18850321825E+02  0.96636860885E+02  0.10579164282E+03  0.17770000000E+01 0.  1.
         15    1    1    2    0    0 -0.40934454431E+02 -0.27592317376E+02 -0.57671692722E+02  0.75935152651E+02  0.17770000000E+01 0. -1.
</event>
<event>
 6    1  0.1059789E-002  0.1838620E+03  0.7546771E-02  0.1067376E+00
        -11   -1    0    0    0    0  0.00000000000E+00  0.00000000000E+00  0.18250000000E+03  0.18250000000E+03  0.00000000000E+00 0.  1.
         11   -1    0    0    0    0 -0.00000000000E+00 -0.00000000000E+00 -0.18250000000E+03  0.18250000000E+03  0.00000000000E+00 0. -1.
        -11    1    1    2    0    0 -0.21568967938E+01  0.66856314239E+00  0.86667131278E+02  0.86696544478E+02  0.00000000000E+00 0.  1.
         11    1    1    2    0    0  0.90606240223E+00  0.54031147625E+01 -0.18105515722E+03  0.18113802625E+03  0.00000000000E+00 0. -1.
        -15    1    1    2    0    0 -0.24720705376E+01  0.56133183885E+01  0.99495219235E+01  0.11822486692E+02  0.17770000000E+01 0. -1.
         15    1    1    2    0    0  0.37229049292E+01 -0.11684996293E+02  0.84438504015E+02  0.85342942583E+02  0.17770000000E+01 0.  1.
</event>
<event>
 6    1  0.1059789E-002  0.1845150E+03  0.7546771E-02  0.1066862E+00
        -11   -1    0    0    0    0  0.00000000000E+00  0.00000000000E+00  0.18250000000E+03  0.18250000000E+03  0.00000000000E+00 0. -1.
         11   -1    0    0    0    0 -0.00000000000E+00 -0.00000000000E+00 -0.18250000000E+03  0.18250000000E+03  0.00000000000E+00 0. -1.
        -11    1    1    2    0    0  0.24126173181E+01  0.44643361169E+00  0.12138214927E+03  0.12140694456E+03  0.00000000000E+00 0. -1.
         11    1    1    2    0    0 -0.16185667125E+01  0.54002444526E+01 -0.18039690170E+03  0.18048497040E+03  0.00000000000E+00 0. -1.
        -15    1    1    2    0    0  0.96699125912E+00 -0.11508538798E+02  0.16932443141E+02  0.20572965199E+02  0.17770000000E+01 0. -1.
         15    1    1    2    0    0 -0.17610418648E+01  0.56618607338E+01  0.42082309290E+02  0.42535119837E+02  0.17770000000E+01 0.  1.
</event>
<event>
 6    1  0.1059789E-002  0.1831641E+03  0.7546771E-02  0.1067927E+00
        -11   -1    0    0    0    0  0.00000000000E+00  0.00000000000E+00  0.18250000000E+03  0.18250000000E+03  0.00000000000E+00 0. -1.
         11   -1    0    0    0    0 -0.00000000000E+00 -0.00000000000E+00 -0.18250000000E+03  0.18250000000E+03  0.00000000000E+00 0.  1.
        -11    1    1    2    0    0  0.21495006386E+01 -0.61374591881E+00  0.11846422344E+03  0.11848531248E+03  0.00000000000E+00 0. -1.
         11    1    1    2    0    0 -0.33073798931E+01  0.30715912501E+01 -0.18177983038E+03  0.18183586051E+03  0.00000000000E+00 0.  1.
        -15    1    1    2    0    0  0.85089270561E+00 -0.35763131498E+01  0.56329253945E+01  0.69571266800E+01  0.17770000000E+01 0. -1.
         15    1    1    2    0    0  0.30698654891E+00  0.11184678185E+01  0.57682681540E+02  0.57721700336E+02  0.17770000000E+01 0.  1.
</event>
<event>
 6    1  0.1059789E-002  0.1835393E+03  0.7546771E-02  0.1067630E+00
        -11   -1    0    0    0    0  0.00000000000E+00  0.00000000000E+00  0.18250000000E+03  0.18250000000E+03  0.00000000000E+00 0.  1.
         11   -1    0    0    0    0 -0.00000000000E+00 -0.00000000000E+00 -0.18250000000E+03  0.18250000000E+03  0.00000000000E+00 0.  1.
        -11    1    1    2    0    0  0.17984907617E+00  0.23422401176E+01  0.14075322397E+03  0.14077282583E+03  0.00000000000E+00 0.  1.
         11    1    1    2    0    0 -0.63417048567E+01 -0.66333878095E+01 -0.18122846213E+03  0.18146066940E+03  0.00000000000E+00 0.  1.
        -15    1    1    2    0    0  0.21126676241E+01 -0.18873875903E+01  0.27711235208E+02  0.27912289089E+02  0.17770000000E+01 0. -1.
         15    1    1    2    0    0  0.40491881564E+01  0.61785352822E+01  0.12764002955E+02  0.14854215678E+02  0.17770000000E+01 0.  1.
</event>
<event>
 6    1  0.1059789E-002  0.1830493E+03  0.7546771E-02  0.1068018E+00
        -11   -1    0    0    0    0  0.00000000000E+00  0.00000000000E+00  0.18250000000E+03  0.18250000000E+03  0.00000000000E+00 0.  1.
         11   -1    0    0    0    0 -0.00000000000E+00 -0.00000000000E+00 -0.18250000000E+03  0.18250000000E+03  0.00000000000E+00 0.  1.
        -11    1    1    2    0    0  0.21000078845E+01 -0.34020539962E+01  0.18190678783E+03  0.18195071712E+03  0.00000000000E+00 0.  1.
         11    1    1    2    0    0 -0.12947452323E+01 -0.10816246955E+01 -0.67303074092E+02  0.67324215996E+02  0.00000000000E+00 0.  1.
        -15    1    1    2    0    0 -0.28070171943E+01  0.90379793210E+01 -0.50908871403E+02  0.51811536671E+02  0.17770000000E+01 0. -1.
         15    1    1    2    0    0  0.20017545421E+01 -0.45543006293E+01 -0.63694842330E+02  0.63913530210E+02  0.17770000000E+01 0.  1.
</event>
<event>
 6    1  0.1059789E-002  0.1827048E+03  0.7546771E-02  0.1068292E+00
        -11   -1    0    0    0    0  0.00000000000E+00  0.00000000000E+00  0.18250000000E+03  0.18250000000E+03  0.00000000000E+00 0.  1.
         11   -1    0    0    0    0 -0.00000000000E+00 -0.00000000000E+00 -0.18250000000E+03  0.18250000000E+03  0.00000000000E+00 0.  1.
        -11    1    1    2    0    0 -0.18648971562E+01  0.17203751595E+01  0.18227750589E+03  0.18229516364E+03  0.00000000000E+00 0.  1.
         11    1    1    2    0    0  0.16608002485E+01  0.29556659180E+01 -0.64179670185E+02  0.64269154993E+02  0.00000000000E+00 0.  1.
        -15    1    1    2    0    0  0.30394696849E+01 -0.42981539721E+01 -0.76889404317E+02  0.77089887331E+02  0.17770000000E+01 0.  1.
         15    1    1    2    0    0 -0.28353727771E+01 -0.37788710537E+00 -0.41208431393E+02  0.41345794034E+02  0.17770000000E+01 0. -1.
</event>
<event>
 6    1  0.1059789E-002  0.1863382E+03  0.7546771E-02  0.1065440E+00
        -11   -1    0    0    0    0  0.00000000000E+00  0.00000000000E+00  0.18250000000E+03  0.18250000000E+03  0.00000000000E+00 0. -1.
         11   -1    0    0    0    0 -0.00000000000E+00 -0.00000000000E+00 -0.18250000000E+03  0.18250000000E+03  0.00000000000E+00 0.  1.
        -11    1    1    2    0    0  0.11274139726E+01 -0.20817495023E+01  0.17116212143E+03  0.17117849326E+03  0.00000000000E+00 0. -1.
         11    1    1    2    0    0  0.32998943561E+01  0.26750050529E+01 -0.17861127212E+03  0.17866177958E+03  0.00000000000E+00 0.  1.
        -15    1    1    2    0    0 -0.43572139773E+00 -0.43486433343E+01 -0.11057072255E+01  0.48457062905E+01  0.17770000000E+01 0.  1.
         15    1    1    2    0    0 -0.39915869309E+01  0.37553877837E+01  0.85548579093E+01  0.10314020869E+02  0.17770000000E+01 0. -1.
</event>
<event>
 6    1  0.1059789E-002  0.1840903E+03  0.7546771E-02  0.1067196E+00
        -11   -1    0    0    0    0  0.00000000000E+00  0.00000000000E+00  0.18250000000E+03  0.18250000000E+03  0.00000000000E+00 0. -1.
         11   -1    0    0    0    0 -0.00000000000E+00 -0.00000000000E+00 -0.18250000000E+03  0.18250000000E+03  0.00000000000E+00 0. -1.
        -11    1    1    2    0    0 -0.16373866667E+00  0.34640736155E+01  0.48343456339E+02  0.48467683947E+02  0.00000000000E+00 0. -1.
         11    1    1    2    0    0 -0.10396687110E+02 -0.12517373061E+02 -0.18017639345E+03  0.18090966942E+03  0.00000000000E+00 0. -1.
        -15    1    1    2    0    0  0.13641173799E+02  0.11093637298E+02  0.40379516188E+02  0.44077357767E+02  0.17770000000E+01 0.  1.
         15    1    1    2    0    0 -0.30807480218E+01 -0.20403378529E+01  0.91453420923E+02  0.91545288871E+02  0.17770000000E+01 0. -1.
</event>
<event>
 6    1  0.1059789E-002  0.1884448E+03  0.7546771E-02  0.1063819E+00
        -11   -1    0    0    0    0  0.00000000000E+00  0.00000000000E+00  0.18250000000E+03  0.18250000000E+03  0.00000000000E+00 0.  1.
         11   -1    0    0    0    0 -0.00000000000E+00 -0.00000000000E+00 -0.18250000000E+03  0.18250000000E+03  0.00000000000E+00 0.  1.
        -11    1    1    2    0    0  0.63748864543E+01 -0.49722473616E+01  0.16325584166E+03  0.16345590310E+03  0.00000000000E+00 0.  1.
         11    1    1    2    0    0 -0.31707104343E+01 -0.13244239835E+01 -0.17652176599E+03  0.17655520771E+03  0.00000000000E+00 0.  1.
        -15    1    1    2    0    0  0.29287759531E+01 -0.24294792689E+01  0.13536177239E+02  0.14172717501E+02  0.17770000000E+01 0. -1.
         15    1    1    2    0    0 -0.61329519731E+01  0.87261506140E+01 -0.27025291270E+00  0.10816171692E+02  0.17770000000E+01 0.  1.
</event>
<event>
 6    1  0.1059789E-002  0.1997008E+03  0.7546771E-02  0.1055532E+00
        -11   -1    0    0    0    0  0.00000000000E+00  0.00000000000E+00  0.18250000000E+03  0.18250000000E+03  0.00000000000E+00 0. -1.
         11   -1    0    0    0    0 -0.00000000000E+00 -0.00000000000E+00 -0.18250000000E+03  0.18250000000E+03  0.00000000000E+00 0. -1.
        -11    1    1    2    0    0 -0.33177843941E+01 -0.74542332682E+01  0.14074232135E+03  0.14097863067E+03  0.00000000000E+00 0. -1.
         11    1    1    2    0    0 -0.48782729576E+01  0.22451264798E+00 -0.16522700079E+03  0.16529915228E+03  0.00000000000E+00 0. -1.
        -15    1    1    2    0    0  0.39058168266E+01  0.87416739239E+01  0.40668221894E+02  0.41817870212E+02  0.17770000000E+01 0. -1.
         15    1    1    2    0    0  0.42902405251E+01 -0.15119533037E+01 -0.16183542457E+02  0.16904346838E+02  0.17770000000E+01 0. -1.
</event>
<event>
 6    1  0.1059789E-002  0.1839467E+03  0.7546771E-02  0.1067309E+00
        -11   -1    0    0    0    0  0.00000000000E+00  0.00000000000E+00  0.18250000000E+03  0.18250000000E+03  0.00000000000E+00 0.  1.
         11   -1    0    0    0    0 -0.00000000000E+00 -0.00000000000E+00 -0.18250000000E+03  0.18250000000E+03  0.00000000000E+00 0.  1.
        -11    1    1    2    0    0 -0.35823232492E+01 -0.12585275781E+01  0.16479654870E+03  0.16484028451E+03  0.00000000000E+00 0.  1.
         11    1    1    2    0    0 -0.14926858833E+01  0.58812824572E+01 -0.18095156100E+03  0.18105326571E+03  0.00000000000E+00 0.  1.
        -15    1    1    2    0    0  0.14893694109E+01 -0.51365142114E+00  0.11432891937E+02  0.11676934789E+02  0.17770000000E+01 0.  1.
         15    1    1    2    0    0  0.35856397217E+01 -0.41091034579E+01  0.47221203600E+01  0.74295150001E+01  0.17770000000E+01 0.  1.
</event>
<event>
 6    1  0.1059789E-002  0.1840224E+03  0.7546771E-02  0.1067249E+00
        -11   -1    0    0    0    0  0.00000000000E+00  0.00000000000E+00  0.18250000000E+03  0.18250000000E+03  0.00000000000E+00 0.  1.
         11   -1    0    0    0    0 -0.00000000000E+00 -0.00000000000E+00 -0.18250000000E+03  0.18250000000E+03  0.00000000000E+00 0.  1.
        -11    1    1    2    0    0  0.88121086573E+00 -0.63755399737E+01  0.18086311154E+03  0.18097759297E+03  0.00000000000E+00 0.  1.
         11    1    1    2    0    0 -0.14152664639E+01  0.46845250087E+01 -0.14783318097E+03  0.14791415466E+03  0.00000000000E+00 0.  1.
        -15    1    1    2    0    0 -0.20899605153E+01  0.22799856860E+01 -0.72135307888E+00  0.36392786302E+01  0.17770000000E+01 0.  1.
         15    1    1    2    0    0  0.26240161134E+01 -0.58897072092E+00 -0.32308577489E+02  0.32468973735E+02  0.17770000000E+01 0. -1.
</event>
<event>
 6    1  0.1059789E-002  0.1872372E+03  0.7546771E-02  0.1064745E+00
        -11   -1    0    0    0    0  0.00000000000E+00  0.00000000000E+00  0.18250000000E+03  0.18250000000E+03  0.00000000000E+00 0.  1.
         11   -1    0    0    0    0 -0.00000000000E+00 -0.00000000000E+00 -0.18250000000E+03  0.18250000000E+03  0.00000000000E+00 0.  1.
        -11    1    1    2    0    0 -0.97653792803E+00 -0.75338932370E+01  0.17760038776E+03  0.17776279393E+03  0.00000000000E+00 0.  1.
         11    1    1    2    0    0 -0.88777735587E+00 -0.37636159306E+01 -0.16604069204E+03  0.16608571391E+03  0.00000000000E+00 0.  1.
        -15    1    1    2    0    0 -0.20431316369E+01  0.87864419079E+01 -0.71628437163E+00  0.92220789732E+01  0.17770000000E+01 0.  1.
         15    1    1    2    0    0  0.39074469208E+01  0.25110672597E+01 -0.10843411352E+02  0.11929413186E+02  0.17770000000E+01 0. -1.
</event>
<event>
 6    1  0.1059789E-002  0.1910344E+03  0.7546771E-02  0.1061857E+00
        -11   -1    0    0    0    0  0.00000000000E+00  0.00000000000E+00  0.18250000000E+03  0.18250000000E+03  0.00000000000E+00 0. -1.
         11   -1    0    0    0    0 -0.00000000000E+00 -0.00000000000E+00 -0.18250000000E+03  0.18250000000E+03  0.00000000000E+00 0.  1.
        -11    1    1    2    0    0  0.20149698357E+02 -0.11653962025E+02  0.97839988244E+02  0.10057081323E+03  0.00000000000E+00 0. -1.
         11    1    1    2    0    0  0.29164310920E+01  0.33701368009E+01 -0.17390849302E+03  0.17396559239E+03  0.00000000000E+00 0.  1.
        -15    1    1    2    0    0 -0.26895966362E+02  0.14448372519E+02  0.77078332632E+02  0.82923914315E+02  0.17770000000E+01 0. -1.
         15    1    1    2    0    0  0.38298369128E+01 -0.61645472948E+01 -0.10098278603E+01  0.75396800619E+01  0.17770000000E+01 0. -1.
</event>
<event>
 6    1  0.1059789E-002  0.1868570E+03  0.7546771E-02  0.1065039E+00
        -11   -1    0    0    0    0  0.00000000000E+00  0.00000000000E+00  0.18250000000E+03  0.18250000000E+03  0.00000000000E+00 0.  1.
         11   -1    0    0    0    0 -0.00000000000E+00 -0.00000000000E+00 -0.18250000000E+03  0.18250000000E+03  0.00000000000E+00 0.  1.
        -11    1    1    2    0    0 -0.31615878185E+01  0.96533623169E+01  0.17785319797E+03  0.17814304104E+03  0.00000000000E+00 0.  1.
         11    1    1    2    0    0 -0.25224400936E+01  0.10323848142E+00 -0.17003298456E+03  0.17005172507E+03  0.00000000000E+00 0.  1.
        -15    1    1    2    0    0  0.67602956949E+01 -0.88537419745E+01 -0.88297421537E+01  0.14325237182E+02  0.17770000000E+01 0.  1.
         15    1    1    2    0    0 -0.10762677828E+01 -0.90285882383E+00  0.10095287399E+01  0.24799967082E+01  0.17770000000E+01 0. -1.
</event>
<event>
 6    1  0.1059789E-002  0.1832154E+03  0.7546771E-02  0.1067887E+00
        -11   -1    0    0    0    0  0.00000000000E+00  0.00000000000E+00  0.18250000000E+03  0.18250000000E+03  0.00000000000E+00 0. -1.
         11   -1    0    0    0    0 -0.00000000000E+00 -0.00000000000E+00 -0.18250000000E+03  0.18250000000E+03  0.00000000000E+00 0. -1.
        -11    1    1    2    0    0 -0.19115872432E+01 -0.21532616858E+01  0.18176181960E+03  0.18178462466E+03  0.00000000000E+00 0. -1.
         11    1    1    2    0    0  0.47867620389E+01  0.28696961087E+01 -0.13505375627E+03  0.13516902503E+03  0.00000000000E+00 0. -1.
        -15    1    1    2    0    0  0.20816189765E+01 -0.16836998689E+01 -0.46700027455E+01  0.56687421404E+01  0.17770000000E+01 0.  1.
         15    1    1    2    0    0 -0.49567937723E+01  0.96726544596E+00 -0.42038060583E+02  0.42377608162E+02  0.17770000000E+01 0. -1.
</event>
<event>
 6    1  0.1059789E-002  0.1826616E+03  0.7546771E-02  0.1068326E+00
        -11   -1    0    0    0    0  0.00000000000E+00  0.00000000000E+00  0.18250000000E+03  0.18250000000E+03  0.00000000000E+00 0. -1.
         11   -1    0    0    0    0 -0.00000000000E+00 -0.00000000000E+00 -0.18250000000E+03  0.18250000000E+03  0.00000000000E+00 0.  1.
        -11    1    1    2    0    0 -0.50294057434E+01 -0.66230995325E-01  0.18226903373E+03  0.18233842153E+03  0.00000000000E+00 0. -1.
         11    1    1    2    0    0  0.61678883602E+00 -0.13490750928E+01 -0.72056584898E+02  0.72071852059E+02  0.00000000000E+00 0.  1.
        -15    1    1    2    0    0  0.28662604138E+01  0.21641723501E+01 -0.10007828271E+03  0.10015847188E+03  0.17770000000E+01 0.  1.
         15    1    1    2    0    0  0.15463564936E+01 -0.74886626192E+00 -0.10134166122E+02  0.10431254530E+02  0.17770000000E+01 0. -1.
</event>
<event>
 6    1  0.3225343E-002  0.1836337E+03  0.7546771E-02  0.1067556E+00
        -11   -1    0    0    0    0  0.00000000000E+00  0.00000000000E+00  0.18250000000E+03  0.18250000000E+03  0.00000000000E+00 0. -1.
         11   -1    0    0    0    0 -0.00000000000E+00 -0.00000000000E+00 -0.18250000000E+03  0.18250000000E+03  0.00000000000E+00 0.  1.
        -11    1    1    2    0    0 -0.25766285100E+01  0.36477437593E+01  0.18131134331E+03  0.18136633718E+03  0.00000000000E+00 0. -1.
         11    1    1    2    0    0  0.13546736811E+01 -0.30959286580E+00 -0.71966173848E+02  0.71979588543E+02  0.00000000000E+00 0.  1.
        -15    1    1    2    0    0  0.19848030716E+00 -0.43848787353E+01 -0.37675142060E+01  0.60513178935E+01  0.17770000000E+01 0. -1.
         15    1    1    2    0    0  0.10234745218E+01  0.10467278417E+01 -0.10557765525E+03  0.10560275639E+03  0.17770000000E+01 0.  1.
</event>
<event>
 6    1  0.1059789E-002  0.1842131E+03  0.7546771E-02  0.1067099E+00
        -11   -1    0    0    0    0  0.00000000000E+00  0.00000000000E+00  0.18250000000E+03  0.18250000000E+03  0.00000000000E+00 0.  1.
         11   -1    0    0    0    0 -0.00000000000E+00 -0.00000000000E+00 -0.18250000000E+03  0.18250000000E+03  0.00000000000E+00 0.  1.
        -11    1    1    2    0    0  0.27015844280E+01 -0.36824992296E+01  0.18072916264E+03  0.18078686232E+03  0.00000000000E+00 0.  1.
         11    1    1    2    0    0 -0.17017659905E+01 -0.51747305595E+01 -0.15991179159E+03  0.16000454660E+03  0.00000000000E+00 0.  1.
        -15    1    1    2    0    0  0.26313902661E+01  0.36661655241E+01 -0.13616430724E+02  0.14454407599E+02  0.17770000000E+01 0.  1.
         15    1    1    2    0    0 -0.36312087035E+01  0.51910642651E+01 -0.72009403273E+01  0.97541834846E+01  0.17770000000E+01 0.  1.
</event>
<event>
 6    1  0.1059789E-002  0.1827884E+03  0.7546771E-02  0.1068225E+00
        -11   -1    0    0    0    0  0.00000000000E+00  0.00000000000E+00  0.18250000000E+03  0.18250000000E+03  0.00000000000E+00 0.  1.
         11   -1    0    0    0    0 -0.00000000000E+00 -0.00000000000E+00 -0.18250000000E+03  0.18250000000E+03  0.00000000000E+00 0. -1.
        -11    1    1    2    0    0  0.40587893305E+01 -0.36623098021E+01  0.18212956864E+03  0.18221159694E+03  0.00000000000E+00 0.  1.
         11    1    1    2    0    0  0.79523903884E+00 -0.17787385976E+00 -0.45351062728E+02  0.45358383291E+02  0.00000000000E+00 0. -1.
        -15    1    1    2    0    0 -0.14242596491E+01 -0.46326669129E+00 -0.11042743647E+03  0.11045188810E+03  0.17770000000E+01 0. -1.
         15    1    1    2    0    0 -0.34297687203E+01  0.43034503532E+01 -0.26351069446E+02  0.26978131669E+02  0.17770000000E+01 0. -1.
</event>
<event>
 6    1  0.1059789E-002  0.1778557E+03  0.7546771E-02  0.1072213E+00
        -11   -1    0    0    0    0  0.00000000000E+00  0.00000000000E+00  0.18250000000E+03  0.18250000000E+03  0.00000000000E+00 0.  1.
         11   -1    0    0    0    0 -0.00000000000E+00 -0.00000000000E+00 -0.18250000000E+03  0.18250000000E+03  0.00000000000E+00 0. -1.
        -11    1    1    2    0    0  0.29512348483E+01  0.12946825795E+01  0.17714092032E+03  0.17717023351E+03  0.00000000000E+00 0.  1.
         11    1    1    2    0    0  0.39663660605E+01 -0.38468165805E+01 -0.17853480253E+03  0.17862028377E+03  0.00000000000E+00 0. -1.
        -15    1    1    2    0    0 -0.66858854214E+00  0.11231228999E+00 -0.59061999252E+00  0.19915284745E+01  0.17770000000E+01 0.  1.
         15    1    1    2    0    0 -0.62490123667E+01  0.24398217109E+01  0.19845022078E+01  0.72179542499E+01  0.17770000000E+01 0. -1.
</event>
<event>
 6    1  0.1086063E-002  0.1904124E+03  0.7546771E-02  0.1062325E+00
        -11   -1    0    0    0    0  0.00000000000E+00  0.00000000000E+00  0.18250000000E+03  0.18250000000E+03  0.00000000000E+00 0.  1.
         11   -1    0    0    0    0 -0.00000000000E+00 -0.00000000000E+00 -0.18250000000E+03  0.18250000000E+03  0.00000000000E+00 0. -1.
        -11    1    1    2    0    0  0.22479608166E+01 -0.13770512358E+01  0.16577690689E+03  0.16579786626E+03  0.00000000000E+00 0.  1.
         11    1    1    2    0    0 -0.24781795829E+01  0.38762397649E-01 -0.17457001710E+03  0.17458761052E+03  0.00000000000E+00 0. -1.
        -15    1    1    2    0    0 -0.21397721771E+01  0.10018041932E+01  0.16285047418E+02  0.16551215515E+02  0.17770000000E+01 0. -1.
         15    1    1    2    0    0  0.23699909434E+01  0.33648464496E+00 -0.74919372092E+01  0.80633077043E+01  0.17770000000E+01 0. -1.
</event>
<event>
 6    1  0.1059789E-002  0.1958524E+03  0.7546771E-02  0.1058297E+00
        -11   -1    0    0    0    0  0.00000000000E+00  0.00000000000E+00  0.18250000000E+03  0.18250000000E+03  0.00000000000E+00 0. -1.
         11   -1    0    0    0    0 -0.00000000000E+00 -0.00000000000E+00 -0.18250000000E+03  0.18250000000E+03  0.00000000000E+00 0.  1.
        -11    1    1    2    0    0  0.50139706059E+00 -0.39801038886E+01  0.14727101395E+03  0.14732563991E+03  0.00000000000E+00 0. -1.
         11    1    1    2    0    0 -0.23152105609E+01 -0.12363270262E+01 -0.16912725258E+03  0.16914761681E+03  0.00000000000E+00 0.  1.
        -15    1    1    2    0    0  0.87394533020E+00  0.44281187918E+01  0.34935392330E+02  0.35270545541E+02  0.17770000000E+01 0.  1.
         15    1    1    2    0    0  0.93986817013E+00  0.78831212295E+00 -0.13079153695E+02  0.13256197741E+02  0.17770000000E+01 0.  1.
</event>
<event>
 6    1  0.1059789E-002  0.2198709E+03  0.7546771E-02  0.1042074E+00
        -11   -1    0    0    0    0  0.00000000000E+00  0.00000000000E+00  0.18250000000E+03  0.18250000000E+03  0.00000000000E+00 0. -1.
         11   -1    0    0    0    0 -0.00000000000E+00 -0.00000000000E+00 -0.18250000000E+03  0.18250000000E+03  0.00000000000E+00 0.  1.
        -11    1    1    2    0    0 -0.97820881416E+01 -0.13421003983E+02  0.11960655256E+03  0.12075404760E+03  0.00000000000E+00 0. -1.
         11    1    1    2    0    0  0.47044010132E+01 -0.10258235800E+01 -0.14504919732E+03  0.14512909201E+03  0.00000000000E+00 0.  1.
        -15    1    1    2    0    0  0.12702334598E+02 -0.11944642100E+02 -0.31399397883E+02  0.35959751049E+02  0.17770000000E+01 0.  1.
         15    1    1    2    0    0 -0.76246474697E+01  0.26391469663E+02  0.56842042645E+02  0.63157109347E+02  0.17770000000E+01 0. -1.
</event>
<event>
 6    1  0.1059789E-002  0.1832419E+03  0.7546771E-02  0.1067866E+00
        -11   -1    0    0    0    0  0.00000000000E+00  0.00000000000E+00  0.18250000000E+03  0.18250000000E+03  0.00000000000E+00 0. -1.
         11   -1    0    0    0    0 -0.00000000000E+00 -0.00000000000E+00 -0.18250000000E+03  0.18250000000E+03  0.00000000000E+00 0.  1.
        -11    1    1    2    0    0 -0.89280622435E+00 -0.60892779013E+01  0.18165391666E+03  0.18175814108E+03  0.00000000000E+00 0. -1.
         11    1    1    2    0    0 -0.25770732794E+01 -0.27109405580E+01 -0.12916734666E+03  0.12922149183E+03  0.00000000000E+00 0.  1.
        -15    1    1    2    0    0  0.47092276700E+01  0.66988773975E+01 -0.24961646537E+02  0.26330463545E+02  0.17770000000E+01 0. -1.
         15    1    1    2    0    0 -0.12393481663E+01  0.21013410618E+01 -0.27524923462E+02  0.27689903552E+02  0.17770000000E+01 0.  1.
</event>
<event>
 6    1  0.1059789E-002  0.1830388E+03  0.7546771E-02  0.1068027E+00
        -11   -1    0    0    0    0  0.00000000000E+00  0.00000000000E+00  0.18250000000E+03  0.18250000000E+03  0.00000000000E+00 0.  1.
         11   -1    0    0    0    0 -0.00000000000E+00 -0.00000000000E+00 -0.18250000000E+03  0.18250000000E+03  0.00000000000E+00 0. -1.
        -11    1    1    2    0    0  0.17057387412E+01  0.28496512183E+01  0.18193090020E+03  0.18196121154E+03  0.00000000000E+00 0.  1.
         11    1    1    2    0    0  0.47444037655E+00  0.35707332904E+01 -0.14534336308E+03  0.14538799269E+03  0.00000000000E+00 0. -1.
        -15    1    1    2    0    0 -0.22876968748E+01 -0.50258934586E+01 -0.17652936009E+02  0.18581631812E+02  0.17770000000E+01 0. -1.
         15    1    1    2    0    0  0.10751775707E+00 -0.13944910501E+01 -0.18934601119E+02  0.19069163953E+02  0.17770000000E+01 0. -1.
</event>
<event>
 6    1  0.1059789E-002  0.1830587E+03  0.7546771E-02  0.1068011E+00
        -11   -1    0    0    0    0  0.00000000000E+00  0.00000000000E+00  0.18250000000E+03  0.18250000000E+03  0.00000000000E+00 0.  1.
         11   -1    0    0    0    0 -0.00000000000E+00 -0.00000000000E+00 -0.18250000000E+03  0.18250000000E+03  0.00000000000E+00 0. -1.
        -11    1    1    2    0    0 -0.10181626250E+00 -0.21941529664E+01  0.15010880985E+03  0.15012487958E+03  0.00000000000E+00 0.  1.
         11    1    1    2    0    0  0.28361296921E+01 -0.24373874541E+01 -0.18190290494E+03  0.18194134031E+03  0.00000000000E+00 0. -1.
        -15    1    1    2    0    0  0.47068924500E+00  0.78344579446E+00  0.18641295528E+02  0.18748092267E+02  0.17770000000E+01 0.  1.
         15    1    1    2    0    0 -0.32050026746E+01  0.38480946260E+01  0.13152799557E+02  0.14185687844E+02  0.17770000000E+01 0.  1.
</event>
<event>
 6    1  0.1059789E-002  0.1869972E+03  0.7546771E-02  0.1064930E+00
        -11   -1    0    0    0    0  0.00000000000E+00  0.00000000000E+00  0.18250000000E+03  0.18250000000E+03  0.00000000000E+00 0.  1.
         11   -1    0    0    0    0 -0.00000000000E+00 -0.00000000000E+00 -0.18250000000E+03  0.18250000000E+03  0.00000000000E+00 0. -1.
        -11    1    1    2    0    0 -0.20391681823E+01  0.15088645774E+01  0.16639232098E+03  0.16641165632E+03  0.00000000000E+00 0.  1.
         11    1    1    2    0    0  0.29244231852E-01  0.54650104972E+01 -0.17791886342E+03  0.17800277851E+03  0.00000000000E+00 0. -1.
        -15    1    1    2    0    0  0.44428666445E+01 -0.10169325659E+02  0.11656089528E+02  0.16191862168E+02  0.17770000000E+01 0.  1.
         15    1    1    2    0    0 -0.24329426940E+01  0.31954505847E+01 -0.12954708541E+00  0.43937029985E+01  0.17770000000E+01 0. -1.
</event>
<event>
 6    1  0.1059789E-002  0.1826646E+03  0.7546771E-02  0.1068324E+00
        -11   -1    0    0    0    0  0.00000000000E+00  0.00000000000E+00  0.18250000000E+03  0.18250000000E+03  0.00000000000E+00 0.  1.
         11   -1    0    0    0    0 -0.00000000000E+00 -0.00000000000E+00 -0.18250000000E+03  0.18250000000E+03  0.00000000000E+00 0. -1.
        -11    1    1    2    0    0 -0.10343004273E+01  0.31112848570E+00  0.67209043821E+02  0.67217721991E+02  0.00000000000E+00 0.  1.
         11    1    1    2    0    0 -0.36475633386E+01 -0.22861603520E+00 -0.18229875277E+03  0.18233538396E+03  0.00000000000E+00 0. -1.
        -15    1    1    2    0    0  0.26492894826E+01  0.19792812883E+00  0.15797362830E+02  0.16117453636E+02  0.17770000000E+01 0. -1.
         15    1    1    2    0    0  0.20325742834E+01 -0.28044057932E+00  0.99292346120E+02  0.99329440410E+02  0.17770000000E+01 0.  1.
</event>
<event>
 6    1  0.1059789E-002  0.1831991E+03  0.7546771E-02  0.1067900E+00
        -11   -1    0    0    0    0  0.00000000000E+00  0.00000000000E+00  0.18250000000E+03  0.18250000000E+03  0.00000000000E+00 0. -1.
         11   -1    0    0    0    0 -0.00000000000E+00 -0.00000000000E+00 -0.18250000000E+03  0.18250000000E+03  0.00000000000E+00 0. -1.
        -11    1    1    2    0    0  0.25034207595E+01  0.24950609646E+01  0.18176658603E+03  0.18180094676E+03  0.00000000000E+00 0. -1.
         11    1    1    2    0    0  0.47070051160E-01 -0.18289424457E+01 -0.84881461463E+02  0.84901176353E+02  0.00000000000E+00 0. -1.
        -15    1    1    2    0    0 -0.67870908663E+01 -0.21108559414E+01 -0.20657434428E+02  0.21918203425E+02  0.17770000000E+01 0. -1.
         15    1    1    2    0    0  0.42366000556E+01  0.14447374225E+01 -0.76227690138E+02  0.76379673467E+02  0.17770000000E+01 0. -1.
</event>
<event>
 6    1  0.1059789E-002  0.1852366E+03  0.7546771E-02  0.1066297E+00
        -11   -1    0    0    0    0  0.00000000000E+00  0.00000000000E+00  0.18250000000E+03  0.18250000000E+03  0.00000000000E+00 0.  1.
         11   -1    0    0    0    0 -0.00000000000E+00 -0.00000000000E+00 -0.18250000000E+03  0.18250000000E+03  0.00000000000E+00 0.  1.
        -11    1    1    2    0    0  0.24453160752E+01  0.40253017365E+01  0.17970170846E+03  0.17976341854E+03  0.00000000000E+00 0.  1.
         11    1    1    2    0    0 -0.57544052294E+01  0.14724283895E+01 -0.16079454324E+03  0.16090421486E+03  0.00000000000E+00 0.  1.
        -15    1    1    2    0    0 -0.44092907701E+01  0.21359443555E+00 -0.28725933642E+01  0.55585060326E+01  0.17770000000E+01 0. -1.
         15    1    1    2    0    0  0.77183799243E+01 -0.57113245615E+01 -0.16034571853E+02  0.18773860562E+02  0.17770000000E+01 0.  1.
</event>
<event>
 6    1  0.1059789E-002  0.1903149E+03  0.7546771E-02  0.1062399E+00
        -11   -1    0    0    0    0  0.00000000000E+00  0.00000000000E+00  0.18250000000E+03  0.18250000000E+03  0.00000000000E+00 0. -1.
         11   -1    0    0    0    0 -0.00000000000E+00 -0.00000000000E+00 -0.18250000000E+03  0.18250000000E+03  0.00000000000E+00 0.  1.
        -11    1    1    2    0    0  0.16643539241E+02 -0.57477005055E+00  0.17388951451E+03  0.17468514824E+03  0.00000000000E+00 0. -1.
         11    1    1    2    0    0  0.10471582864E+01  0.52732927824E+01 -0.10602033943E+03  0.10615656612E+03  0.00000000000E+00 0.  1.
        -15    1    1    2    0    0 -0.18884723789E+02 -0.55575690956E+01 -0.38988944137E+01  0.20146425824E+02  0.17770000000E+01 0. -1.
         15    1    1    2    0    0  0.11940262613E+01  0.85904636382E+00 -0.63970280667E+02  0.64011859815E+02  0.17770000000E+01 0.  1.
</event>
<event>
 6    1  0.1059789E-002  0.1884461E+03  0.7546771E-02  0.1063818E+00
        -11   -1    0    0    0    0  0.00000000000E+00  0.00000000000E+00  0.18250000000E+03  0.18250000000E+03  0.00000000000E+00 0.  1.
         11   -1    0    0    0    0 -0.00000000000E+00 -0.00000000000E+00 -0.18250000000E+03  0.18250000000E+03  0.00000000000E+00 0.  1.
        -11    1    1    2    0    0  0.28794452689E+01 -0.59954593241E+01  0.17642859324E+03  0.17655391598E+03  0.00000000000E+00 0.  1.
         11    1    1    2    0    0  0.53615431796E+00 -0.21099009007E+01 -0.13743186586E+03  0.13744910657E+03  0.00000000000E+00 0.  1.
        -15    1    1    2    0    0  0.95690754740E+00 -0.16171609583E+01 -0.40054355459E+02  0.40137762791E+02  0.17770000000E+01 0.  1.
         15    1    1    2    0    0 -0.43725071342E+01  0.97225211831E+01  0.10576280833E+01  0.10859214657E+02  0.17770000000E+01 0.  1.
</event>
<event>
 6    1  0.1059789E-002  0.1827464E+03  0.7546771E-02  0.1068259E+00
        -11   -1    0    0    0    0  0.00000000000E+00  0.00000000000E+00  0.18250000000E+03  0.18250000000E+03  0.00000000000E+00 0.  1.
         11   -1    0    0    0    0 -0.00000000000E+00 -0.00000000000E+00 -0.18250000000E+03  0.18250000000E+03  0.00000000000E+00 0.  1.
        -11    1    1    2    0    0  0.17593938383E+01  0.27860491678E-01  0.42163006811E+02  0.42199708366E+02  0.00000000000E+00 0.  1.
         11    1    1    2    0    0  0.55616549956E+00  0.25097724888E+01 -0.18223543326E+03  0.18225356352E+03  0.00000000000E+00 0.  1.
        -15    1    1    2    0    0 -0.20012352204E-01 -0.12694197594E+01  0.52374593033E+01  0.56745516099E+01  0.17770000000E+01 0. -1.
         15    1    1    2    0    0 -0.22955469857E+01 -0.12682132211E+01  0.13483496715E+03  0.13487217651E+03  0.17770000000E+01 0.  1.
</event>
<event>
 6    1  0.1059789E-002  0.1832606E+03  0.7546771E-02  0.1067851E+00
        -11   -1    0    0    0    0  0.00000000000E+00  0.00000000000E+00  0.18250000000E+03  0.18250000000E+03  0.00000000000E+00 0. -1.
         11   -1    0    0    0    0 -0.00000000000E+00 -0.00000000000E+00 -0.18250000000E+03  0.18250000000E+03  0.00000000000E+00 0. -1.
        -11    1    1    2    0    0 -0.42023398082E+01 -0.38729029633E+01  0.72663865398E+02  0.72888245772E+02  0.00000000000E+00 0. -1.
         11    1    1    2    0    0  0.42131895008E+01  0.24253185013E+01 -0.18167432282E+03  0.18173935377E+03  0.00000000000E+00 0. -1.
        -15    1    1    2    0    0  0.88883251261E+00 -0.18170000748E+00  0.10721757273E+03  0.10723613509E+03  0.17770000000E+01 0. -1.
         15    1    1    2    0    0 -0.89968220522E+00  0.16292844695E+01  0.17928846973E+01  0.31362653731E+01  0.17770000000E+01 0.  1.
</event>
<event>
 6    1  0.1059789E-002  0.1837670E+03  0.7546771E-02  0.1067451E+00
        -11   -1    0    0    0    0  0.00000000000E+00  0.00000000000E+00  0.18250000000E+03  0.18250000000E+03  0.00000000000E+00 0.  1.
         11   -1    0    0    0    0 -0.00000000000E+00 -0.00000000000E+00 -0.18250000000E+03  0.18250000000E+03  0.00000000000E+00 0.  1.
        -11    1    1    2    0    0  0.32488974892E+01 -0.18247026367E+01  0.17455342809E+03  0.17459319612E+03  0.00000000000E+00 0.  1.
         11    1    1    2    0    0 -0.14605930286E+01  0.53485998664E+01 -0.18114813136E+03  0.18123296154E+03  0.00000000000E+00 0.  1.
        -15    1    1    2    0    0 -0.29382229256E+00 -0.33720397289E+01  0.52235687272E+01  0.64730504958E+01  0.17770000000E+01 0.  1.
         15    1    1    2    0    0 -0.14944821680E+01 -0.15185750080E+00  0.13711345463E+01  0.27007918459E+01  0.17770000000E+01 0. -1.
</event>
<event>
 6    1  0.1059789E-002  0.1887242E+03  0.7546771E-02  0.1063606E+00
        -11   -1    0    0    0    0  0.00000000000E+00  0.00000000000E+00  0.18250000000E+03  0.18250000000E+03  0.00000000000E+00 0. -1.
         11   -1    0    0    0    0 -0.00000000000E+00 -0.00000000000E+00 -0.18250000000E+03  0.18250000000E+03  0.00000000000E+00 0. -1.
        -11    1    1    2    0    0 -0.26023416244E+01  0.86700715560E-01  0.17625653692E+03  0.17627576835E+03  0.00000000000E+00 0. -1.
         11    1    1    2    0    0 -0.47456099073E+00  0.48060955269E+01 -0.59620877010E+02  0.59816157832E+02  0.00000000000E+00 0. -1.
        -15    1    1    2    0    0  0.16780996608E+02  0.19704842122E+02 -0.66462531769E+02  0.71346398006E+02  0.17770000000E+01 0. -1.
         15    1    1    2    0    0 -0.13704093993E+02 -0.24597638365E+02 -0.50173128145E+02  0.57561675811E+02  0.17770000000E+01 0.  1.
</event>
<event>
 6    1  0.1059789E-002  0.1877597E+03  0.7546771E-02  0.1064344E+00
        -11   -1    0    0    0    0  0.00000000000E+00  0.00000000000E+00  0.18250000000E+03  0.18250000000E+03  0.00000000000E+00 0.  1.
         11   -1    0    0    0    0 -0.00000000000E+00 -0.00000000000E+00 -0.18250000000E+03  0.18250000000E+03  0.00000000000E+00 0. -1.
        -11    1    1    2    0    0  0.28487937628E+01  0.40414531226E+01  0.14835537133E+03  0.14843774848E+03  0.00000000000E+00 0.  1.
         11    1    1    2    0    0 -0.46407239390E+01  0.45815556645E+00 -0.17717898247E+03  0.17724033981E+03  0.00000000000E+00 0. -1.
        -15    1    1    2    0    0 -0.26537565367E+01 -0.46716536844E+01 -0.34942532013E+01  0.66508876354E+01  0.17770000000E+01 0.  1.
         15    1    1    2    0    0  0.44456867130E+01  0.17204499534E+00  0.32317864342E+02  0.32671024080E+02  0.17770000000E+01 0.  1.
</event>
<event>
 6    1  0.1059789E-002  0.1835311E+03  0.7546771E-02  0.1067637E+00
        -11   -1    0    0    0    0  0.00000000000E+00  0.00000000000E+00  0.18250000000E+03  0.18250000000E+03  0.00000000000E+00 0. -1.
         11   -1    0    0    0    0 -0.00000000000E+00 -0.00000000000E+00 -0.18250000000E+03  0.18250000000E+03  0.00000000000E+00 0.  1.
        -11    1    1    2    0    0 -0.60356996427E+01  0.39209995680E+01  0.18132606876E+03  0.18146885991E+03  0.00000000000E+00 0. -1.
         11    1    1    2    0    0  0.23914663616E+01 -0.70117058534E+00 -0.12748615936E+03  0.12751051557E+03  0.00000000000E+00 0.  1.
        -15    1    1    2    0    0  0.82479048016E+01 -0.52875512909E+01 -0.30883447343E+02  0.32448901077E+02  0.17770000000E+01 0.  1.
         15    1    1    2    0    0 -0.46036715205E+01  0.20677223082E+01 -0.22956462051E+02  0.23571723439E+02  0.17770000000E+01 0. -1.
</event>
<event>
 6    1  0.1059789E-002  0.1845100E+03  0.7546771E-02  0.1066866E+00
        -11   -1    0    0    0    0  0.00000000000E+00  0.00000000000E+00  0.18250000000E+03  0.18250000000E+03  0.00000000000E+00 0.  1.
         11   -1    0    0    0    0 -0.00000000000E+00 -0.00000000000E+00 -0.18250000000E+03  0.18250000000E+03  0.00000000000E+00 0.  1.
        -11    1    1    2    0    0 -0.10744709689E+01  0.41045500941E+01  0.15333670034E+03  0.15339538941E+03  0.00000000000E+00 0.  1.
         11    1    1    2    0    0  0.44522278537E+01  0.30253614517E+00 -0.18043486888E+03  0.18049004341E+03  0.00000000000E+00 0.  1.
        -15    1    1    2    0    0 -0.59300132963E+01 -0.91556391349E+00  0.25368852338E+02  0.26129288412E+02  0.17770000000E+01 0.  1.
         15    1    1    2    0    0  0.25522564115E+01 -0.34915223257E+01  0.17293161984E+01  0.49852787741E+01  0.17770000000E+01 0. -1.
</event>
<event>
 6    1  0.1059789E-002  0.1862728E+03  0.7546771E-02  0.1065491E+00
        -11   -1    0    0    0    0  0.00000000000E+00  0.00000000000E+00  0.18250000000E+03  0.18250000000E+03  0.00000000000E+00 0. -1.
         11   -1    0    0    0    0 -0.00000000000E+00 -0.00000000000E+00 -0.18250000000E+03  0.18250000000E+03  0.00000000000E+00 0.  1.
        -11    1    1    2    0    0  0.25867218064E+01  0.37493660282E+01  0.17134477001E+03  0.17140530647E+03  0.00000000000E+00 0. -1.
         11    1    1    2    0    0  0.41949076420E+00  0.37610275071E+01 -0.17868717419E+03  0.17872724337E+03  0.00000000000E+00 0.  1.
        -15    1    1    2    0    0 -0.80491562877E+00 -0.25167978323E+01 -0.21022788596E+01  0.38156868192E+01  0.17770000000E+01 0. -1.
         15    1    1    2    0    0 -0.22012969419E+01 -0.49935957029E+01  0.94446830446E+01  0.11051763347E+02  0.17770000000E+01 0.  1.
</event>
<event>
 6    1  0.1059789E-002  0.1831155E+03  0.7546771E-02  0.1067966E+00
        -11   -1    0    0    0    0  0.00000000000E+00  0.00000000000E+00  0.18250000000E+03  0.18250000000E+03  0.00000000000E+00 0. -1.
         11   -1    0    0    0    0 -0.00000000000E+00 -0.00000000000E+00 -0.18250000000E+03  0.18250000000E+03  0.00000000000E+00 0.  1.
        -11    1    1    2    0    0 -0.37622105712E+00  0.37537190879E+01  0.18184537909E+03  0.18188450689E+03  0.00000000000E+00 0. -1.
         11    1    1    2    0    0  0.10312908284E+01 -0.61868784519E+00 -0.71488685294E+02  0.71498800413E+02  0.00000000000E+00 0.  1.
        -15    1    1    2    0    0  0.37218057868E+01  0.46708465968E+01 -0.68194188532E+02  0.68478271918E+02  0.17770000000E+01 0.  1.
         15    1    1    2    0    0 -0.43768755581E+01 -0.78058778395E+01 -0.42162505263E+02  0.43138420782E+02  0.17770000000E+01 0. -1.
</event>
<event>
 6    1  0.1059789E-002  0.1829435E+03  0.7546771E-02  0.1068102E+00
        -11   -1    0    0    0    0  0.00000000000E+00  0.00000000000E+00  0.18250000000E+03  0.18250000000E+03  0.00000000000E+00 0. -1.
         11   -1    0    0    0    0 -0.00000000000E+00 -0.00000000000E+00 -0.18250000000E+03  0.18250000000E+03  0.00000000000E+00 0.  1.
        -11    1    1    2    0    0 -0.13329769976E+01  0.29700420317E+01  0.18202735423E+03  0.18205646285E+03  0.00000000000E+00 0. -1.
         11    1    1    2    0    0  0.38851350862E+00  0.27171661264E+01 -0.14033321789E+03  0.14036005834E+03  0.00000000000E+00 0.  1.
        -15    1    1    2    0    0  0.19715046079E+01 -0.72906851614E+00 -0.21994237643E+02  0.22165797749E+02  0.17770000000E+01 0.  1.
         15    1    1    2    0    0 -0.10270411189E+01 -0.49581396419E+01 -0.19699898699E+02  0.20417681061E+02  0.17770000000E+01 0. -1.
</event>
<event>
 6    1  0.1059789E-002  0.1826129E+03  0.7546771E-02  0.1068365E+00
        -11   -1    0    0    0    0  0.00000000000E+00  0.00000000000E+00  0.18250000000E+03  0.18250000000E+03  0.00000000000E+00 0. -1.
         11   -1    0    0    0    0 -0.00000000000E+00 -0.00000000000E+00 -0.18250000000E+03  0.18250000000E+03  0.00000000000E+00 0.  1.
        -11    1    1    2    0    0 -0.26836956487E+01  0.10646823016E+01  0.18236429124E+03  0.18238714453E+03  0.00000000000E+00 0. -1.
         11    1    1    2    0    0  0.86350986850E+00 -0.11635206336E+01 -0.74897644694E+02  0.74911658707E+02  0.00000000000E+00 0.  1.
        -15    1    1    2    0    0  0.20121474351E+01  0.58473425989E+00 -0.17405412508E+02  0.17620918393E+02  0.17770000000E+01 0. -1.
         15    1    1    2    0    0 -0.19196165483E+00 -0.48589592782E+00 -0.90061234042E+02  0.90080278365E+02  0.17770000000E+01 0.  1.
</event>
<event>
 6    1  0.1059789E-002  0.1901865E+03  0.7546771E-02  0.1062496E+00
        -11   -1    0    0    0    0  0.00000000000E+00  0.00000000000E+00  0.18250000000E+03  0.18250000000E+03  0.00000000000E+00 0. -1.
         11   -1    0    0    0    0 -0.00000000000E+00 -0.00000000000E+00 -0.18250000000E+03  0.18250000000E+03  0.00000000000E+00 0. -1.
        -11    1    1    2    0    0  0.45696981073E+01  0.29293133009E+01  0.13954902699E+03  0.13965455221E+03  0.00000000000E+00 0. -1.
         11    1    1    2    0    0 -0.24751066195E+01  0.11897820810E+00 -0.17479598292E+03  0.17481354625E+03  0.00000000000E+00 0. -1.
        -15    1    1    2    0    0  0.11902657519E+01  0.43995051461E+00 -0.73305250782E+01  0.76488310177E+01  0.17770000000E+01 0. -1.
         15    1    1    2    0    0 -0.32848572397E+01 -0.34882420236E+01  0.42577481006E+02  0.42883070521E+02  0.17770000000E+01 0. -1.
</event>
<event>
 6    1  0.1059789E-002  0.1761079E+03  0.7546771E-02  0.1073660E+00
        -11   -1    0    0    0    0  0.00000000000E+00  0.00000000000E+00  0.18250000000E+03  0.18250000000E+03  0.00000000000E+00 0. -1.
         11   -1    0    0    0    0 -0.00000000000E+00 -0.00000000000E+00 -0.18250000000E+03  0.18250000000E+03  0.00000000000E+00 0. -1.
        -11    1    1    2    0    0 -0.30418710673E+01  0.10523745728E+02  0.17728847856E+03  0.17762659383E+03  0.00000000000E+00 0. -1.
         11    1    1    2    0    0  0.81981142446E+00  0.17119603965E+00 -0.23915820621E+01  0.25339817709E+01  0.00000000000E+00 0. -1.
        -15    1    1    2    0    0 -0.45832560410E+01 -0.34569706021E+01 -0.17464031057E+03  0.17474367710E+03  0.17770000000E+01 0. -1.
         15    1    1    2    0    0  0.68053156839E+01 -0.72379711651E+01 -0.25658592835E+00  0.10095747297E+02  0.17770000000E+01 0.  1.
</event>
<event>
 6    1  0.1059789E-002  0.1895825E+03  0.7546771E-02  0.1062953E+00
        -11   -1    0    0    0    0  0.00000000000E+00  0.00000000000E+00  0.18250000000E+03  0.18250000000E+03  0.00000000000E+00 0.  1.
         11   -1    0    0    0    0 -0.00000000000E+00 -0.00000000000E+00 -0.18250000000E+03  0.18250000000E+03  0.00000000000E+00 0. -1.
        -11    1    1    2    0    0  0.28787259371E+01  0.18373815548E+01  0.62131200288E+02  0.62224987611E+02  0.00000000000E+00 0.  1.
         11    1    1    2    0    0  0.16032844164E+01  0.29616756338E+02 -0.17289176990E+03  0.17541746457E+03  0.00000000000E+00 0. -1.
        -15    1    1    2    0    0 -0.40153195784E+01 -0.12875038064E+02 -0.13804272128E+01  0.13673064936E+02  0.17770000000E+01 0. -1.
         15    1    1    2    0    0 -0.46669077503E+00 -0.18579099829E+02  0.11214099682E+03  0.11368448288E+03  0.17770000000E+01 0.  1.
</event>
<event>
 6    1  0.1059789E-002  0.1882453E+03  0.7546771E-02  0.1063971E+00
        -11   -1    0    0    0    0  0.00000000000E+00  0.00000000000E+00  0.18250000000E+03  0.18250000000E+03  0.00000000000E+00 0.  1.
         11   -1    0    0    0    0 -0.00000000000E+00 -0.00000000000E+00 -0.18250000000E+03  0.18250000000E+03  0.00000000000E+00 0.  1.
        -11    1    1    2    0    0 -0.37738025183E+01 -0.15882703910E+02  0.17599918316E+03  0.17675467276E+03  0.00000000000E+00 0.  1.
         11    1    1    2    0    0 -0.38799941003E+01  0.23066187129E+01 -0.15027766324E+03  0.15034543862E+03  0.00000000000E+00 0.  1.
        -15    1    1    2    0    0  0.52872165075E+01 -0.51451936114E+01 -0.13064701683E+02  0.15108667537E+02  0.17770000000E+01 0.  1.
         15    1    1    2    0    0  0.23665801110E+01  0.18721278808E+02 -0.12656818233E+02  0.22791221082E+02  0.17770000000E+01 0. -1.
</event>
<event>
 6    1  0.1059789E-002  0.1838166E+03  0.7546771E-02  0.1067412E+00
        -11   -1    0    0    0    0  0.00000000000E+00  0.00000000000E+00  0.18250000000E+03  0.18250000000E+03  0.00000000000E+00 0. -1.
         11   -1    0    0    0    0 -0.00000000000E+00 -0.00000000000E+00 -0.18250000000E+03  0.18250000000E+03  0.00000000000E+00 0.  1.
        -11    1    1    2    0    0 -0.65561830572E+00 -0.81982596101E+01  0.15396467512E+03  0.15418418363E+03  0.00000000000E+00 0. -1.
         11    1    1    2    0    0 -0.16206573140E+01  0.19421387494E+01 -0.18116571768E+03  0.18118337588E+03  0.00000000000E+00 0.  1.
        -15    1    1    2    0    0  0.14507158139E+01  0.64411287791E+00  0.71512878917E+00  0.24876888787E+01  0.17770000000E+01 0.  1.
         15    1    1    2    0    0  0.82555980586E+00  0.56120079828E+01  0.26485913775E+02  0.27144751612E+02  0.17770000000E+01 0. -1.
</event>
<event>
 6    1  0.1059789E-002  0.1838834E+03  0.7546771E-02  0.1067359E+00
        -11   -1    0    0    0    0  0.00000000000E+00  0.00000000000E+00  0.18250000000E+03  0.18250000000E+03  0.00000000000E+00 0.  1.
         11   -1    0    0    0    0 -0.00000000000E+00 -0.00000000000E+00 -0.18250000000E+03  0.18250000000E+03  0.00000000000E+00 0. -1.
        -11    1    1    2    0    0 -0.98698920441E+00  0.51218898271E+01  0.18104143516E+03  0.18111656233E+03  0.00000000000E+00 0.  1.
         11    1    1    2    0    0  0.33118102267E+01 -0.40132220343E+01 -0.12444274091E+03  0.12455147451E+03  0.00000000000E+00 0. -1.
        -15    1    1    2    0    0 -0.89910930257E+00 -0.40185327879E+00  0.57269956056E+00  0.21108286009E+01  0.17770000000E+01 0. -1.
         15    1    1    2    0    0 -0.14257117198E+01 -0.70681451403E+00 -0.57171393817E+02  0.57221134563E+02  0.17770000000E+01 0. -1.
</event>
<event>
 6    1  0.1059789E-002  0.1898441E+03  0.7546771E-02  0.1062755E+00
        -11   -1    0    0    0    0  0.00000000000E+00  0.00000000000E+00  0.18250000000E+03  0.18250000000E+03  0.00000000000E+00 0.  1.
         11   -1    0    0    0    0 -0.00000000000E+00 -0.00000000000E+00 -0.18250000000E+03  0.18250000000E+03  0.00000000000E+00 0.  1.
        -11    1    1    2    0    0  0.51097396711E+01 -0.16479401076E+01  0.17507356662E+03  0.17515587023E+03  0.00000000000E+00 0.  1.
         11    1    1    2    0    0 -0.40159967319E+01  0.19893558232E+01 -0.11373225428E+03  0.11382052288E+03  0.00000000000E+00 0.  1.
        -15    1    1    2    0    0  0.79294072910E+01  0.13169333774E+01  0.45954682768E+01  0.94279303768E+01  0.17770000000E+01 0. -1.
         15    1    1    2    0    0 -0.90231502301E+01 -0.16583490931E+01 -0.65936780624E+02  0.66595676510E+02  0.17770000000E+01 0.  1.
</event>
<event>
 6    1  0.1059789E-002  0.1866846E+03  0.7546771E-02  0.1065172E+00
        -11   -1    0    0    0    0  0.00000000000E+00  0.00000000000E+00  0.18250000000E+03  0.18250000000E+03  0.00000000000E+00 0. -1.
         11   -1    0    0    0    0 -0.00000000000E+00 -0.00000000000E+00 -0.18250000000E+03  0.18250000000E+03  0.00000000000E+00 0.  1.
        -11    1    1    2    0    0 -0.58628563788E+01  0.73808194476E+00  0.17821746376E+03  0.17831540101E+03  0.00000000000E+00 0. -1.
         11    1    1    2    0    0 -0.73884595399E+01  0.46339625729E+01 -0.14827088868E+03  0.14852716712E+03  0.00000000000E+00 0.  1.
        -15    1    1    2    0    0  0.44569088134E+01  0.58974382741E+01 -0.42793958505E+01  0.87243780417E+01  0.17770000000E+01 0. -1.
         15    1    1    2    0    0  0.87944071053E+01 -0.11269482792E+02 -0.25667179227E+02  0.29433053820E+02  0.17770000000E+01 0.  1.
</event>
<event>
 6    1  0.1059789E-002  0.1828261E+03  0.7546771E-02  0.1068196E+00
        -11   -1    0    0    0    0  0.00000000000E+00  0.00000000000E+00  0.18250000000E+03  0.18250000000E+03  0.00000000000E+00 0.  1.
         11   -1    0    0    0    0 -0.00000000000E+00 -0.00000000000E+00 -0.18250000000E+03  0.18250000000E+03  0.00000000000E+00 0.  1.
        -11    1    1    2    0    0 -0.23949264561E+01 -0.33325798236E+01  0.18212770311E+03  0.18217393337E+03  0.00000000000E+00 0.  1.
         11    1    1    2    0    0  0.12544361630E+00  0.16530081497E+01 -0.11394959697E+03  0.11396165505E+03  0.00000000000E+00 0.  1.
        -15    1    1    2    0    0  0.44128571849E+01 -0.81607546690E-01 -0.19390531035E+02  0.19965730418E+02  0.17770000000E+01 0. -1.
         15    1    1    2    0    0 -0.21433743451E+01  0.17611792206E+01 -0.48787575102E+02  0.48898681160E+02  0.17770000000E+01 0.  1.
</event>
<event>
 6    1  0.1059789E-002  0.1836976E+03  0.7546771E-02  0.1067506E+00
        -11   -1    0    0    0    0  0.00000000000E+00  0.00000000000E+00  0.18250000000E+03  0.18250000000E+03  0.00000000000E+00 0. -1.
         11   -1    0    0    0    0 -0.00000000000E+00 -0.00000000000E+00 -0.18250000000E+03  0.18250000000E+03  0.00000000000E+00 0.  1.
        -11    1    1    2    0    0 -0.64208152944E+01 -0.29525203157E+01  0.18116462606E+03  0.18130241581E+03  0.00000000000E+00 0. -1.
         11    1    1    2    0    0  0.56715295289E+00  0.20456688346E+01 -0.10264522357E+03  0.10266717268E+03  0.00000000000E+00 0.  1.
        -15    1    1    2    0    0 -0.11945204087E+01  0.69574797185E+01 -0.13599345242E+02  0.15425087456E+02  0.17770000000E+01 0. -1.
         15    1    1    2    0    0  0.70481827502E+01 -0.60506282374E+01 -0.64920057245E+02  0.65605324051E+02  0.17770000000E+01 0.  1.
</event>
<event>
 6    1  0.1059789E-002  0.1840524E+03  0.7546771E-02  0.1067226E+00
        -11   -1    0    0    0    0  0.00000000000E+00  0.00000000000E+00  0.18250000000E+03  0.18250000000E+03  0.00000000000E+00 0. -1.
         11   -1    0    0    0    0 -0.00000000000E+00 -0.00000000000E+00 -0.18250000000E+03  0.18250000000E+03  0.00000000000E+00 0. -1.
        -11    1    1    2    0    0  0.22765491665E+01  0.27987174658E+01  0.13535835100E+03  0.13540642038E+03  0.00000000000E+00 0. -1.
         11    1    1    2    0    0  0.10280418833E+01 -0.60752260071E+01 -0.18084267620E+03  0.18094761335E+03  0.00000000000E+00 0. -1.
        -15    1    1    2    0    0 -0.21810000974E+01 -0.54885882949E+01  0.30834320630E+02  0.31445101695E+02  0.17770000000E+01 0. -1.
         15    1    1    2    0    0 -0.11235909524E+01  0.87650968362E+01  0.14650004575E+02  0.17200864578E+02  0.17770000000E+01 0.  1.
</event>
<event>
 6    1  0.1059789E-002  0.1868529E+03  0.7546771E-02  0.1065042E+00
        -11   -1    0    0    0    0  0.00000000000E+00  0.00000000000E+00  0.18250000000E+03  0.18250000000E+03  0.00000000000E+00 0.  1.
         11   -1    0    0    0    0 -0.00000000000E+00 -0.00000000000E+00 -0.18250000000E+03  0.18250000000E+03  0.00000000000E+00 0.  1.
        -11    1    1    2    0    0 -0.16437740093E+01 -0.24056979287E+01  0.15780114771E+03  0.15782804438E+03  0.00000000000E+00 0.  1.
         11    1    1    2    0    0  0.57298166305E+01  0.77383237978E+01 -0.17788672554E+03  0.17814712902E+03  0.00000000000E+00 0.  1.
        -15    1    1    2    0    0  0.13415320243E+01  0.27315472709E+01  0.18720527786E+02  0.19049329339E+02  0.17770000000E+01 0. -1.
         15    1    1    2    0    0 -0.54275746455E+01 -0.80641731401E+01  0.13650500521E+01  0.99754972613E+01  0.17770000000E+01 0. -1.
</event>
<event>
 6    1  0.1059789E-002  0.1949610E+03  0.7546771E-02  0.1058947E+00
        -11   -1    0    0    0    0  0.00000000000E+00  0.00000000000E+00  0.18250000000E+03  0.18250000000E+03  0.00000000000E+00 0.  1.
         11   -1    0    0    0    0 -0.00000000000E+00 -0.00000000000E+00 -0.18250000000E+03  0.18250000000E+03  0.00000000000E+00 0. -1.
        -11    1    1    2    0    0  0.17182812552E+01  0.21213880592E+01  0.17001704429E+03  0.17003896061E+03  0.00000000000E+00 0.  1.
         11    1    1    2    0    0 -0.26894003167E+01 -0.27440219547E+01 -0.16082620676E+03  0.16087209612E+03  0.00000000000E+00 0. -1.
        -15    1    1    2    0    0 -0.32818953181E+01 -0.18654818341E+01  0.11767851330E+02  0.12485628269E+02  0.17770000000E+01 0. -1.
         15    1    1    2    0    0  0.42530143796E+01  0.24881157296E+01 -0.20958688858E+02  0.21603314996E+02  0.17770000000E+01 0. -1.
</event>
<event>
 6    1  0.1059789E-002  0.1831468E+03  0.7546771E-02  0.1067941E+00
        -11   -1    0    0    0    0  0.00000000000E+00  0.00000000000E+00  0.18250000000E+03  0.18250000000E+03  0.00000000000E+00 0.  1.
         11   -1    0    0    0    0 -0.00000000000E+00 -0.00000000000E+00 -0.18250000000E+03  0.18250000000E+03  0.00000000000E+00 0.  1.
        -11    1    1    2    0    0  0.29763332593E+01 -0.10544314398E+01  0.14636385753E+03  0.14639791383E+03  0.00000000000E+00 0.  1.
         11    1    1    2    0    0 -0.22110222832E+00 -0.25286555676E+01 -0.18183547358E+03  0.18185318924E+03  0.00000000000E+00 0.  1.
        -15    1    1    2    0    0 -0.34713072293E+00  0.51734079705E+01  0.14426394638E+02  0.15432538385E+02  0.17770000000E+01 0.  1.
         15    1    1    2    0    0 -0.24081003081E+01 -0.15903209631E+01  0.21045221417E+02  0.21316358539E+02  0.17770000000E+01 0.  1.
</event>
<event>
 6    1  0.1059789E-002  0.1855135E+03  0.7546771E-02  0.1066081E+00
        -11   -1    0    0    0    0  0.00000000000E+00  0.00000000000E+00  0.18250000000E+03  0.18250000000E+03  0.00000000000E+00 0.  1.
         11   -1    0    0    0    0 -0.00000000000E+00 -0.00000000000E+00 -0.18250000000E+03  0.18250000000E+03  0.00000000000E+00 0.  1.
        -11    1    1    2    0    0  0.12094845512E+02 -0.16537263519E+02  0.17831329572E+03  0.17948648362E+03  0.00000000000E+00 0.  1.
         11    1    1    2    0    0 -0.70912041205E+01 -0.41984110774E+01 -0.10564908567E+03  0.10597000111E+03  0.00000000000E+00 0.  1.
        -15    1    1    2    0    0  0.28399590564E+01  0.57973290657E+01 -0.53627591520E+02  0.54043969997E+02  0.17770000000E+01 0. -1.
         15    1    1    2    0    0 -0.78436004480E+01  0.14938345531E+02 -0.19036618527E+02  0.25499545273E+02  0.17770000000E+01 0.  1.
</event>
<event>
 6    1  0.1059789E-002  0.1850763E+03  0.7546771E-02  0.1066422E+00
        -11   -1    0    0    0    0  0.00000000000E+00  0.00000000000E+00  0.18250000000E+03  0.18250000000E+03  0.00000000000E+00 0.  1.
         11   -1    0    0    0    0 -0.00000000000E+00 -0.00000000000E+00 -0.18250000000E+03  0.18250000000E+03  0.00000000000E+00 0.  1.
        -11    1    1    2    0    0  0.20793837644E+01 -0.13053474837E+01  0.14321994885E+03  0.14324099105E+03  0.00000000000E+00 0.  1.
         11    1    1    2    0    0  0.23408145775E+01  0.92101411458E+00 -0.17990610548E+03  0.17992369068E+03  0.00000000000E+00 0.  1.
        -15    1    1    2    0    0 -0.14111056605E+01 -0.21914855075E+01 -0.14364909851E+01  0.34662751283E+01  0.17770000000E+01 0. -1.
         15    1    1    2    0    0 -0.30090926815E+01  0.25758188766E+01  0.38122647612E+02  0.38369043141E+02  0.17770000000E+01 0. -1.
</event>
<event>
 6    1  0.1059789E-002  0.1827510E+03  0.7546771E-02  0.1068255E+00
        -11   -1    0    0    0    0  0.00000000000E+00  0.00000000000E+00  0.18250000000E+03  0.18250000000E+03  0.00000000000E+00 0. -1.
         11   -1    0    0    0    0 -0.00000000000E+00 -0.00000000000E+00 -0.18250000000E+03  0.18250000000E+03  0.00000000000E+00 0.  1.
        -11    1    1    2    0    0  0.33265110340E+01 -0.81154116437E+00  0.18221681288E+03  0.18224898127E+03  0.00000000000E+00 0. -1.
         11    1    1    2    0    0 -0.19818711056E-02 -0.16933446026E+01 -0.11083415042E+03  0.11084708530E+03  0.00000000000E+00 0.  1.
        -15    1    1    2    0    0 -0.41458252173E+01  0.24788133249E+01 -0.65544137522E+02  0.65745905384E+02  0.17770000000E+01 0.  1.
         15    1    1    2    0    0  0.82129605444E+00  0.26072442080E-01 -0.58385249403E+01  0.61580280496E+01  0.17770000000E+01 0.  1.
</event>
<event>
 6    1  0.1059789E-002  0.1826802E+03  0.7546771E-02  0.1068311E+00
        -11   -1    0    0    0    0  0.00000000000E+00  0.00000000000E+00  0.18250000000E+03  0.18250000000E+03  0.00000000000E+00 0.  1.
         11   -1    0    0    0    0 -0.00000000000E+00 -0.00000000000E+00 -0.18250000000E+03  0.18250000000E+03  0.00000000000E+00 0.  1.
        -11    1    1    2    0    0 -0.37580296727E+01  0.85316416098E+00  0.39459538187E+02  0.39647267624E+02  0.00000000000E+00 0.  1.
         11    1    1    2    0    0  0.20075033932E+01 -0.22530991831E+01 -0.18229481375E+03  0.18231978950E+03  0.00000000000E+00 0.  1.
        -15    1    1    2    0    0 -0.18742446852E+01  0.13411834975E+01  0.88518827553E+02  0.88566653582E+02  0.17770000000E+01 0.  1.
         15    1    1    2    0    0  0.36247709647E+01  0.58751524621E-01  0.54316448005E+02  0.54466289292E+02  0.17770000000E+01 0.  1.
</event>
<event>
 6    1  0.1059789E-002  0.1827158E+03  0.7546771E-02  0.1068283E+00
        -11   -1    0    0    0    0  0.00000000000E+00  0.00000000000E+00  0.18250000000E+03  0.18250000000E+03  0.00000000000E+00 0. -1.
         11   -1    0    0    0    0 -0.00000000000E+00 -0.00000000000E+00 -0.18250000000E+03  0.18250000000E+03  0.00000000000E+00 0.  1.
        -11    1    1    2    0    0 -0.13826053398E+01  0.40553627454E+01  0.18223385622E+03  0.18228421742E+03  0.00000000000E+00 0. -1.
         11    1    1    2    0    0  0.21156930050E+01  0.10897079353E+01 -0.12191556501E+03  0.12193879043E+03  0.00000000000E+00 0.  1.
        -15    1    1    2    0    0 -0.11987827293E+01 -0.38197911317E+01 -0.50983184166E+02  0.51170994529E+02  0.17770000000E+01 0.  1.
         15    1    1    2    0    0  0.46569506411E+00 -0.13252795490E+01 -0.93351070498E+01  0.96059976269E+01  0.17770000000E+01 0. -1.
</event>
<event>
 6    1  0.1059789E-002  0.1844394E+03  0.7546771E-02  0.1066921E+00
        -11   -1    0    0    0    0  0.00000000000E+00  0.00000000000E+00  0.18250000000E+03  0.18250000000E+03  0.00000000000E+00 0. -1.
         11   -1    0    0    0    0 -0.00000000000E+00 -0.00000000000E+00 -0.18250000000E+03  0.18250000000E+03  0.00000000000E+00 0.  1.
        -11    1    1    2    0    0  0.42046946687E+01 -0.13745729311E+01  0.18050644490E+03  0.18056064233E+03  0.00000000000E+00 0. -1.
         11    1    1    2    0    0  0.59524407592E+00 -0.86169035575E-01 -0.29296893338E+02  0.29303066390E+02  0.00000000000E+00 0.  1.
        -15    1    1    2    0    0  0.55466521215E+01  0.13841140781E+02 -0.39583375960E+02  0.42336082829E+02  0.17770000000E+01 0. -1.
         15    1    1    2    0    0 -0.10346590866E+02 -0.12380398814E+02 -0.11162617560E+03  0.11280020845E+03  0.17770000000E+01 0.  1.
</event>
<event>
 6    1  0.1059789E-002  0.1847260E+03  0.7546771E-02  0.1066697E+00
        -11   -1    0    0    0    0  0.00000000000E+00  0.00000000000E+00  0.18250000000E+03  0.18250000000E+03  0.00000000000E+00 0.  1.
         11   -1    0    0    0    0 -0.00000000000E+00 -0.00000000000E+00 -0.18250000000E+03  0.18250000000E+03  0.00000000000E+00 0.  1.
        -11    1    1    2    0    0 -0.30107748813E+01 -0.73307216922E-01  0.18024881500E+03  0.18027397330E+03  0.00000000000E+00 0.  1.
         11    1    1    2    0    0 -0.85642387826E+00 -0.27021364595E+01 -0.17579758796E+03  0.17582043947E+03  0.00000000000E+00 0.  1.
        -15    1    1    2    0    0 -0.36906015309E+00 -0.70480241544E+00 -0.10153179967E+01  0.21958031505E+01  0.17770000000E+01 0. -1.
         15    1    1    2    0    0  0.42362589127E+01  0.34802460918E+01 -0.34359090472E+01  0.67097840811E+01  0.17770000000E+01 0. -1.
</event>
<event>
 6    1  0.1059789E-002  0.1832689E+03  0.7546771E-02  0.1067844E+00
        -11   -1    0    0    0    0  0.00000000000E+00  0.00000000000E+00  0.18250000000E+03  0.18250000000E+03  0.00000000000E+00 0.  1.
         11   -1    0    0    0    0 -0.00000000000E+00 -0.00000000000E+00 -0.18250000000E+03  0.18250000000E+03  0.00000000000E+00 0.  1.
        -11    1    1    2    0    0 -0.35256720783E+01  0.59201105478E+00  0.18169591172E+03  0.18173107928E+03  0.00000000000E+00 0.  1.
         11    1    1    2    0    0 -0.38112421214E+00  0.52105937290E+00 -0.23460813667E+02  0.23469694000E+02  0.00000000000E+00 0.  1.
        -15    1    1    2    0    0  0.73346722214E+01 -0.78989478926E+01 -0.45462226696E+02  0.46756417523E+02  0.17770000000E+01 0. -1.
         15    1    1    2    0    0 -0.34278759310E+01  0.67858774649E+01 -0.11277287136E+03  0.11304280919E+03  0.17770000000E+01 0.  1.
</event>
<event>
 6    1  0.1059789E-002  0.1826029E+03  0.7546771E-02  0.1068373E+00
        -11   -1    0    0    0    0  0.00000000000E+00  0.00000000000E+00  0.18250000000E+03  0.18250000000E+03  0.00000000000E+00 0.  1.
         11   -1    0    0    0    0 -0.00000000000E+00 -0.00000000000E+00 -0.18250000000E+03  0.18250000000E+03  0.00000000000E+00 0.  1.
        -11    1    1    2    0    0  0.91061760867E+00  0.46973009873E+00  0.99768100777E+01  0.10029287618E+02  0.00000000000E+00 0.  1.
         11    1    1    2    0    0 -0.33248894263E+01  0.73936495154E+00 -0.18236529150E+03  0.18239709727E+03  0.00000000000E+00 0.  1.
        -15    1    1    2    0    0 -0.60024691644E+00  0.17340354745E+00  0.13122996217E+03  0.13124348009E+03  0.17770000000E+01 0.  1.
         15    1    1    2    0    0  0.30145187341E+01 -0.13824985977E+01  0.41158519245E+02  0.41330135023E+02  0.17770000000E+01 0. -1.
</event>
<event>
 6    1  0.1059789E-002  0.1832620E+03  0.7546771E-02  0.1067850E+00
        -11   -1    0    0    0    0  0.00000000000E+00  0.00000000000E+00  0.18250000000E+03  0.18250000000E+03  0.00000000000E+00 0.  1.
         11   -1    0    0    0    0 -0.00000000000E+00 -0.00000000000E+00 -0.18250000000E+03  0.18250000000E+03  0.00000000000E+00 0. -1.
        -11    1    1    2    0    0  0.24317759562E+01 -0.41529148416E+00  0.73897380653E-01  0.24680887628E+01  0.00000000000E+00 0.  1.
         11    1    1    2    0    0 -0.26077795367E+01  0.44950179283E+01 -0.17924117417E+03  0.17931649177E+03  0.00000000000E+00 0. -1.
        -15    1    1    2    0    0  0.16852342198E+02 -0.10922080042E+02  0.90895050804E+02  0.93104034605E+02  0.17770000000E+01 0. -1.
         15    1    1    2    0    0 -0.16676338618E+02  0.68423535979E+01  0.88272225989E+02  0.90111384866E+02  0.17770000000E+01 0.  1.
</event>
<event>
 6    1  0.1059789E-002  0.1837387E+03  0.7546771E-02  0.1067473E+00
        -11   -1    0    0    0    0  0.00000000000E+00  0.00000000000E+00  0.18250000000E+03  0.18250000000E+03  0.00000000000E+00 0. -1.
         11   -1    0    0    0    0 -0.00000000000E+00 -0.00000000000E+00 -0.18250000000E+03  0.18250000000E+03  0.00000000000E+00 0.  1.
        -11    1    1    2    0    0 -0.34021440042E+01  0.25072423813E+01  0.18121202068E+03  0.18126129561E+03  0.00000000000E+00 0. -1.
         11    1    1    2    0    0 -0.26205421595E+01  0.11170948092E+01 -0.14262912568E+03  0.14265757125E+03  0.00000000000E+00 0.  1.
        -15    1    1    2    0    0  0.37713803345E+01 -0.10616227460E+01 -0.36410526462E+02  0.36663803932E+02  0.17770000000E+01 0. -1.
         15    1    1    2    0    0  0.22513058292E+01 -0.25627144445E+01 -0.21723685380E+01  0.44173292073E+01  0.17770000000E+01 0.  1.
</event>
<event>
 6    1  0.1059789E-002  0.1740453E+03  0.7546771E-02  0.1075391E+00
        -11   -1    0    0    0    0  0.00000000000E+00  0.00000000000E+00  0.18250000000E+03  0.18250000000E+03  0.00000000000E+00 0. -1.
         11   -1    0    0    0    0 -0.00000000000E+00 -0.00000000000E+00 -0.18250000000E+03  0.18250000000E+03  0.00000000000E+00 0.  1.
        -11    1    1    2    0    0  0.26116577045E+00  0.58781851173E+01  0.17106780595E+03  0.17116896769E+03  0.00000000000E+00 0. -1.
         11    1    1    2    0    0 -0.73598953646E+01  0.27709484293E+01 -0.17697697855E+03  0.17715162193E+03  0.00000000000E+00 0.  1.
        -15    1    1    2    0    0  0.57507631570E+01 -0.57674059428E+01 -0.14556974161E+01  0.84623301853E+01  0.17770000000E+01 0.  1.
         15    1    1    2    0    0  0.13479664371E+01 -0.28817276038E+01  0.73648700157E+01  0.82170801898E+01  0.17770000000E+01 0.  1.
</event>
<event>
 6    1  0.1059789E-002  0.1845919E+03  0.7546771E-02  0.1066802E+00
        -11   -1    0    0    0    0  0.00000000000E+00  0.00000000000E+00  0.18250000000E+03  0.18250000000E+03  0.00000000000E+00 0.  1.
         11   -1    0    0    0    0 -0.00000000000E+00 -0.00000000000E+00 -0.18250000000E+03  0.18250000000E+03  0.00000000000E+00 0.  1.
        -11    1    1    2    0    0 -0.80995411073E+00 -0.24155993853E+01  0.18039006446E+03  0.18040805553E+03  0.00000000000E+00 0.  1.
         11    1    1    2    0    0  0.21459830258E+01  0.29682415489E+01 -0.17677711094E+03  0.17681505211E+03  0.00000000000E+00 0.  1.
        -15    1    1    2    0    0 -0.28197873928E+01 -0.52112857763E+00  0.12972564989E+00  0.33759937321E+01  0.17770000000E+01 0.  1.
         15    1    1    2    0    0  0.14837584777E+01 -0.31513585952E-01 -0.37426791704E+01  0.44008986240E+01  0.17770000000E+01 0. -1.
</event>
<event>
 6    1  0.1059789E-002  0.1853372E+03  0.7546771E-02  0.1066219E+00
        -11   -1    0    0    0    0  0.00000000000E+00  0.00000000000E+00  0.18250000000E+03  0.18250000000E+03  0.00000000000E+00 0.  1.
         11   -1    0    0    0    0 -0.00000000000E+00 -0.00000000000E+00 -0.18250000000E+03  0.18250000000E+03  0.00000000000E+00 0. -1.
        -11    1    1    2    0    0 -0.13869180579E+01 -0.29108832203E+01  0.17963388399E+03  0.17966282047E+03  0.00000000000E+00 0.  1.
         11    1    1    2    0    0 -0.16941985194E+01  0.17248249818E+01 -0.17762831856E+03  0.17764477162E+03  0.00000000000E+00 0. -1.
        -15    1    1    2    0    0  0.23228077276E+00  0.12933849585E+01  0.16271729521E+01  0.27444889915E+01  0.17770000000E+01 0.  1.
         15    1    1    2    0    0  0.28488358045E+01 -0.10732672004E+00 -0.36327383780E+01  0.49479189149E+01  0.17770000000E+01 0. -1.
</event>
<event>
 6    1  0.1059789E-002  0.1846763E+03  0.7546771E-02  0.1066736E+00
        -11   -1    0    0    0    0  0.00000000000E+00  0.00000000000E+00  0.18250000000E+03  0.18250000000E+03  0.00000000000E+00 0. -1.
         11   -1    0    0    0    0 -0.00000000000E+00 -0.00000000000E+00 -0.18250000000E+03  0.18250000000E+03  0.00000000000E+00 0.  1.
        -11    1    1    2    0    0 -0.23009188685E+01  0.67810698611E+01  0.14529272165E+03  0.14546907610E+03  0.00000000000E+00 0. -1.
         11    1    1    2    0    0 -0.90936486240E+01 -0.10075800098E+01 -0.18009149031E+03  0.18032374926E+03  0.00000000000E+00 0.  1.
        -15    1    1    2    0    0  0.35430765658E+01  0.17746681679E+01  0.23599072203E+01  0.49426440035E+01  0.17770000000E+01 0. -1.
         15    1    1    2    0    0  0.78514909267E+01 -0.75481580192E+01  0.32438861445E+02  0.34264530642E+02  0.17770000000E+01 0.  1.
</event>
<event>
 6    1  0.1059789E-002  0.1748640E+03  0.7546771E-02  0.1074701E+00
        -11   -1    0    0    0    0  0.00000000000E+00  0.00000000000E+00  0.18250000000E+03  0.18250000000E+03  0.00000000000E+00 0.  1.
         11   -1    0    0    0    0 -0.00000000000E+00 -0.00000000000E+00 -0.18250000000E+03  0.18250000000E+03  0.00000000000E+00 0.  1.
        -11    1    1    2    0    0  0.10610262709E+02 -0.14101988307E+00  0.17551799654E+03  0.17583846186E+03  0.00000000000E+00 0.  1.
         11    1    1    2    0    0 -0.97154580801E+01 -0.47007754676E+01 -0.17359428046E+03  0.17392947313E+03  0.00000000000E+00 0.  1.
        -15    1    1    2    0    0 -0.28920336719E+01 -0.15971878616E+00 -0.68973151380E+01  0.76889566238E+01  0.17770000000E+01 0. -1.
         15    1    1    2    0    0  0.19972290432E+01  0.50015141369E+01  0.49735990551E+01  0.75431083827E+01  0.17770000000E+01 0.  1.
</event>
<event>
 6    1  0.1059789E-002  0.1834418E+03  0.7546771E-02  0.1067708E+00
        -11   -1    0    0    0    0  0.00000000000E+00  0.00000000000E+00  0.18250000000E+03  0.18250000000E+03  0.00000000000E+00 0.  1.
         11   -1    0    0    0    0 -0.00000000000E+00 -0.00000000000E+00 -0.18250000000E+03  0.18250000000E+03  0.00000000000E+00 0. -1.
        -11    1    1    2    0    0 -0.39754016873E+01  0.42054195529E+01  0.18146597363E+03  0.18155822471E+03  0.00000000000E+00 0.  1.
         11    1    1    2    0    0  0.33742850012E+01  0.46318525937E+01 -0.11748838578E+03  0.11762806065E+03  0.00000000000E+00 0. -1.
        -15    1    1    2    0    0  0.55129398364E+01 -0.11170831181E+01 -0.19633515333E+02  0.20500561789E+02  0.17770000000E+01 0. -1.
         15    1    1    2    0    0 -0.49118231503E+01 -0.77201890285E+01 -0.44344072520E+02  0.45313152858E+02  0.17770000000E+01 0.  1.
</event>
<event>
 6    1  0.1059789E-002  0.1826967E+03  0.7546771E-02  0.1068298E+00
        -11   -1    0    0    0    0  0.00000000000E+00  0.00000000000E+00  0.18250000000E+03  0.18250000000E+03  0.00000000000E+00 0.  1.
         11   -1    0    0    0    0 -0.00000000000E+00 -0.00000000000E+00 -0.18250000000E+03  0.18250000000E+03  0.00000000000E+00 0. -1.
        -11    1    1    2    0    0  0.28278180503E+00 -0.14898533176E+01  0.89190153680E+02  0.89203044466E+02  0.00000000000E+00 0.  1.
         11    1    1    2    0    0 -0.13748398090E+01  0.21387960601E+01 -0.18228552074E+03  0.18230325204E+03  0.00000000000E+00 0. -1.
        -15    1    1    2    0    0 -0.39606768381E+00 -0.36723265268E+01  0.29379082299E+02  0.29663631900E+02  0.17770000000E+01 0.  1.
         15    1    1    2    0    0  0.14881256877E+01  0.30233837843E+01  0.63716284758E+02  0.63830071596E+02  0.17770000000E+01 0. -1.
</event>
<event>
 6    1  0.1059789E-002  0.1859714E+03  0.7546771E-02  0.1065725E+00
        -11   -1    0    0    0    0  0.00000000000E+00  0.00000000000E+00  0.18250000000E+03  0.18250000000E+03  0.00000000000E+00 0.  1.
         11   -1    0    0    0    0 -0.00000000000E+00 -0.00000000000E+00 -0.18250000000E+03  0.18250000000E+03  0.00000000000E+00 0. -1.
        -11    1    1    2    0    0 -0.37518002510E+01 -0.63163043593E+00  0.17898812709E+03  0.17902855806E+03  0.00000000000E+00 0.  1.
         11    1    1    2    0    0 -0.20733918214E+01 -0.15471007842E+01 -0.15585500515E+03  0.15587647387E+03  0.00000000000E+00 0. -1.
        -15    1    1    2    0    0  0.34009938787E+01 -0.74820607134E+00 -0.25141481074E+02  0.25443631252E+02  0.17770000000E+01 0. -1.
         15    1    1    2    0    0  0.24241981938E+01  0.29269372914E+01  0.20083591349E+01  0.46513368192E+01  0.17770000000E+01 0.  1.
</event>
<event>
 6    1  0.1059789E-002  0.1867655E+03  0.7546771E-02  0.1065109E+00
        -11   -1    0    0    0    0  0.00000000000E+00  0.00000000000E+00  0.18250000000E+03  0.18250000000E+03  0.00000000000E+00 0. -1.
         11   -1    0    0    0    0 -0.00000000000E+00 -0.00000000000E+00 -0.18250000000E+03  0.18250000000E+03  0.00000000000E+00 0.  1.
        -11    1    1    2    0    0 -0.17211814211E+01 -0.19815475210E+01  0.16075014293E+03  0.16077156915E+03  0.00000000000E+00 0. -1.
         11    1    1    2    0    0  0.34094077750E+01 -0.18587536706E+01 -0.17819219144E+03  0.17823449755E+03  0.00000000000E+00 0.  1.
        -15    1    1    2    0    0 -0.13658020669E+01  0.13006816591E+01 -0.37586945769E+01  0.45653808151E+01  0.17770000000E+01 0. -1.
         15    1    1    2    0    0 -0.32242428693E+00  0.25396195326E+01  0.21200743093E+02  0.21428552482E+02  0.17770000000E+01 0.  1.
</event>
<event>
 6    1  0.1059789E-002  0.1760493E+03  0.7546771E-02  0.1073709E+00
        -11   -1    0    0    0    0  0.00000000000E+00  0.00000000000E+00  0.18250000000E+03  0.18250000000E+03  0.00000000000E+00 0. -1.
         11   -1    0    0    0    0 -0.00000000000E+00 -0.00000000000E+00 -0.18250000000E+03  0.18250000000E+03  0.00000000000E+00 0.  1.
        -11    1    1    2    0    0 -0.36924154383E+01  0.97821725531E+01  0.17602748464E+03  0.17633774462E+03  0.00000000000E+00 0. -1.
         11    1    1    2    0    0  0.44194800818E+00 -0.46143994104E+01 -0.17575277711E+03  0.17581389781E+03  0.00000000000E+00 0.  1.
        -15    1    1    2    0    0  0.25942858853E+01 -0.22555243290E+01  0.51284548105E+01  0.64246779683E+01  0.17770000000E+01 0.  1.
         15    1    1    2    0    0  0.65618154479E+00 -0.29122488137E+01 -0.54031623331E+01  0.64236795974E+01  0.17770000000E+01 0. -1.
</event>
<event>
 6    1  0.1059789E-002  0.1868813E+03  0.7546771E-02  0.1065020E+00
        -11   -1    0    0    0    0  0.00000000000E+00  0.00000000000E+00  0.18250000000E+03  0.18250000000E+03  0.00000000000E+00 0. -1.
         11   -1    0    0    0    0 -0.00000000000E+00 -0.00000000000E+00 -0.18250000000E+03  0.18250000000E+03  0.00000000000E+00 0.  1.
        -11    1    1    2    0    0 -0.39397257922E+01 -0.35062387488E+01  0.17804061846E+03  0.17811871595E+03  0.00000000000E+00 0. -1.
         11    1    1    2    0    0 -0.10600361618E+02  0.31938340818E+01 -0.14484275453E+03  0.14526524630E+03  0.00000000000E+00 0.  1.
        -15    1    1    2    0    0  0.50507843149E+00  0.47776411225E+01  0.14229104085E+00  0.51243472421E+01  0.17770000000E+01 0.  1.
         15    1    1    2    0    0  0.14035008979E+02 -0.44652364555E+01 -0.33340154968E+02  0.36491690505E+02  0.17770000000E+01 0. -1.
</event>
<event>
 6    1  0.1059789E-002  0.1873825E+03  0.7546771E-02  0.1064633E+00
        -11   -1    0    0    0    0  0.00000000000E+00  0.00000000000E+00  0.18250000000E+03  0.18250000000E+03  0.00000000000E+00 0.  1.
         11   -1    0    0    0    0 -0.00000000000E+00 -0.00000000000E+00 -0.18250000000E+03  0.18250000000E+03  0.00000000000E+00 0. -1.
        -11    1    1    2    0    0  0.89304442249E+00 -0.34930715560E+01  0.17758088248E+03  0.17761747915E+03  0.00000000000E+00 0.  1.
         11    1    1    2    0    0 -0.40280820052E+01 -0.43086976026E+01 -0.16031734946E+03  0.16042581730E+03  0.00000000000E+00 0. -1.
        -15    1    1    2    0    0  0.51834784552E+01  0.95291238253E+01 -0.19942725000E+02  0.22771531771E+02  0.17770000000E+01 0.  1.
         15    1    1    2    0    0 -0.20484408725E+01 -0.17273546668E+01  0.26791919723E+01  0.41851717739E+01  0.17770000000E+01 0.  1.
</event>
<event>
 6    1  0.1059789E-002  0.1830373E+03  0.7546771E-02  0.1068028E+00
        -11   -1    0    0    0    0  0.00000000000E+00  0.00000000000E+00  0.18250000000E+03  0.18250000000E+03  0.00000000000E+00 0.  1.
         11   -1    0    0    0    0 -0.00000000000E+00 -0.00000000000E+00 -0.18250000000E+03  0.18250000000E+03  0.00000000000E+00 0. -1.
        -11    1    1    2    0    0 -0.21336559634E+01 -0.37340298332E+00  0.14589177514E+03  0.14590785438E+03  0.00000000000E+00 0.  1.
         11    1    1    2    0    0  0.18482720891E+01  0.19764733846E+01 -0.18194256735E+03  0.18196268950E+03  0.00000000000E+00 0. -1.
        -15    1    1    2    0    0 -0.24237324184E+01 -0.27888491445E+01  0.28905539395E+02  0.29194864190E+02  0.17770000000E+01 0.  1.
         15    1    1    2    0    0  0.27091162926E+01  0.11857787432E+01  0.71452528130E+01  0.79345919288E+01  0.17770000000E+01 0. -1.
</event>
<event>
 6    1  0.1059789E-002  0.1827211E+03  0.7546771E-02  0.1068279E+00
        -11   -1    0    0    0    0  0.00000000000E+00  0.00000000000E+00  0.18250000000E+03  0.18250000000E+03  0.00000000000E+00 0.  1.
         11   -1    0    0    0    0 -0.00000000000E+00 -0.00000000000E+00 -0.18250000000E+03  0.18250000000E+03  0.00000000000E+00 0. -1.
        -11    1    1    2    0    0 -0.41270821365E+01 -0.85950000177E+01  0.18202941555E+03  0.18227894821E+03  0.00000000000E+00 0.  1.
         11    1    1    2    0    0  0.34198142424E+01  0.13429211432E+01 -0.61887599179E+02  0.61996560379E+02  0.00000000000E+00 0. -1.
        -15    1    1    2    0    0  0.87457625167E+00  0.10365255374E+01 -0.82567490617E+02  0.82597745155E+02  0.17770000000E+01 0. -1.
         15    1    1    2    0    0 -0.16730835755E+00  0.62155533371E+01 -0.37574325756E+02  0.38126746261E+02  0.17770000000E+01 0.  1.
</event>
<event>
 6    1  0.1059789E-002  0.1836790E+03  0.7546771E-02  0.1067520E+00
        -11   -1    0    0    0    0  0.00000000000E+00  0.00000000000E+00  0.18250000000E+03  0.18250000000E+03  0.00000000000E+00 0. -1.
         11   -1    0    0    0    0 -0.00000000000E+00 -0.00000000000E+00 -0.18250000000E+03  0.18250000000E+03  0.00000000000E+00 0. -1.
        -11    1    1    2    0    0 -0.38227243036E+01  0.19940569752E+01  0.13360709565E+03  0.13367664528E+03  0.00000000000E+00 0. -1.
         11    1    1    2    0    0  0.50970815513E+00 -0.26353635192E+01 -0.18130114946E+03  0.18132101847E+03  0.00000000000E+00 0. -1.
        -15    1    1    2    0    0  0.57746215700E+01  0.56878204575E+01  0.35549850276E+02  0.36505439862E+02  0.17770000000E+01 0. -1.
         15    1    1    2    0    0 -0.24616054215E+01 -0.50465139135E+01  0.12144203531E+02  0.13496896396E+02  0.17770000000E+01 0.  1.
</event>
<event>
 6    1  0.1059789E-002  0.1850861E+03  0.7546771E-02  0.1066415E+00
        -11   -1    0    0    0    0  0.00000000000E+00  0.00000000000E+00  0.18250000000E+03  0.18250000000E+03  0.00000000000E+00 0.  1.
         11   -1    0    0    0    0 -0.00000000000E+00 -0.00000000000E+00 -0.18250000000E+03  0.18250000000E+03  0.00000000000E+00 0.  1.
        -11    1    1    2    0    0  0.17295746490E+01  0.58417457053E+01  0.17981075302E+03  0.17991393587E+03  0.00000000000E+00 0.  1.
         11    1    1    2    0    0  0.14334448460E+01 -0.36667087432E+01 -0.14663156987E+03  0.14668441226E+03  0.00000000000E+00 0.  1.
        -15    1    1    2    0    0  0.31796856173E+01  0.52030878710E+01 -0.24279287343E+02  0.25096295482E+02  0.17770000000E+01 0.  1.
         15    1    1    2    0    0 -0.63427051123E+01 -0.73781248331E+01 -0.88998958037E+01  0.13305356384E+02  0.17770000000E+01 0. -1.
</event>
<event>
 6    1  0.1271975E-002  0.1943632E+03  0.7546771E-02  0.1059385E+00
        -11   -1    0    0    0    0  0.00000000000E+00  0.00000000000E+00  0.18250000000E+03  0.18250000000E+03  0.00000000000E+00 0.  1.
         11   -1    0    0    0    0 -0.00000000000E+00 -0.00000000000E+00 -0.18250000000E+03  0.18250000000E+03  0.00000000000E+00 0. -1.
        -11    1    1    2    0    0 -0.21571554524E+01  0.64821723291E+01  0.11151309703E+03  0.11172216740E+03  0.00000000000E+00 0.  1.
         11    1    1    2    0    0 -0.38938953342E+01  0.13748938073E+02 -0.17003741913E+03  0.17063680618E+03  0.00000000000E+00 0. -1.
        -15    1    1    2    0    0  0.72242157724E+01 -0.19838559410E+02 -0.27172821866E+01  0.21361158313E+02  0.17770000000E+01 0. -1.
         15    1    1    2    0    0 -0.11731649858E+01 -0.39255099225E+00  0.61241604278E+02  0.61279868113E+02  0.17770000000E+01 0.  1.
</event>
<event>
 6    1  0.1059789E-002  0.1845540E+03  0.7546771E-02  0.1066831E+00
        -11   -1    0    0    0    0  0.00000000000E+00  0.00000000000E+00  0.18250000000E+03  0.18250000000E+03  0.00000000000E+00 0. -1.
         11   -1    0    0    0    0 -0.00000000000E+00 -0.00000000000E+00 -0.18250000000E+03  0.18250000000E+03  0.00000000000E+00 0.  1.
        -11    1    1    2    0    0 -0.14187413082E+01 -0.47756728656E+01  0.18037720092E+03  0.18044598773E+03  0.00000000000E+00 0. -1.
         11    1    1    2    0    0  0.30294133801E+00 -0.59727592675E+01 -0.15400438001E+03  0.15412045513E+03  0.00000000000E+00 0.  1.
        -15    1    1    2    0    0  0.33675798887E+01 -0.22776309904E+00 -0.58486427482E+01  0.69826084905E+01  0.17770000000E+01 0. -1.
         15    1    1    2    0    0 -0.22517799186E+01  0.10976195232E+02 -0.20524178157E+02  0.23450948650E+02  0.17770000000E+01 0.  1.
</event>
<event>
 6    1  0.1059789E-002  0.1826040E+03  0.7546771E-02  0.1068372E+00
        -11   -1    0    0    0    0  0.00000000000E+00  0.00000000000E+00  0.18250000000E+03  0.18250000000E+03  0.00000000000E+00 0. -1.
         11   -1    0    0    0    0 -0.00000000000E+00 -0.00000000000E+00 -0.18250000000E+03  0.18250000000E+03  0.00000000000E+00 0. -1.
        -11    1    1    2    0    0  0.29789457038E+01 -0.49439177675E+00  0.18237099055E+03  0.18239598881E+03  0.00000000000E+00 0. -1.
         11    1    1    2    0    0  0.10321166785E-01  0.94747429135E+00 -0.26143102713E+02  0.26160268223E+02  0.00000000000E+00 0. -1.
        -15    1    1    2    0    0 -0.48290133028E+01 -0.59718444388E+00 -0.76771316606E+02  0.76945882159E+02  0.17770000000E+01 0.  1.
         15    1    1    2    0    0  0.18397464322E+01  0.14410192928E+00 -0.79456571229E+02  0.79497860807E+02  0.17770000000E+01 0. -1.
</event>
<event>
 6    1  0.1059789E-002  0.1831170E+03  0.7546771E-02  0.1067965E+00
        -11   -1    0    0    0    0  0.00000000000E+00  0.00000000000E+00  0.18250000000E+03  0.18250000000E+03  0.00000000000E+00 0. -1.
         11   -1    0    0    0    0 -0.00000000000E+00 -0.00000000000E+00 -0.18250000000E+03  0.18250000000E+03  0.00000000000E+00 0.  1.
        -11    1    1    2    0    0 -0.29010109584E+01  0.20926677702E+01  0.18184781799E+03  0.18188299545E+03  0.00000000000E+00 0. -1.
         11    1    1    2    0    0  0.17233801426E+01 -0.11209068676E+01 -0.13854303407E+03  0.13855828651E+03  0.00000000000E+00 0.  1.
        -15    1    1    2    0    0  0.36680000170E+01 -0.13425555522E+01 -0.76529722749E+01  0.87739610881E+01  0.17770000000E+01 0.  1.
         15    1    1    2    0    0 -0.24903692012E+01  0.37079464955E+00 -0.35651811649E+02  0.35784756955E+02  0.17770000000E+01 0.  1.
</event>
<event>
 6    1  0.1059789E-002  0.1835518E+03  0.7546771E-02  0.1067621E+00
        -11   -1    0    0    0    0  0.00000000000E+00  0.00000000000E+00  0.18250000000E+03  0.18250000000E+03  0.00000000000E+00 0.  1.
         11   -1    0    0    0    0 -0.00000000000E+00 -0.00000000000E+00 -0.18250000000E+03  0.18250000000E+03  0.00000000000E+00 0. -1.
        -11    1    1    2    0    0  0.14352307169E+01 -0.67254540383E+01  0.18131782811E+03  0.18144819208E+03  0.00000000000E+00 0.  1.
         11    1    1    2    0    0 -0.31913366566E+01 -0.47524685638E+01 -0.12455424147E+03  0.12468572354E+03  0.00000000000E+00 0. -1.
        -15    1    1    2    0    0 -0.26527378796E+01  0.28407487592E+00 -0.16394965477E+02  0.16705398493E+02  0.17770000000E+01 0.  1.
         15    1    1    2    0    0  0.44088438194E+01  0.11193847726E+02 -0.40368621164E+02  0.42160685887E+02  0.17770000000E+01 0. -1.
</event>
<event>
 6    1  0.1059789E-002  0.1889968E+03  0.7546771E-02  0.1063398E+00
        -11   -1    0    0    0    0  0.00000000000E+00  0.00000000000E+00  0.18250000000E+03  0.18250000000E+03  0.00000000000E+00 0.  1.
         11   -1    0    0    0    0 -0.00000000000E+00 -0.00000000000E+00 -0.18250000000E+03  0.18250000000E+03  0.00000000000E+00 0. -1.
        -11    1    1    2    0    0 -0.91564710235E+00  0.57635307388E+01  0.17590645438E+03  0.17600323119E+03  0.00000000000E+00 0.  1.
         11    1    1    2    0    0 -0.18648378914E+02 -0.85168888429E+01 -0.14080039777E+03  0.14228510619E+03  0.00000000000E+00 0. -1.
        -15    1    1    2    0    0  0.75585031469E+01  0.21424254452E+01  0.14541053570E+01  0.81849317651E+01  0.17770000000E+01 0.  1.
         15    1    1    2    0    0  0.12005522869E+02  0.61093265897E+00 -0.36560161973E+02  0.38526730858E+02  0.17770000000E+01 0. -1.
</event>
<event>
 6    1  0.1059789E-002  0.1839023E+03  0.7546771E-02  0.1067344E+00
        -11   -1    0    0    0    0  0.00000000000E+00  0.00000000000E+00  0.18250000000E+03  0.18250000000E+03  0.00000000000E+00 0. -1.
         11   -1    0    0    0    0 -0.00000000000E+00 -0.00000000000E+00 -0.18250000000E+03  0.18250000000E+03  0.00000000000E+00 0. -1.
        -11    1    1    2    0    0  0.39191424761E+01 -0.40722836319E+00  0.18105482116E+03  0.18109769125E+03  0.00000000000E+00 0. -1.
         11    1    1    2    0    0 -0.16047414291E+01  0.39577268179E+01 -0.14007631177E+03  0.14014139972E+03  0.00000000000E+00 0. -1.
        -15    1    1    2    0    0  0.38089128566E+01 -0.69140805574E+01 -0.19816075389E+02  0.21404366375E+02  0.17770000000E+01 0. -1.
         15    1    1    2    0    0 -0.61233139037E+01  0.33635821027E+01 -0.21162433995E+02  0.22356542651E+02  0.17770000000E+01 0.  1.
</event>
<event>
 6    1  0.1059789E-002  0.1789107E+03  0.7546771E-02  0.1071348E+00
        -11   -1    0    0    0    0  0.00000000000E+00  0.00000000000E+00  0.18250000000E+03  0.18250000000E+03  0.00000000000E+00 0.  1.
         11   -1    0    0    0    0 -0.00000000000E+00 -0.00000000000E+00 -0.18250000000E+03  0.18250000000E+03  0.00000000000E+00 0. -1.
        -11    1    1    2    0    0 -0.32764534024E+01  0.18229661852E+01  0.17865126080E+03  0.17869060227E+03  0.00000000000E+00 0.  1.
         11    1    1    2    0    0 -0.18900170953E+00  0.29091988889E+01 -0.17915542126E+03  0.17917913976E+03  0.00000000000E+00 0. -1.
        -15    1    1    2    0    0  0.13408624605E+01 -0.30983894716E+01 -0.26318110045E+00  0.38242545349E+01  0.17770000000E+01 0.  1.
         15    1    1    2    0    0  0.21245926514E+01 -0.16337756025E+01  0.76734155160E+00  0.33060034347E+01  0.17770000000E+01 0. -1.
</event>
<event>
 6    1  0.1059789E-002  0.1836932E+03  0.7546771E-02  0.1067509E+00
        -11   -1    0    0    0    0  0.00000000000E+00  0.00000000000E+00  0.18250000000E+03  0.18250000000E+03  0.00000000000E+00 0. -1.
         11   -1    0    0    0    0 -0.00000000000E+00 -0.00000000000E+00 -0.18250000000E+03  0.18250000000E+03  0.00000000000E+00 0.  1.
        -11    1    1    2    0    0  0.39860434649E+01 -0.26935325899E+00  0.18126278324E+03  0.18130680539E+03  0.00000000000E+00 0. -1.
         11    1    1    2    0    0  0.49289301207E+00  0.12797034782E+01 -0.53719009131E+02  0.53736510182E+02  0.00000000000E+00 0.  1.
        -15    1    1    2    0    0 -0.70520713501E+01 -0.87962557339E+01 -0.30747473014E+02  0.32797418359E+02  0.17770000000E+01 0. -1.
         15    1    1    2    0    0  0.25731348731E+01  0.77859055147E+01 -0.96796301095E+02  0.97159266066E+02  0.17770000000E+01 0.  1.
</event>
<event>
 6    1  0.1059789E-002  0.1717424E+03  0.7546771E-02  0.1077356E+00
        -11   -1    0    0    0    0  0.00000000000E+00  0.00000000000E+00  0.18250000000E+03  0.18250000000E+03  0.00000000000E+00 0. -1.
         11   -1    0    0    0    0 -0.00000000000E+00 -0.00000000000E+00 -0.18250000000E+03  0.18250000000E+03  0.00000000000E+00 0.  1.
        -11    1    1    2    0    0  0.53011597411E+01  0.84461173502E+00  0.16801019029E+03  0.16809592412E+03  0.00000000000E+00 0. -1.
         11    1    1    2    0    0  0.83645864820E+01  0.20767777176E+01 -0.17554407735E+03  0.17575551885E+03  0.00000000000E+00 0.  1.
        -15    1    1    2    0    0 -0.10426814858E+02  0.90830962920E-01  0.10995640520E+02  0.15257409931E+02  0.17770000000E+01 0.  1.
         15    1    1    2    0    0 -0.32389313650E+01 -0.30122204156E+01 -0.34617534558E+01  0.58911471046E+01  0.17770000000E+01 0. -1.
</event>
<event>
 6    1  0.1059789E-002  0.1845890E+03  0.7546771E-02  0.1066804E+00
        -11   -1    0    0    0    0  0.00000000000E+00  0.00000000000E+00  0.18250000000E+03  0.18250000000E+03  0.00000000000E+00 0.  1.
         11   -1    0    0    0    0 -0.00000000000E+00 -0.00000000000E+00 -0.18250000000E+03  0.18250000000E+03  0.00000000000E+00 0.  1.
        -11    1    1    2    0    0 -0.83140476739E+00  0.50218253507E+01  0.15803973483E+03  0.15812168653E+03  0.00000000000E+00 0.  1.
         11    1    1    2    0    0  0.17534152651E+01 -0.27116613311E+01 -0.18038206572E+03  0.18041096754E+03  0.00000000000E+00 0.  1.
        -15    1    1    2    0    0  0.51899834011E+01 -0.85386156203E+00  0.35916954806E+01  0.66123379146E+01  0.17770000000E+01 0.  1.
         15    1    1    2    0    0 -0.61119938988E+01 -0.14563024575E+01  0.18750635412E+02  0.19855008024E+02  0.17770000000E+01 0. -1.
</event>
<event>
 6    1  0.1059789E-002  0.2082475E+03  0.7546771E-02  0.1049627E+00
        -11   -1    0    0    0    0  0.00000000000E+00  0.00000000000E+00  0.18250000000E+03  0.18250000000E+03  0.00000000000E+00 0. -1.
         11   -1    0    0    0    0 -0.00000000000E+00 -0.00000000000E+00 -0.18250000000E+03  0.18250000000E+03  0.00000000000E+00 0.  1.
        -11    1    1    2    0    0 -0.16266481433E+02 -0.21574186419E+01  0.15589133298E+03  0.15675254566E+03  0.00000000000E+00 0. -1.
         11    1    1    2    0    0  0.21160762257E+00 -0.14703951843E+01 -0.96664255180E+02  0.96675669479E+02  0.00000000000E+00 0.  1.
        -15    1    1    2    0    0  0.15459774216E+02  0.25686036294E+01  0.23780960324E+02  0.28535839682E+02  0.17770000000E+01 0. -1.
         15    1    1    2    0    0  0.59509959511E+00  0.10592101968E+01 -0.83008038122E+02  0.83035945179E+02  0.17770000000E+01 0. -1.
</event>
<event>
 6    1  0.1059789E-002  0.1883919E+03  0.7546771E-02  0.1063859E+00
        -11   -1    0    0    0    0  0.00000000000E+00  0.00000000000E+00  0.18250000000E+03  0.18250000000E+03  0.00000000000E+00 0. -1.
         11   -1    0    0    0    0 -0.00000000000E+00 -0.00000000000E+00 -0.18250000000E+03  0.18250000000E+03  0.00000000000E+00 0. -1.
        -11    1    1    2    0    0  0.68553165832E+01 -0.55949249301E+01  0.12304732424E+03  0.12336507834E+03  0.00000000000E+00 0. -1.
         11    1    1    2    0    0  0.76322199974E-01 -0.24149225400E+01 -0.17659158878E+03  0.17660811676E+03  0.00000000000E+00 0. -1.
        -15    1    1    2    0    0 -0.11425982339E+02  0.53335577219E+01  0.57069822292E+02  0.58473261033E+02  0.17770000000E+01 0.  1.
         15    1    1    2    0    0  0.44943435556E+01  0.26762897481E+01 -0.35255577515E+01  0.65535438711E+01  0.17770000000E+01 0. -1.
</event>
<event>
 6    1  0.1059789E-002  0.1715321E+03  0.7546771E-02  0.1077537E+00
        -11   -1    0    0    0    0  0.00000000000E+00  0.00000000000E+00  0.18250000000E+03  0.18250000000E+03  0.00000000000E+00 0. -1.
         11   -1    0    0    0    0 -0.00000000000E+00 -0.00000000000E+00 -0.18250000000E+03  0.18250000000E+03  0.00000000000E+00 0.  1.
        -11    1    1    2    0    0 -0.22280006881E+01 -0.54448959138E+01  0.16977218809E+03  0.16987409081E+03  0.00000000000E+00 0. -1.
         11    1    1    2    0    0 -0.26645242041E+01 -0.14669461957E+01 -0.17328583181E+03  0.17331252444E+03  0.00000000000E+00 0.  1.
        -15    1    1    2    0    0  0.51197084261E+01 -0.54019346803E+01  0.52067978626E+01  0.92553112125E+01  0.17770000000E+01 0. -1.
         15    1    1    2    0    0 -0.22718353381E+00  0.12313776790E+02 -0.16931541403E+01  0.12558073544E+02  0.17770000000E+01 0.  1.
</event>
<event>
 6    1  0.1059789E-002  0.1860038E+03  0.7546771E-02  0.1065699E+00
        -11   -1    0    0    0    0  0.00000000000E+00  0.00000000000E+00  0.18250000000E+03  0.18250000000E+03  0.00000000000E+00 0.  1.
         11   -1    0    0    0    0 -0.00000000000E+00 -0.00000000000E+00 -0.18250000000E+03  0.18250000000E+03  0.00000000000E+00 0.  1.
        -11    1    1    2    0    0  0.28338266156E+01 -0.27178906509E+01  0.17895311028E+03  0.17899618203E+03  0.00000000000E+00 0.  1.
         11    1    1    2    0    0  0.13799571471E+01  0.22606825196E+01 -0.17606140182E+03  0.17608132263E+03  0.00000000000E+00 0.  1.
        -15    1    1    2    0    0  0.17210635319E+01  0.13668570908E+01  0.38989632433E+00  0.28530871230E+01  0.17770000000E+01 0.  1.
         15    1    1    2    0    0 -0.59348472946E+01 -0.90964895950E+00 -0.32816047772E+01  0.70694082180E+01  0.17770000000E+01 0.  1.
</event>
<event>
 6    1  0.1059789E-002  0.1835442E+03  0.7546771E-02  0.1067627E+00
        -11   -1    0    0    0    0  0.00000000000E+00  0.00000000000E+00  0.18250000000E+03  0.18250000000E+03  0.00000000000E+00 0. -1.
         11   -1    0    0    0    0 -0.00000000000E+00 -0.00000000000E+00 -0.18250000000E+03  0.18250000000E+03  0.00000000000E+00 0. -1.
        -11    1    1    2    0    0 -0.82111468051E+00 -0.41696956655E+01  0.18140597918E+03  0.18145575183E+03  0.00000000000E+00 0. -1.
         11    1    1    2    0    0  0.47356873926E+01 -0.95197944035E+00 -0.13677563683E+03  0.13686090688E+03  0.00000000000E+00 0. -1.
        -15    1    1    2    0    0 -0.48420653500E+01  0.21291897173E+01 -0.41610811835E+02  0.41983287583E+02  0.17770000000E+01 0. -1.
         15    1    1    2    0    0  0.92749263796E+00  0.29924853886E+01 -0.30195305080E+01  0.47000537107E+01  0.17770000000E+01 0. -1.
</event>
<event>
 6    1  0.1059789E-002  0.1831321E+03  0.7546771E-02  0.1067953E+00
        -11   -1    0    0    0    0  0.00000000000E+00  0.00000000000E+00  0.18250000000E+03  0.18250000000E+03  0.00000000000E+00 0.  1.
         11   -1    0    0    0    0 -0.00000000000E+00 -0.00000000000E+00 -0.18250000000E+03  0.18250000000E+03  0.00000000000E+00 0.  1.
        -11    1    1    2    0    0  0.97945005069E-01 -0.26086336355E+01  0.15946655878E+03  0.15948792410E+03  0.00000000000E+00 0.  1.
         11    1    1    2    0    0 -0.23055693924E+01 -0.10362873537E+01 -0.18185036327E+03  0.18186793055E+03  0.00000000000E+00 0.  1.
        -15    1    1    2    0    0 -0.68350263217E+00  0.37408933922E+01  0.11434276716E+02  0.12180388838E+02  0.17770000000E+01 0.  1.
         15    1    1    2    0    0  0.28911270195E+01 -0.95972402944E-01  0.10949527766E+02  0.11463756516E+02  0.17770000000E+01 0. -1.
</event>
<event>
 6    1  0.1059789E-002  0.2040521E+03  0.7546771E-02  0.1052486E+00
        -11   -1    0    0    0    0  0.00000000000E+00  0.00000000000E+00  0.18250000000E+03  0.18250000000E+03  0.00000000000E+00 0. -1.
         11   -1    0    0    0    0 -0.00000000000E+00 -0.00000000000E+00 -0.18250000000E+03  0.18250000000E+03  0.00000000000E+00 0. -1.
        -11    1    1    2    0    0  0.15971141224E+01  0.21567837898E+01  0.16092555380E+03  0.16094793058E+03  0.00000000000E+00 0. -1.
         11    1    1    2    0    0 -0.40447321679E+01 -0.10245166715E+01 -0.14597126420E+03  0.14603088531E+03  0.00000000000E+00 0. -1.
        -15    1    1    2    0    0  0.10197389692E+02  0.37209652057E+01 -0.34585251436E+02  0.36292281335E+02  0.17770000000E+01 0. -1.
         15    1    1    2    0    0 -0.77497716465E+01 -0.48532323241E+01  0.19630961831E+02  0.21728902779E+02  0.17770000000E+01 0.  1.
</event>
<event>
 6    1  0.1059789E-002  0.1835208E+03  0.7546771E-02  0.1067645E+00
        -11   -1    0    0    0    0  0.00000000000E+00  0.00000000000E+00  0.18250000000E+03  0.18250000000E+03  0.00000000000E+00 0. -1.
         11   -1    0    0    0    0 -0.00000000000E+00 -0.00000000000E+00 -0.18250000000E+03  0.18250000000E+03  0.00000000000E+00 0.  1.
        -11    1    1    2    0    0 -0.32974928844E+01 -0.11784976956E+01  0.15185750903E+03  0.15189787808E+03  0.00000000000E+00 0. -1.
         11    1    1    2    0    0  0.19869364996E+01  0.26971762291E+01 -0.18144827723E+03  0.18147919987E+03  0.00000000000E+00 0.  1.
        -15    1    1    2    0    0  0.20869166545E+01  0.16221239603E+01  0.19452237159E+01  0.37320412069E+01  0.17770000000E+01 0.  1.
         15    1    1    2    0    0 -0.77636026968E+00 -0.31408024937E+01  0.27645544483E+02  0.27890880846E+02  0.17770000000E+01 0. -1.
</event>
<event>
 6    1  0.1059789E-002  0.1842308E+03  0.7546771E-02  0.1067085E+00
        -11   -1    0    0    0    0  0.00000000000E+00  0.00000000000E+00  0.18250000000E+03  0.18250000000E+03  0.00000000000E+00 0.  1.
         11   -1    0    0    0    0 -0.00000000000E+00 -0.00000000000E+00 -0.18250000000E+03  0.18250000000E+03  0.00000000000E+00 0.  1.
        -11    1    1    2    0    0 -0.29913702772E+01  0.16032908559E+01  0.16413500671E+03  0.16417009248E+03  0.00000000000E+00 0.  1.
         11    1    1    2    0    0 -0.27209420830E+01  0.11660438113E+01 -0.18074492042E+03  0.18076916065E+03  0.00000000000E+00 0.  1.
        -15    1    1    2    0    0  0.24763333759E+01  0.27695296473E+01  0.37021336735E+01  0.55376930388E+01  0.17770000000E+01 0. -1.
         15    1    1    2    0    0  0.32359789844E+01 -0.55388643145E+01  0.12907780043E+02  0.14523053829E+02  0.17770000000E+01 0.  1.
</event>
<event>
 6    1  0.1059789E-002  0.1833691E+03  0.7546771E-02  0.1067765E+00
        -11   -1    0    0    0    0  0.00000000000E+00  0.00000000000E+00  0.18250000000E+03  0.18250000000E+03  0.00000000000E+00 0. -1.
         11   -1    0    0    0    0 -0.00000000000E+00 -0.00000000000E+00 -0.18250000000E+03  0.18250000000E+03  0.00000000000E+00 0.  1.
        -11    1    1    2    0    0 -0.24234366778E+01  0.35006458724E+01  0.18158095735E+03  0.18163086642E+03  0.00000000000E+00 0. -1.
         11    1    1    2    0    0  0.22154274857E+01  0.22228609072E+01 -0.15660760827E+03  0.15663905068E+03  0.00000000000E+00 0.  1.
        -15    1    1    2    0    0 -0.88499375426E+00 -0.17212240487E+01 -0.19311492494E+02  0.19489415012E+02  0.17770000000E+01 0. -1.
         15    1    1    2    0    0  0.10930029464E+01 -0.40022827309E+01 -0.56618565841E+01  0.72406678889E+01  0.17770000000E+01 0. -1.
</event>
<event>
 6    1  0.1059789E-002  0.1895934E+03  0.7546771E-02  0.1062945E+00
        -11   -1    0    0    0    0  0.00000000000E+00  0.00000000000E+00  0.18250000000E+03  0.18250000000E+03  0.00000000000E+00 0. -1.
         11   -1    0    0    0    0 -0.00000000000E+00 -0.00000000000E+00 -0.18250000000E+03  0.18250000000E+03  0.00000000000E+00 0.  1.
        -11    1    1    2    0    0  0.84605185134E+01  0.36657250377E+01  0.17516409974E+03  0.17540661262E+03  0.00000000000E+00 0. -1.
         11    1    1    2    0    0  0.18914686442E+01  0.60490255267E+00 -0.11492889236E+03  0.11494604761E+03  0.00000000000E+00 0.  1.
        -15    1    1    2    0    0 -0.70988778503E+01 -0.21216226752E+01  0.51020558516E+01  0.91697356790E+01  0.17770000000E+01 0.  1.
         15    1    1    2    0    0 -0.32531093073E+01 -0.21490049151E+01 -0.65337263229E+02  0.65477604091E+02  0.17770000000E+01 0.  1.
</event>
<event>
 6    1  0.1059789E-002  0.1841598E+03  0.7546771E-02  0.1067141E+00
        -11   -1    0    0    0    0  0.00000000000E+00  0.00000000000E+00  0.18250000000E+03  0.18250000000E+03  0.00000000000E+00 0. -1.
         11   -1    0    0    0    0 -0.00000000000E+00 -0.00000000000E+00 -0.18250000000E+03  0.18250000000E+03  0.00000000000E+00 0. -1.
        -11    1    1    2    0    0  0.33784376076E+01 -0.98997530012E+00  0.96355492394E+02  0.96419784310E+02  0.00000000000E+00 0. -1.
         11    1    1    2    0    0  0.10412253970E+02  0.50902859217E+01 -0.18046839166E+03  0.18084016819E+03  0.00000000000E+00 0. -1.
        -15    1    1    2    0    0 -0.13641550765E+02  0.51712386911E+01  0.61572052720E+02  0.63301730008E+02  0.17770000000E+01 0. -1.
         15    1    1    2    0    0 -0.14914081188E+00 -0.92715493126E+01  0.22540846547E+02  0.24438317489E+02  0.17770000000E+01 0.  1.
</event>
<event>
 6    1  0.1059789E-002  0.1828626E+03  0.7546771E-02  0.1068167E+00
        -11   -1    0    0    0    0  0.00000000000E+00  0.00000000000E+00  0.18250000000E+03  0.18250000000E+03  0.00000000000E+00 0. -1.
         11   -1    0    0    0    0 -0.00000000000E+00 -0.00000000000E+00 -0.18250000000E+03  0.18250000000E+03  0.00000000000E+00 0.  1.
        -11    1    1    2    0    0 -0.16176763780E+01 -0.50128739108E+01  0.11270781654E+03  0.11283083661E+03  0.00000000000E+00 0. -1.
         11    1    1    2    0    0 -0.22317259975E+01  0.32348694040E+01 -0.18209504490E+03  0.18213744908E+03  0.00000000000E+00 0.  1.
        -15    1    1    2    0    0  0.36437435288E+01 -0.82970189489E+00  0.59660693906E+02  0.59804024935E+02  0.17770000000E+01 0.  1.
         15    1    1    2    0    0  0.20565884674E+00  0.26077064016E+01  0.97265344585E+01  0.10227689368E+02  0.17770000000E+01 0. -1.
</event>
<event>
 6    1  0.1059789E-002  0.1643640E+03  0.7546771E-02  0.1083884E+00
        -11   -1    0    0    0    0  0.00000000000E+00  0.00000000000E+00  0.18250000000E+03  0.18250000000E+03  0.00000000000E+00 0. -1.
         11   -1    0    0    0    0 -0.00000000000E+00 -0.00000000000E+00 -0.18250000000E+03  0.18250000000E+03  0.00000000000E+00 0.  1.
        -11    1    1    2    0    0  0.10402725547E+02 -0.47288077566E+01  0.16556790047E+03  0.16596176664E+03  0.00000000000E+00 0. -1.
         11    1    1    2    0    0  0.55753652144E+01 -0.55936110387E+01 -0.16313416744E+03  0.16332522698E+03  0.00000000000E+00 0.  1.
        -15    1    1    2    0    0 -0.69318992386E+01  0.21856766776E+01 -0.15842018295E+02  0.17520150748E+02  0.17770000000E+01 0. -1.
         15    1    1    2    0    0 -0.90461915232E+01  0.81367421178E+01  0.13408285264E+02  0.18192855633E+02  0.17770000000E+01 0.  1.
</event>
<event>
 6    1  0.1059789E-002  0.1836273E+03  0.7546771E-02  0.1067561E+00
        -11   -1    0    0    0    0  0.00000000000E+00  0.00000000000E+00  0.18250000000E+03  0.18250000000E+03  0.00000000000E+00 0. -1.
         11   -1    0    0    0    0 -0.00000000000E+00 -0.00000000000E+00 -0.18250000000E+03  0.18250000000E+03  0.00000000000E+00 0.  1.
        -11    1    1    2    0    0  0.32126031950E+01  0.58483188544E+00  0.18134331318E+03  0.18137271042E+03  0.00000000000E+00 0. -1.
         11    1    1    2    0    0  0.27893185513E+01 -0.48310427891E+01 -0.14971499845E+03  0.14981889078E+03  0.00000000000E+00 0.  1.
        -15    1    1    2    0    0 -0.14923595390E+01  0.20457842808E+01 -0.25516986771E+02  0.25703826819E+02  0.17770000000E+01 0. -1.
         15    1    1    2    0    0 -0.45095622074E+01  0.22004266228E+01 -0.61113279579E+01  0.81045719834E+01  0.17770000000E+01 0.  1.
</event>
<event>
 6    1  0.1059789E-002  0.1849185E+03  0.7546771E-02  0.1066546E+00
        -11   -1    0    0    0    0  0.00000000000E+00  0.00000000000E+00  0.18250000000E+03  0.18250000000E+03  0.00000000000E+00 0.  1.
         11   -1    0    0    0    0 -0.00000000000E+00 -0.00000000000E+00 -0.18250000000E+03  0.18250000000E+03  0.00000000000E+00 0. -1.
        -11    1    1    2    0    0 -0.53246267520E+01  0.26124542435E+01  0.15412356060E+03  0.15423763645E+03  0.00000000000E+00 0.  1.
         11    1    1    2    0    0 -0.27873129263E+01  0.37478034237E+01 -0.18002088205E+03  0.18008146245E+03  0.00000000000E+00 0. -1.
        -15    1    1    2    0    0  0.78588744443E+01 -0.30279772114E+01  0.25454145884E+02  0.26870091649E+02  0.17770000000E+01 0. -1.
         15    1    1    2    0    0  0.25306523404E+00 -0.33322804558E+01  0.44317557402E+00  0.38108094466E+01  0.17770000000E+01 0.  1.
</event>
<event>
 6    1  0.1059789E-002  0.1758091E+03  0.7546771E-02  0.1073909E+00
        -11   -1    0    0    0    0  0.00000000000E+00  0.00000000000E+00  0.18250000000E+03  0.18250000000E+03  0.00000000000E+00 0.  1.
         11   -1    0    0    0    0 -0.00000000000E+00 -0.00000000000E+00 -0.18250000000E+03  0.18250000000E+03  0.00000000000E+00 0. -1.
        -11    1    1    2    0    0  0.45549642033E+01  0.12387474044E+01  0.17419564537E+03  0.17425959101E+03  0.00000000000E+00 0.  1.
         11    1    1    2    0    0  0.43644979121E+01  0.51828766814E+00 -0.17743652121E+03  0.17749094772E+03  0.00000000000E+00 0. -1.
        -15    1    1    2    0    0 -0.29104923012E+00 -0.17089030022E+01  0.36684276573E+01  0.44294638053E+01  0.17770000000E+01 0.  1.
         15    1    1    2    0    0 -0.86284128854E+01 -0.48132070423E-01 -0.42755181503E+00  0.88199974587E+01  0.17770000000E+01 0. -1.
</event>
<event>
 6    1  0.1059789E-002  0.1281649E+03  0.7546771E-02  0.1122447E+00
        -11   -1    0    0    0    0  0.00000000000E+00  0.00000000000E+00  0.18250000000E+03  0.18250000000E+03  0.00000000000E+00 0. -1.
         11   -1    0    0    0    0 -0.00000000000E+00 -0.00000000000E+00 -0.18250000000E+03  0.18250000000E+03  0.00000000000E+00 0. -1.
        -11    1    1    2    0    0  0.20377728388E+02  0.22202865183E+02  0.15549842522E+03  0.15839185359E+03  0.00000000000E+00 0. -1.
         11    1    1    2    0    0  0.17108215033E+01  0.17698733143E+01 -0.35209557769E+02  0.35295499997E+02  0.00000000000E+00 0. -1.
        -15    1    1    2    0    0  0.32916542646E+02 -0.38374727250E+02 -0.97861677954E+02  0.11016435091E+03  0.17770000000E+01 0. -1.
         15    1    1    2    0    0 -0.55005092537E+02  0.14401988753E+02 -0.22427189498E+02  0.61148295502E+02  0.17770000000E+01 0.  1.
</event>
<event>
 6    1  0.1059789E-002  0.1825677E+03  0.7546771E-02  0.1068401E+00
        -11   -1    0    0    0    0  0.00000000000E+00  0.00000000000E+00  0.18250000000E+03  0.18250000000E+03  0.00000000000E+00 0. -1.
         11   -1    0    0    0    0 -0.00000000000E+00 -0.00000000000E+00 -0.18250000000E+03  0.18250000000E+03  0.00000000000E+00 0.  1.
        -11    1    1    2    0    0  0.48039016196E+00  0.55783136064E+00  0.24670351427E+02  0.24681332826E+02  0.00000000000E+00 0. -1.
         11    1    1    2    0    0 -0.15762113302E+01  0.25659133436E+01 -0.18240743078E+03  0.18243228650E+03  0.00000000000E+00 0.  1.
        -15    1    1    2    0    0  0.16941816402E+01  0.18884547446E+00  0.96311833870E+02  0.96343307948E+02  0.17770000000E+01 0. -1.
         15    1    1    2    0    0 -0.59836047189E+00 -0.33125901787E+01  0.61425245483E+02  0.61543072727E+02  0.17770000000E+01 0.  1.
</event>
<event>
 6    1  0.1059789E-002  0.1830772E+03  0.7546771E-02  0.1067996E+00
        -11   -1    0    0    0    0  0.00000000000E+00  0.00000000000E+00  0.18250000000E+03  0.18250000000E+03  0.00000000000E+00 0. -1.
         11   -1    0    0    0    0 -0.00000000000E+00 -0.00000000000E+00 -0.18250000000E+03  0.18250000000E+03  0.00000000000E+00 0. -1.
        -11    1    1    2    0    0  0.49976552243E+01  0.16501395361E+01  0.18184666390E+03  0.18192280970E+03  0.00000000000E+00 0. -1.
         11    1    1    2    0    0 -0.96986641237E+00  0.51568517623E+01 -0.10169634707E+03  0.10183162951E+03  0.00000000000E+00 0. -1.
        -15    1    1    2    0    0 -0.83439224125E+00 -0.32999840092E+01 -0.75645799778E+01  0.84833191684E+01  0.17770000000E+01 0.  1.
         15    1    1    2    0    0 -0.31933965707E+01 -0.35070072893E+01 -0.72585736853E+02  0.72762241618E+02  0.17770000000E+01 0. -1.
</event>
<event>
 6    1  0.1059789E-002  0.1850698E+03  0.7546771E-02  0.1066427E+00
        -11   -1    0    0    0    0  0.00000000000E+00  0.00000000000E+00  0.18250000000E+03  0.18250000000E+03  0.00000000000E+00 0.  1.
         11   -1    0    0    0    0 -0.00000000000E+00 -0.00000000000E+00 -0.18250000000E+03  0.18250000000E+03  0.00000000000E+00 0. -1.
        -11    1    1    2    0    0 -0.72296566384E+00  0.56586755811E+01  0.16753646424E+03  0.16763355910E+03  0.00000000000E+00 0.  1.
         11    1    1    2    0    0  0.37181096372E+01 -0.10370163310E+01 -0.17988875252E+03  0.17993016153E+03  0.00000000000E+00 0. -1.
        -15    1    1    2    0    0 -0.18071273458E+01 -0.75094042006E+01  0.11084271809E+02  0.13626286039E+02  0.17770000000E+01 0. -1.
         15    1    1    2    0    0 -0.11880166275E+01  0.28877449505E+01  0.12680164793E+01  0.38099933331E+01  0.17770000000E+01 0.  1.
</event>
<event>
 6    1  0.1059789E-002  0.1826529E+03  0.7546771E-02  0.1068333E+00
        -11   -1    0    0    0    0  0.00000000000E+00  0.00000000000E+00  0.18250000000E+03  0.18250000000E+03  0.00000000000E+00 0. -1.
         11   -1    0    0    0    0 -0.00000000000E+00 -0.00000000000E+00 -0.18250000000E+03  0.18250000000E+03  0.00000000000E+00 0.  1.
        -11    1    1    2    0    0 -0.17634061193E+01  0.30368066878E+01  0.18231330493E+03  0.18234712213E+03  0.00000000000E+00 0. -1.
         11    1    1    2    0    0 -0.98816528277E+00 -0.73483800400E+00 -0.43296768973E+02  0.43314277796E+02  0.00000000000E+00 0.  1.
        -15    1    1    2    0    0  0.28603878826E+01  0.13443348905E+00 -0.19863714886E+02  0.20147575270E+02  0.17770000000E+01 0. -1.
         15    1    1    2    0    0 -0.10881648051E+00 -0.24364021728E+01 -0.11915282107E+03  0.11919102480E+03  0.17770000000E+01 0.  1.
</event>
<event>
 6    1  0.1059789E-002  0.1847436E+03  0.7546771E-02  0.1066683E+00
        -11   -1    0    0    0    0  0.00000000000E+00  0.00000000000E+00  0.18250000000E+03  0.18250000000E+03  0.00000000000E+00 0.  1.
         11   -1    0    0    0    0 -0.00000000000E+00 -0.00000000000E+00 -0.18250000000E+03  0.18250000000E+03  0.00000000000E+00 0.  1.
        -11    1    1    2    0    0 -0.60169698920E+00 -0.28484239596E+01  0.16893979090E+03  0.16896487359E+03  0.00000000000E+00 0.  1.
         11    1    1    2    0    0  0.10379549102E+01 -0.37058548336E+01 -0.18021530230E+03  0.18025638933E+03  0.00000000000E+00 0.  1.
        -15    1    1    2    0    0  0.19005320934E+01  0.17006240731E+01 -0.53678605027E-01  0.31088188864E+01  0.17770000000E+01 0.  1.
         15    1    1    2    0    0 -0.23367900144E+01  0.48536547201E+01  0.11329190013E+02  0.12669918195E+02  0.17770000000E+01 0. -1.
</event>
<event>
 6    1  0.1059789E-002  0.1850975E+03  0.7546771E-02  0.1066406E+00
        -11   -1    0    0    0    0  0.00000000000E+00  0.00000000000E+00  0.18250000000E+03  0.18250000000E+03  0.00000000000E+00 0. -1.
         11   -1    0    0    0    0 -0.00000000000E+00 -0.00000000000E+00 -0.18250000000E+03  0.18250000000E+03  0.00000000000E+00 0. -1.
        -11    1    1    2    0    0  0.13852482900E+02 -0.60635215668E+01  0.17926590184E+03  0.17990253233E+03  0.00000000000E+00 0. -1.
         11    1    1    2    0    0 -0.27277788165E+01 -0.15575811297E+01 -0.94617314233E+02  0.94669440629E+02  0.00000000000E+00 0. -1.
        -15    1    1    2    0    0 -0.15140822172E+02  0.11717790993E+02 -0.31241629518E+02  0.36684441739E+02  0.17770000000E+01 0.  1.
         15    1    1    2    0    0  0.40161180888E+01 -0.40966882970E+01 -0.53406958090E+02  0.53743585301E+02  0.17770000000E+01 0. -1.
</event>
<event>
 6    1  0.1059789E-002  0.1928334E+03  0.7546771E-02  0.1060515E+00
        -11   -1    0    0    0    0  0.00000000000E+00  0.00000000000E+00  0.18250000000E+03  0.18250000000E+03  0.00000000000E+00 0.  1.
         11   -1    0    0    0    0 -0.00000000000E+00 -0.00000000000E+00 -0.18250000000E+03  0.18250000000E+03  0.00000000000E+00 0.  1.
        -11    1    1    2    0    0  0.26131586613E+01 -0.21820496824E-01  0.16062725063E+03  0.16064850674E+03  0.00000000000E+00 0.  1.
         11    1    1    2    0    0 -0.72585739795E+01  0.59268828833E+01 -0.17191135538E+03  0.17216657325E+03  0.00000000000E+00 0.  1.
        -15    1    1    2    0    0  0.90115002502E+01 -0.29107253768E+01 -0.77394308381E+01  0.12358639799E+02  0.17770000000E+01 0. -1.
         15    1    1    2    0    0 -0.43660849320E+01 -0.29943370096E+01  0.19023535587E+02  0.19826280211E+02  0.17770000000E+01 0.  1.
</event>
<event>
 6    1  0.1059789E-002  0.1828184E+03  0.7546771E-02  0.1068202E+00
        -11   -1    0    0    0    0  0.00000000000E+00  0.00000000000E+00  0.18250000000E+03  0.18250000000E+03  0.00000000000E+00 0. -1.
         11   -1    0    0    0    0 -0.00000000000E+00 -0.00000000000E+00 -0.18250000000E+03  0.18250000000E+03  0.00000000000E+00 0.  1.
        -11    1    1    2    0    0  0.42041727540E+01 -0.52015490079E+01  0.18205877570E+03  0.18218158247E+03  0.00000000000E+00 0. -1.
         11    1    1    2    0    0  0.65085499870E+00 -0.18089126164E+01 -0.18837306749E+02  0.18935149924E+02  0.00000000000E+00 0.  1.
        -15    1    1    2    0    0  0.88746088358E+00  0.18757744124E+01 -0.11385686531E+03  0.11388963792E+03  0.17770000000E+01 0.  1.
         15    1    1    2    0    0 -0.57424886363E+01  0.51346872118E+01 -0.49364603638E+02  0.49993629693E+02  0.17770000000E+01 0.  1.
</event>
<event>
 6    1  0.1059789E-002  0.1866092E+03  0.7546771E-02  0.1065230E+00
        -11   -1    0    0    0    0  0.00000000000E+00  0.00000000000E+00  0.18250000000E+03  0.18250000000E+03  0.00000000000E+00 0.  1.
         11   -1    0    0    0    0 -0.00000000000E+00 -0.00000000000E+00 -0.18250000000E+03  0.18250000000E+03  0.00000000000E+00 0.  1.
        -11    1    1    2    0    0 -0.10208431571E+02  0.24232917597E+01  0.17808200703E+03  0.17839082277E+03  0.00000000000E+00 0.  1.
         11    1    1    2    0    0  0.43222339073E+01  0.48008391315E+01 -0.13116422347E+03  0.13132320161E+03  0.00000000000E+00 0.  1.
        -15    1    1    2    0    0 -0.29324442118E+01 -0.87888078942E+01 -0.44970891178E+02  0.45949767743E+02  0.17770000000E+01 0. -1.
         15    1    1    2    0    0  0.88186418759E+01  0.15646770031E+01 -0.19468923845E+01  0.93362078820E+01  0.17770000000E+01 0.  1.
</event>
<event>
 6    1  0.1059789E-002  0.1847335E+03  0.7546771E-02  0.1066691E+00
        -11   -1    0    0    0    0  0.00000000000E+00  0.00000000000E+00  0.18250000000E+03  0.18250000000E+03  0.00000000000E+00 0. -1.
         11   -1    0    0    0    0 -0.00000000000E+00 -0.00000000000E+00 -0.18250000000E+03  0.18250000000E+03  0.00000000000E+00 0. -1.
        -11    1    1    2    0    0  0.82957144085E+00  0.29243536475E+01  0.16102268264E+03  0.16105137179E+03  0.00000000000E+00 0. -1.
         11    1    1    2    0    0  0.17792689639E+01  0.35161104128E+01 -0.18022342011E+03  0.18026649713E+03  0.00000000000E+00 0. -1.
        -15    1    1    2    0    0  0.20392868846E+01 -0.15770834524E+01  0.15476464975E+02  0.15790015210E+02  0.17770000000E+01 0.  1.
         15    1    1    2    0    0 -0.46481272893E+01 -0.48633806079E+01  0.37242725000E+01  0.78921158690E+01  0.17770000000E+01 0. -1.
</event>
<event>
 6    1  0.1059789E-002  0.1849495E+03  0.7546771E-02  0.1066522E+00
        -11   -1    0    0    0    0  0.00000000000E+00  0.00000000000E+00  0.18250000000E+03  0.18250000000E+03  0.00000000000E+00 0.  1.
         11   -1    0    0    0    0 -0.00000000000E+00 -0.00000000000E+00 -0.18250000000E+03  0.18250000000E+03  0.00000000000E+00 0. -1.
        -11    1    1    2    0    0  0.33810789863E+01  0.48977220394E+01  0.17995215732E+03  0.18005054374E+03  0.00000000000E+00 0.  1.
         11    1    1    2    0    0 -0.18595948131E+01 -0.46272258027E+01 -0.14803293530E+03  0.14811691073E+03  0.00000000000E+00 0. -1.
        -15    1    1    2    0    0 -0.24886248396E+01  0.54063709417E+01 -0.29805813295E+02  0.30446121847E+02  0.17770000000E+01 0. -1.
         15    1    1    2    0    0  0.96714066633E+00 -0.56768671784E+01 -0.21134087258E+01  0.63864236840E+01  0.17770000000E+01 0.  1.
</event>
<event>
 6    1  0.1059789E-002  0.1826782E+03  0.7546771E-02  0.1068313E+00
        -11   -1    0    0    0    0  0.00000000000E+00  0.00000000000E+00  0.18250000000E+03  0.18250000000E+03  0.00000000000E+00 0.  1.
         11   -1    0    0    0    0 -0.00000000000E+00 -0.00000000000E+00 -0.18250000000E+03  0.18250000000E+03  0.00000000000E+00 0.  1.
        -11    1    1    2    0    0 -0.59946868957E+00  0.53876904271E+01  0.18224114341E+03  0.18232175110E+03  0.00000000000E+00 0.  1.
         11    1    1    2    0    0  0.16725800367E+01 -0.19508144484E+00 -0.10655997006E+03  0.10657327433E+03  0.00000000000E+00 0.  1.
        -15    1    1    2    0    0  0.98086606538E+00 -0.29612733752E+01 -0.20502276470E+02  0.20814233296E+02  0.17770000000E+01 0. -1.
         15    1    1    2    0    0 -0.20539774125E+01 -0.22313356071E+01 -0.55178896880E+02  0.55290741283E+02  0.17770000000E+01 0.  1.
</event>
<event>
 6    1  0.1059789E-002  0.1842117E+03  0.7546771E-02  0.1067100E+00
        -11   -1    0    0    0    0  0.00000000000E+00  0.00000000000E+00  0.18250000000E+03  0.18250000000E+03  0.00000000000E+00 0. -1.
         11   -1    0    0    0    0 -0.00000000000E+00 -0.00000000000E+00 -0.18250000000E+03  0.18250000000E+03  0.00000000000E+00 0.  1.
        -11    1    1    2    0    0  0.21616838362E+01 -0.16292134553E+01  0.18076808077E+03  0.18078834653E+03  0.00000000000E+00 0. -1.
         11    1    1    2    0    0  0.32491154175E+01  0.38359291776E+01 -0.16619338291E+03  0.16626939474E+03  0.00000000000E+00 0.  1.
        -15    1    1    2    0    0 -0.48403711266E+01 -0.29397717046E+00 -0.28134649939E+01  0.58812353712E+01  0.17770000000E+01 0. -1.
         15    1    1    2    0    0 -0.57042812712E+00 -0.19127385519E+01 -0.11761232868E+02  0.12061023364E+02  0.17770000000E+01 0.  1.
</event>
<event>
 6    1  0.1059789E-002  0.1837276E+03  0.7546771E-02  0.1067482E+00
        -11   -1    0    0    0    0  0.00000000000E+00  0.00000000000E+00  0.18250000000E+03  0.18250000000E+03  0.00000000000E+00 0.  1.
         11   -1    0    0    0    0 -0.00000000000E+00 -0.00000000000E+00 -0.18250000000E+03  0.18250000000E+03  0.00000000000E+00 0.  1.
        -11    1    1    2    0    0  0.83526512760E+00  0.40267089942E+00  0.58595100022E+02  0.58602436453E+02  0.00000000000E+00 0.  1.
         11    1    1    2    0    0  0.11873307329E+02  0.10154808704E+02 -0.18059790036E+03  0.18127243911E+03  0.00000000000E+00 0.  1.
        -15    1    1    2    0    0 -0.10696670696E+02 -0.17049070889E+02  0.10026111728E+03  0.10227677620E+03  0.17770000000E+01 0.  1.
         15    1    1    2    0    0 -0.20119017598E+01  0.64915912856E+01  0.21741683053E+02  0.22848348235E+02  0.17770000000E+01 0. -1.
</event>
<event>
 6    1  0.1059789E-002  0.1840143E+03  0.7546771E-02  0.1067256E+00
        -11   -1    0    0    0    0  0.00000000000E+00  0.00000000000E+00  0.18250000000E+03  0.18250000000E+03  0.00000000000E+00 0. -1.
         11   -1    0    0    0    0 -0.00000000000E+00 -0.00000000000E+00 -0.18250000000E+03  0.18250000000E+03  0.00000000000E+00 0. -1.
        -11    1    1    2    0    0  0.22208000024E+01 -0.56875653339E+00  0.14594921888E+03  0.14596722210E+03  0.00000000000E+00 0. -1.
         11    1    1    2    0    0 -0.42510175196E+01 -0.28183223738E+01 -0.18091379929E+03  0.18098568138E+03  0.00000000000E+00 0. -1.
        -15    1    1    2    0    0 -0.30694073849E+01  0.45914137693E+01  0.30179036678E+02  0.30731650231E+02  0.17770000000E+01 0. -1.
         15    1    1    2    0    0  0.50996249021E+01 -0.12043348621E+01  0.47855437289E+01  0.73154462873E+01  0.17770000000E+01 0.  1.
</event>
<event>
 6    1  0.1059789E-002  0.1839556E+03  0.7546771E-02  0.1067302E+00
        -11   -1    0    0    0    0  0.00000000000E+00  0.00000000000E+00  0.18250000000E+03  0.18250000000E+03  0.00000000000E+00 0.  1.
         11   -1    0    0    0    0 -0.00000000000E+00 -0.00000000000E+00 -0.18250000000E+03  0.18250000000E+03  0.00000000000E+00 0.  1.
        -11    1    1    2    0    0  0.75966765149E+01  0.16452651405E+01  0.10057754250E+03  0.10087744271E+03  0.00000000000E+00 0.  1.
         11    1    1    2    0    0 -0.13200300325E+01 -0.21471129333E+01 -0.18102688562E+03  0.18104443071E+03  0.00000000000E+00 0.  1.
        -15    1    1    2    0    0 -0.11625272941E+02  0.13139552896E+01  0.29100150006E+02  0.31414167327E+02  0.17770000000E+01 0.  1.
         15    1    1    2    0    0  0.53486264588E+01 -0.81210749682E+00  0.51349193111E+02  0.51663959254E+02  0.17770000000E+01 0. -1.
</event>
<event>
 6    1  0.1059789E-002  0.1845561E+03  0.7546771E-02  0.1066830E+00
        -11   -1    0    0    0    0  0.00000000000E+00  0.00000000000E+00  0.18250000000E+03  0.18250000000E+03  0.00000000000E+00 0.  1.
         11   -1    0    0    0    0 -0.00000000000E+00 -0.00000000000E+00 -0.18250000000E+03  0.18250000000E+03  0.00000000000E+00 0. -1.
        -11    1    1    2    0    0 -0.26632031833E+01 -0.56329499506E+01  0.18033633599E+03  0.18044394380E+03  0.00000000000E+00 0.  1.
         11    1    1    2    0    0 -0.30058537377E+01 -0.10973625686E+00 -0.14819989081E+03  0.14823041130E+03  0.00000000000E+00 0. -1.
        -15    1    1    2    0    0  0.53167374524E+01  0.74344630776E+01 -0.86508136644E+01  0.12709572945E+02  0.17770000000E+01 0. -1.
         15    1    1    2    0    0  0.35231946861E+00 -0.16917768701E+01 -0.23485631514E+02  0.23616071955E+02  0.17770000000E+01 0. -1.
</event>
<event>
 6    1  0.1059789E-002  0.1832723E+03  0.7546771E-02  0.1067842E+00
        -11   -1    0    0    0    0  0.00000000000E+00  0.00000000000E+00  0.18250000000E+03  0.18250000000E+03  0.00000000000E+00 0. -1.
         11   -1    0    0    0    0 -0.00000000000E+00 -0.00000000000E+00 -0.18250000000E+03  0.18250000000E+03  0.00000000000E+00 0. -1.
        -11    1    1    2    0    0  0.31098665555E+01  0.78641986736E+00  0.18169934116E+03  0.18172765421E+03  0.00000000000E+00 0. -1.
         11    1    1    2    0    0 -0.24748516145E+01  0.24740915904E+01 -0.16762559874E+03  0.16766212266E+03  0.00000000000E+00 0. -1.
        -15    1    1    2    0    0  0.12904888466E+01 -0.33524299204E+01 -0.69978134948E+01  0.80641968318E+01  0.17770000000E+01 0.  1.
         15    1    1    2    0    0 -0.19255037877E+01  0.91918462595E-01 -0.70759289227E+01  0.75460263025E+01  0.17770000000E+01 0. -1.
</event>
<event>
 6    1  0.1059789E-002  0.1832299E+03  0.7546771E-02  0.1067875E+00
        -11   -1    0    0    0    0  0.00000000000E+00  0.00000000000E+00  0.18250000000E+03  0.18250000000E+03  0.00000000000E+00 0.  1.
         11   -1    0    0    0    0 -0.00000000000E+00 -0.00000000000E+00 -0.18250000000E+03  0.18250000000E+03  0.00000000000E+00 0.  1.
        -11    1    1    2    0    0 -0.28477058023E+01 -0.17862374676E+01  0.16151617295E+03  0.16155115040E+03  0.00000000000E+00 0.  1.
         11    1    1    2    0    0 -0.14460689835E+01  0.24150663294E+01 -0.18174833208E+03  0.18177012922E+03  0.00000000000E+00 0.  1.
        -15    1    1    2    0    0  0.29640728836E+01 -0.96247580312E+00  0.43486354897E+01  0.56374149530E+01  0.17770000000E+01 0.  1.
         15    1    1    2    0    0  0.13297019022E+01  0.33364694133E+00  0.15883523646E+02  0.16041305428E+02  0.17770000000E+01 0. -1.
</event>
<event>
 6    1  0.1059789E-002  0.1777038E+03  0.7546771E-02  0.1072338E+00
        -11   -1    0    0    0    0  0.00000000000E+00  0.00000000000E+00  0.18250000000E+03  0.18250000000E+03  0.00000000000E+00 0. -1.
         11   -1    0    0    0    0 -0.00000000000E+00 -0.00000000000E+00 -0.18250000000E+03  0.18250000000E+03  0.00000000000E+00 0.  1.
        -11    1    1    2    0    0 -0.85243768253E+00  0.31819201668E+01  0.17805905866E+03  0.17808952703E+03  0.00000000000E+00 0. -1.
         11    1    1    2    0    0  0.74473335409E-01  0.27997919158E+01 -0.17734792937E+03  0.17737004379E+03  0.00000000000E+00 0.  1.
        -15    1    1    2    0    0 -0.44899104269E+00  0.10741005262E+01  0.28605116557E-01  0.21245781109E+01  0.17770000000E+01 0.  1.
         15    1    1    2    0    0  0.12269553898E+01 -0.70558126088E+01 -0.73973440395E+00  0.74158510696E+01  0.17770000000E+01 0.  1.
</event>
<event>
 6    1  0.1450414E-002  0.1836784E+03  0.7546771E-02  0.1067521E+00
        -11   -1    0    0    0    0  0.00000000000E+00  0.00000000000E+00  0.18250000000E+03  0.18250000000E+03  0.00000000000E+00 0. -1.
         11   -1    0    0    0    0 -0.00000000000E+00 -0.00000000000E+00 -0.18250000000E+03  0.18250000000E+03  0.00000000000E+00 0.  1.
        -11    1    1    2    0    0 -0.18676863048E+01  0.31933015815E+01  0.16601032080E+03  0.16605153429E+03  0.00000000000E+00 0. -1.
         11    1    1    2    0    0 -0.13895036748E+01 -0.48370094826E+01 -0.18125177964E+03  0.18132163413E+03  0.00000000000E+00 0.  1.
        -15    1    1    2    0    0  0.20942752008E+01 -0.22661856026E+01  0.10665879592E+02  0.11244567679E+02  0.17770000000E+01 0.  1.
         15    1    1    2    0    0  0.11629147788E+01  0.39098935037E+01  0.45755792462E+01  0.63822638954E+01  0.17770000000E+01 0.  1.
</event>
<event>
 6    1  0.1059789E-002  0.1878334E+03  0.7546771E-02  0.1064287E+00
        -11   -1    0    0    0    0  0.00000000000E+00  0.00000000000E+00  0.18250000000E+03  0.18250000000E+03  0.00000000000E+00 0. -1.
         11   -1    0    0    0    0 -0.00000000000E+00 -0.00000000000E+00 -0.18250000000E+03  0.18250000000E+03  0.00000000000E+00 0.  1.
        -11    1    1    2    0    0  0.74401675094E+01  0.10059387063E+02  0.17672423840E+03  0.17716659899E+03  0.00000000000E+00 0. -1.
         11    1    1    2    0    0 -0.14631649689E+01  0.37188771572E+01 -0.14114166342E+03  0.14119822964E+03  0.00000000000E+00 0.  1.
        -15    1    1    2    0    0 -0.14663993695E+01 -0.49434622268E+01 -0.36133290748E+02  0.36542585775E+02  0.17770000000E+01 0.  1.
         15    1    1    2    0    0 -0.45106031709E+01 -0.88348019930E+01  0.55071577412E+00  0.10092585600E+02  0.17770000000E+01 0. -1.
</event>
<event>
 6    1  0.1059789E-002  0.1855201E+03  0.7546771E-02  0.1066076E+00
        -11   -1    0    0    0    0  0.00000000000E+00  0.00000000000E+00  0.18250000000E+03  0.18250000000E+03  0.00000000000E+00 0.  1.
         11   -1    0    0    0    0 -0.00000000000E+00 -0.00000000000E+00 -0.18250000000E+03  0.18250000000E+03  0.00000000000E+00 0. -1.
        -11    1    1    2    0    0  0.49593332425E+01 -0.16356399477E+01  0.17940391576E+03  0.17947990220E+03  0.00000000000E+00 0.  1.
         11    1    1    2    0    0  0.15373003709E+00  0.27520987632E+01 -0.11356896200E+03  0.11360240671E+03  0.00000000000E+00 0. -1.
        -15    1    1    2    0    0 -0.30734572097E+01 -0.14496682469E+02 -0.28616838081E+02  0.32275084703E+02  0.17770000000E+01 0.  1.
         15    1    1    2    0    0 -0.20396060699E+01  0.13380223654E+02 -0.37218115678E+02  0.39642606392E+02  0.17770000000E+01 0. -1.
</event>
<event>
 6    1  0.1059789E-002  0.1780631E+03  0.7546771E-02  0.1072042E+00
        -11   -1    0    0    0    0  0.00000000000E+00  0.00000000000E+00  0.18250000000E+03  0.18250000000E+03  0.00000000000E+00 0.  1.
         11   -1    0    0    0    0 -0.00000000000E+00 -0.00000000000E+00 -0.18250000000E+03  0.18250000000E+03  0.00000000000E+00 0. -1.
        -11    1    1    2    0    0  0.46298479604E+01 -0.62031196878E+00  0.17731515747E+03  0.17737667645E+03  0.00000000000E+00 0.  1.
         11    1    1    2    0    0  0.20352053549E+01  0.26176487715E+01 -0.17878984685E+03  0.17882059021E+03  0.00000000000E+00 0. -1.
        -15    1    1    2    0    0 -0.57656887162E+01 -0.70930004035E+00  0.19570868225E+01  0.63823342712E+01  0.17770000000E+01 0. -1.
         15    1    1    2    0    0 -0.89936459920E+00 -0.12880367624E+01 -0.48239744573E+00  0.24203990744E+01  0.17770000000E+01 0.  1.
</event>
<event>
 6    1  0.1059789E-002  0.1834663E+03  0.7546771E-02  0.1067688E+00
        -11   -1    0    0    0    0  0.00000000000E+00  0.00000000000E+00  0.18250000000E+03  0.18250000000E+03  0.00000000000E+00 0. -1.
         11   -1    0    0    0    0 -0.00000000000E+00 -0.00000000000E+00 -0.18250000000E+03  0.18250000000E+03  0.00000000000E+00 0. -1.
        -11    1    1    2    0    0 -0.18310103621E+01  0.21791913511E+01  0.18151134156E+03  0.18153365690E+03  0.00000000000E+00 0. -1.
         11    1    1    2    0    0  0.15592150852E+01 -0.28954627678E+01 -0.15642186762E+03  0.15645643332E+03  0.00000000000E+00 0. -1.
        -15    1    1    2    0    0 -0.24667249797E+01  0.29075295601E+01 -0.49766321252E+01  0.65163683581E+01  0.17770000000E+01 0.  1.
         15    1    1    2    0    0  0.27385202566E+01 -0.21912581434E+01 -0.20112841809E+02  0.20493541424E+02  0.17770000000E+01 0.  1.
</event>
<event>
 6    1  0.1059789E-002  0.1827227E+03  0.7546771E-02  0.1068278E+00
        -11   -1    0    0    0    0  0.00000000000E+00  0.00000000000E+00  0.18250000000E+03  0.18250000000E+03  0.00000000000E+00 0. -1.
         11   -1    0    0    0    0 -0.00000000000E+00 -0.00000000000E+00 -0.18250000000E+03  0.18250000000E+03  0.00000000000E+00 0.  1.
        -11    1    1    2    0    0 -0.12614891641E+01  0.41362690518E+00  0.71355494588E+02  0.71367843249E+02  0.00000000000E+00 0. -1.
         11    1    1    2    0    0  0.61090706404E+00 -0.33307139190E+01 -0.18224579560E+03  0.18227725277E+03  0.00000000000E+00 0.  1.
        -15    1    1    2    0    0  0.20503352925E+01  0.74746850377E+00  0.93055455580E+01  0.97218049306E+01  0.17770000000E+01 0.  1.
         15    1    1    2    0    0 -0.13997531924E+01  0.21696185101E+01  0.10158475545E+03  0.10163309905E+03  0.17770000000E+01 0. -1.
</event>
<event>
 6    1  0.1059789E-002  0.1909244E+03  0.7546771E-02  0.1061940E+00
        -11   -1    0    0    0    0  0.00000000000E+00  0.00000000000E+00  0.18250000000E+03  0.18250000000E+03  0.00000000000E+00 0. -1.
         11   -1    0    0    0    0 -0.00000000000E+00 -0.00000000000E+00 -0.18250000000E+03  0.18250000000E+03  0.00000000000E+00 0. -1.
        -11    1    1    2    0    0  0.28038667701E+01  0.18656572409E+01  0.17404304409E+03  0.17407562593E+03  0.00000000000E+00 0. -1.
         11    1    1    2    0    0  0.26414215155E+01  0.37691135476E+01 -0.42362301987E+02  0.42611594129E+02  0.00000000000E+00 0. -1.
        -15    1    1    2    0    0 -0.30029458876E+02  0.59573308196E+01 -0.10783760081E+03  0.11211317526E+03  0.17770000000E+01 0. -1.
         15    1    1    2    0    0  0.24584170590E+02 -0.11592101608E+02 -0.23843141295E+02  0.36199604682E+02  0.17770000000E+01 0.  1.
</event>
<event>
 6    1  0.1059789E-002  0.1834255E+03  0.7546771E-02  0.1067720E+00
        -11   -1    0    0    0    0  0.00000000000E+00  0.00000000000E+00  0.18250000000E+03  0.18250000000E+03  0.00000000000E+00 0.  1.
         11   -1    0    0    0    0 -0.00000000000E+00 -0.00000000000E+00 -0.18250000000E+03  0.18250000000E+03  0.00000000000E+00 0. -1.
        -11    1    1    2    0    0  0.37295163073E+01 -0.59520110285E+00  0.16168008243E+03  0.16172418685E+03  0.00000000000E+00 0.  1.
         11    1    1    2    0    0  0.34321280038E+01  0.18579686031E+01 -0.18153255277E+03  0.18157450059E+03  0.00000000000E+00 0. -1.
        -15    1    1    2    0    0 -0.84255137989E+00 -0.97363205841E+00  0.49348498878E+01  0.54007707439E+01  0.17770000000E+01 0. -1.
         15    1    1    2    0    0 -0.63190929312E+01 -0.28913544189E+00  0.14917620445E+02  0.16300541817E+02  0.17770000000E+01 0. -1.
</event>
<event>
 6    1  0.1059789E-002  0.1835283E+03  0.7546771E-02  0.1067639E+00
        -11   -1    0    0    0    0  0.00000000000E+00  0.00000000000E+00  0.18250000000E+03  0.18250000000E+03  0.00000000000E+00 0. -1.
         11   -1    0    0    0    0 -0.00000000000E+00 -0.00000000000E+00 -0.18250000000E+03  0.18250000000E+03  0.00000000000E+00 0. -1.
        -11    1    1    2    0    0  0.55689806312E+01  0.98213990874E+00  0.18138357834E+03  0.18147170753E+03  0.00000000000E+00 0. -1.
         11    1    1    2    0    0  0.12942936207E+01 -0.20041466555E+01 -0.13902224712E+03  0.13904271644E+03  0.00000000000E+00 0. -1.
        -15    1    1    2    0    0 -0.43252425069E+01  0.15584475301E+01 -0.40566835879E+02  0.40865173237E+02  0.17770000000E+01 0.  1.
         15    1    1    2    0    0 -0.25380317450E+01 -0.53644078339E+00 -0.17944953376E+01  0.36204027910E+01  0.17770000000E+01 0. -1.
</event>
<event>
 6    1  0.1059789E-002  0.1856464E+03  0.7546771E-02  0.1065977E+00
        -11   -1    0    0    0    0  0.00000000000E+00  0.00000000000E+00  0.18250000000E+03  0.18250000000E+03  0.00000000000E+00 0.  1.
         11   -1    0    0    0    0 -0.00000000000E+00 -0.00000000000E+00 -0.18250000000E+03  0.18250000000E+03  0.00000000000E+00 0.  1.
        -11    1    1    2    0    0 -0.31550189883E+00  0.77953907029E+01  0.17039567780E+03  0.17057419111E+03  0.00000000000E+00 0.  1.
         11    1    1    2    0    0 -0.34102705088E+01 -0.15479089196E+01 -0.17931448487E+03  0.17935359057E+03  0.00000000000E+00 0.  1.
        -15    1    1    2    0    0  0.42043263981E+00 -0.65112675441E+01  0.90624564158E+01  0.11307484863E+02  0.17770000000E+01 0.  1.
         15    1    1    2    0    0  0.33053397679E+01  0.26378576080E+00 -0.14364935278E+00  0.37647334627E+01  0.17770000000E+01 0.  1.
</event>
<event>
 6    1  0.1059789E-002  0.1846465E+03  0.7546771E-02  0.1066759E+00
        -11   -1    0    0    0    0  0.00000000000E+00  0.00000000000E+00  0.18250000000E+03  0.18250000000E+03  0.00000000000E+00 0.  1.
         11   -1    0    0    0    0 -0.00000000000E+00 -0.00000000000E+00 -0.18250000000E+03  0.18250000000E+03  0.00000000000E+00 0. -1.
        -11    1    1    2    0    0  0.25638172259E+01 -0.15941769707E+01  0.17033879009E+03  0.17036554220E+03  0.00000000000E+00 0.  1.
         11    1    1    2    0    0  0.26789179726E+01  0.54006208389E+01 -0.18025273624E+03  0.18035352014E+03  0.00000000000E+00 0. -1.
        -15    1    1    2    0    0 -0.10649518319E+01 -0.36327716204E+01  0.10366078317E+01  0.43085307063E+01  0.17770000000E+01 0.  1.
         15    1    1    2    0    0 -0.41777833666E+01 -0.17367224782E+00  0.88773383168E+01  0.99724069561E+01  0.17770000000E+01 0. -1.
</event>
<event>
 6    1  0.1059789E-002  0.1929804E+03  0.7546771E-02  0.1060406E+00
        -11   -1    0    0    0    0  0.00000000000E+00  0.00000000000E+00  0.18250000000E+03  0.18250000000E+03  0.00000000000E+00 0. -1.
         11   -1    0    0    0    0 -0.00000000000E+00 -0.00000000000E+00 -0.18250000000E+03  0.18250000000E+03  0.00000000000E+00 0. -1.
        -11    1    1    2    0    0 -0.40063878931E+01  0.11831717616E+01  0.13924930978E+03  0.13931195682E+03  0.00000000000E+00 0. -1.
         11    1    1    2    0    0 -0.49225088166E+01 -0.54575906338E+01 -0.17186256988E+03  0.17201964805E+03  0.00000000000E+00 0. -1.
        -15    1    1    2    0    0  0.12751971982E+01  0.50365580548E+01 -0.94182287528E+01  0.10902009300E+02  0.17770000000E+01 0. -1.
         15    1    1    2    0    0  0.76536995116E+01 -0.76213918255E+00  0.42031488855E+02  0.42766385827E+02  0.17770000000E+01 0.  1.
</event>
<event>
 6    1  0.1059789E-002  0.1831994E+03  0.7546771E-02  0.1067899E+00
        -11   -1    0    0    0    0  0.00000000000E+00  0.00000000000E+00  0.18250000000E+03  0.18250000000E+03  0.00000000000E+00 0. -1.
         11   -1    0    0    0    0 -0.00000000000E+00 -0.00000000000E+00 -0.18250000000E+03  0.18250000000E+03  0.00000000000E+00 0. -1.
        -11    1    1    2    0    0  0.46807872799E+01 -0.42985822903E+01  0.18168946266E+03  0.18180057321E+03  0.00000000000E+00 0. -1.
         11    1    1    2    0    0 -0.34625474521E+00 -0.26074223252E+01 -0.14366717725E+03  0.14369125361E+03  0.00000000000E+00 0. -1.
        -15    1    1    2    0    0 -0.23091547470E+01  0.44617013857E+01 -0.32234645436E+02  0.32672145174E+02  0.17770000000E+01 0. -1.
         15    1    1    2    0    0 -0.20253777876E+01  0.24443032299E+01 -0.57876399693E+01  0.68360280043E+01  0.17770000000E+01 0.  1.
</event>
<event>
 6    1  0.1059789E-002  0.1865770E+03  0.7546771E-02  0.1065255E+00
        -11   -1    0    0    0    0  0.00000000000E+00  0.00000000000E+00  0.18250000000E+03  0.18250000000E+03  0.00000000000E+00 0. -1.
         11   -1    0    0    0    0 -0.00000000000E+00 -0.00000000000E+00 -0.18250000000E+03  0.18250000000E+03  0.00000000000E+00 0. -1.
        -11    1    1    2    0    0 -0.25518750777E+01  0.26027412719E+01  0.17838578465E+03  0.17842302120E+03  0.00000000000E+00 0. -1.
         11    1    1    2    0    0 -0.24598613842E+01 -0.37496324645E+00 -0.17194480281E+03  0.17196280623E+03  0.00000000000E+00 0. -1.
        -15    1    1    2    0    0  0.46192879632E+01  0.28946612525E+01  0.54822335900E+00  0.57597884427E+01  0.17770000000E+01 0.  1.
         15    1    1    2    0    0  0.39244849869E+00 -0.51224392780E+01 -0.69892051976E+01  0.88543841274E+01  0.17770000000E+01 0. -1.
</event>
<event>
 6    1  0.1059789E-002  0.1872490E+03  0.7546771E-02  0.1064736E+00
        -11   -1    0    0    0    0  0.00000000000E+00  0.00000000000E+00  0.18250000000E+03  0.18250000000E+03  0.00000000000E+00 0.  1.
         11   -1    0    0    0    0 -0.00000000000E+00 -0.00000000000E+00 -0.18250000000E+03  0.18250000000E+03  0.00000000000E+00 0.  1.
        -11    1    1    2    0    0  0.12349652496E+02  0.11027050575E+02  0.17697830414E+03  0.17775103346E+03  0.00000000000E+00 0.  1.
         11    1    1    2    0    0 -0.11463559827E+01 -0.16111011987E+01 -0.85328215410E+02  0.85351122571E+02  0.00000000000E+00 0.  1.
        -15    1    1    2    0    0 -0.69775110314E+01  0.16394459241E+02 -0.44177021223E+02  0.47667923042E+02  0.17770000000E+01 0. -1.
         15    1    1    2    0    0 -0.42257854817E+01 -0.25810408617E+02 -0.47473067506E+02  0.54229920923E+02  0.17770000000E+01 0.  1.
</event>
<event>
 6    1  0.1059789E-002  0.1844411E+03  0.7546771E-02  0.1066920E+00
        -11   -1    0    0    0    0  0.00000000000E+00  0.00000000000E+00  0.18250000000E+03  0.18250000000E+03  0.00000000000E+00 0.  1.
         11   -1    0    0    0    0 -0.00000000000E+00 -0.00000000000E+00 -0.18250000000E+03  0.18250000000E+03  0.00000000000E+00 0.  1.
        -11    1    1    2    0    0 -0.16688987742E+01 -0.10065062396E+01  0.52532669092E+02  0.52568808241E+02  0.00000000000E+00 0.  1.
         11    1    1    2    0    0 -0.65483747883E+00 -0.16367678261E+02 -0.17981430733E+03  0.18055889572E+03  0.00000000000E+00 0.  1.
        -15    1    1    2    0    0  0.47211229041E+01  0.15681995732E+02  0.27676362599E+02  0.32207961241E+02  0.17770000000E+01 0. -1.
         15    1    1    2    0    0 -0.23973866510E+01  0.16921887687E+01  0.99605275641E+02  0.99664334795E+02  0.17770000000E+01 0.  1.
</event>
<event>
 6    1  0.1059789E-002  0.1857831E+03  0.7546771E-02  0.1065871E+00
        -11   -1    0    0    0    0  0.00000000000E+00  0.00000000000E+00  0.18250000000E+03  0.18250000000E+03  0.00000000000E+00 0. -1.
         11   -1    0    0    0    0 -0.00000000000E+00 -0.00000000000E+00 -0.18250000000E+03  0.18250000000E+03  0.00000000000E+00 0. -1.
        -11    1    1    2    0    0  0.17981013862E+01  0.17844690105E+01  0.13053156279E+03  0.13055614265E+03  0.00000000000E+00 0. -1.
         11    1    1    2    0    0  0.61950449434E+00  0.29443948087E+01 -0.17919159235E+03  0.17921685193E+03  0.00000000000E+00 0. -1.
        -15    1    1    2    0    0 -0.22610195863E+01 -0.27067872944E+01  0.51300918955E+02  0.51452705679E+02  0.17770000000E+01 0.  1.
         15    1    1    2    0    0 -0.15658629426E+00 -0.20220765249E+01 -0.26408894021E+01  0.37742997462E+01  0.17770000000E+01 0.  1.
</event>
<event>
 6    1  0.1059789E-002  0.1831213E+03  0.7546771E-02  0.1067961E+00
        -11   -1    0    0    0    0  0.00000000000E+00  0.00000000000E+00  0.18250000000E+03  0.18250000000E+03  0.00000000000E+00 0. -1.
         11   -1    0    0    0    0 -0.00000000000E+00 -0.00000000000E+00 -0.18250000000E+03  0.18250000000E+03  0.00000000000E+00 0. -1.
        -11    1    1    2    0    0 -0.47035034745E+00  0.24750335169E+01  0.18186126323E+03  0.18187871257E+03  0.00000000000E+00 0. -1.
         11    1    1    2    0    0  0.37613292925E+00  0.21447971259E+01 -0.86047518684E+02  0.86075066671E+02  0.00000000000E+00 0. -1.
        -15    1    1    2    0    0  0.11511426625E+01 -0.69206548232E+01 -0.91228486715E+02  0.91515108642E+02  0.17770000000E+01 0.  1.
         15    1    1    2    0    0 -0.10569252443E+01  0.23008241803E+01 -0.45852578343E+01  0.55311121203E+01  0.17770000000E+01 0.  1.
</event>
<event>
 6    1  0.1059789E-002  0.1775519E+03  0.7546771E-02  0.1072463E+00
        -11   -1    0    0    0    0  0.00000000000E+00  0.00000000000E+00  0.18250000000E+03  0.18250000000E+03  0.00000000000E+00 0.  1.
         11   -1    0    0    0    0 -0.00000000000E+00 -0.00000000000E+00 -0.18250000000E+03  0.18250000000E+03  0.00000000000E+00 0.  1.
        -11    1    1    2    0    0 -0.23515601965E+01 -0.35900181344E+01  0.17647798211E+03  0.17653015673E+03  0.00000000000E+00 0.  1.
         11    1    1    2    0    0  0.16695205956E+01 -0.42470828564E+01 -0.17860884696E+03  0.17866713527E+03  0.00000000000E+00 0.  1.
        -15    1    1    2    0    0  0.96742596698E-01  0.25949445669E+01  0.27803247610E+01  0.41989321514E+01  0.17770000000E+01 0.  1.
         15    1    1    2    0    0  0.58529700412E+00  0.52421564239E+01 -0.64945991025E+00  0.56037758459E+01  0.17770000000E+01 0. -1.
</event>
<event>
 6    1  0.1059789E-002  0.1826454E+03  0.7546771E-02  0.1068339E+00
        -11   -1    0    0    0    0  0.00000000000E+00  0.00000000000E+00  0.18250000000E+03  0.18250000000E+03  0.00000000000E+00 0. -1.
         11   -1    0    0    0    0 -0.00000000000E+00 -0.00000000000E+00 -0.18250000000E+03  0.18250000000E+03  0.00000000000E+00 0. -1.
        -11    1    1    2    0    0  0.10368285757E+01  0.30067635409E+01  0.18232690818E+03  0.18235464647E+03  0.00000000000E+00 0. -1.
         11    1    1    2    0    0  0.10144651220E+01 -0.10213847860E+01 -0.32369546003E+02  0.32401541241E+02  0.00000000000E+00 0. -1.
        -15    1    1    2    0    0 -0.36343175531E+01 -0.42117429704E+01 -0.10938281931E+03  0.10953860476E+03  0.17770000000E+01 0.  1.
         15    1    1    2    0    0  0.15830238554E+01  0.22263642154E+01 -0.40574542868E+02  0.40705207530E+02  0.17770000000E+01 0. -1.
</event>
<event>
 6    1  0.1059789E-002  0.1828517E+03  0.7546771E-02  0.1068175E+00
        -11   -1    0    0    0    0  0.00000000000E+00  0.00000000000E+00  0.18250000000E+03  0.18250000000E+03  0.00000000000E+00 0.  1.
         11   -1    0    0    0    0 -0.00000000000E+00 -0.00000000000E+00 -0.18250000000E+03  0.18250000000E+03  0.00000000000E+00 0.  1.
        -11    1    1    2    0    0  0.23956744067E+01  0.19804479658E+01  0.18212180253E+03  0.18214832524E+03  0.00000000000E+00 0.  1.
         11    1    1    2    0    0 -0.20867355172E+01  0.26194417661E+01 -0.15215025330E+03  0.15218710695E+03  0.00000000000E+00 0.  1.
        -15    1    1    2    0    0 -0.61727656895E+00 -0.28586698496E+01 -0.23057513358E+02  0.23310076682E+02  0.17770000000E+01 0. -1.
         15    1    1    2    0    0  0.30833767954E+00 -0.17412198822E+01 -0.69140358710E+01  0.73544911332E+01  0.17770000000E+01 0.  1.
</event>
<event>
 6    1  0.1059789E-002  0.1841229E+03  0.7546771E-02  0.1067170E+00
        -11   -1    0    0    0    0  0.00000000000E+00  0.00000000000E+00  0.18250000000E+03  0.18250000000E+03  0.00000000000E+00 0.  1.
         11   -1    0    0    0    0 -0.00000000000E+00 -0.00000000000E+00 -0.18250000000E+03  0.18250000000E+03  0.00000000000E+00 0.  1.
        -11    1    1    2    0    0 -0.90049800098E+00  0.34158809883E+01  0.18084256552E+03  0.18087706500E+03  0.00000000000E+00 0.  1.
         11    1    1    2    0    0  0.59293826426E+01  0.66343562200E+01 -0.15247925547E+03  0.15273865132E+03  0.00000000000E+00 0.  1.
        -15    1    1    2    0    0 -0.17628167760E+01 -0.88974412792E+01 -0.22724464806E+02  0.24532244374E+02  0.17770000000E+01 0.  1.
         15    1    1    2    0    0 -0.32660678656E+01 -0.11527959291E+01 -0.56388452515E+01  0.68520392970E+01  0.17770000000E+01 0. -1.
</event>
<event>
 6    1  0.1059789E-002  0.1851393E+03  0.7546771E-02  0.1066373E+00
        -11   -1    0    0    0    0  0.00000000000E+00  0.00000000000E+00  0.18250000000E+03  0.18250000000E+03  0.00000000000E+00 0.  1.
         11   -1    0    0    0    0 -0.00000000000E+00 -0.00000000000E+00 -0.18250000000E+03  0.18250000000E+03  0.00000000000E+00 0. -1.
        -11    1    1    2    0    0 -0.56032219525E+01  0.75667116032E-01  0.17977334653E+03  0.17986066258E+03  0.00000000000E+00 0.  1.
         11    1    1    2    0    0  0.12558904258E+01 -0.20965070573E+01 -0.15641365879E+03  0.15643274996E+03  0.00000000000E+00 0. -1.
        -15    1    1    2    0    0  0.80810305308E+01  0.89796587867E+00 -0.22937915196E+02  0.24401128657E+02  0.17770000000E+01 0. -1.
         15    1    1    2    0    0 -0.37336990042E+01  0.11228740626E+01 -0.42177254203E+00  0.43054588015E+01  0.17770000000E+01 0.  1.
</event>
<event>
 6    1  0.1059789E-002  0.1876334E+03  0.7546771E-02  0.1064440E+00
        -11   -1    0    0    0    0  0.00000000000E+00  0.00000000000E+00  0.18250000000E+03  0.18250000000E+03  0.00000000000E+00 0.  1.
         11   -1    0    0    0    0 -0.00000000000E+00 -0.00000000000E+00 -0.18250000000E+03  0.18250000000E+03  0.00000000000E+00 0.  1.
        -11    1    1    2    0    0 -0.13857989539E+01  0.39406750036E+01  0.17731736453E+03  0.17736656145E+03  0.00000000000E+00 0.  1.
         11    1    1    2    0    0 -0.22632548674E+00 -0.60367913528E+01 -0.15512269284E+03  0.15524027798E+03  0.00000000000E+00 0.  1.
        -15    1    1    2    0    0 -0.28834084388E+01  0.29244720429E+01  0.38424228908E+01  0.58981796875E+01  0.17770000000E+01 0. -1.
         15    1    1    2    0    0  0.44955328794E+01 -0.82835569373E+00 -0.26037094575E+02  0.26494980882E+02  0.17770000000E+01 0.  1.
</event>
<event>
 6    1  0.1059789E-002  0.1917751E+03  0.7546771E-02  0.1061303E+00
        -11   -1    0    0    0    0  0.00000000000E+00  0.00000000000E+00  0.18250000000E+03  0.18250000000E+03  0.00000000000E+00 0. -1.
         11   -1    0    0    0    0 -0.00000000000E+00 -0.00000000000E+00 -0.18250000000E+03  0.18250000000E+03  0.00000000000E+00 0.  1.
        -11    1    1    2    0    0 -0.19921937559E+01  0.28528451582E+01  0.16235965931E+03  0.16239694127E+03  0.00000000000E+00 0. -1.
         11    1    1    2    0    0 -0.68652909257E+00  0.26078342030E+01 -0.17320387329E+03  0.17322486497E+03  0.00000000000E+00 0.  1.
        -15    1    1    2    0    0  0.46366657285E+01  0.43886168110E+01 -0.64842673645E+01  0.92715736984E+01  0.17770000000E+01 0. -1.
         15    1    1    2    0    0 -0.19579428800E+01 -0.98492961722E+01  0.17328481349E+02  0.20106620061E+02  0.17770000000E+01 0.  1.
</event>
<event>
 6    1  0.1192268E-002  0.1910742E+03  0.7546771E-02  0.1061827E+00
        -11   -1    0    0    0    0  0.00000000000E+00  0.00000000000E+00  0.18250000000E+03  0.18250000000E+03  0.00000000000E+00 0. -1.
         11   -1    0    0    0    0 -0.00000000000E+00 -0.00000000000E+00 -0.18250000000E+03  0.18250000000E+03  0.00000000000E+00 0.  1.
        -11    1    1    2    0    0 -0.15187342761E+01  0.35915869801E+01  0.17388206529E+03  0.17392578498E+03  0.00000000000E+00 0. -1.
         11    1    1    2    0    0  0.21103731890E+01 -0.51243194737E+01 -0.17274999214E+03  0.17283886168E+03  0.00000000000E+00 0.  1.
        -15    1    1    2    0    0 -0.19169276202E+01  0.32725499094E+01 -0.89735726577E+01  0.99028748176E+01  0.17770000000E+01 0.  1.
         15    1    1    2    0    0  0.13252887072E+01 -0.17398174158E+01  0.78414995011E+01  0.83324785162E+01  0.17770000000E+01 0.  1.
</event>
<event>
 6    1  0.1059789E-002  0.1833183E+03  0.7546771E-02  0.1067805E+00
        -11   -1    0    0    0    0  0.00000000000E+00  0.00000000000E+00  0.18250000000E+03  0.18250000000E+03  0.00000000000E+00 0. -1.
         11   -1    0    0    0    0 -0.00000000000E+00 -0.00000000000E+00 -0.18250000000E+03  0.18250000000E+03  0.00000000000E+00 0. -1.
        -11    1    1    2    0    0 -0.19159076131E+01 -0.42258716383E+01  0.18162246073E+03  0.18168171877E+03  0.00000000000E+00 0. -1.
         11    1    1    2    0    0 -0.30476704849E+01  0.30857733940E+01 -0.14791288591E+03  0.14797645796E+03  0.00000000000E+00 0. -1.
        -15    1    1    2    0    0  0.27014286522E+01  0.96807098732E+00 -0.30563871226E+01  0.45534722403E+01  0.17770000000E+01 0.  1.
         15    1    1    2    0    0  0.22621494458E+01  0.17202725697E+00 -0.30653187703E+02  0.30788351025E+02  0.17770000000E+01 0. -1.
</event>
<event>
 6    1  0.1059789E-002  0.1828777E+03  0.7546771E-02  0.1068155E+00
        -11   -1    0    0    0    0  0.00000000000E+00  0.00000000000E+00  0.18250000000E+03  0.18250000000E+03  0.00000000000E+00 0. -1.
         11   -1    0    0    0    0 -0.00000000000E+00 -0.00000000000E+00 -0.18250000000E+03  0.18250000000E+03  0.00000000000E+00 0.  1.
        -11    1    1    2    0    0  0.19234319579E+01 -0.15833415462E+01  0.10147509884E+03  0.10150567593E+03  0.00000000000E+00 0. -1.
         11    1    1    2    0    0  0.35727450363E+01  0.14916010225E+01 -0.18208115772E+03  0.18212231433E+03  0.00000000000E+00 0.  1.
        -15    1    1    2    0    0 -0.43766653360E+01 -0.26796131579E+00  0.14937187681E+02  0.15668577075E+02  0.17770000000E+01 0. -1.
         15    1    1    2    0    0 -0.11195116583E+01  0.35970183943E+00  0.65668871195E+02  0.65703432671E+02  0.17770000000E+01 0. -1.
</event>
<event>
 6    1  0.1059789E-002  0.1837300E+03  0.7546771E-02  0.1067480E+00
        -11   -1    0    0    0    0  0.00000000000E+00  0.00000000000E+00  0.18250000000E+03  0.18250000000E+03  0.00000000000E+00 0.  1.
         11   -1    0    0    0    0 -0.00000000000E+00 -0.00000000000E+00 -0.18250000000E+03  0.18250000000E+03  0.00000000000E+00 0. -1.
        -11    1    1    2    0    0 -0.20836457934E+01 -0.19553389173E+01  0.18124743285E+03  0.18126995571E+03  0.00000000000E+00 0.  1.
         11    1    1    2    0    0 -0.57389792645E+00  0.41682088354E+01 -0.16230682311E+03  0.16236135055E+03  0.00000000000E+00 0. -1.
        -15    1    1    2    0    0  0.44238033604E+01 -0.12427797072E+01 -0.44749082324E+01  0.66556044249E+01  0.17770000000E+01 0.  1.
         15    1    1    2    0    0 -0.17662596405E+01 -0.97009021080E+00 -0.14465701503E+02  0.14713089312E+02  0.17770000000E+01 0. -1.
</event>
<event>
 6    1  0.1059789E-002  0.1878142E+03  0.7546771E-02  0.1064302E+00
        -11   -1    0    0    0    0  0.00000000000E+00  0.00000000000E+00  0.18250000000E+03  0.18250000000E+03  0.00000000000E+00 0.  1.
         11   -1    0    0    0    0 -0.00000000000E+00 -0.00000000000E+00 -0.18250000000E+03  0.18250000000E+03  0.00000000000E+00 0. -1.
        -11    1    1    2    0    0 -0.25758019889E+01 -0.48517593087E+01  0.13600011884E+03  0.13611100855E+03  0.00000000000E+00 0.  1.
         11    1    1    2    0    0  0.25380375237E+01  0.49217336684E+01 -0.17709923596E+03  0.17718579083E+03  0.00000000000E+00 0. -1.
        -15    1    1    2    0    0 -0.18974305725E+01 -0.25347373730E+01 -0.46011411350E+01  0.58611743765E+01  0.17770000000E+01 0.  1.
         15    1    1    2    0    0  0.19351950376E+01  0.24647630132E+01  0.45700258254E+02  0.45842026242E+02  0.17770000000E+01 0. -1.
</event>
<event>
 6    1  0.1059789E-002  0.1827622E+03  0.7546771E-02  0.1068246E+00
        -11   -1    0    0    0    0  0.00000000000E+00  0.00000000000E+00  0.18250000000E+03  0.18250000000E+03  0.00000000000E+00 0.  1.
         11   -1    0    0    0    0 -0.00000000000E+00 -0.00000000000E+00 -0.18250000000E+03  0.18250000000E+03  0.00000000000E+00 0.  1.
        -11    1    1    2    0    0 -0.15470667865E+01  0.15686830098E+01  0.43409500931E+02  0.43465376487E+02  0.00000000000E+00 0.  1.
         11    1    1    2    0    0 -0.40221535149E+01 -0.26020976532E+00 -0.18219322350E+03  0.18223780101E+03  0.00000000000E+00 0.  1.
        -15    1    1    2    0    0  0.76025389951E-01  0.51342964997E+00  0.43587701540E+01  0.47356093717E+01  0.17770000000E+01 0.  1.
         15    1    1    2    0    0  0.54931949114E+01 -0.18219028944E+01  0.13442495241E+03  0.13456121313E+03  0.17770000000E+01 0.  1.
</event>
<event>
 6    1  0.1059789E-002  0.1475456E+03  0.7546771E-02  0.1100280E+00
        -11   -1    0    0    0    0  0.00000000000E+00  0.00000000000E+00  0.18250000000E+03  0.18250000000E+03  0.00000000000E+00 0.  1.
         11   -1    0    0    0    0 -0.00000000000E+00 -0.00000000000E+00 -0.18250000000E+03  0.18250000000E+03  0.00000000000E+00 0.  1.
        -11    1    1    2    0    0  0.20115413109E+02  0.13792914618E+02  0.15101601852E+03  0.15297291325E+03  0.00000000000E+00 0.  1.
         11    1    1    2    0    0 -0.17214546963E+01 -0.10757817128E+02 -0.14241550831E+03  0.14283161780E+03  0.00000000000E+00 0.  1.
        -15    1    1    2    0    0 -0.26070104631E+02  0.16848456091E+02  0.17320069796E+02  0.35590214594E+02  0.17770000000E+01 0.  1.
         15    1    1    2    0    0  0.76761462182E+01 -0.19883553581E+02 -0.25920580006E+02  0.33605254361E+02  0.17770000000E+01 0. -1.
</event>
<event>
 6    1  0.1059789E-002  0.1888158E+03  0.7546771E-02  0.1063536E+00
        -11   -1    0    0    0    0  0.00000000000E+00  0.00000000000E+00  0.18250000000E+03  0.18250000000E+03  0.00000000000E+00 0.  1.
         11   -1    0    0    0    0 -0.00000000000E+00 -0.00000000000E+00 -0.18250000000E+03  0.18250000000E+03  0.00000000000E+00 0. -1.
        -11    1    1    2    0    0  0.13991545319E+00  0.12477212809E+02  0.17574182614E+03  0.17618424978E+03  0.00000000000E+00 0.  1.
         11    1    1    2    0    0 -0.18690032044E+01  0.37429797868E+01 -0.13762081188E+03  0.13768438885E+03  0.00000000000E+00 0. -1.
        -15    1    1    2    0    0 -0.70114909116E+00 -0.16925732085E+01 -0.36062778381E+02  0.36152982279E+02  0.17770000000E+01 0. -1.
         15    1    1    2    0    0  0.24302368424E+01 -0.14527619387E+02 -0.20582358850E+01  0.14978379089E+02  0.17770000000E+01 0.  1.
</event>
<event>
 6    1  0.1059789E-002  0.1890809E+03  0.7546771E-02  0.1063334E+00
        -11   -1    0    0    0    0  0.00000000000E+00  0.00000000000E+00  0.18250000000E+03  0.18250000000E+03  0.00000000000E+00 0. -1.
         11   -1    0    0    0    0 -0.00000000000E+00 -0.00000000000E+00 -0.18250000000E+03  0.18250000000E+03  0.00000000000E+00 0. -1.
        -11    1    1    2    0    0  0.20222382077E+01 -0.28644436319E+00  0.12031836733E+03  0.12033570133E+03  0.00000000000E+00 0. -1.
         11    1    1    2    0    0 -0.27288820872E+01 -0.92688006861E+00 -0.17589544792E+03  0.17591905668E+03  0.00000000000E+00 0. -1.
        -15    1    1    2    0    0 -0.15604494153E+00  0.72459562471E+00  0.61988627981E+02  0.62018522369E+02  0.17770000000E+01 0. -1.
         15    1    1    2    0    0  0.86268882101E+00  0.48872880708E+00 -0.64115473892E+01  0.67267196145E+01  0.17770000000E+01 0.  1.
</event>
<event>
 6    1  0.1059789E-002  0.1830643E+03  0.7546771E-02  0.1068006E+00
        -11   -1    0    0    0    0  0.00000000000E+00  0.00000000000E+00  0.18250000000E+03  0.18250000000E+03  0.00000000000E+00 0.  1.
         11   -1    0    0    0    0 -0.00000000000E+00 -0.00000000000E+00 -0.18250000000E+03  0.18250000000E+03  0.00000000000E+00 0. -1.
        -11    1    1    2    0    0  0.44029123683E+01  0.13797766452E+01  0.18187715418E+03  0.18193567169E+03  0.00000000000E+00 0.  1.
         11    1    1    2    0    0 -0.31480117493E+00  0.40487300423E+00 -0.31618556802E+02  0.31622715825E+02  0.00000000000E+00 0. -1.
        -15    1    1    2    0    0  0.11162684779E+01  0.23943542304E+01 -0.12997999041E+03  0.13001897794E+03  0.17770000000E+01 0. -1.
         15    1    1    2    0    0 -0.52043796713E+01 -0.41790038798E+01 -0.20278606968E+02  0.21422634543E+02  0.17770000000E+01 0.  1.
</event>
<event>
 6    1  0.1059789E-002  0.1828456E+03  0.7546771E-02  0.1068180E+00
        -11   -1    0    0    0    0  0.00000000000E+00  0.00000000000E+00  0.18250000000E+03  0.18250000000E+03  0.00000000000E+00 0.  1.
         11   -1    0    0    0    0 -0.00000000000E+00 -0.00000000000E+00 -0.18250000000E+03  0.18250000000E+03  0.00000000000E+00 0. -1.
        -11    1    1    2    0    0  0.29547946509E+01  0.35707730535E+00  0.18213012838E+03  0.18215444540E+03  0.00000000000E+00 0.  1.
         11    1    1    2    0    0  0.26028230483E+01  0.37669654790E+00 -0.14028902872E+03  0.14031367776E+03  0.00000000000E+00 0. -1.
        -15    1    1    2    0    0 -0.12606186484E+01  0.11829790320E+01 -0.10425255892E+02  0.10715982838E+02  0.17770000000E+01 0.  1.
         15    1    1    2    0    0 -0.42969990508E+01 -0.19167528852E+01 -0.31415843765E+02  0.31815893998E+02  0.17770000000E+01 0.  1.
</event>
<event>
 6    1  0.1059789E-002  0.1845029E+03  0.7546771E-02  0.1066872E+00
        -11   -1    0    0    0    0  0.00000000000E+00  0.00000000000E+00  0.18250000000E+03  0.18250000000E+03  0.00000000000E+00 0. -1.
         11   -1    0    0    0    0 -0.00000000000E+00 -0.00000000000E+00 -0.18250000000E+03  0.18250000000E+03  0.00000000000E+00 0.  1.
        -11    1    1    2    0    0 -0.41561654168E+01 -0.36784965217E+01  0.16494679889E+03  0.16504015121E+03  0.00000000000E+00 0. -1.
         11    1    1    2    0    0 -0.40313523437E+01 -0.13389607212E+01 -0.18044711057E+03  0.18049710339E+03  0.00000000000E+00 0.  1.
        -15    1    1    2    0    0  0.81466341755E+00 -0.56949396838E+00  0.12782569066E+01  0.24040943374E+01  0.17770000000E+01 0.  1.
         15    1    1    2    0    0  0.73728543429E+01  0.55869512112E+01  0.14222054779E+02  0.17058651065E+02  0.17770000000E+01 0. -1.
</event>
<event>
 6    1  0.1059789E-002  0.1831102E+03  0.7546771E-02  0.1067970E+00
        -11   -1    0    0    0    0  0.00000000000E+00  0.00000000000E+00  0.18250000000E+03  0.18250000000E+03  0.00000000000E+00 0.  1.
         11   -1    0    0    0    0 -0.00000000000E+00 -0.00000000000E+00 -0.18250000000E+03  0.18250000000E+03  0.00000000000E+00 0. -1.
        -11    1    1    2    0    0 -0.13326538339E+00  0.47518244001E+01  0.28440030686E+02  0.28834578898E+02  0.00000000000E+00 0.  1.
         11    1    1    2    0    0  0.31943859952E+01 -0.76348984461E+01 -0.18170142542E+03  0.18188981218E+03  0.00000000000E+00 0. -1.
        -15    1    1    2    0    0  0.37418608281E+01  0.20785093005E+01  0.12420359902E+02  0.13256877176E+02  0.17770000000E+01 0. -1.
         15    1    1    2    0    0 -0.68029814400E+01  0.80456474557E+00  0.14084103483E+03  0.14101873174E+03  0.17770000000E+01 0.  1.
</event>
<event>
 6    1  0.1059789E-002  0.1973093E+03  0.7546771E-02  0.1057242E+00
        -11   -1    0    0    0    0  0.00000000000E+00  0.00000000000E+00  0.18250000000E+03  0.18250000000E+03  0.00000000000E+00 0. -1.
         11   -1    0    0    0    0 -0.00000000000E+00 -0.00000000000E+00 -0.18250000000E+03  0.18250000000E+03  0.00000000000E+00 0. -1.
        -11    1    1    2    0    0  0.27135376571E+01 -0.33276343289E+01  0.16058817135E+03  0.16064556394E+03  0.00000000000E+00 0. -1.
         11    1    1    2    0    0 -0.22618262629E+01 -0.25845780197E+01 -0.16765555799E+03  0.16769073328E+03  0.00000000000E+00 0. -1.
        -15    1    1    2    0    0  0.69598523284E+01 -0.20361653942E+01 -0.12297612563E+02  0.14386608971E+02  0.17770000000E+01 0.  1.
         15    1    1    2    0    0 -0.74115637226E+01  0.79483777428E+01  0.19364999200E+02  0.22277093809E+02  0.17770000000E+01 0. -1.
</event>
<event>
 6    1  0.1059789E-002  0.1763036E+03  0.7546771E-02  0.1073497E+00
        -11   -1    0    0    0    0  0.00000000000E+00  0.00000000000E+00  0.18250000000E+03  0.18250000000E+03  0.00000000000E+00 0. -1.
         11   -1    0    0    0    0 -0.00000000000E+00 -0.00000000000E+00 -0.18250000000E+03  0.18250000000E+03  0.00000000000E+00 0. -1.
        -11    1    1    2    0    0 -0.17565498417E+00  0.50463181698E+01  0.17763765790E+03  0.17770940798E+03  0.00000000000E+00 0. -1.
         11    1    1    2    0    0  0.22457004870E+01  0.26047729803E+01 -0.17496317744E+03  0.17499697561E+03  0.00000000000E+00 0. -1.
        -15    1    1    2    0    0 -0.15621655187E+01 -0.64890634432E+01  0.19523710238E+01  0.71775892256E+01  0.17770000000E+01 0.  1.
         15    1    1    2    0    0 -0.50787998416E+00 -0.11620277069E+01 -0.46268514855E+01  0.51160271832E+01  0.17770000000E+01 0. -1.
</event>
<event>
 6    1  0.1059789E-002  0.1862216E+03  0.7546771E-02  0.1065530E+00
        -11   -1    0    0    0    0  0.00000000000E+00  0.00000000000E+00  0.18250000000E+03  0.18250000000E+03  0.00000000000E+00 0. -1.
         11   -1    0    0    0    0 -0.00000000000E+00 -0.00000000000E+00 -0.18250000000E+03  0.18250000000E+03  0.00000000000E+00 0.  1.
        -11    1    1    2    0    0  0.33438282798E+01 -0.18631313139E+01  0.17873744590E+03  0.17877842994E+03  0.00000000000E+00 0. -1.
         11    1    1    2    0    0 -0.37803010169E+01  0.31941910924E+01 -0.14583686523E+03  0.14592081685E+03  0.00000000000E+00 0.  1.
        -15    1    1    2    0    0 -0.43453503151E+00 -0.12136947891E+02 -0.18079072370E+02  0.21851885767E+02  0.17770000000E+01 0.  1.
         15    1    1    2    0    0  0.87100776869E+00  0.10805888112E+02 -0.14821508302E+02  0.18448867439E+02  0.17770000000E+01 0. -1.
</event>
<event>
 6    1  0.1059789E-002  0.1828523E+03  0.7546771E-02  0.1068175E+00
        -11   -1    0    0    0    0  0.00000000000E+00  0.00000000000E+00  0.18250000000E+03  0.18250000000E+03  0.00000000000E+00 0.  1.
         11   -1    0    0    0    0 -0.00000000000E+00 -0.00000000000E+00 -0.18250000000E+03  0.18250000000E+03  0.00000000000E+00 0.  1.
        -11    1    1    2    0    0  0.20914702235E+01 -0.99705439411E+00  0.12970510541E+03  0.12972579826E+03  0.00000000000E+00 0.  1.
         11    1    1    2    0    0 -0.64547575105E+01  0.27528851568E+01 -0.18201246500E+03  0.18214768648E+03  0.00000000000E+00 0.  1.
        -15    1    1    2    0    0  0.25383742557E+01 -0.17022511081E+00  0.46373726291E+02  0.46477441190E+02  0.17770000000E+01 0.  1.
         15    1    1    2    0    0  0.18249130312E+01 -0.15856056519E+01  0.59336333071E+01  0.66490740767E+01  0.17770000000E+01 0.  1.
</event>
<event>
 6    1  0.1059789E-002  0.1848018E+03  0.7546771E-02  0.1066637E+00
        -11   -1    0    0    0    0  0.00000000000E+00  0.00000000000E+00  0.18250000000E+03  0.18250000000E+03  0.00000000000E+00 0. -1.
         11   -1    0    0    0    0 -0.00000000000E+00 -0.00000000000E+00 -0.18250000000E+03  0.18250000000E+03  0.00000000000E+00 0.  1.
        -11    1    1    2    0    0 -0.55670413051E+00 -0.43465279643E+01  0.17151470320E+03  0.17157067244E+03  0.00000000000E+00 0. -1.
         11    1    1    2    0    0 -0.26143672727E+01 -0.52546903727E+00 -0.18017847386E+03  0.18019820608E+03  0.00000000000E+00 0.  1.
        -15    1    1    2    0    0  0.12205652105E+01  0.22058303285E+01  0.89525188238E+01  0.94689381222E+01  0.17770000000E+01 0.  1.
         15    1    1    2    0    0  0.19505061927E+01  0.26661666731E+01 -0.28874817202E+00  0.37621833612E+01  0.17770000000E+01 0.  1.
</event>
<event>
 6    1  0.1059789E-002  0.1864670E+03  0.7546771E-02  0.1065340E+00
        -11   -1    0    0    0    0  0.00000000000E+00  0.00000000000E+00  0.18250000000E+03  0.18250000000E+03  0.00000000000E+00 0.  1.
         11   -1    0    0    0    0 -0.00000000000E+00 -0.00000000000E+00 -0.18250000000E+03  0.18250000000E+03  0.00000000000E+00 0.  1.
        -11    1    1    2    0    0  0.11963144711E+01 -0.30607525286E+01  0.17495369893E+03  0.17498455973E+03  0.00000000000E+00 0.  1.
         11    1    1    2    0    0 -0.24500541594E+01 -0.19632360542E+01 -0.17850534226E+03  0.17853295012E+03  0.00000000000E+00 0.  1.
        -15    1    1    2    0    0  0.12164044909E+01  0.16727125692E+01 -0.29110771930E+01  0.39886973623E+01  0.17770000000E+01 0. -1.
         15    1    1    2    0    0  0.37335197380E-01  0.33512760136E+01  0.64627205224E+01  0.74937927905E+01  0.17770000000E+01 0. -1.
</event>
<event>
 6    1  0.1059789E-002  0.1835649E+03  0.7546771E-02  0.1067610E+00
        -11   -1    0    0    0    0  0.00000000000E+00  0.00000000000E+00  0.18250000000E+03  0.18250000000E+03  0.00000000000E+00 0. -1.
         11   -1    0    0    0    0 -0.00000000000E+00 -0.00000000000E+00 -0.18250000000E+03  0.18250000000E+03  0.00000000000E+00 0. -1.
        -11    1    1    2    0    0 -0.10009929573E+02  0.11816089223E+02  0.18077301138E+03  0.18143511319E+03  0.00000000000E+00 0. -1.
         11    1    1    2    0    0  0.25083686475E+00  0.85995076742E+00 -0.28853034289E+02  0.28866936487E+02  0.00000000000E+00 0. -1.
        -15    1    1    2    0    0  0.61169289986E+01 -0.16030177679E+02 -0.14491316628E+03  0.14593617409E+03  0.17770000000E+01 0.  1.
         15    1    1    2    0    0  0.36421637101E+01  0.33541376885E+01 -0.70068108065E+01  0.87617762356E+01  0.17770000000E+01 0. -1.
</event>
<event>
 6    1  0.1059789E-002  0.1837648E+03  0.7546771E-02  0.1067452E+00
        -11   -1    0    0    0    0  0.00000000000E+00  0.00000000000E+00  0.18250000000E+03  0.18250000000E+03  0.00000000000E+00 0.  1.
         11   -1    0    0    0    0 -0.00000000000E+00 -0.00000000000E+00 -0.18250000000E+03  0.18250000000E+03  0.00000000000E+00 0.  1.
        -11    1    1    2    0    0 -0.18020039643E+01 -0.13936387309E+01  0.10218765934E+03  0.10221304794E+03  0.00000000000E+00 0.  1.
         11    1    1    2    0    0 -0.36830160041E+01 -0.58660307543E+01 -0.18110280624E+03  0.18123521002E+03  0.00000000000E+00 0.  1.
        -15    1    1    2    0    0  0.50861561552E+01  0.32783303104E+01  0.66900467004E+01  0.91940680828E+01  0.17770000000E+01 0.  1.
         15    1    1    2    0    0  0.39886381328E+00  0.39813391748E+01  0.72225100197E+02  0.72357673964E+02  0.17770000000E+01 0.  1.
</event>
<event>
 6    1  0.1059789E-002  0.1858933E+03  0.7546771E-02  0.1065785E+00
        -11   -1    0    0    0    0  0.00000000000E+00  0.00000000000E+00  0.18250000000E+03  0.18250000000E+03  0.00000000000E+00 0. -1.
         11   -1    0    0    0    0 -0.00000000000E+00 -0.00000000000E+00 -0.18250000000E+03  0.18250000000E+03  0.00000000000E+00 0.  1.
        -11    1    1    2    0    0  0.38898573934E+01  0.28215436700E+01  0.17904225559E+03  0.17910673182E+03  0.00000000000E+00 0. -1.
         11    1    1    2    0    0  0.64681039051E+01 -0.41738332022E+01 -0.16311129274E+03  0.16329283840E+03  0.00000000000E+00 0.  1.
        -15    1    1    2    0    0 -0.79670557435E+01  0.59324591220E+01 -0.75791033325E+01  0.12620165798E+02  0.17770000000E+01 0.  1.
         15    1    1    2    0    0 -0.23909055551E+01 -0.45801695899E+01 -0.83518595094E+01  0.99802639800E+01  0.17770000000E+01 0. -1.
</event>
<event>
 6    1  0.1059789E-002  0.1844074E+03  0.7546771E-02  0.1066947E+00
        -11   -1    0    0    0    0  0.00000000000E+00  0.00000000000E+00  0.18250000000E+03  0.18250000000E+03  0.00000000000E+00 0. -1.
         11   -1    0    0    0    0 -0.00000000000E+00 -0.00000000000E+00 -0.18250000000E+03  0.18250000000E+03  0.00000000000E+00 0.  1.
        -11    1    1    2    0    0 -0.43128950175E+01 -0.79903520737E+00  0.15844654163E+03  0.15850724298E+03  0.00000000000E+00 0. -1.
         11    1    1    2    0    0  0.27897452540E+01 -0.56805690711E+01 -0.18048163529E+03  0.18059255860E+03  0.00000000000E+00 0.  1.
        -15    1    1    2    0    0  0.35117297728E+01 -0.21630490365E+01  0.60655546457E+01  0.75471656462E+01  0.17770000000E+01 0. -1.
         15    1    1    2    0    0 -0.19885800093E+01  0.86426533150E+01  0.15969539016E+02  0.18353032778E+02  0.17770000000E+01 0.  1.
</event>
<event>
 6    1  0.1059789E-002  0.1837726E+03  0.7546771E-02  0.1067446E+00
        -11   -1    0    0    0    0  0.00000000000E+00  0.00000000000E+00  0.18250000000E+03  0.18250000000E+03  0.00000000000E+00 0. -1.
         11   -1    0    0    0    0 -0.00000000000E+00 -0.00000000000E+00 -0.18250000000E+03  0.18250000000E+03  0.00000000000E+00 0. -1.
        -11    1    1    2    0    0  0.18485066595E+01 -0.26365647405E+01  0.18119875075E+03  0.18122735920E+03  0.00000000000E+00 0. -1.
         11    1    1    2    0    0 -0.12915971741E+01  0.73031632496E+00 -0.55300231935E+02  0.55320134104E+02  0.00000000000E+00 0. -1.
        -15    1    1    2    0    0 -0.93259154805E+01 -0.62294473108E+01 -0.86435107353E+02  0.87177773689E+02  0.17770000000E+01 0. -1.
         15    1    1    2    0    0  0.87690059950E+01  0.81356957264E+01 -0.39463411463E+02  0.41274733002E+02  0.17770000000E+01 0.  1.
</event>
<event>
 6    1  0.1059789E-002  0.1825753E+03  0.7546771E-02  0.1068395E+00
        -11   -1    0    0    0    0  0.00000000000E+00  0.00000000000E+00  0.18250000000E+03  0.18250000000E+03  0.00000000000E+00 0.  1.
         11   -1    0    0    0    0 -0.00000000000E+00 -0.00000000000E+00 -0.18250000000E+03  0.18250000000E+03  0.00000000000E+00 0.  1.
        -11    1    1    2    0    0  0.28451637867E+01  0.95527141769E+00  0.18240001339E+03  0.18242470333E+03  0.00000000000E+00 0.  1.
         11    1    1    2    0    0  0.79517341610E+00  0.10207123769E+01 -0.71357405054E+02  0.71369134860E+02  0.00000000000E+00 0.  1.
        -15    1    1    2    0    0 -0.25517398349E+01 -0.13752764304E+01 -0.86852215376E+02  0.86918742549E+02  0.17770000000E+01 0.  1.
         15    1    1    2    0    0 -0.10885973679E+01 -0.60070736416E+00 -0.24190392962E+02  0.24287419258E+02  0.17770000000E+01 0. -1.
</event>
<event>
 6    1  0.1059789E-002  0.1842109E+03  0.7546771E-02  0.1067101E+00
        -11   -1    0    0    0    0  0.00000000000E+00  0.00000000000E+00  0.18250000000E+03  0.18250000000E+03  0.00000000000E+00 0. -1.
         11   -1    0    0    0    0 -0.00000000000E+00 -0.00000000000E+00 -0.18250000000E+03  0.18250000000E+03  0.00000000000E+00 0. -1.
        -11    1    1    2    0    0 -0.26987887198E+01  0.12195592990E+01  0.18076483711E+03  0.18078909569E+03  0.00000000000E+00 0. -1.
         11    1    1    2    0    0 -0.11987090791E+02 -0.16381325585E+01 -0.91649867960E+02  0.92444968068E+02  0.00000000000E+00 0. -1.
        -15    1    1    2    0    0  0.16136757051E+02 -0.32470314685E+01 -0.56823036707E+02  0.59185753109E+02  0.17770000000E+01 0.  1.
         15    1    1    2    0    0 -0.14508775402E+01  0.36656047280E+01 -0.32291932438E+02  0.32580183137E+02  0.17770000000E+01 0. -1.
</event>
<event>
 6    1  0.1059789E-002  0.1840146E+03  0.7546771E-02  0.1067256E+00
        -11   -1    0    0    0    0  0.00000000000E+00  0.00000000000E+00  0.18250000000E+03  0.18250000000E+03  0.00000000000E+00 0. -1.
         11   -1    0    0    0    0 -0.00000000000E+00 -0.00000000000E+00 -0.18250000000E+03  0.18250000000E+03  0.00000000000E+00 0.  1.
        -11    1    1    2    0    0  0.40136835956E+01 -0.12208166451E+02  0.18052855156E+03  0.18098537762E+03  0.00000000000E+00 0. -1.
         11    1    1    2    0    0 -0.30193727660E+00  0.24892419922E+01 -0.96474755864E+02  0.96507336565E+02  0.00000000000E+00 0.  1.
        -15    1    1    2    0    0  0.57620361402E+00  0.22561006488E+01 -0.74379262381E+02  0.74436915587E+02  0.17770000000E+01 0.  1.
         15    1    1    2    0    0 -0.42879499331E+01  0.74628238097E+01 -0.96745333186E+01  0.13070370223E+02  0.17770000000E+01 0. -1.
</event>
<event>
 6    1  0.1059789E-002  0.1825929E+03  0.7546771E-02  0.1068381E+00
        -11   -1    0    0    0    0  0.00000000000E+00  0.00000000000E+00  0.18250000000E+03  0.18250000000E+03  0.00000000000E+00 0.  1.
         11   -1    0    0    0    0 -0.00000000000E+00 -0.00000000000E+00 -0.18250000000E+03  0.18250000000E+03  0.00000000000E+00 0. -1.
        -11    1    1    2    0    0 -0.66015586802E+00  0.89320863351E+00  0.66431702459E+02  0.66440986740E+02  0.00000000000E+00 0.  1.
         11    1    1    2    0    0  0.27475139960E+01 -0.11403252515E+01 -0.18238284199E+03  0.18240710026E+03  0.00000000000E+00 0. -1.
        -15    1    1    2    0    0 -0.20126932335E+00  0.16319976780E+01  0.18659009487E+02  0.18815426910E+02  0.17770000000E+01 0. -1.
         15    1    1    2    0    0 -0.18860888046E+01 -0.13848810599E+01  0.97292130042E+02  0.97336486087E+02  0.17770000000E+01 0.  1.
</event>
<event>
 6    1  0.1059789E-002  0.1826019E+03  0.7546771E-02  0.1068374E+00
        -11   -1    0    0    0    0  0.00000000000E+00  0.00000000000E+00  0.18250000000E+03  0.18250000000E+03  0.00000000000E+00 0. -1.
         11   -1    0    0    0    0 -0.00000000000E+00 -0.00000000000E+00 -0.18250000000E+03  0.18250000000E+03  0.00000000000E+00 0. -1.
        -11    1    1    2    0    0  0.26727329940E+01 -0.87372813339E-01  0.18237850469E+03  0.18239810884E+03  0.00000000000E+00 0. -1.
         11    1    1    2    0    0 -0.16555191450E+00 -0.10479695492E+01 -0.57046431123E+02  0.57056296335E+02  0.00000000000E+00 0. -1.
        -15    1    1    2    0    0 -0.89993617161E+00  0.25368627867E+01 -0.29957225533E+02  0.30130360909E+02  0.17770000000E+01 0. -1.
         15    1    1    2    0    0 -0.16072449079E+01 -0.14015204242E+01 -0.95374848036E+02  0.95415233913E+02  0.17770000000E+01 0.  1.
</event>
<event>
 6    1  0.1059789E-002  0.1843126E+03  0.7546771E-02  0.1067021E+00
        -11   -1    0    0    0    0  0.00000000000E+00  0.00000000000E+00  0.18250000000E+03  0.18250000000E+03  0.00000000000E+00 0. -1.
         11   -1    0    0    0    0 -0.00000000000E+00 -0.00000000000E+00 -0.18250000000E+03  0.18250000000E+03  0.00000000000E+00 0. -1.
        -11    1    1    2    0    0 -0.39957473963E+01  0.50368146310E+00  0.15950075438E+03  0.15955159147E+03  0.00000000000E+00 0. -1.
         11    1    1    2    0    0  0.88347599897E+01  0.12508500788E+01 -0.18046695980E+03  0.18068741292E+03  0.00000000000E+00 0. -1.
        -15    1    1    2    0    0 -0.69583762224E+01 -0.42180978605E+01  0.91273610254E+01  0.12356285749E+02  0.17770000000E+01 0.  1.
         15    1    1    2    0    0  0.21193636290E+01  0.24635663186E+01  0.11838844391E+02  0.12404709860E+02  0.17770000000E+01 0.  1.
</event>
<event>
 6    1  0.1059789E-002  0.1827851E+03  0.7546771E-02  0.1068228E+00
        -11   -1    0    0    0    0  0.00000000000E+00  0.00000000000E+00  0.18250000000E+03  0.18250000000E+03  0.00000000000E+00 0. -1.
         11   -1    0    0    0    0 -0.00000000000E+00 -0.00000000000E+00 -0.18250000000E+03  0.18250000000E+03  0.00000000000E+00 0. -1.
        -11    1    1    2    0    0  0.70419601094E+00  0.62874206110E+00  0.62959365413E+02  0.62966442664E+02  0.00000000000E+00 0. -1.
         11    1    1    2    0    0  0.52032435104E+01 -0.43271774146E+01 -0.18208918805E+03  0.18221490228E+03  0.00000000000E+00 0. -1.
        -15    1    1    2    0    0  0.27998920879E+01  0.16744744674E+01  0.34246385856E+02  0.34447292109E+02  0.17770000000E+01 0.  1.
         15    1    1    2    0    0 -0.87073316093E+01  0.20239608860E+01  0.84883436786E+02  0.85371362944E+02  0.17770000000E+01 0. -1.
</event>
<event>
 6    1  0.1059789E-002  0.1838093E+03  0.7546771E-02  0.1067417E+00
        -11   -1    0    0    0    0  0.00000000000E+00  0.00000000000E+00  0.18250000000E+03  0.18250000000E+03  0.00000000000E+00 0. -1.
         11   -1    0    0    0    0 -0.00000000000E+00 -0.00000000000E+00 -0.18250000000E+03  0.18250000000E+03  0.00000000000E+00 0.  1.
        -11    1    1    2    0    0  0.18373788665E+01 -0.30541915353E+01  0.61430304591E+02  0.61533619828E+02  0.00000000000E+00 0. -1.
         11    1    1    2    0    0  0.45886995396E+01 -0.22913604831E+01 -0.18111811747E+03  0.18119072540E+03  0.00000000000E+00 0.  1.
        -15    1    1    2    0    0 -0.10287225503E+02  0.65142801575E+01  0.11563392188E+03  0.11628681986E+03  0.17770000000E+01 0. -1.
         15    1    1    2    0    0  0.38611470972E+01 -0.11687281391E+01  0.40538909972E+01  0.59888349107E+01  0.17770000000E+01 0.  1.
</event>
<event>
 6    1  0.1059789E-002  0.1832162E+03  0.7546771E-02  0.1067886E+00
        -11   -1    0    0    0    0  0.00000000000E+00  0.00000000000E+00  0.18250000000E+03  0.18250000000E+03  0.00000000000E+00 0. -1.
         11   -1    0    0    0    0 -0.00000000000E+00 -0.00000000000E+00 -0.18250000000E+03  0.18250000000E+03  0.00000000000E+00 0. -1.
        -11    1    1    2    0    0  0.52520586863E+01 -0.11495935038E+01  0.15919417875E+03  0.15928494039E+03  0.00000000000E+00 0. -1.
         11    1    1    2    0    0 -0.84845020831E+00 -0.27609342099E+01 -0.18176080327E+03  0.18178375128E+03  0.00000000000E+00 0. -1.
        -15    1    1    2    0    0 -0.91833942043E+00  0.51499822099E+00  0.11846239151E+02  0.12024960769E+02  0.17770000000E+01 0. -1.
         15    1    1    2    0    0 -0.34852690576E+01  0.33955294927E+01  0.10720385363E+02  0.11906347562E+02  0.17770000000E+01 0.  1.
</event>
<event>
 6    1  0.1059789E-002  0.1855205E+03  0.7546771E-02  0.1066076E+00
        -11   -1    0    0    0    0  0.00000000000E+00  0.00000000000E+00  0.18250000000E+03  0.18250000000E+03  0.00000000000E+00 0.  1.
         11   -1    0    0    0    0 -0.00000000000E+00 -0.00000000000E+00 -0.18250000000E+03  0.18250000000E+03  0.00000000000E+00 0.  1.
        -11    1    1    2    0    0  0.74360286804E+01  0.50065281728E+00  0.16472751159E+03  0.16489602254E+03  0.00000000000E+00 0.  1.
         11    1    1    2    0    0  0.95265125474E+00 -0.78416377190E+01 -0.17930562973E+03  0.17947954669E+03  0.00000000000E+00 0.  1.
        -15    1    1    2    0    0 -0.77374570817E+01  0.30862869625E+01  0.13303233197E+02  0.15796428451E+02  0.17770000000E+01 0. -1.
         15    1    1    2    0    0 -0.65122285343E+00  0.42546979392E+01  0.12748849514E+01  0.48280023196E+01  0.17770000000E+01 0.  1.
</event>
<event>
 6    1  0.1059789E-002  0.1826618E+03  0.7546771E-02  0.1068326E+00
        -11   -1    0    0    0    0  0.00000000000E+00  0.00000000000E+00  0.18250000000E+03  0.18250000000E+03  0.00000000000E+00 0. -1.
         11   -1    0    0    0    0 -0.00000000000E+00 -0.00000000000E+00 -0.18250000000E+03  0.18250000000E+03  0.00000000000E+00 0.  1.
        -11    1    1    2    0    0 -0.29439565737E+01  0.20547608656E+01  0.18230280592E+03  0.18233815280E+03  0.00000000000E+00 0. -1.
         11    1    1    2    0    0  0.16538772567E+01  0.24624612571E+00 -0.42000892283E+02  0.42034163483E+02  0.00000000000E+00 0.  1.
        -15    1    1    2    0    0 -0.12157979502E+01  0.24535660522E+00 -0.11437508350E+03  0.11439561101E+03  0.17770000000E+01 0.  1.
         15    1    1    2    0    0  0.25058772672E+01 -0.25463635965E+01 -0.25926830138E+02  0.26232072706E+02  0.17770000000E+01 0.  1.
</event>
<event>
 6    1  0.1059789E-002  0.1875921E+03  0.7546771E-02  0.1064472E+00
        -11   -1    0    0    0    0  0.00000000000E+00  0.00000000000E+00  0.18250000000E+03  0.18250000000E+03  0.00000000000E+00 0.  1.
         11   -1    0    0    0    0 -0.00000000000E+00 -0.00000000000E+00 -0.18250000000E+03  0.18250000000E+03  0.00000000000E+00 0.  1.
        -11    1    1    2    0    0 -0.11636954285E+01 -0.47078483107E+01  0.17734164730E+03  0.17740794201E+03  0.00000000000E+00 0.  1.
         11    1    1    2    0    0  0.23469363342E+01  0.22018324172E+00 -0.16997810743E+03  0.16999445166E+03  0.00000000000E+00 0.  1.
        -15    1    1    2    0    0  0.12369685192E+01 -0.85820708693E+00  0.40325516957E+01  0.46568028410E+01  0.17770000000E+01 0.  1.
         15    1    1    2    0    0 -0.24202094250E+01  0.53458721559E+01 -0.11396091565E+02  0.12940803480E+02  0.17770000000E+01 0. -1.
</event>
<event>
 6    1  0.1059789E-002  0.1836101E+03  0.7546771E-02  0.1067575E+00
        -11   -1    0    0    0    0  0.00000000000E+00  0.00000000000E+00  0.18250000000E+03  0.18250000000E+03  0.00000000000E+00 0.  1.
         11   -1    0    0    0    0 -0.00000000000E+00 -0.00000000000E+00 -0.18250000000E+03  0.18250000000E+03  0.00000000000E+00 0.  1.
        -11    1    1    2    0    0  0.47025367729E+01 -0.50463610512E+01  0.13235833268E+03  0.13253794869E+03  0.00000000000E+00 0.  1.
         11    1    1    2    0    0  0.30432505858E+01 -0.43953363443E+00 -0.18136380803E+03  0.18138987134E+03  0.00000000000E+00 0.  1.
        -15    1    1    2    0    0 -0.51096266470E+01  0.60971049012E+01  0.45788062574E+02  0.46507928097E+02  0.17770000000E+01 0.  1.
         15    1    1    2    0    0 -0.26361607117E+01 -0.61121021558E+00  0.32174127691E+01  0.45642518721E+01  0.17770000000E+01 0. -1.
</event>
<event>
 6    1  0.1059789E-002  0.1869862E+03  0.7546771E-02  0.1064939E+00
        -11   -1    0    0    0    0  0.00000000000E+00  0.00000000000E+00  0.18250000000E+03  0.18250000000E+03  0.00000000000E+00 0. -1.
         11   -1    0    0    0    0 -0.00000000000E+00 -0.00000000000E+00 -0.18250000000E+03  0.18250000000E+03  0.00000000000E+00 0. -1.
        -11    1    1    2    0    0  0.77544184789E+01  0.40705050025E+00  0.15813306020E+03  0.15832359718E+03  0.00000000000E+00 0. -1.
         11    1    1    2    0    0 -0.12200713299E+01  0.41582962842E+01 -0.17796108821E+03  0.17801384474E+03  0.00000000000E+00 0. -1.
        -15    1    1    2    0    0 -0.53116702248E+01  0.43475030611E+01  0.30932318623E+00  0.70970439817E+01  0.17770000000E+01 0. -1.
         15    1    1    2    0    0 -0.12226769241E+01 -0.89128498456E+01  0.19518704824E+02  0.21565514096E+02  0.17770000000E+01 0.  1.
</event>
<event>
 6    1  0.1059789E-002  0.1765684E+03  0.7546771E-02  0.1073277E+00
        -11   -1    0    0    0    0  0.00000000000E+00  0.00000000000E+00  0.18250000000E+03  0.18250000000E+03  0.00000000000E+00 0. -1.
         11   -1    0    0    0    0 -0.00000000000E+00 -0.00000000000E+00 -0.18250000000E+03  0.18250000000E+03  0.00000000000E+00 0.  1.
        -11    1    1    2    0    0 -0.57572655108E+01 -0.89283899659E+00  0.12897748921E+02  0.14152568490E+02  0.00000000000E+00 0. -1.
         11    1    1    2    0    0  0.36155469738E+01  0.22402521334E+01 -0.18050236245E+03  0.18055246816E+03  0.00000000000E+00 0.  1.
        -15    1    1    2    0    0 -0.11869382995E+02  0.14185002451E+01  0.37558628778E+02  0.39455072175E+02  0.17770000000E+01 0. -1.
         15    1    1    2    0    0  0.14011101532E+02 -0.27659133819E+01  0.13004598475E+03  0.13083989117E+03  0.17770000000E+01 0.  1.
</event>
<event>
 6    1  0.1059789E-002  0.1827921E+03  0.7546771E-02  0.1068223E+00
        -11   -1    0    0    0    0  0.00000000000E+00  0.00000000000E+00  0.18250000000E+03  0.18250000000E+03  0.00000000000E+00 0.  1.
         11   -1    0    0    0    0 -0.00000000000E+00 -0.00000000000E+00 -0.18250000000E+03  0.18250000000E+03  0.00000000000E+00 0.  1.
        -11    1    1    2    0    0 -0.51764451899E+00 -0.78746734051E+00  0.31117760333E+02  0.31132026417E+02  0.00000000000E+00 0.  1.
         11    1    1    2    0    0  0.80861606061E+00 -0.64498732718E+01 -0.18209188365E+03  0.18220787254E+03  0.00000000000E+00 0.  1.
        -15    1    1    2    0    0 -0.16799527129E+01  0.76350912463E+01  0.48330933910E+02  0.48991364148E+02  0.17770000000E+01 0.  1.
         15    1    1    2    0    0  0.13889811713E+01 -0.39775063395E+00  0.10264318941E+03  0.10266873689E+03  0.17770000000E+01 0.  1.
</event>
<event>
 6    1  0.1059789E-002  0.1103154E+03  0.7546771E-02  0.1147082E+00
        -11   -1    0    0    0    0  0.00000000000E+00  0.00000000000E+00  0.18250000000E+03  0.18250000000E+03  0.00000000000E+00 0. -1.
         11   -1    0    0    0    0 -0.00000000000E+00 -0.00000000000E+00 -0.18250000000E+03  0.18250000000E+03  0.00000000000E+00 0. -1.
        -11    1    1    2    0    0  0.12526502526E+02 -0.10505982931E+02  0.69179809931E+02  0.71085406695E+02  0.00000000000E+00 0. -1.
         11    1    1    2    0    0  0.48355623822E+01 -0.58232582332E+00 -0.14359332408E+03  0.14367590086E+03  0.00000000000E+00 0. -1.
        -15    1    1    2    0    0 -0.34746225585E+02 -0.43470540444E+02 -0.80881380283E+00  0.55684827266E+02  0.17770000000E+01 0.  1.
         15    1    1    2    0    0  0.17384160677E+02  0.54558849198E+02  0.75222327954E+02  0.94553865178E+02  0.17770000000E+01 0. -1.
</event>
<event>
 6    1  0.1059789E-002  0.1850803E+03  0.7546771E-02  0.1066419E+00
        -11   -1    0    0    0    0  0.00000000000E+00  0.00000000000E+00  0.18250000000E+03  0.18250000000E+03  0.00000000000E+00 0.  1.
         11   -1    0    0    0    0 -0.00000000000E+00 -0.00000000000E+00 -0.18250000000E+03  0.18250000000E+03  0.00000000000E+00 0.  1.
        -11    1    1    2    0    0  0.39792070335E+01  0.21495829041E+01  0.17986287168E+03  0.17991972489E+03  0.00000000000E+00 0.  1.
         11    1    1    2    0    0  0.20908889365E+01  0.26531765876E+01 -0.16087616824E+03  0.16091163000E+03  0.00000000000E+00 0.  1.
        -15    1    1    2    0    0 -0.33064855419E+01  0.58337153443E+00 -0.17195526051E+02  0.17610139527E+02  0.17770000000E+01 0. -1.
         15    1    1    2    0    0 -0.27636104282E+01 -0.53861310262E+01 -0.17911773920E+01  0.65585055828E+01  0.17770000000E+01 0.  1.
</event>
<event>
 6    1  0.1059789E-002  0.1828000E+03  0.7546771E-02  0.1068216E+00
        -11   -1    0    0    0    0  0.00000000000E+00  0.00000000000E+00  0.18250000000E+03  0.18250000000E+03  0.00000000000E+00 0.  1.
         11   -1    0    0    0    0 -0.00000000000E+00 -0.00000000000E+00 -0.18250000000E+03  0.18250000000E+03  0.00000000000E+00 0. -1.
        -11    1    1    2    0    0  0.13268473189E+01  0.22674003243E+01  0.18218102433E+03  0.18219996502E+03  0.00000000000E+00 0.  1.
         11    1    1    2    0    0 -0.52096371132E+00  0.22965989477E+00 -0.34507414329E+02  0.34512110780E+02  0.00000000000E+00 0. -1.
        -15    1    1    2    0    0 -0.45069640457E+01 -0.59682865188E+00 -0.22091164013E+02  0.22624017897E+02  0.17770000000E+01 0.  1.
         15    1    1    2    0    0  0.37010804382E+01 -0.19002315672E+01 -0.12558244599E+03  0.12566390630E+03  0.17770000000E+01 0. -1.
</event>
<event>
 6    1  0.1059789E-002  0.1847483E+03  0.7546771E-02  0.1066679E+00
        -11   -1    0    0    0    0  0.00000000000E+00  0.00000000000E+00  0.18250000000E+03  0.18250000000E+03  0.00000000000E+00 0.  1.
         11   -1    0    0    0    0 -0.00000000000E+00 -0.00000000000E+00 -0.18250000000E+03  0.18250000000E+03  0.00000000000E+00 0. -1.
        -11    1    1    2    0    0  0.44650790928E+01 -0.17001297585E+01  0.18018836255E+03  0.18025169451E+03  0.00000000000E+00 0.  1.
         11    1    1    2    0    0  0.52344164628E+01 -0.36725650143E+01 -0.15935187862E+03  0.15948011810E+03  0.00000000000E+00 0. -1.
        -15    1    1    2    0    0 -0.66926987025E+01  0.33188787147E+01 -0.19570799733E+02  0.21023346618E+02  0.17770000000E+01 0.  1.
         15    1    1    2    0    0 -0.30067968531E+01  0.20538160581E+01 -0.12656841990E+01  0.42448407754E+01  0.17770000000E+01 0. -1.
</event>
<event>
 6    1  0.1059789E-002  0.1888983E+03  0.7546771E-02  0.1063473E+00
        -11   -1    0    0    0    0  0.00000000000E+00  0.00000000000E+00  0.18250000000E+03  0.18250000000E+03  0.00000000000E+00 0. -1.
         11   -1    0    0    0    0 -0.00000000000E+00 -0.00000000000E+00 -0.18250000000E+03  0.18250000000E+03  0.00000000000E+00 0.  1.
        -11    1    1    2    0    0  0.71075984170E+01  0.45378413535E+01  0.17589967709E+03  0.17610169324E+03  0.00000000000E+00 0. -1.
         11    1    1    2    0    0  0.30158654479E+01  0.30126860388E+01 -0.15152004247E+03  0.15157999536E+03  0.00000000000E+00 0.  1.
        -15    1    1    2    0    0 -0.18496279664E+02 -0.41203168754E+01 -0.16482366496E+02  0.25177678742E+02  0.17770000000E+01 0. -1.
         15    1    1    2    0    0  0.83728157988E+01 -0.34302105169E+01 -0.78972681271E+01  0.12140632663E+02  0.17770000000E+01 0.  1.
</event>
<event>
 6    1  0.1059789E-002  0.1853458E+03  0.7546771E-02  0.1066212E+00
        -11   -1    0    0    0    0  0.00000000000E+00  0.00000000000E+00  0.18250000000E+03  0.18250000000E+03  0.00000000000E+00 0. -1.
         11   -1    0    0    0    0 -0.00000000000E+00 -0.00000000000E+00 -0.18250000000E+03  0.18250000000E+03  0.00000000000E+00 0.  1.
        -11    1    1    2    0    0 -0.23973891260E+01 -0.46231415039E+00  0.17963764915E+03  0.17965424070E+03  0.00000000000E+00 0. -1.
         11    1    1    2    0    0  0.14432727433E+01  0.25875870951E+01 -0.93661092581E+02  0.93707944736E+02  0.00000000000E+00 0.  1.
        -15    1    1    2    0    0 -0.14988156157E+01  0.51118828707E+01 -0.83087921340E+02  0.83277477125E+02  0.17770000000E+01 0.  1.
         15    1    1    2    0    0  0.24529319983E+01 -0.72371558154E+01 -0.28886352262E+01  0.83603374427E+01  0.17770000000E+01 0. -1.
</event>
<event>
 6    1  0.1059789E-002  0.1827765E+03  0.7546771E-02  0.1068235E+00
        -11   -1    0    0    0    0  0.00000000000E+00  0.00000000000E+00  0.18250000000E+03  0.18250000000E+03  0.00000000000E+00 0. -1.
         11   -1    0    0    0    0 -0.00000000000E+00 -0.00000000000E+00 -0.18250000000E+03  0.18250000000E+03  0.00000000000E+00 0. -1.
        -11    1    1    2    0    0 -0.26068811598E+01  0.10601675178E+01  0.12112275950E+03  0.12115544831E+03  0.00000000000E+00 0. -1.
         11    1    1    2    0    0  0.19466849792E+01  0.34695914495E+01 -0.18218007086E+03  0.18222350525E+03  0.00000000000E+00 0. -1.
        -15    1    1    2    0    0  0.12557989850E+01 -0.38960476857E+00  0.40816543245E+02  0.40876359359E+02  0.17770000000E+01 0. -1.
         15    1    1    2    0    0 -0.59560280434E+00 -0.41401541987E+01  0.20240768112E+02  0.20744687085E+02  0.17770000000E+01 0. -1.
</event>
<event>
 6    1  0.1059789E-002  0.1874655E+03  0.7546771E-02  0.1064570E+00
        -11   -1    0    0    0    0  0.00000000000E+00  0.00000000000E+00  0.18250000000E+03  0.18250000000E+03  0.00000000000E+00 0. -1.
         11   -1    0    0    0    0 -0.00000000000E+00 -0.00000000000E+00 -0.18250000000E+03  0.18250000000E+03  0.00000000000E+00 0.  1.
        -11    1    1    2    0    0  0.10095142018E+02  0.25711807456E+01  0.15341592306E+03  0.15376920469E+03  0.00000000000E+00 0. -1.
         11    1    1    2    0    0  0.43168216763E+01  0.60736881764E+01 -0.17737803562E+03  0.17753448161E+03  0.00000000000E+00 0.  1.
        -15    1    1    2    0    0  0.19400342352E+01  0.14268890174E+01  0.83894839469E+01  0.89073517387E+01  0.17770000000E+01 0. -1.
         15    1    1    2    0    0 -0.16351997929E+02 -0.10071757939E+02  0.15572628618E+02  0.24788961966E+02  0.17770000000E+01 0.  1.
</event>
<event>
 6    1  0.1059789E-002  0.1865570E+03  0.7546771E-02  0.1065271E+00
        -11   -1    0    0    0    0  0.00000000000E+00  0.00000000000E+00  0.18250000000E+03  0.18250000000E+03  0.00000000000E+00 0. -1.
         11   -1    0    0    0    0 -0.00000000000E+00 -0.00000000000E+00 -0.18250000000E+03  0.18250000000E+03  0.00000000000E+00 0.  1.
        -11    1    1    2    0    0  0.20632602053E+01 -0.18140978668E+01  0.15933637392E+03  0.15936005788E+03  0.00000000000E+00 0. -1.
         11    1    1    2    0    0 -0.12557377950E+01 -0.41002666494E+01 -0.17839149402E+03  0.17844302789E+03  0.00000000000E+00 0.  1.
        -15    1    1    2    0    0  0.82456324090E+00  0.11146437524E+02  0.57421455271E+01  0.12690663429E+02  0.17770000000E+01 0.  1.
         15    1    1    2    0    0 -0.16320856511E+01 -0.52320730073E+01  0.13312974568E+02  0.14506250803E+02  0.17770000000E+01 0. -1.
</event>
<event>
 6    1  0.1059789E-002  0.1758066E+03  0.7546771E-02  0.1073911E+00
        -11   -1    0    0    0    0  0.00000000000E+00  0.00000000000E+00  0.18250000000E+03  0.18250000000E+03  0.00000000000E+00 0. -1.
         11   -1    0    0    0    0 -0.00000000000E+00 -0.00000000000E+00 -0.18250000000E+03  0.18250000000E+03  0.00000000000E+00 0. -1.
        -11    1    1    2    0    0  0.19554405710E+01  0.76496034476E+01  0.17441264495E+03  0.17459126810E+03  0.00000000000E+00 0. -1.
         11    1    1    2    0    0 -0.32127778181E+01 -0.28547192969E+01 -0.17701435730E+03  0.17706652437E+03  0.00000000000E+00 0. -1.
        -15    1    1    2    0    0  0.40102844894E+01  0.13936062332E+01 -0.19414026157E+01  0.49951269388E+01  0.17770000000E+01 0. -1.
         15    1    1    2    0    0 -0.27529472423E+01 -0.61884903838E+01  0.45431149656E+01  0.83470805879E+01  0.17770000000E+01 0. -1.
</event>
<event>
 6    1  0.1059789E-002  0.1842346E+03  0.7546771E-02  0.1067082E+00
        -11   -1    0    0    0    0  0.00000000000E+00  0.00000000000E+00  0.18250000000E+03  0.18250000000E+03  0.00000000000E+00 0. -1.
         11   -1    0    0    0    0 -0.00000000000E+00 -0.00000000000E+00 -0.18250000000E+03  0.18250000000E+03  0.00000000000E+00 0. -1.
        -11    1    1    2    0    0 -0.39400150819E+00  0.31452244160E+01  0.17586174772E+03  0.17589031237E+03  0.00000000000E+00 0. -1.
         11    1    1    2    0    0  0.19932277947E+01  0.14927952000E+01 -0.18074821505E+03  0.18076536902E+03  0.00000000000E+00 0. -1.
        -15    1    1    2    0    0 -0.14851364042E+00 -0.35109636390E+01  0.40652019794E+01  0.56597277416E+01  0.17770000000E+01 0.  1.
         15    1    1    2    0    0 -0.14507126461E+01 -0.11270559770E+01  0.82126534490E+00  0.26845908671E+01  0.17770000000E+01 0. -1.
</event>
<event>
 6    1  0.1059789E-002  0.1843475E+03  0.7546771E-02  0.1066994E+00
        -11   -1    0    0    0    0  0.00000000000E+00  0.00000000000E+00  0.18250000000E+03  0.18250000000E+03  0.00000000000E+00 0.  1.
         11   -1    0    0    0    0 -0.00000000000E+00 -0.00000000000E+00 -0.18250000000E+03  0.18250000000E+03  0.00000000000E+00 0.  1.
        -11    1    1    2    0    0 -0.54064268914E+01  0.33197816963E+01  0.18054108694E+03  0.18065252413E+03  0.00000000000E+00 0.  1.
         11    1    1    2    0    0  0.58466255735E+00 -0.12689359735E+01 -0.97032280471E+02  0.97042338607E+02  0.00000000000E+00 0.  1.
        -15    1    1    2    0    0  0.11702893261E+02 -0.56924719813E+01 -0.24872708534E+02  0.28127767540E+02  0.17770000000E+01 0.  1.
         15    1    1    2    0    0 -0.68811289273E+01  0.36416262585E+01 -0.58636097934E+02  0.59177369721E+02  0.17770000000E+01 0.  1.
</event>
<event>
 6    1  0.1059789E-002  0.1835194E+03  0.7546771E-02  0.1067646E+00
        -11   -1    0    0    0    0  0.00000000000E+00  0.00000000000E+00  0.18250000000E+03  0.18250000000E+03  0.00000000000E+00 0.  1.
         11   -1    0    0    0    0 -0.00000000000E+00 -0.00000000000E+00 -0.18250000000E+03  0.18250000000E+03  0.00000000000E+00 0.  1.
        -11    1    1    2    0    0 -0.17094997564E+01  0.11204917530E+01  0.99127683832E+02  0.99148754874E+02  0.00000000000E+00 0.  1.
         11    1    1    2    0    0  0.21198747443E+01  0.67415765329E+01 -0.18134291754E+03  0.18148056774E+03  0.00000000000E+00 0.  1.
        -15    1    1    2    0    0 -0.40962391501E+01 -0.10420376340E+02  0.73835192131E+02  0.74700446747E+02  0.17770000000E+01 0.  1.
         15    1    1    2    0    0  0.36858641621E+01  0.25583080539E+01  0.83800415822E+01  0.96702306405E+01  0.17770000000E+01 0. -1.
</event>
<event>
 6    1  0.1059789E-002  0.1853171E+03  0.7546771E-02  0.1066234E+00
        -11   -1    0    0    0    0  0.00000000000E+00  0.00000000000E+00  0.18250000000E+03  0.18250000000E+03  0.00000000000E+00 0.  1.
         11   -1    0    0    0    0 -0.00000000000E+00 -0.00000000000E+00 -0.18250000000E+03  0.18250000000E+03  0.00000000000E+00 0.  1.
        -11    1    1    2    0    0 -0.58847863067E+00  0.33173293632E+01  0.17553198919E+03  0.17556431930E+03  0.00000000000E+00 0.  1.
         11    1    1    2    0    0  0.20257651036E+01 -0.69444079179E+01 -0.17953725116E+03  0.17968292373E+03  0.00000000000E+00 0.  1.
        -15    1    1    2    0    0 -0.31925259611E+01  0.52117331025E+00  0.44053943574E+01  0.57470924889E+01  0.17770000000E+01 0.  1.
         15    1    1    2    0    0  0.17552394881E+01  0.31059052445E+01 -0.40013239321E+00  0.40056644868E+01  0.17770000000E+01 0. -1.
</event>
<event>
 6    1  0.1059789E-002  0.1828458E+03  0.7546771E-02  0.1068180E+00
        -11   -1    0    0    0    0  0.00000000000E+00  0.00000000000E+00  0.18250000000E+03  0.18250000000E+03  0.00000000000E+00 0.  1.
         11   -1    0    0    0    0 -0.00000000000E+00 -0.00000000000E+00 -0.18250000000E+03  0.18250000000E+03  0.00000000000E+00 0.  1.
        -11    1    1    2    0    0 -0.46640659954E+01  0.30317197021E+00  0.18209419406E+03  0.18215416804E+03  0.00000000000E+00 0.  1.
         11    1    1    2    0    0 -0.59202312087E+00  0.38357992918E+00 -0.30711088181E+02  0.30719188827E+02  0.00000000000E+00 0.  1.
        -15    1    1    2    0    0  0.61766658292E+01  0.13792395494E+00 -0.28158356292E+02  0.28882883890E+02  0.17770000000E+01 0.  1.
         15    1    1    2    0    0 -0.92057671291E+00 -0.82467585433E+00 -0.12322474959E+03  0.12324375924E+03  0.17770000000E+01 0.  1.
</event>
<event>
 6    1  0.1059789E-002  0.1839411E+03  0.7546771E-02  0.1067313E+00
        -11   -1    0    0    0    0  0.00000000000E+00  0.00000000000E+00  0.18250000000E+03  0.18250000000E+03  0.00000000000E+00 0.  1.
         11   -1    0    0    0    0 -0.00000000000E+00 -0.00000000000E+00 -0.18250000000E+03  0.18250000000E+03  0.00000000000E+00 0. -1.
        -11    1    1    2    0    0 -0.48876272224E+00  0.24185824507E+01  0.16957004551E+03  0.16958799711E+03  0.00000000000E+00 0.  1.
         11    1    1    2    0    0 -0.61313248117E+00  0.44130070529E+01 -0.18100410503E+03  0.18105893130E+03  0.00000000000E+00 0. -1.
        -15    1    1    2    0    0  0.18248593673E+01 -0.56463182771E+01  0.96970515627E+01  0.11506587670E+02  0.17770000000E+01 0.  1.
         15    1    1    2    0    0 -0.72296416386E+00 -0.11852712265E+01  0.17370079605E+01  0.28464839219E+01  0.17770000000E+01 0. -1.
</event>
<event>
 6    1  0.1059789E-002  0.1833721E+03  0.7546771E-02  0.1067763E+00
        -11   -1    0    0    0    0  0.00000000000E+00  0.00000000000E+00  0.18250000000E+03  0.18250000000E+03  0.00000000000E+00 0.  1.
         11   -1    0    0    0    0 -0.00000000000E+00 -0.00000000000E+00 -0.18250000000E+03  0.18250000000E+03  0.00000000000E+00 0.  1.
        -11    1    1    2    0    0  0.26370920677E+01 -0.10977965094E+01  0.58974190586E+02  0.59043327879E+02  0.00000000000E+00 0.  1.
         11    1    1    2    0    0  0.12931327971E+01  0.34711171758E+01 -0.18159015611E+03  0.18162793189E+03  0.00000000000E+00 0.  1.
        -15    1    1    2    0    0 -0.26697246413E+01 -0.54374007753E+01  0.11881464137E+03  0.11898222342E+03  0.17770000000E+01 0.  1.
         15    1    1    2    0    0 -0.12605002235E+01  0.30640801089E+01  0.38013241538E+01  0.53465168147E+01  0.17770000000E+01 0. -1.
</event>
<event>
 6    1  0.1059789E-002  0.1853030E+03  0.7546771E-02  0.1066245E+00
        -11   -1    0    0    0    0  0.00000000000E+00  0.00000000000E+00  0.18250000000E+03  0.18250000000E+03  0.00000000000E+00 0.  1.
         11   -1    0    0    0    0 -0.00000000000E+00 -0.00000000000E+00 -0.18250000000E+03  0.18250000000E+03  0.00000000000E+00 0.  1.
        -11    1    1    2    0    0 -0.50543129932E+00  0.57417212914E+01  0.16426736292E+03  0.16436845606E+03  0.00000000000E+00 0.  1.
         11    1    1    2    0    0  0.12289996751E+01 -0.29582990962E+01 -0.17966847276E+03  0.17969702858E+03  0.00000000000E+00 0.  1.
        -15    1    1    2    0    0 -0.87075518880E+00  0.13604861030E+01 -0.18954382932E+01  0.30593385492E+01  0.17770000000E+01 0.  1.
         15    1    1    2    0    0  0.14718681304E+00 -0.41439082982E+01  0.17296548134E+02  0.17875176819E+02  0.17770000000E+01 0. -1.
</event>
<event>
 6    1  0.1059789E-002  0.1838798E+03  0.7546771E-02  0.1067362E+00
        -11   -1    0    0    0    0  0.00000000000E+00  0.00000000000E+00  0.18250000000E+03  0.18250000000E+03  0.00000000000E+00 0.  1.
         11   -1    0    0    0    0 -0.00000000000E+00 -0.00000000000E+00 -0.18250000000E+03  0.18250000000E+03  0.00000000000E+00 0. -1.
        -11    1    1    2    0    0 -0.13032467361E+01 -0.32103536382E+01  0.11121403468E+03  0.11126799329E+03  0.00000000000E+00 0.  1.
         11    1    1    2    0    0  0.12118268930E+01 -0.48828393478E+01 -0.18105034911E+03  0.18112023508E+03  0.00000000000E+00 0. -1.
        -15    1    1    2    0    0 -0.58483554742E+00  0.96849811966E+01  0.69395709280E+02  0.70093245672E+02  0.17770000000E+01 0. -1.
         15    1    1    2    0    0  0.67625539046E+00 -0.15917882105E+01  0.44060515097E+00  0.25185259497E+01  0.17770000000E+01 0.  1.
</event>
<event>
 6    1  0.1059789E-002  0.1846147E+03  0.7546771E-02  0.1066784E+00
        -11   -1    0    0    0    0  0.00000000000E+00  0.00000000000E+00  0.18250000000E+03  0.18250000000E+03  0.00000000000E+00 0.  1.
         11   -1    0    0    0    0 -0.00000000000E+00 -0.00000000000E+00 -0.18250000000E+03  0.18250000000E+03  0.00000000000E+00 0.  1.
        -11    1    1    2    0    0  0.68576914440E+00  0.26464325605E+01  0.18036457243E+03  0.18038529007E+03  0.00000000000E+00 0.  1.
         11    1    1    2    0    0  0.96386051786E-01  0.26966361616E+01 -0.13292952237E+03  0.13295690675E+03  0.00000000000E+00 0.  1.
        -15    1    1    2    0    0 -0.39293956992E+01 -0.99504507145E+01 -0.13975298184E+02  0.17689497119E+02  0.17770000000E+01 0.  1.
         15    1    1    2    0    0  0.31472405030E+01  0.46073819925E+01 -0.33459751882E+02  0.33968306060E+02  0.17770000000E+01 0. -1.
</event>
<event>
 6    1  0.1059789E-002  0.1831802E+03  0.7546771E-02  0.1067915E+00
        -11   -1    0    0    0    0  0.00000000000E+00  0.00000000000E+00  0.18250000000E+03  0.18250000000E+03  0.00000000000E+00 0.  1.
         11   -1    0    0    0    0 -0.00000000000E+00 -0.00000000000E+00 -0.18250000000E+03  0.18250000000E+03  0.00000000000E+00 0.  1.
        -11    1    1    2    0    0 -0.11486668674E+01 -0.33507138708E+01  0.13229864264E+03  0.13234605231E+03  0.00000000000E+00 0.  1.
         11    1    1    2    0    0 -0.24015660416E+01 -0.54370871478E+01 -0.18172265318E+03  0.18181983422E+03  0.00000000000E+00 0.  1.
        -15    1    1    2    0    0  0.27518885098E+01  0.64135151093E+00  0.10449291314E+02  0.10969486774E+02  0.17770000000E+01 0.  1.
         15    1    1    2    0    0  0.79834439926E+00  0.81464495077E+01  0.38974719232E+02  0.39864626695E+02  0.17770000000E+01 0. -1.
</event>
<event>
 6    1  0.1059789E-002  0.1859191E+03  0.7546771E-02  0.1065765E+00
        -11   -1    0    0    0    0  0.00000000000E+00  0.00000000000E+00  0.18250000000E+03  0.18250000000E+03  0.00000000000E+00 0.  1.
         11   -1    0    0    0    0 -0.00000000000E+00 -0.00000000000E+00 -0.18250000000E+03  0.18250000000E+03  0.00000000000E+00 0. -1.
        -11    1    1    2    0    0  0.71177593485E+01  0.12980793315E+01  0.14961321378E+03  0.14978805442E+03  0.00000000000E+00 0.  1.
         11    1    1    2    0    0  0.30865484818E+01  0.84517799436E+01 -0.17885476386E+03  0.17908094796E+03  0.00000000000E+00 0. -1.
        -15    1    1    2    0    0 -0.75529218325E+00  0.35517477016E+01  0.10317072259E+02  0.11080843245E+02  0.17770000000E+01 0. -1.
         15    1    1    2    0    0 -0.94490156471E+01 -0.13301606977E+02  0.18924477817E+02  0.25050154381E+02  0.17770000000E+01 0.  1.
</event>
<event>
 6    1  0.1059789E-002  0.1841634E+03  0.7546771E-02  0.1067138E+00
        -11   -1    0    0    0    0  0.00000000000E+00  0.00000000000E+00  0.18250000000E+03  0.18250000000E+03  0.00000000000E+00 0.  1.
         11   -1    0    0    0    0 -0.00000000000E+00 -0.00000000000E+00 -0.18250000000E+03  0.18250000000E+03  0.00000000000E+00 0. -1.
        -11    1    1    2    0    0  0.15279218848E+01  0.32462895441E+01  0.18080097880E+03  0.18083657506E+03  0.00000000000E+00 0.  1.
         11    1    1    2    0    0  0.40290889438E+01  0.79795412578E+00 -0.16123686240E+03  0.16128916915E+03  0.00000000000E+00 0. -1.
        -15    1    1    2    0    0 -0.50212357630E+01 -0.77748971429E+00 -0.18029241073E+02  0.18815646720E+02  0.17770000000E+01 0. -1.
         15    1    1    2    0    0 -0.53577506565E+00 -0.32667539556E+01 -0.15348753313E+01  0.40586090733E+01  0.17770000000E+01 0.  1.
</event>
<event>
 6    1  0.1059789E-002  0.1846545E+03  0.7546771E-02  0.1066753E+00
        -11   -1    0    0    0    0  0.00000000000E+00  0.00000000000E+00  0.18250000000E+03  0.18250000000E+03  0.00000000000E+00 0. -1.
         11   -1    0    0    0    0 -0.00000000000E+00 -0.00000000000E+00 -0.18250000000E+03  0.18250000000E+03  0.00000000000E+00 0. -1.
        -11    1    1    2    0    0  0.15536836545E+01 -0.26420705654E+01  0.18031946609E+03  0.18034551372E+03  0.00000000000E+00 0. -1.
         11    1    1    2    0    0  0.23468220203E+01 -0.24753944000E+00 -0.15452561675E+03  0.15454363488E+03  0.00000000000E+00 0. -1.
        -15    1    1    2    0    0 -0.81659735179E+00  0.39179843807E+01 -0.34365303339E+00  0.43924092762E+01  0.17770000000E+01 0.  1.
         15    1    1    2    0    0 -0.30839083230E+01 -0.10283743753E+01 -0.25450196298E+02  0.25718442119E+02  0.17770000000E+01 0.  1.
</event>
<event>
 6    1  0.1059789E-002  0.1844593E+03  0.7546771E-02  0.1066906E+00
        -11   -1    0    0    0    0  0.00000000000E+00  0.00000000000E+00  0.18250000000E+03  0.18250000000E+03  0.00000000000E+00 0.  1.
         11   -1    0    0    0    0 -0.00000000000E+00 -0.00000000000E+00 -0.18250000000E+03  0.18250000000E+03  0.00000000000E+00 0.  1.
        -11    1    1    2    0    0 -0.47407498560E+01 -0.30480412520E+01  0.15923313784E+03  0.15933285114E+03  0.00000000000E+00 0.  1.
         11    1    1    2    0    0 -0.26734089597E+01  0.85653942774E+00 -0.18051886567E+03  0.18054069247E+03  0.00000000000E+00 0.  1.
        -15    1    1    2    0    0  0.56984220201E+01  0.49121915178E+00  0.31936059056E+01  0.67875000888E+01  0.17770000000E+01 0. -1.
         15    1    1    2    0    0  0.17157367956E+01  0.17002826725E+01  0.18092121916E+02  0.18338956304E+02  0.17770000000E+01 0.  1.
</event>
<event>
 6    1  0.1059789E-002  0.1832819E+03  0.7546771E-02  0.1067834E+00
        -11   -1    0    0    0    0  0.00000000000E+00  0.00000000000E+00  0.18250000000E+03  0.18250000000E+03  0.00000000000E+00 0.  1.
         11   -1    0    0    0    0 -0.00000000000E+00 -0.00000000000E+00 -0.18250000000E+03  0.18250000000E+03  0.00000000000E+00 0. -1.
        -11    1    1    2    0    0 -0.37689524887E+01 -0.53143028645E+00  0.18167821922E+03  0.18171808595E+03  0.00000000000E+00 0.  1.
         11    1    1    2    0    0  0.21611559172E+01 -0.10750259004E+01 -0.16174398970E+03  0.16176199950E+03  0.00000000000E+00 0. -1.
        -15    1    1    2    0    0 -0.16867416962E+01 -0.22005248097E+00 -0.14318029427E+02  0.14527808380E+02  0.17770000000E+01 0.  1.
         15    1    1    2    0    0  0.32945382678E+01  0.18265086678E+01 -0.56162000913E+01  0.69921061760E+01  0.17770000000E+01 0.  1.
</event>
<event>
 6    1  0.1059789E-002  0.1937002E+03  0.7546771E-02  0.1059873E+00
        -11   -1    0    0    0    0  0.00000000000E+00  0.00000000000E+00  0.18250000000E+03  0.18250000000E+03  0.00000000000E+00 0.  1.
         11   -1    0    0    0    0 -0.00000000000E+00 -0.00000000000E+00 -0.18250000000E+03  0.18250000000E+03  0.00000000000E+00 0. -1.
        -11    1    1    2    0    0  0.20917159042E+02  0.42545259717E+01  0.13071712287E+03  0.13244846071E+03  0.00000000000E+00 0.  1.
         11    1    1    2    0    0  0.36757399952E+01  0.53099247798E-01 -0.17126031239E+03  0.17129976206E+03  0.00000000000E+00 0. -1.
        -15    1    1    2    0    0 -0.10008182029E+02 -0.10679276351E+02  0.42624630090E+02  0.45102410914E+02  0.17770000000E+01 0.  1.
         15    1    1    2    0    0 -0.14584717008E+02  0.63716511316E+01 -0.20814405714E+01  0.16149366310E+02  0.17770000000E+01 0. -1.
</event>
<event>
 6    1  0.1059789E-002  0.1837027E+03  0.7546771E-02  0.1067501E+00
        -11   -1    0    0    0    0  0.00000000000E+00  0.00000000000E+00  0.18250000000E+03  0.18250000000E+03  0.00000000000E+00 0. -1.
         11   -1    0    0    0    0 -0.00000000000E+00 -0.00000000000E+00 -0.18250000000E+03  0.18250000000E+03  0.00000000000E+00 0. -1.
        -11    1    1    2    0    0  0.32227325135E+01  0.30035170871E+01  0.16061501629E+03  0.16067541996E+03  0.00000000000E+00 0. -1.
         11    1    1    2    0    0 -0.18402163395E+01  0.63760514913E+01 -0.18117577380E+03  0.18129727367E+03  0.00000000000E+00 0. -1.
        -15    1    1    2    0    0 -0.18314722559E+01 -0.51170157466E+01  0.10823840642E+02  0.12241380478E+02  0.17770000000E+01 0.  1.
         15    1    1    2    0    0  0.44895608189E+00 -0.42625528318E+01  0.97369168705E+01  0.10785925892E+02  0.17770000000E+01 0. -1.
</event>
<event>
 6    1  0.1059789E-002  0.1827270E+03  0.7546771E-02  0.1068274E+00
        -11   -1    0    0    0    0  0.00000000000E+00  0.00000000000E+00  0.18250000000E+03  0.18250000000E+03  0.00000000000E+00 0. -1.
         11   -1    0    0    0    0 -0.00000000000E+00 -0.00000000000E+00 -0.18250000000E+03  0.18250000000E+03  0.00000000000E+00 0.  1.
        -11    1    1    2    0    0  0.15077021198E+01 -0.25114900922E+01  0.18224950251E+03  0.18227304220E+03  0.00000000000E+00 0. -1.
         11    1    1    2    0    0  0.24974383484E+01  0.18782296388E+01 -0.13118931832E+03  0.13122653004E+03  0.00000000000E+00 0.  1.
        -15    1    1    2    0    0 -0.95751550695E+00  0.55748919235E+00 -0.71953491655E+01  0.74938914296E+01  0.17770000000E+01 0.  1.
         15    1    1    2    0    0 -0.30476249612E+01  0.75771261006E-01 -0.43864835028E+02  0.44006536335E+02  0.17770000000E+01 0. -1.
</event>
<event>
 6    1  0.1059789E-002  0.1842021E+03  0.7546771E-02  0.1067108E+00
        -11   -1    0    0    0    0  0.00000000000E+00  0.00000000000E+00  0.18250000000E+03  0.18250000000E+03  0.00000000000E+00 0. -1.
         11   -1    0    0    0    0 -0.00000000000E+00 -0.00000000000E+00 -0.18250000000E+03  0.18250000000E+03  0.00000000000E+00 0.  1.
        -11    1    1    2    0    0  0.13667525788E+01 -0.30730282673E-01  0.10074082868E+03  0.10075010432E+03  0.00000000000E+00 0. -1.
         11    1    1    2    0    0  0.84049592161E+01 -0.10976912949E+02 -0.18026851566E+03  0.18079788079E+03  0.00000000000E+00 0.  1.
        -15    1    1    2    0    0 -0.62679335363E+01  0.12318406375E+02  0.23865952985E+02  0.27636417411E+02  0.17770000000E+01 0. -1.
         15    1    1    2    0    0 -0.35037782587E+01 -0.13107631433E+01  0.55661733998E+02  0.55815597487E+02  0.17770000000E+01 0.  1.
</event>
<event>
 6    1  0.1059789E-002  0.1852078E+03  0.7546771E-02  0.1066320E+00
        -11   -1    0    0    0    0  0.00000000000E+00  0.00000000000E+00  0.18250000000E+03  0.18250000000E+03  0.00000000000E+00 0. -1.
         11   -1    0    0    0    0 -0.00000000000E+00 -0.00000000000E+00 -0.18250000000E+03  0.18250000000E+03  0.00000000000E+00 0. -1.
        -11    1    1    2    0    0  0.45845786773E+01 -0.37610678316E+00  0.14493991784E+03  0.14501289460E+03  0.00000000000E+00 0. -1.
         11    1    1    2    0    0  0.95679282418E+00  0.27672115546E+01 -0.17976840111E+03  0.17979224385E+03  0.00000000000E+00 0. -1.
        -15    1    1    2    0    0 -0.18611684246E+01 -0.82268603927E+01  0.30856736784E+02  0.32038119698E+02  0.17770000000E+01 0. -1.
         15    1    1    2    0    0 -0.36802030769E+01  0.58357556212E+01  0.39717464898E+01  0.81567418457E+01  0.17770000000E+01 0.  1.
</event>
<event>
 6    1  0.1059789E-002  0.1842674E+03  0.7546771E-02  0.1067057E+00
        -11   -1    0    0    0    0  0.00000000000E+00  0.00000000000E+00  0.18250000000E+03  0.18250000000E+03  0.00000000000E+00 0.  1.
         11   -1    0    0    0    0 -0.00000000000E+00 -0.00000000000E+00 -0.18250000000E+03  0.18250000000E+03  0.00000000000E+00 0.  1.
        -11    1    1    2    0    0  0.24541965977E+01 -0.10856416856E+01  0.17104314957E+03  0.17106420056E+03  0.00000000000E+00 0.  1.
         11    1    1    2    0    0 -0.47815991233E+00 -0.39721536173E+01 -0.18068826406E+03  0.18073255216E+03  0.00000000000E+00 0.  1.
        -15    1    1    2    0    0 -0.38256521371E+01  0.40255793880E+01  0.82604543093E+01  0.10111070076E+02  0.17770000000E+01 0.  1.
         15    1    1    2    0    0  0.18496154517E+01  0.10322159149E+01  0.13846601797E+01  0.30921771986E+01  0.17770000000E+01 0. -1.
</event>
<event>
 6    1  0.1059789E-002  0.1854385E+03  0.7546771E-02  0.1066140E+00
        -11   -1    0    0    0    0  0.00000000000E+00  0.00000000000E+00  0.18250000000E+03  0.18250000000E+03  0.00000000000E+00 0. -1.
         11   -1    0    0    0    0 -0.00000000000E+00 -0.00000000000E+00 -0.18250000000E+03  0.18250000000E+03  0.00000000000E+00 0.  1.
        -11    1    1    2    0    0  0.21201020603E+01  0.16607317379E+00  0.50899229313E+02  0.50943635105E+02  0.00000000000E+00 0. -1.
         11    1    1    2    0    0  0.10773016065E+02  0.38015586576E+01 -0.17919775260E+03  0.17956153335E+03  0.00000000000E+00 0.  1.
        -15    1    1    2    0    0 -0.43541236478E+01 -0.38987033343E+01  0.12503181999E+03  0.12518095710E+03  0.17770000000E+01 0. -1.
         15    1    1    2    0    0 -0.85389944774E+01 -0.68928497090E-01  0.32667032879E+01  0.93138744459E+01  0.17770000000E+01 0.  1.
</event>
<event>
 6    1  0.1353544E-002  0.1829115E+03  0.7546771E-02  0.1068128E+00
        -11   -1    0    0    0    0  0.00000000000E+00  0.00000000000E+00  0.18250000000E+03  0.18250000000E+03  0.00000000000E+00 0. -1.
         11   -1    0    0    0    0 -0.00000000000E+00 -0.00000000000E+00 -0.18250000000E+03  0.18250000000E+03  0.00000000000E+00 0.  1.
        -11    1    1    2    0    0  0.27252065399E+01  0.65156653623E+01  0.18195145521E+03  0.18208847492E+03  0.00000000000E+00 0. -1.
         11    1    1    2    0    0  0.83693999363E+00 -0.66177902857E+00 -0.31165689316E+02  0.31183947964E+02  0.00000000000E+00 0.  1.
        -15    1    1    2    0    0 -0.25876569624E+01 -0.52593362352E+01 -0.19820404462E+02  0.20745186146E+02  0.17770000000E+01 0. -1.
         15    1    1    2    0    0 -0.97448957110E+00 -0.59455009852E+00 -0.13096536143E+03  0.13098239097E+03  0.17770000000E+01 0.  1.
</event>
<event>
 6    1  0.1059789E-002  0.1830786E+03  0.7546771E-02  0.1067995E+00
        -11   -1    0    0    0    0  0.00000000000E+00  0.00000000000E+00  0.18250000000E+03  0.18250000000E+03  0.00000000000E+00 0.  1.
         11   -1    0    0    0    0 -0.00000000000E+00 -0.00000000000E+00 -0.18250000000E+03  0.18250000000E+03  0.00000000000E+00 0. -1.
        -11    1    1    2    0    0 -0.33404126740E+01  0.25367877693E+01  0.15049166046E+03  0.15055010301E+03  0.00000000000E+00 0.  1.
         11    1    1    2    0    0  0.19122443220E+00  0.26564077405E+01 -0.18190191623E+03  0.18192141214E+03  0.00000000000E+00 0. -1.
        -15    1    1    2    0    0  0.94166360277E+00 -0.16132020070E+01  0.41291216373E+01  0.48679077181E+01  0.17770000000E+01 0.  1.
         15    1    1    2    0    0  0.22075246390E+01 -0.35799935028E+01  0.27281134132E+02  0.27660577128E+02  0.17770000000E+01 0. -1.
</event>
<event>
 6    1  0.1059789E-002  0.2005553E+03  0.7546771E-02  0.1054927E+00
        -11   -1    0    0    0    0  0.00000000000E+00  0.00000000000E+00  0.18250000000E+03  0.18250000000E+03  0.00000000000E+00 0.  1.
         11   -1    0    0    0    0 -0.00000000000E+00 -0.00000000000E+00 -0.18250000000E+03  0.18250000000E+03  0.00000000000E+00 0. -1.
        -11    1    1    2    0    0  0.26632467406E+01  0.25481966645E+00  0.16442296915E+03  0.16444473418E+03  0.00000000000E+00 0.  1.
         11    1    1    2    0    0 -0.43949772882E+01 -0.84401750794E+01 -0.13591074685E+03  0.13624347137E+03  0.00000000000E+00 0. -1.
        -15    1    1    2    0    0  0.57664829314E+01  0.12909243872E+02 -0.44681738642E+02  0.46899002120E+02  0.17770000000E+01 0. -1.
         15    1    1    2    0    0 -0.40347523838E+01 -0.47238884593E+01  0.16169516345E+02  0.17412792332E+02  0.17770000000E+01 0.  1.
</event>
<event>
 6    1  0.1059789E-002  0.1857787E+03  0.7546771E-02  0.1065875E+00
        -11   -1    0    0    0    0  0.00000000000E+00  0.00000000000E+00  0.18250000000E+03  0.18250000000E+03  0.00000000000E+00 0.  1.
         11   -1    0    0    0    0 -0.00000000000E+00 -0.00000000000E+00 -0.18250000000E+03  0.18250000000E+03  0.00000000000E+00 0.  1.
        -11    1    1    2    0    0  0.25248890760E+01 -0.19506633693E+01  0.17919287920E+03  0.17922128252E+03  0.00000000000E+00 0.  1.
         11    1    1    2    0    0 -0.29224243134E+01 -0.63215498899E+01 -0.17186849192E+03  0.17200953774E+03  0.00000000000E+00 0.  1.
        -15    1    1    2    0    0  0.32773079621E+01  0.71247401115E+01 -0.56192394547E+01  0.98100076546E+01  0.17770000000E+01 0. -1.
         15    1    1    2    0    0 -0.28797727247E+01  0.11474731476E+01 -0.17051478209E+01  0.39591720930E+01  0.17770000000E+01 0.  1.
</event>
<event>
 6    1  0.1059789E-002  0.1837524E+03  0.7546771E-02  0.1067462E+00
        -11   -1    0    0    0    0  0.00000000000E+00  0.00000000000E+00  0.18250000000E+03  0.18250000000E+03  0.00000000000E+00 0.  1.
         11   -1    0    0    0    0 -0.00000000000E+00 -0.00000000000E+00 -0.18250000000E+03  0.18250000000E+03  0.00000000000E+00 0.  1.
        -11    1    1    2    0    0 -0.29147166734E+01  0.14418751973E+01  0.18121847357E+03  0.18124764754E+03  0.00000000000E+00 0.  1.
         11    1    1    2    0    0  0.27698920710E+01  0.87361042760E+00 -0.11077487519E+03  0.11081294360E+03  0.00000000000E+00 0.  1.
        -15    1    1    2    0    0 -0.66940153073E+01 -0.53971520126E+01 -0.19115389758E+02  0.21035563824E+02  0.17770000000E+01 0. -1.
         15    1    1    2    0    0  0.68388399097E+01  0.30816663877E+01 -0.51328208626E+02  0.51903845029E+02  0.17770000000E+01 0.  1.
</event>
<event>
 6    1  0.1059789E-002  0.1831330E+03  0.7546771E-02  0.1067952E+00
        -11   -1    0    0    0    0  0.00000000000E+00  0.00000000000E+00  0.18250000000E+03  0.18250000000E+03  0.00000000000E+00 0.  1.
         11   -1    0    0    0    0 -0.00000000000E+00 -0.00000000000E+00 -0.18250000000E+03  0.18250000000E+03  0.00000000000E+00 0. -1.
        -11    1    1    2    0    0 -0.14571544348E+01 -0.40078456997E+01  0.18181698935E+03  0.18186699465E+03  0.00000000000E+00 0.  1.
         11    1    1    2    0    0 -0.36735973281E+01 -0.65037156377E+00 -0.97225033716E+02  0.97296585149E+02  0.00000000000E+00 0. -1.
        -15    1    1    2    0    0  0.82113434360E+01  0.11612483787E+01 -0.35833415933E+02  0.36823444777E+02  0.17770000000E+01 0.  1.
         15    1    1    2    0    0 -0.30805916731E+01  0.34969688847E+01 -0.48758539705E+02  0.49012975421E+02  0.17770000000E+01 0. -1.
</event>
<event>
 6    1  0.1059789E-002  0.1826447E+03  0.7546771E-02  0.1068340E+00
        -11   -1    0    0    0    0  0.00000000000E+00  0.00000000000E+00  0.18250000000E+03  0.18250000000E+03  0.00000000000E+00 0.  1.
         11   -1    0    0    0    0 -0.00000000000E+00 -0.00000000000E+00 -0.18250000000E+03  0.18250000000E+03  0.00000000000E+00 0.  1.
        -11    1    1    2    0    0 -0.33968372051E+01  0.22637764185E+01  0.18230961235E+03  0.18235530687E+03  0.00000000000E+00 0.  1.
         11    1    1    2    0    0  0.28266907091E+00 -0.13462033992E+01 -0.66543996553E+02  0.66558212436E+02  0.00000000000E+00 0.  1.
        -15    1    1    2    0    0  0.14762664277E+01  0.65521892224E+00 -0.10170061561E+03  0.10172896155E+03  0.17770000000E+01 0.  1.
         15    1    1    2    0    0  0.16379017065E+01 -0.15727919416E+01 -0.14065000193E+02  0.14357519143E+02  0.17770000000E+01 0. -1.
</event>
<event>
 6    1  0.1059789E-002  0.1895467E+03  0.7546771E-02  0.1062980E+00
        -11   -1    0    0    0    0  0.00000000000E+00  0.00000000000E+00  0.18250000000E+03  0.18250000000E+03  0.00000000000E+00 0.  1.
         11   -1    0    0    0    0 -0.00000000000E+00 -0.00000000000E+00 -0.18250000000E+03  0.18250000000E+03  0.00000000000E+00 0.  1.
        -11    1    1    2    0    0  0.14374437749E+01 -0.19193342392E+01  0.17543687082E+03  0.17545325797E+03  0.00000000000E+00 0.  1.
         11    1    1    2    0    0  0.45685205732E+01 -0.61552915239E+01 -0.16363216742E+03  0.16381161499E+03  0.00000000000E+00 0.  1.
        -15    1    1    2    0    0  0.42554028205E+01  0.66376626797E+01  0.20549213030E+01  0.83395113512E+01  0.17770000000E+01 0. -1.
         15    1    1    2    0    0 -0.10261367169E+02  0.14369630834E+01 -0.13859624708E+02  0.17395615687E+02  0.17770000000E+01 0.  1.
</event>
<event>
 6    1  0.1059789E-002  0.1936872E+03  0.7546771E-02  0.1059883E+00
        -11   -1    0    0    0    0  0.00000000000E+00  0.00000000000E+00  0.18250000000E+03  0.18250000000E+03  0.00000000000E+00 0. -1.
         11   -1    0    0    0    0 -0.00000000000E+00 -0.00000000000E+00 -0.18250000000E+03  0.18250000000E+03  0.00000000000E+00 0.  1.
        -11    1    1    2    0    0 -0.10788693057E+01  0.28995088437E+01  0.16098668618E+03  0.16101640984E+03  0.00000000000E+00 0. -1.
         11    1    1    2    0    0  0.75502711606E+00  0.82883522059E+01 -0.17111053763E+03  0.17131282187E+03  0.00000000000E+00 0.  1.
        -15    1    1    2    0    0 -0.65849486723E+01 -0.12463581647E+02 -0.56671478754E+01  0.15296297282E+02  0.17770000000E+01 0.  1.
         15    1    1    2    0    0  0.69087908620E+01  0.12757205979E+01  0.15790999326E+02  0.17374471012E+02  0.17770000000E+01 0. -1.
</event>
<event>
 6    1  0.1059789E-002  0.1884825E+03  0.7546771E-02  0.1063790E+00
        -11   -1    0    0    0    0  0.00000000000E+00  0.00000000000E+00  0.18250000000E+03  0.18250000000E+03  0.00000000000E+00 0.  1.
         11   -1    0    0    0    0 -0.00000000000E+00 -0.00000000000E+00 -0.18250000000E+03  0.18250000000E+03  0.00000000000E+00 0. -1.
        -11    1    1    2    0    0  0.22636318231E+01 -0.12212061883E+01  0.78472067617E+02  0.78514207438E+02  0.00000000000E+00 0.  1.
         11    1    1    2    0    0 -0.44758170230E+00  0.91550786433E+01 -0.17627940478E+03  0.17651754685E+03  0.00000000000E+00 0. -1.
        -15    1    1    2    0    0  0.13107307579E+01 -0.84498230595E+01 -0.28946210396E+01  0.92007654475E+01  0.17770000000E+01 0.  1.
         15    1    1    2    0    0 -0.31267808787E+01  0.51595060443E+00  0.10070195821E+03  0.10076748027E+03  0.17770000000E+01 0.  1.
</event>
<event>
 6    1  0.1059789E-002  0.1836384E+03  0.7546771E-02  0.1067552E+00
        -11   -1    0    0    0    0  0.00000000000E+00  0.00000000000E+00  0.18250000000E+03  0.18250000000E+03  0.00000000000E+00 0. -1.
         11   -1    0    0    0    0 -0.00000000000E+00 -0.00000000000E+00 -0.18250000000E+03  0.18250000000E+03  0.00000000000E+00 0. -1.
        -11    1    1    2    0    0 -0.46474743957E+01  0.28714286696E+01  0.10052984217E+03  0.10067816689E+03  0.00000000000E+00 0. -1.
         11    1    1    2    0    0 -0.18672794360E+01 -0.21090762477E+01 -0.18133973192E+03  0.18136160925E+03  0.00000000000E+00 0. -1.
        -15    1    1    2    0    0 -0.28617636320E+01  0.48058182707E+01  0.13097352732E+02  0.14352141231E+02  0.17770000000E+01 0.  1.
         15    1    1    2    0    0  0.93765174637E+01 -0.55681706927E+01  0.67712537016E+02  0.68608082634E+02  0.17770000000E+01 0. -1.
</event>
<event>
 6    1  0.1059789E-002  0.1835820E+03  0.7546771E-02  0.1067597E+00
        -11   -1    0    0    0    0  0.00000000000E+00  0.00000000000E+00  0.18250000000E+03  0.18250000000E+03  0.00000000000E+00 0.  1.
         11   -1    0    0    0    0 -0.00000000000E+00 -0.00000000000E+00 -0.18250000000E+03  0.18250000000E+03  0.00000000000E+00 0. -1.
        -11    1    1    2    0    0 -0.32841999765E+00 -0.68725283993E+01  0.69372950934E+02  0.69713311696E+02  0.00000000000E+00 0.  1.
         11    1    1    2    0    0 -0.10855324452E+01  0.66237966762E+01 -0.18129376404E+03  0.18141797579E+03  0.00000000000E+00 0. -1.
        -15    1    1    2    0    0 -0.58307832912E+01 -0.78531245409E+01  0.55437290131E+02  0.56321580810E+02  0.17770000000E+01 0.  1.
         15    1    1    2    0    0  0.72447357340E+01  0.81018562640E+01  0.56483522970E+02  0.57547131700E+02  0.17770000000E+01 0. -1.
</event>
<event>
 6    1  0.1059789E-002  0.1859472E+03  0.7546771E-02  0.1065744E+00
        -11   -1    0    0    0    0  0.00000000000E+00  0.00000000000E+00  0.18250000000E+03  0.18250000000E+03  0.00000000000E+00 0. -1.
         11   -1    0    0    0    0 -0.00000000000E+00 -0.00000000000E+00 -0.18250000000E+03  0.18250000000E+03  0.00000000000E+00 0. -1.
        -11    1    1    2    0    0 -0.10724746893E+02  0.55410135438E+01  0.68692389941E+02  0.69745017476E+02  0.00000000000E+00 0. -1.
         11    1    1    2    0    0  0.80556067424E+01  0.83462478217E+01 -0.17867669660E+03  0.17905282617E+03  0.00000000000E+00 0. -1.
        -15    1    1    2    0    0  0.15489110152E+02 -0.80701905123E+01  0.89977916366E+02  0.91674553017E+02  0.17770000000E+01 0. -1.
         15    1    1    2    0    0 -0.12819970001E+02 -0.58170708532E+01  0.20006390289E+02  0.24527603338E+02  0.17770000000E+01 0.  1.
</event>
<event>
 6    1  0.1059789E-002  0.1892785E+03  0.7546771E-02  0.1063184E+00
        -11   -1    0    0    0    0  0.00000000000E+00  0.00000000000E+00  0.18250000000E+03  0.18250000000E+03  0.00000000000E+00 0. -1.
         11   -1    0    0    0    0 -0.00000000000E+00 -0.00000000000E+00 -0.18250000000E+03  0.18250000000E+03  0.00000000000E+00 0.  1.
        -11    1    1    2    0    0 -0.17257040842E+02  0.47427492382E+01  0.12331352834E+03  0.12460547902E+03  0.00000000000E+00 0. -1.
         11    1    1    2    0    0  0.34060628379E+01 -0.24490354248E+01 -0.17567140603E+03  0.17572148968E+03  0.00000000000E+00 0.  1.
        -15    1    1    2    0    0  0.77706917950E+00  0.65401537966E+01 -0.27260857805E+01  0.73462045218E+01  0.17770000000E+01 0. -1.
         15    1    1    2    0    0  0.13073908824E+02 -0.88338676100E+01  0.55083963465E+02  0.57326826782E+02  0.17770000000E+01 0.  1.
</event>
<event>
 6    1  0.1059789E-002  0.1864225E+03  0.7546771E-02  0.1065375E+00
        -11   -1    0    0    0    0  0.00000000000E+00  0.00000000000E+00  0.18250000000E+03  0.18250000000E+03  0.00000000000E+00 0.  1.
         11   -1    0    0    0    0 -0.00000000000E+00 -0.00000000000E+00 -0.18250000000E+03  0.18250000000E+03  0.00000000000E+00 0.  1.
        -11    1    1    2    0    0 -0.53505593535E+01  0.91823684092E+01  0.17826096898E+03  0.17857748301E+03  0.00000000000E+00 0.  1.
         11    1    1    2    0    0  0.24662813107E+01 -0.12317459141E+00 -0.15804988594E+03  0.15806917524E+03  0.00000000000E+00 0.  1.
        -15    1    1    2    0    0  0.42909508174E+01 -0.10057154189E+02 -0.37323846761E+01  0.11689612212E+02  0.17770000000E+01 0.  1.
         15    1    1    2    0    0 -0.14066727747E+01  0.99796037090E+00 -0.16478698368E+02  0.16663729537E+02  0.17770000000E+01 0.  1.
</event>
<event>
 6    1  0.1059789E-002  0.1827073E+03  0.7546771E-02  0.1068290E+00
        -11   -1    0    0    0    0  0.00000000000E+00  0.00000000000E+00  0.18250000000E+03  0.18250000000E+03  0.00000000000E+00 0.  1.
         11   -1    0    0    0    0 -0.00000000000E+00 -0.00000000000E+00 -0.18250000000E+03  0.18250000000E+03  0.00000000000E+00 0.  1.
        -11    1    1    2    0    0 -0.93931877297E+00  0.12313124718E+00  0.10890452914E+02  0.10931580203E+02  0.00000000000E+00 0.  1.
         11    1    1    2    0    0  0.10752370735E+02 -0.10728184777E+02 -0.18165880839E+03  0.18229270444E+03  0.00000000000E+00 0.  1.
        -15    1    1    2    0    0 -0.18759509736E+01  0.92327697218E+01  0.11522925287E+03  0.11562742614E+03  0.17770000000E+01 0.  1.
         15    1    1    2    0    0 -0.79371009883E+01  0.13722838075E+01  0.55539102606E+02  0.56148289219E+02  0.17770000000E+01 0. -1.
</event>
<event>
 6    1  0.1059789E-002  0.1838815E+03  0.7546771E-02  0.1067360E+00
        -11   -1    0    0    0    0  0.00000000000E+00  0.00000000000E+00  0.18250000000E+03  0.18250000000E+03  0.00000000000E+00 0. -1.
         11   -1    0    0    0    0 -0.00000000000E+00 -0.00000000000E+00 -0.18250000000E+03  0.18250000000E+03  0.00000000000E+00 0. -1.
        -11    1    1    2    0    0 -0.38652225693E+01 -0.13924848452E+01  0.18107186123E+03  0.18111846368E+03  0.00000000000E+00 0. -1.
         11    1    1    2    0    0 -0.16352647789E+01  0.12040296833E+01 -0.12023184072E+03  0.12024898878E+03  0.00000000000E+00 0. -1.
        -15    1    1    2    0    0  0.29302995382E+01  0.20114032564E+01 -0.16024507808E+01  0.42846208640E+01  0.17770000000E+01 0. -1.
         15    1    1    2    0    0  0.25701878101E+01 -0.18229480945E+01 -0.59237569723E+02  0.59347926677E+02  0.17770000000E+01 0. -1.
</event>
<event>
 6    1  0.1059789E-002  0.1826816E+03  0.7546771E-02  0.1068310E+00
        -11   -1    0    0    0    0  0.00000000000E+00  0.00000000000E+00  0.18250000000E+03  0.18250000000E+03  0.00000000000E+00 0.  1.
         11   -1    0    0    0    0 -0.00000000000E+00 -0.00000000000E+00 -0.18250000000E+03  0.18250000000E+03  0.00000000000E+00 0. -1.
        -11    1    1    2    0    0 -0.24976989493E+01  0.32740279763E+01  0.18227184467E+03  0.18231835651E+03  0.00000000000E+00 0.  1.
         11    1    1    2    0    0  0.13800338302E+01  0.20639484991E+00 -0.10329449613E+03  0.10330392065E+03  0.00000000000E+00 0. -1.
        -15    1    1    2    0    0 -0.12840996987E+01 -0.23179231218E+01 -0.63064347661E+02  0.63145002609E+02  0.17770000000E+01 0. -1.
         15    1    1    2    0    0  0.24017648178E+01 -0.11624997044E+01 -0.15913000887E+02  0.16232720229E+02  0.17770000000E+01 0.  1.
</event>
<event>
 6    1  0.1059789E-002  0.1847436E+03  0.7546771E-02  0.1066683E+00
        -11   -1    0    0    0    0  0.00000000000E+00  0.00000000000E+00  0.18250000000E+03  0.18250000000E+03  0.00000000000E+00 0.  1.
         11   -1    0    0    0    0 -0.00000000000E+00 -0.00000000000E+00 -0.18250000000E+03  0.18250000000E+03  0.00000000000E+00 0.  1.
        -11    1    1    2    0    0  0.12999774936E+01 -0.23014311565E+01  0.16387683110E+03  0.16389814611E+03  0.00000000000E+00 0.  1.
         11    1    1    2    0    0 -0.63589308252E+01  0.50791602429E+01 -0.18007253684E+03  0.18025635188E+03  0.00000000000E+00 0.  1.
        -15    1    1    2    0    0  0.79744438722E+01 -0.27422551785E+01  0.14861699396E+02  0.17179626203E+02  0.17770000000E+01 0. -1.
         15    1    1    2    0    0 -0.29154905406E+01 -0.35473907982E-01  0.13340063420E+01  0.36658758041E+01  0.17770000000E+01 0.  1.
</event>
<event>
 6    1  0.1059789E-002  0.1938041E+03  0.7546771E-02  0.1059797E+00
        -11   -1    0    0    0    0  0.00000000000E+00  0.00000000000E+00  0.18250000000E+03  0.18250000000E+03  0.00000000000E+00 0. -1.
         11   -1    0    0    0    0 -0.00000000000E+00 -0.00000000000E+00 -0.18250000000E+03  0.18250000000E+03  0.00000000000E+00 0.  1.
        -11    1    1    2    0    0 -0.43148659460E+01  0.61545826979E+01  0.17103078481E+03  0.17119587118E+03  0.00000000000E+00 0. -1.
         11    1    1    2    0    0  0.54402119729E+01  0.97363910575E+01 -0.11795701401E+03  0.11848312272E+03  0.00000000000E+00 0.  1.
        -15    1    1    2    0    0 -0.90474460795E+01  0.10127611672E+02  0.20292469040E+01  0.13845590299E+02  0.17770000000E+01 0. -1.
         15    1    1    2    0    0  0.79221000527E+01 -0.26018585427E+02 -0.55103017712E+02  0.61475415792E+02  0.17770000000E+01 0.  1.
</event>
<event>
 6    1  0.1059789E-002  0.1832846E+03  0.7546771E-02  0.1067832E+00
        -11   -1    0    0    0    0  0.00000000000E+00  0.00000000000E+00  0.18250000000E+03  0.18250000000E+03  0.00000000000E+00 0.  1.
         11   -1    0    0    0    0 -0.00000000000E+00 -0.00000000000E+00 -0.18250000000E+03  0.18250000000E+03  0.00000000000E+00 0. -1.
        -11    1    1    2    0    0  0.24726443297E+01  0.86094678633E+00  0.18169650057E+03  0.18171536401E+03  0.00000000000E+00 0.  1.
         11    1    1    2    0    0  0.11364103339E+01 -0.29709600698E+01 -0.15995962070E+03  0.15999124441E+03  0.00000000000E+00 0. -1.
        -15    1    1    2    0    0 -0.22672167797E+01  0.32484580254E+01 -0.19368083273E+02  0.19848756387E+02  0.17770000000E+01 0.  1.
         15    1    1    2    0    0 -0.13418378839E+01 -0.11384447420E+01 -0.23687965892E+01  0.34446351937E+01  0.17770000000E+01 0. -1.
</event>
<event>
 6    1  0.1059789E-002  0.1852457E+03  0.7546771E-02  0.1066290E+00
        -11   -1    0    0    0    0  0.00000000000E+00  0.00000000000E+00  0.18250000000E+03  0.18250000000E+03  0.00000000000E+00 0. -1.
         11   -1    0    0    0    0 -0.00000000000E+00 -0.00000000000E+00 -0.18250000000E+03  0.18250000000E+03  0.00000000000E+00 0. -1.
        -11    1    1    2    0    0  0.20959616301E+01  0.11153893943E+02  0.17939567806E+03  0.17975430930E+03  0.00000000000E+00 0. -1.
         11    1    1    2    0    0 -0.99030432094E+01  0.29900274913E+01 -0.15011232668E+03  0.15046833936E+03  0.00000000000E+00 0. -1.
        -15    1    1    2    0    0 -0.18006488685E+01 -0.30990805784E+01 -0.57218715799E+01  0.69817032417E+01  0.17770000000E+01 0. -1.
         15    1    1    2    0    0  0.96077304479E+01 -0.11044840855E+02 -0.23561479802E+02  0.27795648101E+02  0.17770000000E+01 0.  1.
</event>
<event>
 6    1  0.1059789E-002  0.1853254E+03  0.7546771E-02  0.1066228E+00
        -11   -1    0    0    0    0  0.00000000000E+00  0.00000000000E+00  0.18250000000E+03  0.18250000000E+03  0.00000000000E+00 0. -1.
         11   -1    0    0    0    0 -0.00000000000E+00 -0.00000000000E+00 -0.18250000000E+03  0.18250000000E+03  0.00000000000E+00 0. -1.
        -11    1    1    2    0    0  0.18281025363E+01  0.18609200240E+01  0.97563832778E+02  0.97598701060E+02  0.00000000000E+00 0. -1.
         11    1    1    2    0    0  0.31581766599E+01  0.33373214521E+00 -0.17964653707E+03  0.17967460516E+03  0.00000000000E+00 0. -1.
        -15    1    1    2    0    0  0.11308229705E+01  0.98006639514E+01  0.92553572303E+01  0.13643721667E+02  0.17770000000E+01 0.  1.
         15    1    1    2    0    0 -0.61171021668E+01 -0.11995316121E+02  0.72827347064E+02  0.74082972114E+02  0.17770000000E+01 0. -1.
</event>
<event>
 6    1  0.1059789E-002  0.1826337E+03  0.7546771E-02  0.1068348E+00
        -11   -1    0    0    0    0  0.00000000000E+00  0.00000000000E+00  0.18250000000E+03  0.18250000000E+03  0.00000000000E+00 0. -1.
         11   -1    0    0    0    0 -0.00000000000E+00 -0.00000000000E+00 -0.18250000000E+03  0.18250000000E+03  0.00000000000E+00 0.  1.
        -11    1    1    2    0    0 -0.19705832207E+01  0.38879029527E+00  0.10198532662E+03  0.10200510381E+03  0.00000000000E+00 0. -1.
         11    1    1    2    0    0  0.53070825820E+01  0.31660595487E+01 -0.18226157990E+03  0.18236631423E+03  0.00000000000E+00 0.  1.
        -15    1    1    2    0    0 -0.23371718729E+01 -0.94313251607E+00  0.60351550510E+02  0.60430284206E+02  0.17770000000E+01 0. -1.
         15    1    1    2    0    0 -0.99932748837E+00 -0.26117173279E+01  0.19924702767E+02  0.20198297755E+02  0.17770000000E+01 0.  1.
</event>
<event>
 6    1  0.1059789E-002  0.2136622E+03  0.7546771E-02  0.1046044E+00
        -11   -1    0    0    0    0  0.00000000000E+00  0.00000000000E+00  0.18250000000E+03  0.18250000000E+03  0.00000000000E+00 0.  1.
         11   -1    0    0    0    0 -0.00000000000E+00 -0.00000000000E+00 -0.18250000000E+03  0.18250000000E+03  0.00000000000E+00 0. -1.
        -11    1    1    2    0    0 -0.37063080166E+01 -0.52368497374E+01  0.14110379107E+03  0.14124957051E+03  0.00000000000E+00 0.  1.
         11    1    1    2    0    0  0.13971242213E+01 -0.23504836106E+01 -0.15131312602E+03  0.15133783015E+03  0.00000000000E+00 0. -1.
        -15    1    1    2    0    0  0.69572771006E+01  0.17917325459E+01  0.40501507920E+02  0.41172125072E+02  0.17770000000E+01 0. -1.
         15    1    1    2    0    0 -0.46480933053E+01  0.57956008022E+01 -0.30292172972E+02  0.31240474266E+02  0.17770000000E+01 0.  1.
</event>
<event>
 6    1  0.1116738E-002  0.1833792E+03  0.7546771E-02  0.1067757E+00
        -11   -1    0    0    0    0  0.00000000000E+00  0.00000000000E+00  0.18250000000E+03  0.18250000000E+03  0.00000000000E+00 0.  1.
         11   -1    0    0    0    0 -0.00000000000E+00 -0.00000000000E+00 -0.18250000000E+03  0.18250000000E+03  0.00000000000E+00 0. -1.
        -11    1    1    2    0    0  0.15101714242E+01  0.28866562356E+01  0.18159153536E+03  0.18162075629E+03  0.00000000000E+00 0.  1.
         11    1    1    2    0    0 -0.10262113384E+01 -0.54020531456E+01 -0.15497455439E+03  0.15507207290E+03  0.00000000000E+00 0. -1.
        -15    1    1    2    0    0 -0.21784757627E+01 -0.24425240438E+01 -0.70520311940E+01  0.79749955056E+01  0.17770000000E+01 0.  1.
         15    1    1    2    0    0  0.16945156769E+01  0.49579209538E+01 -0.19564949779E+02  0.20332175299E+02  0.17770000000E+01 0. -1.
</event>
<event>
 6    1  0.1059789E-002  0.1847110E+03  0.7546771E-02  0.1066708E+00
        -11   -1    0    0    0    0  0.00000000000E+00  0.00000000000E+00  0.18250000000E+03  0.18250000000E+03  0.00000000000E+00 0.  1.
         11   -1    0    0    0    0 -0.00000000000E+00 -0.00000000000E+00 -0.18250000000E+03  0.18250000000E+03  0.00000000000E+00 0. -1.
        -11    1    1    2    0    0  0.33765626559E+01  0.61482054998E+01  0.12096202432E+03  0.12116522988E+03  0.00000000000E+00 0.  1.
         11    1    1    2    0    0  0.17426241063E+01 -0.48592574988E+01 -0.18021511675E+03  0.18028903857E+03  0.00000000000E+00 0. -1.
        -15    1    1    2    0    0 -0.33098865561E+01 -0.47355947297E+01  0.58946546299E+02  0.59255668556E+02  0.17770000000E+01 0. -1.
         15    1    1    2    0    0 -0.18093002061E+01  0.34466467287E+01  0.30654613996E+00  0.42900629884E+01  0.17770000000E+01 0.  1.
</event>
<event>
 6    1  0.1059789E-002  0.1896981E+03  0.7546771E-02  0.1062865E+00
        -11   -1    0    0    0    0  0.00000000000E+00  0.00000000000E+00  0.18250000000E+03  0.18250000000E+03  0.00000000000E+00 0.  1.
         11   -1    0    0    0    0 -0.00000000000E+00 -0.00000000000E+00 -0.18250000000E+03  0.18250000000E+03  0.00000000000E+00 0. -1.
        -11    1    1    2    0    0 -0.48815136154E+01  0.21539589080E+01  0.47139924604E+02  0.47440923324E+02  0.00000000000E+00 0.  1.
         11    1    1    2    0    0  0.49648853126E+01  0.57418620057E+01 -0.17513748099E+03  0.17530190048E+03  0.00000000000E+00 0. -1.
        -15    1    1    2    0    0 -0.27764289188E+01 -0.30688139964E+01 -0.63495632885E+01  0.77846554092E+01  0.17770000000E+01 0.  1.
         15    1    1    2    0    0  0.26930572216E+01 -0.48270069173E+01  0.13434711967E+03  0.13447252078E+03  0.17770000000E+01 0.  1.
</event>
<event>
 6    1  0.1059789E-002  0.1837862E+03  0.7546771E-02  0.1067436E+00
        -11   -1    0    0    0    0  0.00000000000E+00  0.00000000000E+00  0.18250000000E+03  0.18250000000E+03  0.00000000000E+00 0. -1.
         11   -1    0    0    0    0 -0.00000000000E+00 -0.00000000000E+00 -0.18250000000E+03  0.18250000000E+03  0.00000000000E+00 0. -1.
        -11    1    1    2    0    0  0.51060296220E+00  0.22066199763E+01  0.16103003254E+03  0.16104596010E+03  0.00000000000E+00 0. -1.
         11    1    1    2    0    0 -0.22528815166E+01 -0.20865039745E+01 -0.18118773822E+03  0.18121375625E+03  0.00000000000E+00 0. -1.
        -15    1    1    2    0    0  0.10652995682E+01  0.38191824982E+01  0.36865685230E+01  0.56982045067E+01  0.17770000000E+01 0.  1.
         15    1    1    2    0    0  0.67697898618E+00 -0.39392985000E+01  0.16471137156E+02  0.17042079141E+02  0.17770000000E+01 0.  1.
</event>
<event>
 6    1  0.1059789E-002  0.1860572E+03  0.7546771E-02  0.1065658E+00
        -11   -1    0    0    0    0  0.00000000000E+00  0.00000000000E+00  0.18250000000E+03  0.18250000000E+03  0.00000000000E+00 0.  1.
         11   -1    0    0    0    0 -0.00000000000E+00 -0.00000000000E+00 -0.18250000000E+03  0.18250000000E+03  0.00000000000E+00 0. -1.
        -11    1    1    2    0    0  0.25986116192E+01  0.12552111217E+01  0.17761514599E+03  0.17763858934E+03  0.00000000000E+00 0.  1.
         11    1    1    2    0    0 -0.30046840101E+01  0.78006519154E+00 -0.17891583906E+03  0.17894276765E+03  0.00000000000E+00 0. -1.
        -15    1    1    2    0    0 -0.33336161480E+00 -0.26496165514E+01 -0.25316240769E+01  0.40863733680E+01  0.17770000000E+01 0. -1.
         15    1    1    2    0    0  0.73943400571E+00  0.61434023809E+00  0.38323171457E+01  0.43322696456E+01  0.17770000000E+01 0.  1.
</event>
<event>
 6    1  0.1059789E-002  0.1884566E+03  0.7546771E-02  0.1063810E+00
        -11   -1    0    0    0    0  0.00000000000E+00  0.00000000000E+00  0.18250000000E+03  0.18250000000E+03  0.00000000000E+00 0. -1.
         11   -1    0    0    0    0 -0.00000000000E+00 -0.00000000000E+00 -0.18250000000E+03  0.18250000000E+03  0.00000000000E+00 0. -1.
        -11    1    1    2    0    0  0.87938557601E+00 -0.30178232250E+01  0.16801249453E+03  0.16804189625E+03  0.00000000000E+00 0. -1.
         11    1    1    2    0    0 -0.46893909189E+01 -0.76817881802E+01 -0.17631387508E+03  0.17654343036E+03  0.00000000000E+00 0. -1.
        -15    1    1    2    0    0  0.37569214651E+01  0.96647986794E+01 -0.12953789349E+01  0.10599930566E+02  0.17770000000E+01 0. -1.
         15    1    1    2    0    0  0.53083877734E-01  0.10348127257E+01  0.95967594831E+01  0.98147428317E+01  0.17770000000E+01 0. -1.
</event>
<event>
 6    1  0.1059789E-002  0.1905169E+03  0.7546771E-02  0.1062247E+00
        -11   -1    0    0    0    0  0.00000000000E+00  0.00000000000E+00  0.18250000000E+03  0.18250000000E+03  0.00000000000E+00 0.  1.
         11   -1    0    0    0    0 -0.00000000000E+00 -0.00000000000E+00 -0.18250000000E+03  0.18250000000E+03  0.00000000000E+00 0. -1.
        -11    1    1    2    0    0 -0.35655913553E+01  0.28890072130E+01  0.16968302268E+03  0.16974506764E+03  0.00000000000E+00 0.  1.
         11    1    1    2    0    0  0.67145581379E+00 -0.94564983397E+01 -0.17422538088E+03  0.17448312112E+03  0.00000000000E+00 0. -1.
        -15    1    1    2    0    0  0.44687647016E+01  0.12756203876E+02  0.33281647937E+01  0.14032997014E+02  0.17770000000E+01 0.  1.
         15    1    1    2    0    0 -0.15746291601E+01 -0.61887127496E+01  0.12141934114E+01  0.67388142228E+01  0.17770000000E+01 0.  1.
</event>
<event>
 6    1  0.1059789E-002  0.1830679E+03  0.7546771E-02  0.1068004E+00
        -11   -1    0    0    0    0  0.00000000000E+00  0.00000000000E+00  0.18250000000E+03  0.18250000000E+03  0.00000000000E+00 0. -1.
         11   -1    0    0    0    0 -0.00000000000E+00 -0.00000000000E+00 -0.18250000000E+03  0.18250000000E+03  0.00000000000E+00 0. -1.
        -11    1    1    2    0    0 -0.11251597647E+01 -0.94349599389E+01  0.18168384030E+03  0.18193213647E+03  0.00000000000E+00 0. -1.
         11    1    1    2    0    0 -0.19639156978E+00  0.70458761417E+00 -0.27002949566E+02  0.27012854322E+02  0.00000000000E+00 0. -1.
        -15    1    1    2    0    0  0.49412441671E+01  0.74513805134E+01 -0.31269290539E+02  0.32570926074E+02  0.17770000000E+01 0.  1.
         15    1    1    2    0    0 -0.36196928326E+01  0.12789918112E+01 -0.12341160019E+03  0.12348408314E+03  0.17770000000E+01 0. -1.
</event>
<event>
 6    1  0.1059789E-002  0.1841026E+03  0.7546771E-02  0.1067186E+00
        -11   -1    0    0    0    0  0.00000000000E+00  0.00000000000E+00  0.18250000000E+03  0.18250000000E+03  0.00000000000E+00 0.  1.
         11   -1    0    0    0    0 -0.00000000000E+00 -0.00000000000E+00 -0.18250000000E+03  0.18250000000E+03  0.00000000000E+00 0.  1.
        -11    1    1    2    0    0  0.32653890627E+01  0.14593793660E+01  0.18086203849E+03  0.18089740054E+03  0.00000000000E+00 0.  1.
         11    1    1    2    0    0 -0.31107863369E+01  0.17723680651E+01 -0.11099709448E+03  0.11105482098E+03  0.00000000000E+00 0.  1.
        -15    1    1    2    0    0 -0.22138185304E+01 -0.82711893915E+00  0.12909694562E+00  0.29596474868E+01  0.17770000000E+01 0. -1.
         15    1    1    2    0    0  0.20592158045E+01 -0.24046284919E+01 -0.69994040962E+02  0.70088131000E+02  0.17770000000E+01 0.  1.
</event>
<event>
 6    1  0.1059789E-002  0.1841005E+03  0.7546771E-02  0.1067188E+00
        -11   -1    0    0    0    0  0.00000000000E+00  0.00000000000E+00  0.18250000000E+03  0.18250000000E+03  0.00000000000E+00 0.  1.
         11   -1    0    0    0    0 -0.00000000000E+00 -0.00000000000E+00 -0.18250000000E+03  0.18250000000E+03  0.00000000000E+00 0. -1.
        -11    1    1    2    0    0 -0.84625191409E+00 -0.31632660441E+01  0.18086985990E+03  0.18089949866E+03  0.00000000000E+00 0.  1.
         11    1    1    2    0    0 -0.88313621841E+00 -0.25477550900E+01 -0.13663589053E+03  0.13666249510E+03  0.00000000000E+00 0. -1.
        -15    1    1    2    0    0  0.30606568995E+01  0.55686372783E+01 -0.44683587268E+02  0.45168108682E+02  0.17770000000E+01 0. -1.
         15    1    1    2    0    0 -0.13312687670E+01  0.14238385585E+00  0.44961789854E+00  0.22698975631E+01  0.17770000000E+01 0. -1.
</event>
<event>
 6    1  0.1059789E-002  0.1844800E+03  0.7546771E-02  0.1066890E+00
        -11   -1    0    0    0    0  0.00000000000E+00  0.00000000000E+00  0.18250000000E+03  0.18250000000E+03  0.00000000000E+00 0. -1.
         11   -1    0    0    0    0 -0.00000000000E+00 -0.00000000000E+00 -0.18250000000E+03  0.18250000000E+03  0.00000000000E+00 0.  1.
        -11    1    1    2    0    0  0.29773006227E+01 -0.43834276647E+00  0.18049494319E+03  0.18052002930E+03  0.00000000000E+00 0. -1.
         11    1    1    2    0    0  0.34148500714E+01  0.49012654754E+00 -0.15804444045E+03  0.15808208811E+03  0.00000000000E+00 0.  1.
        -15    1    1    2    0    0  0.67696259082E+00 -0.19136765551E+01 -0.16732060812E+02  0.16948156959E+02  0.17770000000E+01 0.  1.
         15    1    1    2    0    0 -0.70691132849E+01  0.18618927741E+01 -0.57184419239E+01  0.94497256243E+01  0.17770000000E+01 0. -1.
</event>
<event>
 6    1  0.1059789E-002  0.1833839E+03  0.7546771E-02  0.1067753E+00
        -11   -1    0    0    0    0  0.00000000000E+00  0.00000000000E+00  0.18250000000E+03  0.18250000000E+03  0.00000000000E+00 0.  1.
         11   -1    0    0    0    0 -0.00000000000E+00 -0.00000000000E+00 -0.18250000000E+03  0.18250000000E+03  0.00000000000E+00 0.  1.
        -11    1    1    2    0    0  0.73481421844E+00 -0.35136824602E+01  0.98685852229E+02  0.98751118204E+02  0.00000000000E+00 0.  1.
         11    1    1    2    0    0 -0.75666542148E+01  0.25072386371E+01 -0.18144105896E+03  0.18161607412E+03  0.00000000000E+00 0.  1.
        -15    1    1    2    0    0  0.80294653508E+01  0.45675062406E+01  0.76781174220E+02  0.77355289869E+02  0.17770000000E+01 0.  1.
         15    1    1    2    0    0 -0.11976253545E+01 -0.35610624176E+01  0.59740325104E+01  0.72775178095E+01  0.17770000000E+01 0. -1.
</event>
<event>
 6    1  0.1059789E-002  0.1827017E+03  0.7546771E-02  0.1068294E+00
        -11   -1    0    0    0    0  0.00000000000E+00  0.00000000000E+00  0.18250000000E+03  0.18250000000E+03  0.00000000000E+00 0. -1.
         11   -1    0    0    0    0 -0.00000000000E+00 -0.00000000000E+00 -0.18250000000E+03  0.18250000000E+03  0.00000000000E+00 0. -1.
        -11    1    1    2    0    0  0.16604685192E+01  0.36467864679E+01  0.12526237374E+03  0.12532644765E+03  0.00000000000E+00 0. -1.
         11    1    1    2    0    0  0.23811881333E+01 -0.12679179471E+01 -0.18227838600E+03  0.18229834798E+03  0.00000000000E+00 0. -1.
        -15    1    1    2    0    0 -0.29484888834E+01 -0.95819707029E+00  0.24218799952E+02  0.24481007505E+02  0.17770000000E+01 0. -1.
         15    1    1    2    0    0 -0.10931677692E+01 -0.14206714505E+01  0.32797212309E+02  0.32894196865E+02  0.17770000000E+01 0.  1.
</event>
<event>
 6    1  0.1059789E-002  0.1937659E+03  0.7546771E-02  0.1059825E+00
        -11   -1    0    0    0    0  0.00000000000E+00  0.00000000000E+00  0.18250000000E+03  0.18250000000E+03  0.00000000000E+00 0.  1.
         11   -1    0    0    0    0 -0.00000000000E+00 -0.00000000000E+00 -0.18250000000E+03  0.18250000000E+03  0.00000000000E+00 0.  1.
        -11    1    1    2    0    0 -0.36583894419E+01 -0.62478507709E+01  0.17108093080E+03  0.17123406302E+03  0.00000000000E+00 0.  1.
         11    1    1    2    0    0  0.57529103152E+00 -0.22359909796E+01 -0.15846885004E+03  0.15848566827E+03  0.00000000000E+00 0.  1.
        -15    1    1    2    0    0  0.11615565843E+02  0.14633967460E+02 -0.75091154735E-02  0.18767849074E+02  0.17770000000E+01 0.  1.
         15    1    1    2    0    0 -0.85324674327E+01 -0.61501257098E+01 -0.12604571650E+02  0.16512419635E+02  0.17770000000E+01 0. -1.
</event>
<event>
 6    1  0.1059789E-002  0.1840850E+03  0.7546771E-02  0.1067200E+00
        -11   -1    0    0    0    0  0.00000000000E+00  0.00000000000E+00  0.18250000000E+03  0.18250000000E+03  0.00000000000E+00 0.  1.
         11   -1    0    0    0    0 -0.00000000000E+00 -0.00000000000E+00 -0.18250000000E+03  0.18250000000E+03  0.00000000000E+00 0.  1.
        -11    1    1    2    0    0 -0.18248182290E+01  0.34842086298E+01  0.18087219208E+03  0.18091495112E+03  0.00000000000E+00 0.  1.
         11    1    1    2    0    0 -0.33763261648E+01 -0.69595685925E+00 -0.17089719525E+03  0.17093196096E+03  0.00000000000E+00 0.  1.
        -15    1    1    2    0    0  0.91693219347E+00 -0.20595047666E+00 -0.18784470647E+00  0.20189588604E+01  0.17770000000E+01 0. -1.
         15    1    1    2    0    0  0.42842122004E+01 -0.25823012939E+01 -0.97871521263E+01  0.11134129059E+02  0.17770000000E+01 0.  1.
</event>
<event>
 6    1  0.1059789E-002  0.1829171E+03  0.7546771E-02  0.1068123E+00
        -11   -1    0    0    0    0  0.00000000000E+00  0.00000000000E+00  0.18250000000E+03  0.18250000000E+03  0.00000000000E+00 0. -1.
         11   -1    0    0    0    0 -0.00000000000E+00 -0.00000000000E+00 -0.18250000000E+03  0.18250000000E+03  0.00000000000E+00 0. -1.
        -11    1    1    2    0    0  0.14494065702E+01 -0.15253086870E+01  0.10319886872E+03  0.10322031704E+03  0.00000000000E+00 0. -1.
         11    1    1    2    0    0  0.51778842796E+01 -0.12309802554E+01 -0.18200505490E+03  0.18208285424E+03  0.00000000000E+00 0. -1.
        -15    1    1    2    0    0 -0.74970148927E+01 -0.86670076487E+00  0.51222944390E+02  0.51806410448E+02  0.17770000000E+01 0. -1.
         15    1    1    2    0    0  0.86972404290E+00  0.36229897073E+01  0.27583241796E+02  0.27890418270E+02  0.17770000000E+01 0.  1.
</event>
<event>
 6    1  0.1059789E-002  0.1849158E+03  0.7546771E-02  0.1066548E+00
        -11   -1    0    0    0    0  0.00000000000E+00  0.00000000000E+00  0.18250000000E+03  0.18250000000E+03  0.00000000000E+00 0. -1.
         11   -1    0    0    0    0 -0.00000000000E+00 -0.00000000000E+00 -0.18250000000E+03  0.18250000000E+03  0.00000000000E+00 0. -1.
        -11    1    1    2    0    0  0.27057400643E+01  0.84521250213E+00  0.17569541721E+03  0.17571828318E+03  0.00000000000E+00 0. -1.
         11    1    1    2    0    0 -0.77448514393E+01  0.28713270994E+01 -0.17989470512E+03  0.18008423633E+03  0.00000000000E+00 0. -1.
        -15    1    1    2    0    0  0.14756735440E+01 -0.48004781619E-01 -0.56225111619E-01  0.23110186349E+01  0.17770000000E+01 0.  1.
         15    1    1    2    0    0  0.35634378310E+01 -0.36685348199E+01  0.42555130190E+01  0.68864618604E+01  0.17770000000E+01 0.  1.
</event>
<event>
 6    1  0.1059789E-002  0.1827770E+03  0.7546771E-02  0.1068235E+00
        -11   -1    0    0    0    0  0.00000000000E+00  0.00000000000E+00  0.18250000000E+03  0.18250000000E+03  0.00000000000E+00 0. -1.
         11   -1    0    0    0    0 -0.00000000000E+00 -0.00000000000E+00 -0.18250000000E+03  0.18250000000E+03  0.00000000000E+00 0. -1.
        -11    1    1    2    0    0 -0.47580536531E+00 -0.33330199333E+01  0.88352535530E+02  0.88416661027E+02  0.00000000000E+00 0. -1.
         11    1    1    2    0    0 -0.27914171291E+01 -0.13908875250E+01 -0.18219633717E+03  0.18222302779E+03  0.00000000000E+00 0. -1.
        -15    1    1    2    0    0  0.36201382103E+01  0.51933605013E+01  0.87486685407E+02  0.87733427190E+02  0.17770000000E+01 0. -1.
         15    1    1    2    0    0 -0.35291571588E+00 -0.46945304303E+00  0.63571162347E+01  0.66268839951E+01  0.17770000000E+01 0. -1.
</event>
<event>
 6    1  0.1059789E-002  0.1727747E+03  0.7546771E-02  0.1076471E+00
        -11   -1    0    0    0    0  0.00000000000E+00  0.00000000000E+00  0.18250000000E+03  0.18250000000E+03  0.00000000000E+00 0.  1.
         11   -1    0    0    0    0 -0.00000000000E+00 -0.00000000000E+00 -0.18250000000E+03  0.18250000000E+03  0.00000000000E+00 0. -1.
        -11    1    1    2    0    0  0.10432668153E+00 -0.52554887449E+00  0.21123335178E+02  0.21130129548E+02  0.00000000000E+00 0.  1.
         11    1    1    2    0    0  0.11459219166E+02  0.16432945341E+02 -0.18009708950E+03  0.18120793869E+03  0.00000000000E+00 0. -1.
        -15    1    1    2    0    0  0.94912941136E+00  0.20188556939E+01  0.94810511022E+02  0.94853399276E+02  0.17770000000E+01 0.  1.
         15    1    1    2    0    0 -0.12512675259E+02 -0.17926252160E+02  0.64163243300E+02  0.67808532490E+02  0.17770000000E+01 0.  1.
</event>
<event>
 6    1  0.1059789E-002  0.1849837E+03  0.7546771E-02  0.1066495E+00
        -11   -1    0    0    0    0  0.00000000000E+00  0.00000000000E+00  0.18250000000E+03  0.18250000000E+03  0.00000000000E+00 0. -1.
         11   -1    0    0    0    0 -0.00000000000E+00 -0.00000000000E+00 -0.18250000000E+03  0.18250000000E+03  0.00000000000E+00 0.  1.
        -11    1    1    2    0    0  0.72477559634E+00  0.49779397549E+01  0.16333686409E+03  0.16341430890E+03  0.00000000000E+00 0. -1.
         11    1    1    2    0    0  0.24945427612E+01  0.80621512774E+00 -0.17999725390E+03  0.18001634408E+03  0.00000000000E+00 0.  1.
        -15    1    1    2    0    0  0.16959229717E+01  0.22275605330E+01  0.80219507649E+01  0.86802997487E+01  0.17770000000E+01 0.  1.
         15    1    1    2    0    0 -0.49152413292E+01 -0.80117154157E+01  0.86384390474E+01  0.12889047265E+02  0.17770000000E+01 0. -1.
</event>
<event>
 6    1  0.1059789E-002  0.1835657E+03  0.7546771E-02  0.1067610E+00
        -11   -1    0    0    0    0  0.00000000000E+00  0.00000000000E+00  0.18250000000E+03  0.18250000000E+03  0.00000000000E+00 0.  1.
         11   -1    0    0    0    0 -0.00000000000E+00 -0.00000000000E+00 -0.18250000000E+03  0.18250000000E+03  0.00000000000E+00 0. -1.
        -11    1    1    2    0    0  0.34269588428E+01  0.18487657089E+01  0.18139255254E+03  0.18143434102E+03  0.00000000000E+00 0.  1.
         11    1    1    2    0    0 -0.47925919735E+01 -0.25645364738E+01 -0.16828836999E+03  0.16837613031E+03  0.00000000000E+00 0. -1.
        -15    1    1    2    0    0  0.87914796927E+00 -0.27921553151E+01 -0.81887102199E+01  0.88759076449E+01  0.17770000000E+01 0. -1.
         15    1    1    2    0    0  0.48648516142E+00  0.35079260800E+01 -0.49154723324E+01  0.63136210248E+01  0.17770000000E+01 0.  1.
</event>
<event>
 6    1  0.1059789E-002  0.1965930E+03  0.7546771E-02  0.1057759E+00
        -11   -1    0    0    0    0  0.00000000000E+00  0.00000000000E+00  0.18250000000E+03  0.18250000000E+03  0.00000000000E+00 0. -1.
         11   -1    0    0    0    0 -0.00000000000E+00 -0.00000000000E+00 -0.18250000000E+03  0.18250000000E+03  0.00000000000E+00 0.  1.
        -11    1    1    2    0    0  0.44534905164E+00 -0.27855057491E+01  0.16838334557E+03  0.16840697267E+03  0.00000000000E+00 0. -1.
         11    1    1    2    0    0 -0.25395847007E+02 -0.13417071107E+02 -0.41225023034E+02  0.50244097826E+02  0.00000000000E+00 0.  1.
        -15    1    1    2    0    0  0.32785850363E+02  0.37312042777E+02 -0.82815152521E+02  0.96584717923E+02  0.17770000000E+01 0.  1.
         15    1    1    2    0    0 -0.78353524081E+01 -0.21109465921E+02 -0.44343170013E+02  0.49764211584E+02  0.17770000000E+01 0. -1.
</event>
<event>
 6    1  0.1059789E-002  0.1825716E+03  0.7546771E-02  0.1068398E+00
        -11   -1    0    0    0    0  0.00000000000E+00  0.00000000000E+00  0.18250000000E+03  0.18250000000E+03  0.00000000000E+00 0. -1.
         11   -1    0    0    0    0 -0.00000000000E+00 -0.00000000000E+00 -0.18250000000E+03  0.18250000000E+03  0.00000000000E+00 0. -1.
        -11    1    1    2    0    0 -0.79497981372E+00  0.35079969288E+01  0.18239293422E+03  0.18242839826E+03  0.00000000000E+00 0. -1.
         11    1    1    2    0    0 -0.97900016773E+00 -0.82377304154E+00 -0.87795151148E+02  0.87804473738E+02  0.00000000000E+00 0. -1.
        -15    1    1    2    0    0 -0.53569506789E+00 -0.62174702523E+00 -0.44020218075E+02  0.44063713722E+02  0.17770000000E+01 0.  1.
         15    1    1    2    0    0  0.23096750493E+01 -0.20624768620E+01 -0.50577565001E+02  0.50703414284E+02  0.17770000000E+01 0.  1.
</event>
<event>
 6    1  0.1187074E-002  0.2007872E+03  0.7546771E-02  0.1054764E+00
        -11   -1    0    0    0    0  0.00000000000E+00  0.00000000000E+00  0.18250000000E+03  0.18250000000E+03  0.00000000000E+00 0. -1.
         11   -1    0    0    0    0 -0.00000000000E+00 -0.00000000000E+00 -0.18250000000E+03  0.18250000000E+03  0.00000000000E+00 0. -1.
        -11    1    1    2    0    0  0.95974404133E+00 -0.13547016038E+01  0.10761210291E+03  0.10762490891E+03  0.00000000000E+00 0. -1.
         11    1    1    2    0    0  0.74831732723E+01 -0.10044343412E+02 -0.16373436808E+03  0.16421275836E+03  0.00000000000E+00 0. -1.
        -15    1    1    2    0    0 -0.40961572372E+01 -0.32632687636E+01  0.71316923137E+02  0.71531032999E+02  0.17770000000E+01 0. -1.
         15    1    1    2    0    0 -0.43467600765E+01  0.14662313779E+02 -0.15194657966E+02  0.21631299735E+02  0.17770000000E+01 0. -1.
</event>
<event>
 6    1  0.1059789E-002  0.1771016E+03  0.7546771E-02  0.1072835E+00
        -11   -1    0    0    0    0  0.00000000000E+00  0.00000000000E+00  0.18250000000E+03  0.18250000000E+03  0.00000000000E+00 0.  1.
         11   -1    0    0    0    0 -0.00000000000E+00 -0.00000000000E+00 -0.18250000000E+03  0.18250000000E+03  0.00000000000E+00 0. -1.
        -11    1    1    2    0    0 -0.23025041574E+01  0.17392380514E+01  0.17676146317E+03  0.17678501446E+03  0.00000000000E+00 0.  1.
         11    1    1    2    0    0 -0.58610157897E+01  0.16635919644E+01 -0.17742459717E+03  0.17752917148E+03  0.00000000000E+00 0. -1.
        -15    1    1    2    0    0  0.61000747598E+00  0.52749903947E-01  0.11044165321E+01  0.21799900342E+01  0.17770000000E+01 0. -1.
         15    1    1    2    0    0  0.75535124711E+01 -0.34555799197E+01 -0.44128253113E+00  0.85058240345E+01  0.17770000000E+01 0.  1.
</event>
<event>
 6    1  0.1059789E-002  0.1858246E+03  0.7546771E-02  0.1065839E+00
        -11   -1    0    0    0    0  0.00000000000E+00  0.00000000000E+00  0.18250000000E+03  0.18250000000E+03  0.00000000000E+00 0. -1.
         11   -1    0    0    0    0 -0.00000000000E+00 -0.00000000000E+00 -0.18250000000E+03  0.18250000000E+03  0.00000000000E+00 0. -1.
        -11    1    1    2    0    0  0.48273692354E+00  0.20325963612E+02  0.17801812831E+03  0.17917542197E+03  0.00000000000E+00 0. -1.
         11    1    1    2    0    0 -0.35984430110E+01  0.36140897335E+01 -0.38626058183E+02  0.38961298842E+02  0.00000000000E+00 0. -1.
        -15    1    1    2    0    0 -0.13036361313E+02  0.24050500638E+01 -0.24947345876E+02  0.28306514750E+02  0.17770000000E+01 0.  1.
         15    1    1    2    0    0  0.16152067400E+02 -0.26345103410E+02 -0.11444472425E+03  0.11855676444E+03  0.17770000000E+01 0. -1.
</event>
<event>
 6    1  0.1059789E-002  0.1832620E+03  0.7546771E-02  0.1067850E+00
        -11   -1    0    0    0    0  0.00000000000E+00  0.00000000000E+00  0.18250000000E+03  0.18250000000E+03  0.00000000000E+00 0. -1.
         11   -1    0    0    0    0 -0.00000000000E+00 -0.00000000000E+00 -0.18250000000E+03  0.18250000000E+03  0.00000000000E+00 0. -1.
        -11    1    1    2    0    0  0.29512341001E+01 -0.29727848280E+00  0.18171381793E+03  0.18173802514E+03  0.00000000000E+00 0. -1.
         11    1    1    2    0    0 -0.26192290589E+01 -0.48768179370E+01 -0.14516763029E+03  0.14527313791E+03  0.00000000000E+00 0. -1.
        -15    1    1    2    0    0  0.75107644640E+00  0.70103268746E+01 -0.30188822649E+02  0.31052077880E+02  0.17770000000E+01 0.  1.
         15    1    1    2    0    0 -0.10830814875E+01 -0.18362304548E+01 -0.63573649842E+01  0.69367590656E+01  0.17770000000E+01 0. -1.
</event>
<event>
 6    1  0.1059789E-002  0.1851726E+03  0.7546771E-02  0.1066347E+00
        -11   -1    0    0    0    0  0.00000000000E+00  0.00000000000E+00  0.18250000000E+03  0.18250000000E+03  0.00000000000E+00 0. -1.
         11   -1    0    0    0    0 -0.00000000000E+00 -0.00000000000E+00 -0.18250000000E+03  0.18250000000E+03  0.00000000000E+00 0.  1.
        -11    1    1    2    0    0  0.30438639215E+00  0.79479076245E+01  0.15774485293E+03  0.15794524530E+03  0.00000000000E+00 0. -1.
         11    1    1    2    0    0 -0.38444850667E+01 -0.38444561290E+01 -0.17974516798E+03  0.17982737645E+03  0.00000000000E+00 0.  1.
        -15    1    1    2    0    0 -0.34133419035E+01 -0.44640365154E+01  0.18133156493E+02  0.19066924723E+02  0.17770000000E+01 0. -1.
         15    1    1    2    0    0  0.69534405780E+01  0.36058501989E+00  0.38671585624E+01  0.81604535276E+01  0.17770000000E+01 0. -1.
</event>
<event>
 6    1  0.1059789E-002  0.1827560E+03  0.7546771E-02  0.1068251E+00
        -11   -1    0    0    0    0  0.00000000000E+00  0.00000000000E+00  0.18250000000E+03  0.18250000000E+03  0.00000000000E+00 0. -1.
         11   -1    0    0    0    0 -0.00000000000E+00 -0.00000000000E+00 -0.18250000000E+03  0.18250000000E+03  0.00000000000E+00 0.  1.
        -11    1    1    2    0    0 -0.12875959621E+01 -0.66025823624E+00  0.90332876200E+02  0.90344465060E+02  0.00000000000E+00 0. -1.
         11    1    1    2    0    0 -0.47201957217E+00 -0.42957278440E+01 -0.18219272371E+03  0.18224397014E+03  0.00000000000E+00 0.  1.
        -15    1    1    2    0    0  0.14382281000E+01 -0.18346590924E+01  0.20876896432E+02  0.21081674689E+02  0.17770000000E+01 0.  1.
         15    1    1    2    0    0  0.32138743426E+00  0.67906451726E+01  0.70982951072E+02  0.71329890114E+02  0.17770000000E+01 0. -1.
</event>
<event>
 6    1  0.1059789E-002  0.1831552E+03  0.7546771E-02  0.1067934E+00
        -11   -1    0    0    0    0  0.00000000000E+00  0.00000000000E+00  0.18250000000E+03  0.18250000000E+03  0.00000000000E+00 0. -1.
         11   -1    0    0    0    0 -0.00000000000E+00 -0.00000000000E+00 -0.18250000000E+03  0.18250000000E+03  0.00000000000E+00 0.  1.
        -11    1    1    2    0    0 -0.34799648974E+01  0.29102114607E+01  0.36659755164E+02  0.36939371071E+02  0.00000000000E+00 0. -1.
         11    1    1    2    0    0 -0.12601039907E+00 -0.63163459759E+01 -0.18173502437E+03  0.18184479973E+03  0.00000000000E+00 0.  1.
        -15    1    1    2    0    0 -0.10742901657E+00  0.25501471100E+01  0.13763114260E+03  0.13766627740E+03  0.17770000000E+01 0. -1.
         15    1    1    2    0    0  0.37134043130E+01  0.85598740510E+00  0.74441266081E+01  0.85495518004E+01  0.17770000000E+01 0.  1.
</event>
<event>
 6    1  0.1059789E-002  0.1889052E+03  0.7546771E-02  0.1063468E+00
        -11   -1    0    0    0    0  0.00000000000E+00  0.00000000000E+00  0.18250000000E+03  0.18250000000E+03  0.00000000000E+00 0. -1.
         11   -1    0    0    0    0 -0.00000000000E+00 -0.00000000000E+00 -0.18250000000E+03  0.18250000000E+03  0.00000000000E+00 0.  1.
        -11    1    1    2    0    0  0.41035155523E+01 -0.33147970048E+00  0.13883690064E+03  0.13889792546E+03  0.00000000000E+00 0. -1.
         11    1    1    2    0    0 -0.12731304092E+01  0.20569079200E+01 -0.17607820560E+03  0.17609482167E+03  0.00000000000E+00 0.  1.
        -15    1    1    2    0    0 -0.10215965569E+02  0.73244916324E+00  0.40177405112E+02  0.41500410177E+02  0.17770000000E+01 0. -1.
         15    1    1    2    0    0  0.73855804264E+01 -0.24578773828E+01 -0.29361001468E+01  0.85068426890E+01  0.17770000000E+01 0.  1.
</event>
<event>
 6    1  0.3767170E-002  0.1450639E+03  0.7546771E-02  0.1102903E+00
        -11   -1    0    0    0    0  0.00000000000E+00  0.00000000000E+00  0.18250000000E+03  0.18250000000E+03  0.00000000000E+00 0.  1.
         11   -1    0    0    0    0 -0.00000000000E+00 -0.00000000000E+00 -0.18250000000E+03  0.18250000000E+03  0.00000000000E+00 0.  1.
        -11    1    1    2    0    0  0.36290321837E+01  0.16984546266E+01  0.14753802859E+03  0.14759242699E+03  0.00000000000E+00 0.  1.
         11    1    1    2    0    0 -0.18695555325E+02  0.27793581627E+02 -0.14056665066E+03  0.14450256138E+03  0.00000000000E+00 0.  1.
        -15    1    1    2    0    0  0.20831020784E+01 -0.10603727079E+01  0.26739061531E+02  0.26899792659E+02  0.17770000000E+01 0. -1.
         15    1    1    2    0    0  0.12983421063E+02 -0.28431663546E+02 -0.33710439468E+02  0.46005218972E+02  0.17770000000E+01 0.  1.
</event>
<event>
 6    1  0.1059789E-002  0.1829744E+03  0.7546771E-02  0.1068078E+00
        -11   -1    0    0    0    0  0.00000000000E+00  0.00000000000E+00  0.18250000000E+03  0.18250000000E+03  0.00000000000E+00 0. -1.
         11   -1    0    0    0    0 -0.00000000000E+00 -0.00000000000E+00 -0.18250000000E+03  0.18250000000E+03  0.00000000000E+00 0. -1.
        -11    1    1    2    0    0  0.22291278270E+01 -0.27974434348E+01  0.18199042536E+03  0.18202557409E+03  0.00000000000E+00 0. -1.
         11    1    1    2    0    0 -0.25998130019E+01  0.10008621243E+01 -0.11297813313E+03  0.11301247417E+03  0.00000000000E+00 0. -1.
        -15    1    1    2    0    0  0.25090154434E+01 -0.37717089164E+01 -0.21502400636E+02  0.22046131378E+02  0.17770000000E+01 0.  1.
         15    1    1    2    0    0 -0.21383302685E+01  0.55682902270E+01 -0.47509891591E+02  0.47915820356E+02  0.17770000000E+01 0. -1.
</event>
<event>
 6    1  0.1059789E-002  0.1865882E+03  0.7546771E-02  0.1065246E+00
        -11   -1    0    0    0    0  0.00000000000E+00  0.00000000000E+00  0.18250000000E+03  0.18250000000E+03  0.00000000000E+00 0. -1.
         11   -1    0    0    0    0 -0.00000000000E+00 -0.00000000000E+00 -0.18250000000E+03  0.18250000000E+03  0.00000000000E+00 0. -1.
        -11    1    1    2    0    0 -0.18602848252E+01  0.15235066409E+01  0.16933205400E+03  0.16934912531E+03  0.00000000000E+00 0. -1.
         11    1    1    2    0    0  0.45395340477E+00  0.23693444974E+01 -0.17839549608E+03  0.17841180703E+03  0.00000000000E+00 0. -1.
        -15    1    1    2    0    0 -0.31157949316E+01  0.31526804262E+01  0.28744522038E-02  0.47754904657E+01  0.17770000000E+01 0. -1.
         15    1    1    2    0    0  0.45221263520E+01 -0.70455315646E+01  0.90605676247E+01  0.12463577193E+02  0.17770000000E+01 0. -1.
</event>
<event>
 6    1  0.1059789E-002  0.1800072E+03  0.7546771E-02  0.1070457E+00
        -11   -1    0    0    0    0  0.00000000000E+00  0.00000000000E+00  0.18250000000E+03  0.18250000000E+03  0.00000000000E+00 0.  1.
         11   -1    0    0    0    0 -0.00000000000E+00 -0.00000000000E+00 -0.18250000000E+03  0.18250000000E+03  0.00000000000E+00 0. -1.
        -11    1    1    2    0    0 -0.28016014276E+01  0.20569038241E+01  0.63019558934E+01  0.71968376377E+01  0.00000000000E+00 0.  1.
         11    1    1    2    0    0  0.69200133830E+01 -0.12471719404E+02 -0.18042846440E+03  0.18099132890E+03  0.00000000000E+00 0. -1.
        -15    1    1    2    0    0 -0.54743623949E+01 -0.29285135503E+00  0.15219282604E+03  0.15230189898E+03  0.17770000000E+01 0.  1.
         15    1    1    2    0    0  0.13559504396E+01  0.10707666935E+02  0.21933682471E+02  0.24509934486E+02  0.17770000000E+01 0. -1.
</event>
<event>
 6    1  0.1059789E-002  0.1864663E+03  0.7546771E-02  0.1065341E+00
        -11   -1    0    0    0    0  0.00000000000E+00  0.00000000000E+00  0.18250000000E+03  0.18250000000E+03  0.00000000000E+00 0. -1.
         11   -1    0    0    0    0 -0.00000000000E+00 -0.00000000000E+00 -0.18250000000E+03  0.18250000000E+03  0.00000000000E+00 0.  1.
        -11    1    1    2    0    0 -0.27194446718E+01  0.16852671498E+01  0.92702291348E+02  0.92757481239E+02  0.00000000000E+00 0. -1.
         11    1    1    2    0    0 -0.48343655393E+01 -0.37750261314E+01 -0.17842832138E+03  0.17853371609E+03  0.00000000000E+00 0.  1.
        -15    1    1    2    0    0 -0.49869489262E+00  0.41727462504E+01 -0.24122338949E+01  0.51611151149E+01  0.17770000000E+01 0.  1.
         15    1    1    2    0    0  0.80525051037E+01 -0.20829872687E+01  0.88138263924E+02  0.88547687553E+02  0.17770000000E+01 0. -1.
</event>
<event>
 6    1  0.1059789E-002  0.1827386E+03  0.7546771E-02  0.1068265E+00
        -11   -1    0    0    0    0  0.00000000000E+00  0.00000000000E+00  0.18250000000E+03  0.18250000000E+03  0.00000000000E+00 0. -1.
         11   -1    0    0    0    0 -0.00000000000E+00 -0.00000000000E+00 -0.18250000000E+03  0.18250000000E+03  0.00000000000E+00 0.  1.
        -11    1    1    2    0    0 -0.11145753496E+02  0.64209252340E+01  0.18180694014E+03  0.18226140454E+03  0.00000000000E+00 0. -1.
         11    1    1    2    0    0 -0.50228472288E+00 -0.56591638763E+00 -0.41795137520E+02  0.41801986455E+02  0.00000000000E+00 0.  1.
        -15    1    1    2    0    0  0.20469989408E+01 -0.30170751362E+01 -0.77254857345E+02  0.77361254252E+02  0.17770000000E+01 0.  1.
         15    1    1    2    0    0  0.96010392784E+01 -0.28379337102E+01 -0.62756945274E+02  0.63575354754E+02  0.17770000000E+01 0. -1.
</event>
<event>
 6    1  0.1059789E-002  0.1834306E+03  0.7546771E-02  0.1067716E+00
        -11   -1    0    0    0    0  0.00000000000E+00  0.00000000000E+00  0.18250000000E+03  0.18250000000E+03  0.00000000000E+00 0. -1.
         11   -1    0    0    0    0 -0.00000000000E+00 -0.00000000000E+00 -0.18250000000E+03  0.18250000000E+03  0.00000000000E+00 0. -1.
        -11    1    1    2    0    0 -0.28010294918E+01  0.16977791248E+01  0.18153988697E+03  0.18156943239E+03  0.00000000000E+00 0. -1.
         11    1    1    2    0    0  0.20794360617E+01  0.12850408159E+01 -0.16541266638E+03  0.16543072745E+03  0.00000000000E+00 0. -1.
        -15    1    1    2    0    0 -0.19406175399E+01 -0.37536553537E+01 -0.10866577800E+02  0.11793903808E+02  0.17770000000E+01 0.  1.
         15    1    1    2    0    0  0.26622109699E+01  0.77083541301E+00 -0.52606427840E+01  0.62059363502E+01  0.17770000000E+01 0. -1.
</event>
<event>
 6    1  0.1059789E-002  0.1871624E+03  0.7546771E-02  0.1064803E+00
        -11   -1    0    0    0    0  0.00000000000E+00  0.00000000000E+00  0.18250000000E+03  0.18250000000E+03  0.00000000000E+00 0.  1.
         11   -1    0    0    0    0 -0.00000000000E+00 -0.00000000000E+00 -0.18250000000E+03  0.18250000000E+03  0.00000000000E+00 0. -1.
        -11    1    1    2    0    0 -0.33431512744E+01  0.68775867442E+00  0.17780489114E+03  0.17783764783E+03  0.00000000000E+00 0.  1.
         11    1    1    2    0    0  0.74707447272E+01 -0.78212755101E+01 -0.95033316214E+02  0.95646827276E+02  0.00000000000E+00 0. -1.
        -15    1    1    2    0    0 -0.14241245061E+02 -0.14398097240E+00 -0.95945327736E+01  0.17264025589E+02  0.17770000000E+01 0. -1.
         15    1    1    2    0    0  0.10113651608E+02  0.72774978081E+01 -0.73177042147E+02  0.74251499309E+02  0.17770000000E+01 0.  1.
</event>
<event>
 6    1  0.1059789E-002  0.1875741E+03  0.7546771E-02  0.1064486E+00
        -11   -1    0    0    0    0  0.00000000000E+00  0.00000000000E+00  0.18250000000E+03  0.18250000000E+03  0.00000000000E+00 0.  1.
         11   -1    0    0    0    0 -0.00000000000E+00 -0.00000000000E+00 -0.18250000000E+03  0.18250000000E+03  0.00000000000E+00 0. -1.
        -11    1    1    2    0    0 -0.14015562431E+01 -0.24547729075E+01  0.17740342867E+03  0.17742594730E+03  0.00000000000E+00 0.  1.
         11    1    1    2    0    0  0.80178417634E+01  0.36366729238E+01 -0.16729365685E+03  0.16752515870E+03  0.00000000000E+00 0. -1.
        -15    1    1    2    0    0  0.41635271256E+01  0.18009306365E+00  0.74101841685E+00  0.45906675910E+01  0.17770000000E+01 0. -1.
         15    1    1    2    0    0 -0.10779812646E+02 -0.13619930800E+01 -0.10850790239E+02  0.15458226407E+02  0.17770000000E+01 0.  1.
</event>
<event>
 6    1  0.1059789E-002  0.1833679E+03  0.7546771E-02  0.1067766E+00
        -11   -1    0    0    0    0  0.00000000000E+00  0.00000000000E+00  0.18250000000E+03  0.18250000000E+03  0.00000000000E+00 0. -1.
         11   -1    0    0    0    0 -0.00000000000E+00 -0.00000000000E+00 -0.18250000000E+03  0.18250000000E+03  0.00000000000E+00 0. -1.
        -11    1    1    2    0    0  0.37897361507E+01  0.23967008463E+01  0.18157671587E+03  0.18163207322E+03  0.00000000000E+00 0. -1.
         11    1    1    2    0    0 -0.16897206563E+01 -0.18407473561E+01 -0.12670972892E+03  0.12673436357E+03  0.00000000000E+00 0. -1.
        -15    1    1    2    0    0  0.24741497822E+01  0.10865937106E+01 -0.47614282398E+02  0.47723995226E+02  0.17770000000E+01 0. -1.
         15    1    1    2    0    0 -0.45741652766E+01 -0.16425472008E+01 -0.72527045556E+01  0.89095679837E+01  0.17770000000E+01 0. -1.
</event>
<event>
 6    1  0.1059789E-002  0.1836690E+03  0.7546771E-02  0.1067528E+00
        -11   -1    0    0    0    0  0.00000000000E+00  0.00000000000E+00  0.18250000000E+03  0.18250000000E+03  0.00000000000E+00 0. -1.
         11   -1    0    0    0    0 -0.00000000000E+00 -0.00000000000E+00 -0.18250000000E+03  0.18250000000E+03  0.00000000000E+00 0. -1.
        -11    1    1    2    0    0  0.42561434080E+01 -0.17012797597E+01  0.18127304891E+03  0.18133098845E+03  0.00000000000E+00 0. -1.
         11    1    1    2    0    0 -0.48651695663E+01 -0.39905743257E+01 -0.79344856150E+02  0.79593974369E+02  0.00000000000E+00 0. -1.
        -15    1    1    2    0    0  0.26192068511E+01  0.43606525526E+01 -0.10069002601E+03  0.10083409444E+03  0.17770000000E+01 0. -1.
         15    1    1    2    0    0 -0.20101806928E+01  0.13312015327E+01 -0.12381667543E+01  0.32409427409E+01  0.17770000000E+01 0.  1.
</event>
<event>
 6    1  0.1059789E-002  0.1829843E+03  0.7546771E-02  0.1068070E+00
        -11   -1    0    0    0    0  0.00000000000E+00  0.00000000000E+00  0.18250000000E+03  0.18250000000E+03  0.00000000000E+00 0. -1.
         11   -1    0    0    0    0 -0.00000000000E+00 -0.00000000000E+00 -0.18250000000E+03  0.18250000000E+03  0.00000000000E+00 0.  1.
        -11    1    1    2    0    0  0.42874872373E+01 -0.72398737542E+00  0.18196374770E+03  0.18201569213E+03  0.00000000000E+00 0. -1.
         11    1    1    2    0    0 -0.12983298247E+00  0.25017995370E+01 -0.13426585559E+03  0.13428922456E+03  0.00000000000E+00 0.  1.
        -15    1    1    2    0    0 -0.33542607323E+00 -0.83614347958E+00 -0.38305129985E+02  0.38356907575E+02  0.17770000000E+01 0.  1.
         15    1    1    2    0    0 -0.38222281816E+01 -0.94166868197E+00 -0.93927621241E+01  0.10338175734E+02  0.17770000000E+01 0. -1.
</event>
<event>
 6    1  0.1059789E-002  0.1842799E+03  0.7546771E-02  0.1067047E+00
        -11   -1    0    0    0    0  0.00000000000E+00  0.00000000000E+00  0.18250000000E+03  0.18250000000E+03  0.00000000000E+00 0.  1.
         11   -1    0    0    0    0 -0.00000000000E+00 -0.00000000000E+00 -0.18250000000E+03  0.18250000000E+03  0.00000000000E+00 0. -1.
        -11    1    1    2    0    0  0.25951662245E+01 -0.17268789524E+01  0.18069317952E+03  0.18072006564E+03  0.00000000000E+00 0.  1.
         11    1    1    2    0    0 -0.20139760212E+01 -0.30100610280E+01 -0.17488043280E+03  0.17491793031E+03  0.00000000000E+00 0. -1.
        -15    1    1    2    0    0 -0.12368965299E+01  0.28044681611E+00 -0.31595780685E+01  0.38404721081E+01  0.17770000000E+01 0. -1.
         15    1    1    2    0    0  0.65570632656E+00  0.44564931643E+01 -0.26531686539E+01  0.55215319447E+01  0.17770000000E+01 0.  1.
</event>
<event>
 6    1  0.1059789E-002  0.1859759E+03  0.7546771E-02  0.1065721E+00
        -11   -1    0    0    0    0  0.00000000000E+00  0.00000000000E+00  0.18250000000E+03  0.18250000000E+03  0.00000000000E+00 0. -1.
         11   -1    0    0    0    0 -0.00000000000E+00 -0.00000000000E+00 -0.18250000000E+03  0.18250000000E+03  0.00000000000E+00 0. -1.
        -11    1    1    2    0    0  0.29586376290E+01  0.15694217686E+00  0.17899954428E+03  0.17902406269E+03  0.00000000000E+00 0. -1.
         11    1    1    2    0    0 -0.64922839256E+01  0.39018259577E+01 -0.16712570254E+03  0.16729726371E+03  0.00000000000E+00 0. -1.
        -15    1    1    2    0    0  0.63218692595E+01  0.23138657674E+01 -0.40277641879E+01  0.80436695032E+01  0.17770000000E+01 0. -1.
         15    1    1    2    0    0 -0.27882229628E+01 -0.63726339020E+01 -0.78460775607E+01  0.10635004101E+02  0.17770000000E+01 0.  1.
</event>
<event>
 6    1  0.1059789E-002  0.1535105E+03  0.7546771E-02  0.1094202E+00
        -11   -1    0    0    0    0  0.00000000000E+00  0.00000000000E+00  0.18250000000E+03  0.18250000000E+03  0.00000000000E+00 0.  1.
         11   -1    0    0    0    0 -0.00000000000E+00 -0.00000000000E+00 -0.18250000000E+03  0.18250000000E+03  0.00000000000E+00 0.  1.
        -11    1    1    2    0    0  0.30754142561E+02 -0.17677467617E+02  0.16125866381E+03  0.16511410237E+03  0.00000000000E+00 0.  1.
         11    1    1    2    0    0  0.24410371740E+01 -0.12758529823E+01 -0.14469427346E+03  0.14472048657E+03  0.00000000000E+00 0.  1.
        -15    1    1    2    0    0 -0.33430651245E+02  0.16977636833E+02  0.85150494198E+00  0.37546389770E+02  0.17770000000E+01 0. -1.
         15    1    1    2    0    0  0.23547150967E+00  0.19756837661E+01 -0.17415895298E+02  0.17619021290E+02  0.17770000000E+01 0.  1.
</event>
<event>
 6    1  0.1059789E-002  0.1874597E+03  0.7546771E-02  0.1064574E+00
        -11   -1    0    0    0    0  0.00000000000E+00  0.00000000000E+00  0.18250000000E+03  0.18250000000E+03  0.00000000000E+00 0. -1.
         11   -1    0    0    0    0 -0.00000000000E+00 -0.00000000000E+00 -0.18250000000E+03  0.18250000000E+03  0.00000000000E+00 0.  1.
        -11    1    1    2    0    0 -0.11814415034E+02  0.38170563120E+00  0.15038357610E+03  0.15084742643E+03  0.00000000000E+00 0. -1.
         11    1    1    2    0    0 -0.33629665482E+01  0.15677232409E+01 -0.17750152336E+03  0.17754029992E+03  0.00000000000E+00 0.  1.
        -15    1    1    2    0    0  0.13351963667E+02 -0.23049186955E+01  0.29868625208E+02  0.32846310063E+02  0.17770000000E+01 0. -1.
         15    1    1    2    0    0  0.18254179146E+01  0.35548982335E+00 -0.27506779437E+01  0.37659635856E+01  0.17770000000E+01 0.  1.
</event>
<event>
 6    1  0.1059789E-002  0.1881000E+03  0.7546771E-02  0.1064083E+00
        -11   -1    0    0    0    0  0.00000000000E+00  0.00000000000E+00  0.18250000000E+03  0.18250000000E+03  0.00000000000E+00 0.  1.
         11   -1    0    0    0    0 -0.00000000000E+00 -0.00000000000E+00 -0.18250000000E+03  0.18250000000E+03  0.00000000000E+00 0. -1.
        -11    1    1    2    0    0  0.34756342192E+01  0.12289325714E+01  0.17686160229E+03  0.17690001886E+03  0.00000000000E+00 0.  1.
         11    1    1    2    0    0  0.32925519466E+01  0.28023198169E+01 -0.16789526565E+03  0.16795092773E+03  0.00000000000E+00 0. -1.
        -15    1    1    2    0    0 -0.32872786670E+01 -0.35148064656E+01 -0.13321196462E+02  0.14274875470E+02  0.17770000000E+01 0.  1.
         15    1    1    2    0    0 -0.34809074989E+01 -0.51644592261E+00  0.43548598296E+01  0.58741779460E+01  0.17770000000E+01 0.  1.
</event>
<event>
 6    1  0.1059789E-002  0.1861163E+03  0.7546771E-02  0.1065612E+00
        -11   -1    0    0    0    0  0.00000000000E+00  0.00000000000E+00  0.18250000000E+03  0.18250000000E+03  0.00000000000E+00 0. -1.
         11   -1    0    0    0    0 -0.00000000000E+00 -0.00000000000E+00 -0.18250000000E+03  0.18250000000E+03  0.00000000000E+00 0. -1.
        -11    1    1    2    0    0  0.34323450288E+01  0.40573425772E+01  0.17113232987E+03  0.17121482806E+03  0.00000000000E+00 0. -1.
         11    1    1    2    0    0  0.29342902390E+01 -0.19297059332E+01 -0.17884919234E+03  0.17888367009E+03  0.00000000000E+00 0. -1.
        -15    1    1    2    0    0 -0.24688545963E+01 -0.19135821250E+01  0.95750227490E+01  0.10227210236E+02  0.17770000000E+01 0. -1.
         15    1    1    2    0    0 -0.38977806714E+01 -0.21405451903E+00 -0.18581602778E+01  0.46742916167E+01  0.17770000000E+01 0.  1.
</event>
<event>
 6    1  0.1059789E-002  0.1899705E+03  0.7546771E-02  0.1062659E+00
        -11   -1    0    0    0    0  0.00000000000E+00  0.00000000000E+00  0.18250000000E+03  0.18250000000E+03  0.00000000000E+00 0. -1.
         11   -1    0    0    0    0 -0.00000000000E+00 -0.00000000000E+00 -0.18250000000E+03  0.18250000000E+03  0.00000000000E+00 0. -1.
        -11    1    1    2    0    0  0.57757348296E+01 -0.26804592885E+01  0.17491361396E+03  0.17502947273E+03  0.00000000000E+00 0. -1.
         11    1    1    2    0    0  0.21091225489E+02  0.91431413849E+01 -0.81000434578E+02  0.84199211569E+02  0.00000000000E+00 0. -1.
        -15    1    1    2    0    0 -0.12758386849E+02 -0.32990385659E+01 -0.29131784036E+01  0.13612656899E+02  0.17770000000E+01 0.  1.
         15    1    1    2    0    0 -0.14108573470E+02 -0.31636435305E+01 -0.91000000978E+02  0.92158658805E+02  0.17770000000E+01 0. -1.
</event>
<event>
 6    1  0.1059789E-002  0.1831240E+03  0.7546771E-02  0.1067959E+00
        -11   -1    0    0    0    0  0.00000000000E+00  0.00000000000E+00  0.18250000000E+03  0.18250000000E+03  0.00000000000E+00 0.  1.
         11   -1    0    0    0    0 -0.00000000000E+00 -0.00000000000E+00 -0.18250000000E+03  0.18250000000E+03  0.00000000000E+00 0. -1.
        -11    1    1    2    0    0 -0.66722206047E+01 -0.17076317761E+01  0.18174557932E+03  0.18187602958E+03  0.00000000000E+00 0.  1.
         11    1    1    2    0    0 -0.14458512246E+01 -0.16849183635E+01 -0.98031375380E+02  0.98056514289E+02  0.00000000000E+00 0. -1.
        -15    1    1    2    0    0  0.18788404072E+01 -0.37871347265E+01 -0.41798943630E+02  0.42049754438E+02  0.17770000000E+01 0. -1.
         15    1    1    2    0    0  0.62392314221E+01  0.71796848661E+01 -0.41915260307E+02  0.43017701695E+02  0.17770000000E+01 0.  1.
</event>
<event>
 6    1  0.1059789E-002  0.1847860E+03  0.7546771E-02  0.1066650E+00
        -11   -1    0    0    0    0  0.00000000000E+00  0.00000000000E+00  0.18250000000E+03  0.18250000000E+03  0.00000000000E+00 0.  1.
         11   -1    0    0    0    0 -0.00000000000E+00 -0.00000000000E+00 -0.18250000000E+03  0.18250000000E+03  0.00000000000E+00 0. -1.
        -11    1    1    2    0    0 -0.17748377062E+01  0.47171659998E+01  0.17598775065E+03  0.17605990481E+03  0.00000000000E+00 0.  1.
         11    1    1    2    0    0  0.40425666154E+01  0.12930091481E+01 -0.18016399065E+03  0.18021397766E+03  0.00000000000E+00 0. -1.
        -15    1    1    2    0    0 -0.65065715947E+00 -0.33291602755E+01  0.10827982818E+01  0.39795532410E+01  0.17770000000E+01 0. -1.
         15    1    1    2    0    0 -0.16170717497E+01 -0.26810148724E+01  0.30934417231E+01  0.47465642821E+01  0.17770000000E+01 0.  1.
</event>
<event>
 6    1  0.1059789E-002  0.1947244E+03  0.7546771E-02  0.1059120E+00
        -11   -1    0    0    0    0  0.00000000000E+00  0.00000000000E+00  0.18250000000E+03  0.18250000000E+03  0.00000000000E+00 0. -1.
         11   -1    0    0    0    0 -0.00000000000E+00 -0.00000000000E+00 -0.18250000000E+03  0.18250000000E+03  0.00000000000E+00 0. -1.
        -11    1    1    2    0    0 -0.77875551990E+00 -0.15031074052E+01  0.10002179672E+03  0.10003612153E+03  0.00000000000E+00 0. -1.
         11    1    1    2    0    0 -0.63728878396E+01  0.10076794202E+01 -0.17015329663E+03  0.17027558096E+03  0.00000000000E+00 0. -1.
        -15    1    1    2    0    0  0.85843554451E+01  0.96039575894E+00 -0.10675948631E+02  0.13847278671E+02  0.17770000000E+01 0. -1.
         15    1    1    2    0    0 -0.14327120856E+01 -0.46496777396E+00  0.80807448536E+02  0.80841018838E+02  0.17770000000E+01 0. -1.
</event>
<event>
 6    1  0.1059789E-002  0.1830902E+03  0.7546771E-02  0.1067986E+00
        -11   -1    0    0    0    0  0.00000000000E+00  0.00000000000E+00  0.18250000000E+03  0.18250000000E+03  0.00000000000E+00 0. -1.
         11   -1    0    0    0    0 -0.00000000000E+00 -0.00000000000E+00 -0.18250000000E+03  0.18250000000E+03  0.00000000000E+00 0.  1.
        -11    1    1    2    0    0  0.26914840278E+01 -0.11515994857E+01  0.18188626856E+03  0.18190982644E+03  0.00000000000E+00 0. -1.
         11    1    1    2    0    0  0.98052750814E+00  0.20676335801E+01 -0.14796196515E+03  0.14797965966E+03  0.00000000000E+00 0.  1.
        -15    1    1    2    0    0 -0.21528883003E+01  0.43532128702E+00 -0.32039209658E+01  0.42716824802E+01  0.17770000000E+01 0.  1.
         15    1    1    2    0    0 -0.15191232356E+01 -0.13513553815E+01 -0.30720382443E+02  0.30838831417E+02  0.17770000000E+01 0. -1.
</event>
<event>
 6    1  0.1059789E-002  0.1847110E+03  0.7546771E-02  0.1066708E+00
        -11   -1    0    0    0    0  0.00000000000E+00  0.00000000000E+00  0.18250000000E+03  0.18250000000E+03  0.00000000000E+00 0. -1.
         11   -1    0    0    0    0 -0.00000000000E+00 -0.00000000000E+00 -0.18250000000E+03  0.18250000000E+03  0.00000000000E+00 0.  1.
        -11    1    1    2    0    0 -0.44451814882E+01 -0.14181579853E+01  0.18022861547E+03  0.18028900312E+03  0.00000000000E+00 0. -1.
         11    1    1    2    0    0  0.23256902620E+01 -0.22088666919E+01 -0.16792541189E+03  0.16795604153E+03  0.00000000000E+00 0.  1.
        -15    1    1    2    0    0 -0.59385581842E+00  0.17572346614E+01 -0.12730294685E+02  0.12986865294E+02  0.17770000000E+01 0.  1.
         15    1    1    2    0    0  0.27133470446E+01  0.18697900158E+01  0.42709110694E+00  0.37680900601E+01  0.17770000000E+01 0.  1.
</event>
<event>
 6    1  0.1059789E-002  0.1852605E+03  0.7546771E-02  0.1066278E+00
        -11   -1    0    0    0    0  0.00000000000E+00  0.00000000000E+00  0.18250000000E+03  0.18250000000E+03  0.00000000000E+00 0. -1.
         11   -1    0    0    0    0 -0.00000000000E+00 -0.00000000000E+00 -0.18250000000E+03  0.18250000000E+03  0.00000000000E+00 0.  1.
        -11    1    1    2    0    0  0.93949546369E+00  0.25699198454E+01  0.17971866246E+03  0.17973949142E+03  0.00000000000E+00 0. -1.
         11    1    1    2    0    0 -0.24518134885E+01 -0.60765170205E+01 -0.97454724970E+02  0.97674760647E+02  0.00000000000E+00 0.  1.
        -15    1    1    2    0    0  0.45812314415E+01  0.65791589750E+00 -0.82851084858E+02  0.82999280274E+02  0.17770000000E+01 0. -1.
         15    1    1    2    0    0 -0.30689134168E+01  0.28486812776E+01  0.58714737190E+00  0.45864676623E+01  0.17770000000E+01 0.  1.
</event>
<event>
 6    1  0.1059789E-002  0.1836029E+03  0.7546771E-02  0.1067580E+00
        -11   -1    0    0    0    0  0.00000000000E+00  0.00000000000E+00  0.18250000000E+03  0.18250000000E+03  0.00000000000E+00 0.  1.
         11   -1    0    0    0    0 -0.00000000000E+00 -0.00000000000E+00 -0.18250000000E+03  0.18250000000E+03  0.00000000000E+00 0.  1.
        -11    1    1    2    0    0  0.28711531742E+01 -0.54053899666E+00  0.18137358561E+03  0.18139711481E+03  0.00000000000E+00 0.  1.
         11    1    1    2    0    0 -0.74240997289E+00 -0.51298948841E+01 -0.16887602741E+03  0.16895555519E+03  0.00000000000E+00 0.  1.
        -15    1    1    2    0    0  0.32896813892E+00  0.33919857710E+01 -0.61078323300E+01  0.72164487304E+01  0.17770000000E+01 0.  1.
         15    1    1    2    0    0 -0.24577113402E+01  0.22784481098E+01 -0.63897258697E+01  0.74308812742E+01  0.17770000000E+01 0. -1.
</event>
<event>
 6    1  0.1059789E-002  0.1826145E+03  0.7546771E-02  0.1068364E+00
        -11   -1    0    0    0    0  0.00000000000E+00  0.00000000000E+00  0.18250000000E+03  0.18250000000E+03  0.00000000000E+00 0.  1.
         11   -1    0    0    0    0 -0.00000000000E+00 -0.00000000000E+00 -0.18250000000E+03  0.18250000000E+03  0.00000000000E+00 0.  1.
        -11    1    1    2    0    0  0.10114217905E+01 -0.26869754765E+01  0.18236288345E+03  0.18238548207E+03  0.00000000000E+00 0.  1.
         11    1    1    2    0    0  0.14707222032E+01 -0.11570616400E+01 -0.39753900083E+02  0.39797919384E+02  0.00000000000E+00 0.  1.
        -15    1    1    2    0    0 -0.15138827294E+01  0.25107261119E+01 -0.12437917275E+03  0.12442641171E+03  0.17770000000E+01 0.  1.
         15    1    1    2    0    0 -0.96826126434E+00  0.13333110046E+01 -0.18229810608E+02  0.18390186837E+02  0.17770000000E+01 0. -1.
</event>
<event>
 6    1  0.1059789E-002  0.1859420E+03  0.7546771E-02  0.1065748E+00
        -11   -1    0    0    0    0  0.00000000000E+00  0.00000000000E+00  0.18250000000E+03  0.18250000000E+03  0.00000000000E+00 0. -1.
         11   -1    0    0    0    0 -0.00000000000E+00 -0.00000000000E+00 -0.18250000000E+03  0.18250000000E+03  0.00000000000E+00 0. -1.
        -11    1    1    2    0    0 -0.38381196147E+01 -0.76735220168E+00  0.16362948063E+03  0.16367628699E+03  0.00000000000E+00 0. -1.
         11    1    1    2    0    0 -0.51708898863E+01  0.60806061272E+00 -0.17898233210E+03  0.17905804378E+03  0.00000000000E+00 0. -1.
        -15    1    1    2    0    0  0.75698492595E+01  0.71404542108E+00  0.17447714472E+02  0.19115254327E+02  0.17770000000E+01 0. -1.
         15    1    1    2    0    0  0.14391602414E+01 -0.55475383212E+00 -0.20948630099E+01  0.31504149004E+01  0.17770000000E+01 0.  1.
</event>
<event>
 6    1  0.1059789E-002  0.1852763E+03  0.7546771E-02  0.1066266E+00
        -11   -1    0    0    0    0  0.00000000000E+00  0.00000000000E+00  0.18250000000E+03  0.18250000000E+03  0.00000000000E+00 0. -1.
         11   -1    0    0    0    0 -0.00000000000E+00 -0.00000000000E+00 -0.18250000000E+03  0.18250000000E+03  0.00000000000E+00 0.  1.
        -11    1    1    2    0    0 -0.72919161735E+00  0.24069863144E+01  0.17970614222E+03  0.17972374038E+03  0.00000000000E+00 0. -1.
         11    1    1    2    0    0 -0.81950472820E+01  0.70258659402E+01 -0.13525402991E+03  0.13568409708E+03  0.00000000000E+00 0.  1.
        -15    1    1    2    0    0 -0.15012800324E+01 -0.88736897001E+00  0.57634841045E+00  0.25556157604E+01  0.17770000000E+01 0.  1.
         15    1    1    2    0    0  0.10425518932E+02 -0.85454832846E+01 -0.45028460720E+02  0.47036546784E+02  0.17770000000E+01 0. -1.
</event>
<event>
 6    1  0.1059789E-002  0.1834125E+03  0.7546771E-02  0.1067731E+00
        -11   -1    0    0    0    0  0.00000000000E+00  0.00000000000E+00  0.18250000000E+03  0.18250000000E+03  0.00000000000E+00 0.  1.
         11   -1    0    0    0    0 -0.00000000000E+00 -0.00000000000E+00 -0.18250000000E+03  0.18250000000E+03  0.00000000000E+00 0.  1.
        -11    1    1    2    0    0 -0.18012681353E+01  0.35609225962E+01  0.34272116494E+02  0.34503662206E+02  0.00000000000E+00 0.  1.
         11    1    1    2    0    0  0.48198571115E+01  0.55671945575E+01 -0.18143817059E+03  0.18158753929E+03  0.00000000000E+00 0.  1.
        -15    1    1    2    0    0 -0.49969604116E+00  0.93259585216E+00  0.88458374285E+00  0.22493662563E+01  0.17770000000E+01 0. -1.
         15    1    1    2    0    0 -0.25188929349E+01 -0.10060713006E+02  0.14628147036E+03  0.14665943225E+03  0.17770000000E+01 0. -1.
</event>
<event>
 6    1  0.1059789E-002  0.1835131E+03  0.7546771E-02  0.1067651E+00
        -11   -1    0    0    0    0  0.00000000000E+00  0.00000000000E+00  0.18250000000E+03  0.18250000000E+03  0.00000000000E+00 0.  1.
         11   -1    0    0    0    0 -0.00000000000E+00 -0.00000000000E+00 -0.18250000000E+03  0.18250000000E+03  0.00000000000E+00 0. -1.
        -11    1    1    2    0    0  0.31263566290E+01  0.87656642460E+00  0.16744845014E+03  0.16747992695E+03  0.00000000000E+00 0.  1.
         11    1    1    2    0    0  0.18108148101E+01  0.17711108186E+01 -0.18146920830E+03  0.18148688504E+03  0.00000000000E+00 0. -1.
        -15    1    1    2    0    0  0.12736528997E+00 -0.10751799070E+01  0.27248387663E+01  0.34285141172E+01  0.17770000000E+01 0.  1.
         15    1    1    2    0    0 -0.50645367291E+01 -0.15724973362E+01  0.11295919385E+02  0.12604673891E+02  0.17770000000E+01 0. -1.
</event>
<event>
 6    1  0.1059789E-002  0.1887618E+03  0.7546771E-02  0.1063577E+00
        -11   -1    0    0    0    0  0.00000000000E+00  0.00000000000E+00  0.18250000000E+03  0.18250000000E+03  0.00000000000E+00 0.  1.
         11   -1    0    0    0    0 -0.00000000000E+00 -0.00000000000E+00 -0.18250000000E+03  0.18250000000E+03  0.00000000000E+00 0.  1.
        -11    1    1    2    0    0  0.40715252459E+01  0.82139274711E+01  0.16414131268E+03  0.16439713030E+03  0.00000000000E+00 0.  1.
         11    1    1    2    0    0 -0.36104026467E+01  0.26628227774E+01 -0.17618112436E+03  0.17623823142E+03  0.00000000000E+00 0.  1.
        -15    1    1    2    0    0 -0.90596533665E+01 -0.42682156161E+01  0.52387681600E+01  0.11441040359E+02  0.17770000000E+01 0. -1.
         15    1    1    2    0    0  0.85985307674E+01 -0.66085346324E+01  0.68010435217E+01  0.12923597925E+02  0.17770000000E+01 0.  1.
</event>
<event>
 6    1  0.1059789E-002  0.1686080E+03  0.7546771E-02  0.1080084E+00
        -11   -1    0    0    0    0  0.00000000000E+00  0.00000000000E+00  0.18250000000E+03  0.18250000000E+03  0.00000000000E+00 0. -1.
         11   -1    0    0    0    0 -0.00000000000E+00 -0.00000000000E+00 -0.18250000000E+03  0.18250000000E+03  0.00000000000E+00 0.  1.
        -11    1    1    2    0    0  0.60394582622E+01 -0.30465102472E+01  0.16801246359E+03  0.16814857776E+03  0.00000000000E+00 0. -1.
         11    1    1    2    0    0 -0.25174243064E+01 -0.16495547908E+01 -0.16909353301E+03  0.16912031623E+03  0.00000000000E+00 0.  1.
        -15    1    1    2    0    0  0.56064766490E+01 -0.69195167157E+01  0.72528231863E+01  0.11622111046E+02  0.17770000000E+01 0. -1.
         15    1    1    2    0    0 -0.91285106048E+01  0.11615581754E+02 -0.61717537697E+01  0.16108994970E+02  0.17770000000E+01 0.  1.
</event>
<event>
 6    1  0.1059789E-002  0.1831726E+03  0.7546771E-02  0.1067921E+00
        -11   -1    0    0    0    0  0.00000000000E+00  0.00000000000E+00  0.18250000000E+03  0.18250000000E+03  0.00000000000E+00 0.  1.
         11   -1    0    0    0    0 -0.00000000000E+00 -0.00000000000E+00 -0.18250000000E+03  0.18250000000E+03  0.00000000000E+00 0.  1.
        -11    1    1    2    0    0 -0.19494273165E+01 -0.11453153902E+01  0.15642603743E+03  0.15644237661E+03  0.00000000000E+00 0.  1.
         11    1    1    2    0    0  0.92171747451E+00 -0.40783994972E+01 -0.18177930709E+03  0.18182738900E+03  0.00000000000E+00 0.  1.
        -15    1    1    2    0    0 -0.11783265693E+01  0.32410875079E+01  0.65581443410E+01  0.76197170508E+01  0.17770000000E+01 0.  1.
         15    1    1    2    0    0  0.22060364113E+01  0.19826273795E+01  0.18795125323E+02  0.19110517337E+02  0.17770000000E+01 0.  1.
</event>
<event>
 6    1  0.1059789E-002  0.1831859E+03  0.7546771E-02  0.1067910E+00
        -11   -1    0    0    0    0  0.00000000000E+00  0.00000000000E+00  0.18250000000E+03  0.18250000000E+03  0.00000000000E+00 0.  1.
         11   -1    0    0    0    0 -0.00000000000E+00 -0.00000000000E+00 -0.18250000000E+03  0.18250000000E+03  0.00000000000E+00 0. -1.
        -11    1    1    2    0    0 -0.73352794523E+00  0.22753198214E+01  0.15454572434E+03  0.15456421337E+03  0.00000000000E+00 0.  1.
         11    1    1    2    0    0 -0.38471074168E+01  0.23163378351E+01 -0.18175866367E+03  0.18181412893E+03  0.00000000000E+00 0. -1.
        -15    1    1    2    0    0 -0.18026576126E+00 -0.30581697283E+01  0.11823536720E+02  0.12342554331E+02  0.17770000000E+01 0.  1.
         15    1    1    2    0    0  0.47609011233E+01 -0.15334879282E+01  0.15389402615E+02  0.16279103372E+02  0.17770000000E+01 0.  1.
</event>
<event>
 6    1  0.1059789E-002  0.1826654E+03  0.7546771E-02  0.1068323E+00
        -11   -1    0    0    0    0  0.00000000000E+00  0.00000000000E+00  0.18250000000E+03  0.18250000000E+03  0.00000000000E+00 0. -1.
         11   -1    0    0    0    0 -0.00000000000E+00 -0.00000000000E+00 -0.18250000000E+03  0.18250000000E+03  0.00000000000E+00 0. -1.
        -11    1    1    2    0    0  0.61860469304E+00 -0.96658718182E+00  0.50167046316E+02  0.50180170373E+02  0.00000000000E+00 0. -1.
         11    1    1    2    0    0 -0.29327037695E+01 -0.56280895193E-01 -0.18231099494E+03  0.18233459023E+03  0.00000000000E+00 0. -1.
        -15    1    1    2    0    0  0.49661695542E+01  0.10741480902E+01  0.52030615322E+02  0.52308309989E+02  0.17770000000E+01 0. -1.
         15    1    1    2    0    0 -0.26520704777E+01 -0.51280013150E-01  0.80113333301E+02  0.80176929407E+02  0.17770000000E+01 0. -1.
</event>
<event>
 6    1  0.1059789E-002  0.1828763E+03  0.7546771E-02  0.1068156E+00
        -11   -1    0    0    0    0  0.00000000000E+00  0.00000000000E+00  0.18250000000E+03  0.18250000000E+03  0.00000000000E+00 0.  1.
         11   -1    0    0    0    0 -0.00000000000E+00 -0.00000000000E+00 -0.18250000000E+03  0.18250000000E+03  0.00000000000E+00 0. -1.
        -11    1    1    2    0    0  0.17470403325E+01  0.39316663601E+01  0.18207291016E+03  0.18212373477E+03  0.00000000000E+00 0.  1.
         11    1    1    2    0    0 -0.76276086870E+00  0.28185700471E+01 -0.13138194587E+03  0.13141438978E+03  0.00000000000E+00 0. -1.
        -15    1    1    2    0    0 -0.18519700445E+01 -0.60380979749E+01 -0.32951379109E+02  0.33598207309E+02  0.17770000000E+01 0. -1.
         15    1    1    2    0    0  0.86769058073E+00 -0.71213843226E+00 -0.17739585181E+02  0.17863668142E+02  0.17770000000E+01 0. -1.
</event>
<event>
 6    1  0.1059789E-002  0.1839268E+03  0.7546771E-02  0.1067325E+00
        -11   -1    0    0    0    0  0.00000000000E+00  0.00000000000E+00  0.18250000000E+03  0.18250000000E+03  0.00000000000E+00 0. -1.
         11   -1    0    0    0    0 -0.00000000000E+00 -0.00000000000E+00 -0.18250000000E+03  0.18250000000E+03  0.00000000000E+00 0.  1.
        -11    1    1    2    0    0 -0.18860493779E+01 -0.56919395339E+01  0.18097390837E+03  0.18107321963E+03  0.00000000000E+00 0. -1.
         11    1    1    2    0    0 -0.28217754767E+01 -0.17978852086E+01 -0.15279267649E+03  0.15282930608E+03  0.00000000000E+00 0.  1.
        -15    1    1    2    0    0  0.22344693822E+01  0.52025842207E+01 -0.54756758514E+01  0.80746821004E+01  0.17770000000E+01 0.  1.
         15    1    1    2    0    0  0.24733554724E+01  0.22872405217E+01 -0.22705556029E+02  0.23022792187E+02  0.17770000000E+01 0. -1.
</event>
<event>
 6    1  0.1059789E-002  0.1856722E+03  0.7546771E-02  0.1065957E+00
        -11   -1    0    0    0    0  0.00000000000E+00  0.00000000000E+00  0.18250000000E+03  0.18250000000E+03  0.00000000000E+00 0. -1.
         11   -1    0    0    0    0 -0.00000000000E+00 -0.00000000000E+00 -0.18250000000E+03  0.18250000000E+03  0.00000000000E+00 0.  1.
        -11    1    1    2    0    0 -0.55720093417E+00 -0.23505177686E+01  0.16883267772E+03  0.16884995846E+03  0.00000000000E+00 0. -1.
         11    1    1    2    0    0  0.26908204588E+01  0.13670240293E+01 -0.17930244125E+03  0.17932784141E+03  0.00000000000E+00 0.  1.
        -15    1    1    2    0    0 -0.13448428186E+00  0.14875078390E+01  0.12939995553E+02  0.13146557706E+02  0.17770000000E+01 0. -1.
         15    1    1    2    0    0 -0.19991352428E+01 -0.50401409972E+00 -0.24702320263E+01  0.36756424194E+01  0.17770000000E+01 0. -1.
</event>
<event>
 6    1  0.1059789E-002  0.1839588E+03  0.7546771E-02  0.1067300E+00
        -11   -1    0    0    0    0  0.00000000000E+00  0.00000000000E+00  0.18250000000E+03  0.18250000000E+03  0.00000000000E+00 0.  1.
         11   -1    0    0    0    0 -0.00000000000E+00 -0.00000000000E+00 -0.18250000000E+03  0.18250000000E+03  0.00000000000E+00 0.  1.
        -11    1    1    2    0    0  0.59820183382E+01  0.41086235651E+01  0.18089569968E+03  0.18104120938E+03  0.00000000000E+00 0.  1.
         11    1    1    2    0    0  0.16183825305E+01  0.19660021553E+01 -0.10641667719E+03  0.10644713951E+03  0.00000000000E+00 0.  1.
        -15    1    1    2    0    0 -0.10850389036E+02  0.21970124222E+01 -0.53439951385E+02  0.54603515811E+02  0.17770000000E+01 0.  1.
         15    1    1    2    0    0  0.32499881675E+01 -0.82716381426E+01 -0.21039071109E+02  0.22908135297E+02  0.17770000000E+01 0. -1.
</event>
<event>
 6    1  0.1153531E-002  0.2057470E+03  0.7546771E-02  0.1051322E+00
        -11   -1    0    0    0    0  0.00000000000E+00  0.00000000000E+00  0.18250000000E+03  0.18250000000E+03  0.00000000000E+00 0. -1.
         11   -1    0    0    0    0 -0.00000000000E+00 -0.00000000000E+00 -0.18250000000E+03  0.18250000000E+03  0.00000000000E+00 0. -1.
        -11    1    1    2    0    0  0.97972826264E+01 -0.70509722503E+01  0.43438111817E+02  0.45084060540E+02  0.00000000000E+00 0. -1.
         11    1    1    2    0    0  0.14429320474E+01 -0.67238597316E+01 -0.15910442314E+03  0.15925297424E+03  0.00000000000E+00 0. -1.
        -15    1    1    2    0    0 -0.14543865488E+02  0.11807656351E+02  0.13731774031E+03  0.13860109778E+03  0.17770000000E+01 0. -1.
         15    1    1    2    0    0  0.33036508143E+01  0.19671756307E+01 -0.21651428987E+02  0.22061867438E+02  0.17770000000E+01 0.  1.
</event>
<event>
 6    1  0.1059789E-002  0.1831199E+03  0.7546771E-02  0.1067962E+00
        -11   -1    0    0    0    0  0.00000000000E+00  0.00000000000E+00  0.18250000000E+03  0.18250000000E+03  0.00000000000E+00 0.  1.
         11   -1    0    0    0    0 -0.00000000000E+00 -0.00000000000E+00 -0.18250000000E+03  0.18250000000E+03  0.00000000000E+00 0.  1.
        -11    1    1    2    0    0 -0.25286916155E+00  0.25726386586E+01  0.18186169471E+03  0.18188006602E+03  0.00000000000E+00 0.  1.
         11    1    1    2    0    0 -0.10829630997E+01  0.20343609902E+01 -0.16001762331E+03  0.16003421885E+03  0.00000000000E+00 0.  1.
        -15    1    1    2    0    0  0.22258200415E+01 -0.43712427987E+01 -0.18142224060E+02  0.18877501458E+02  0.17770000000E+01 0. -1.
         15    1    1    2    0    0 -0.88998778026E+00 -0.23575685011E+00 -0.37018473414E+01  0.42082136686E+01  0.17770000000E+01 0. -1.
</event>
<event>
 6    1  0.1059789E-002  0.1874210E+03  0.7546771E-02  0.1064604E+00
        -11   -1    0    0    0    0  0.00000000000E+00  0.00000000000E+00  0.18250000000E+03  0.18250000000E+03  0.00000000000E+00 0. -1.
         11   -1    0    0    0    0 -0.00000000000E+00 -0.00000000000E+00 -0.18250000000E+03  0.18250000000E+03  0.00000000000E+00 0. -1.
        -11    1    1    2    0    0 -0.24585560264E+01 -0.57287687989E+00  0.17048817142E+03  0.17050685992E+03  0.00000000000E+00 0. -1.
         11    1    1    2    0    0 -0.19463831041E+01 -0.20020679325E+01 -0.17755706758E+03  0.17757902166E+03  0.00000000000E+00 0. -1.
        -15    1    1    2    0    0  0.16068517796E+01 -0.19275312323E+01  0.10097647165E+02  0.10555451510E+02  0.17770000000E+01 0.  1.
         15    1    1    2    0    0  0.27980873510E+01  0.45024760447E+01 -0.30287509975E+01  0.63586669170E+01  0.17770000000E+01 0.  1.
</event>
<event>
 6    1  0.1059789E-002  0.1853497E+03  0.7546771E-02  0.1066209E+00
        -11   -1    0    0    0    0  0.00000000000E+00  0.00000000000E+00  0.18250000000E+03  0.18250000000E+03  0.00000000000E+00 0.  1.
         11   -1    0    0    0    0 -0.00000000000E+00 -0.00000000000E+00 -0.18250000000E+03  0.18250000000E+03  0.00000000000E+00 0.  1.
        -11    1    1    2    0    0  0.27925185775E+01 -0.25792037944E+00  0.17596895853E+03  0.17599130390E+03  0.00000000000E+00 0.  1.
         11    1    1    2    0    0  0.20074559605E+01  0.15322770317E+01 -0.17963258902E+03  0.17965034036E+03  0.00000000000E+00 0.  1.
        -15    1    1    2    0    0 -0.17409590899E+01 -0.18492775452E+01  0.46975506458E+01  0.56280971084E+01  0.17770000000E+01 0. -1.
         15    1    1    2    0    0 -0.30590154481E+01  0.57492089293E+00 -0.10339201533E+01  0.37302586275E+01  0.17770000000E+01 0.  1.
</event>
<event>
 6    1  0.1059789E-002  0.1849831E+03  0.7546771E-02  0.1066495E+00
        -11   -1    0    0    0    0  0.00000000000E+00  0.00000000000E+00  0.18250000000E+03  0.18250000000E+03  0.00000000000E+00 0. -1.
         11   -1    0    0    0    0 -0.00000000000E+00 -0.00000000000E+00 -0.18250000000E+03  0.18250000000E+03  0.00000000000E+00 0.  1.
        -11    1    1    2    0    0 -0.19317994567E+01 -0.18709850603E+01  0.17999677393E+03  0.18001686327E+03  0.00000000000E+00 0. -1.
         11    1    1    2    0    0 -0.17947829731E+01 -0.19840885321E+01 -0.17172734536E+03  0.17174818485E+03  0.00000000000E+00 0.  1.
        -15    1    1    2    0    0 -0.13624631602E+01  0.30230581311E+01 -0.57837394148E+00  0.38062359022E+01  0.17770000000E+01 0.  1.
         15    1    1    2    0    0  0.50890455900E+01  0.83201546136E+00 -0.76910546321E+01  0.94287159836E+01  0.17770000000E+01 0. -1.
</event>
<event>
 6    1  0.1059789E-002  0.1842327E+03  0.7546771E-02  0.1067084E+00
        -11   -1    0    0    0    0  0.00000000000E+00  0.00000000000E+00  0.18250000000E+03  0.18250000000E+03  0.00000000000E+00 0. -1.
         11   -1    0    0    0    0 -0.00000000000E+00 -0.00000000000E+00 -0.18250000000E+03  0.18250000000E+03  0.00000000000E+00 0.  1.
        -11    1    1    2    0    0 -0.83388732309E-01 -0.74900525684E+00  0.48569370178E+02  0.48575216747E+02  0.00000000000E+00 0. -1.
         11    1    1    2    0    0  0.42688134399E+01 -0.52061411457E+01 -0.18064193017E+03  0.18076734664E+03  0.00000000000E+00 0.  1.
        -15    1    1    2    0    0 -0.18346428727E+01  0.50476948953E+01  0.13243234234E+03  0.13255311450E+03  0.17770000000E+01 0. -1.
         15    1    1    2    0    0 -0.23507818349E+01  0.90745150723E+00 -0.35978234161E+00  0.31043221171E+01  0.17770000000E+01 0.  1.
</event>
<event>
 6    1  0.1059789E-002  0.1839766E+03  0.7546771E-02  0.1067285E+00
        -11   -1    0    0    0    0  0.00000000000E+00  0.00000000000E+00  0.18250000000E+03  0.18250000000E+03  0.00000000000E+00 0. -1.
         11   -1    0    0    0    0 -0.00000000000E+00 -0.00000000000E+00 -0.18250000000E+03  0.18250000000E+03  0.00000000000E+00 0.  1.
        -11    1    1    2    0    0 -0.22273132181E+01  0.45316668338E+01  0.15856446549E+03  0.15864484437E+03  0.00000000000E+00 0. -1.
         11    1    1    2    0    0  0.32644898855E+01 -0.43034086630E+01 -0.18094275864E+03  0.18102336347E+03  0.00000000000E+00 0.  1.
        -15    1    1    2    0    0  0.15501881575E+00  0.36693608803E+01  0.21328030078E+01  0.46037829850E+01  0.17770000000E+01 0. -1.
         15    1    1    2    0    0 -0.11921954831E+01 -0.38976190511E+01  0.20245490142E+02  0.20728009176E+02  0.17770000000E+01 0.  1.
</event>
<event>
 6    1  0.1059789E-002  0.1838274E+03  0.7546771E-02  0.1067403E+00
        -11   -1    0    0    0    0  0.00000000000E+00  0.00000000000E+00  0.18250000000E+03  0.18250000000E+03  0.00000000000E+00 0. -1.
         11   -1    0    0    0    0 -0.00000000000E+00 -0.00000000000E+00 -0.18250000000E+03  0.18250000000E+03  0.00000000000E+00 0. -1.
        -11    1    1    2    0    0 -0.45066564465E+01 -0.52992233318E+00  0.18111578566E+03  0.18117262096E+03  0.00000000000E+00 0. -1.
         11    1    1    2    0    0 -0.94691404327E+00  0.18959616489E+01 -0.14016027817E+03  0.14017629933E+03  0.00000000000E+00 0. -1.
        -15    1    1    2    0    0  0.35428020298E+01 -0.73196022483E+01 -0.27040541874E+02  0.28292696180E+02  0.17770000000E+01 0. -1.
         15    1    1    2    0    0  0.19107684599E+01  0.59535629326E+01 -0.13914965610E+02  0.15358383529E+02  0.17770000000E+01 0.  1.
</event>
<event>
 6    1  0.1059789E-002  0.1911987E+03  0.7546771E-02  0.1061734E+00
        -11   -1    0    0    0    0  0.00000000000E+00  0.00000000000E+00  0.18250000000E+03  0.18250000000E+03  0.00000000000E+00 0. -1.
         11   -1    0    0    0    0 -0.00000000000E+00 -0.00000000000E+00 -0.18250000000E+03  0.18250000000E+03  0.00000000000E+00 0. -1.
        -11    1    1    2    0    0  0.22744211685E+01 -0.14279371313E+01  0.16700692773E+03  0.16702851825E+03  0.00000000000E+00 0. -1.
         11    1    1    2    0    0 -0.38639121083E+01  0.21880932557E+01 -0.17374456522E+03  0.17380129894E+03  0.00000000000E+00 0. -1.
        -15    1    1    2    0    0 -0.62868190942E+01 -0.39813749769E+01 -0.53105940259E+01  0.93131938098E+01  0.17770000000E+01 0. -1.
         15    1    1    2    0    0  0.78763100341E+01  0.32212188526E+01  0.12048231514E+02  0.14856989004E+02  0.17770000000E+01 0.  1.
</event>
<event>
 6    1  0.1059789E-002  0.1836373E+03  0.7546771E-02  0.1067553E+00
        -11   -1    0    0    0    0  0.00000000000E+00  0.00000000000E+00  0.18250000000E+03  0.18250000000E+03  0.00000000000E+00 0. -1.
         11   -1    0    0    0    0 -0.00000000000E+00 -0.00000000000E+00 -0.18250000000E+03  0.18250000000E+03  0.00000000000E+00 0. -1.
        -11    1    1    2    0    0  0.59929890768E+01  0.82709565784E+01  0.10271439070E+03  0.10322097993E+03  0.00000000000E+00 0. -1.
         11    1    1    2    0    0 -0.12410222455E+00  0.26264100195E+01 -0.18134365177E+03  0.18136271246E+03  0.00000000000E+00 0. -1.
        -15    1    1    2    0    0 -0.55216927357E+01 -0.28225398899E+01  0.16138683183E+02  0.17380179688E+02  0.17770000000E+01 0.  1.
         15    1    1    2    0    0 -0.34719411657E+00 -0.80748267081E+01  0.62490577893E+02  0.63036127931E+02  0.17770000000E+01 0. -1.
</event>
<event>
 6    1  0.1059789E-002  0.1831412E+03  0.7546771E-02  0.1067946E+00
        -11   -1    0    0    0    0  0.00000000000E+00  0.00000000000E+00  0.18250000000E+03  0.18250000000E+03  0.00000000000E+00 0.  1.
         11   -1    0    0    0    0 -0.00000000000E+00 -0.00000000000E+00 -0.18250000000E+03  0.18250000000E+03  0.00000000000E+00 0.  1.
        -11    1    1    2    0    0 -0.18613330191E+01 -0.30178160572E+00  0.11638920862E+03  0.11640448237E+03  0.00000000000E+00 0.  1.
         11    1    1    2    0    0  0.11993540809E+01  0.23315515661E+01 -0.18183987684E+03  0.18185877871E+03  0.00000000000E+00 0.  1.
        -15    1    1    2    0    0  0.20084961479E+01  0.42562740001E+01  0.43641422419E+02  0.43930415488E+02  0.17770000000E+01 0. -1.
         15    1    1    2    0    0 -0.13465172097E+01 -0.62860439605E+01  0.21809245802E+02  0.22806323437E+02  0.17770000000E+01 0.  1.
</event>
<event>
 6    1  0.1059789E-002  0.1838226E+03  0.7546771E-02  0.1067407E+00
        -11   -1    0    0    0    0  0.00000000000E+00  0.00000000000E+00  0.18250000000E+03  0.18250000000E+03  0.00000000000E+00 0. -1.
         11   -1    0    0    0    0 -0.00000000000E+00 -0.00000000000E+00 -0.18250000000E+03  0.18250000000E+03  0.00000000000E+00 0. -1.
        -11    1    1    2    0    0  0.81530779770E+00 -0.26670223698E+01  0.17171348628E+03  0.17173613221E+03  0.00000000000E+00 0. -1.
         11    1    1    2    0    0 -0.61179559415E+00  0.35940508239E+01 -0.18114076400E+03  0.18117744859E+03  0.00000000000E+00 0. -1.
        -15    1    1    2    0    0 -0.86621265239E+00  0.27670062877E+01  0.45626105604E+01  0.56905001785E+01  0.17770000000E+01 0.  1.
         15    1    1    2    0    0  0.66270044883E+00 -0.36940347419E+01  0.48646671559E+01  0.63959190189E+01  0.17770000000E+01 0.  1.
</event>
<event>
 6    1  0.1059789E-002  0.2164967E+03  0.7546771E-02  0.1044214E+00
        -11   -1    0    0    0    0  0.00000000000E+00  0.00000000000E+00  0.18250000000E+03  0.18250000000E+03  0.00000000000E+00 0. -1.
         11   -1    0    0    0    0 -0.00000000000E+00 -0.00000000000E+00 -0.18250000000E+03  0.18250000000E+03  0.00000000000E+00 0. -1.
        -11    1    1    2    0    0 -0.10016205802E+02  0.83041949066E+01  0.79504634880E+02  0.80562218187E+02  0.00000000000E+00 0. -1.
         11    1    1    2    0    0  0.48946734266E+02 -0.11854530933E+02 -0.13970298962E+03  0.14850332659E+03  0.00000000000E+00 0. -1.
        -15    1    1    2    0    0 -0.62874782218E+02 -0.23066550564E+02  0.71853178320E+02  0.98241238579E+02  0.17770000000E+01 0. -1.
         15    1    1    2    0    0  0.23944253755E+02  0.26616886590E+02 -0.11654823583E+02  0.37693216649E+02  0.17770000000E+01 0.  1.
</event>
<event>
 6    1  0.1059789E-002  0.1836482E+03  0.7546771E-02  0.1067545E+00
        -11   -1    0    0    0    0  0.00000000000E+00  0.00000000000E+00  0.18250000000E+03  0.18250000000E+03  0.00000000000E+00 0. -1.
         11   -1    0    0    0    0 -0.00000000000E+00 -0.00000000000E+00 -0.18250000000E+03  0.18250000000E+03  0.00000000000E+00 0. -1.
        -11    1    1    2    0    0  0.63592668458E+01  0.12571846424E+01  0.18123591014E+03  0.18135180151E+03  0.00000000000E+00 0. -1.
         11    1    1    2    0    0  0.53002996756E+00  0.12084959916E+01 -0.76327935039E+02  0.76339341506E+02  0.00000000000E+00 0. -1.
        -15    1    1    2    0    0 -0.57665434972E+01 -0.45245740917E+01 -0.10393724519E+03  0.10421052471E+03  0.17770000000E+01 0.  1.
         15    1    1    2    0    0 -0.11227533161E+01  0.20588934577E+01 -0.97072991621E+00  0.30983322690E+01  0.17770000000E+01 0. -1.
</event>
<event>
 6    1  0.1059789E-002  0.1829493E+03  0.7546771E-02  0.1068098E+00
        -11   -1    0    0    0    0  0.00000000000E+00  0.00000000000E+00  0.18250000000E+03  0.18250000000E+03  0.00000000000E+00 0.  1.
         11   -1    0    0    0    0 -0.00000000000E+00 -0.00000000000E+00 -0.18250000000E+03  0.18250000000E+03  0.00000000000E+00 0.  1.
        -11    1    1    2    0    0  0.35727215218E+01  0.15868521946E+01  0.18200874134E+03  0.18205071921E+03  0.00000000000E+00 0.  1.
         11    1    1    2    0    0 -0.14058162635E+01 -0.19170764776E+01 -0.98233106534E+02  0.98261868092E+02  0.00000000000E+00 0.  1.
        -15    1    1    2    0    0  0.56589103226E+00  0.44109461271E+01 -0.65646293557E+02  0.65820743426E+02  0.17770000000E+01 0. -1.
         15    1    1    2    0    0 -0.27327962905E+01 -0.40807218441E+01 -0.18129341251E+02  0.18866669275E+02  0.17770000000E+01 0.  1.
</event>
<event>
 6    1  0.1059789E-002  0.1873813E+03  0.7546771E-02  0.1064634E+00
        -11   -1    0    0    0    0  0.00000000000E+00  0.00000000000E+00  0.18250000000E+03  0.18250000000E+03  0.00000000000E+00 0.  1.
         11   -1    0    0    0    0 -0.00000000000E+00 -0.00000000000E+00 -0.18250000000E+03  0.18250000000E+03  0.00000000000E+00 0. -1.
        -11    1    1    2    0    0 -0.18610145496E+01 -0.12595041222E+01  0.16320664615E+03  0.16322211577E+03  0.00000000000E+00 0.  1.
         11    1    1    2    0    0  0.17766704060E+01 -0.69536248840E+01 -0.17747365609E+03  0.17761871540E+03  0.00000000000E+00 0. -1.
        -15    1    1    2    0    0 -0.32550833442E+01  0.38962280524E+01 -0.28627318109E+01  0.60933671344E+01  0.17770000000E+01 0. -1.
         15    1    1    2    0    0  0.33394274877E+01  0.43169009539E+01  0.17129741743E+02  0.18065801697E+02  0.17770000000E+01 0. -1.
</event>
<event>
 6    1  0.1059789E-002  0.1830909E+03  0.7546771E-02  0.1067985E+00
        -11   -1    0    0    0    0  0.00000000000E+00  0.00000000000E+00  0.18250000000E+03  0.18250000000E+03  0.00000000000E+00 0. -1.
         11   -1    0    0    0    0 -0.00000000000E+00 -0.00000000000E+00 -0.18250000000E+03  0.18250000000E+03  0.00000000000E+00 0. -1.
        -11    1    1    2    0    0 -0.74744676016E+00 -0.18342061894E+01  0.13988912251E+03  0.13990314358E+03  0.00000000000E+00 0. -1.
         11    1    1    2    0    0  0.31848081920E+01 -0.24012508776E+01 -0.18186536748E+03  0.18190910065E+03  0.00000000000E+00 0. -1.
        -15    1    1    2    0    0 -0.42812118264E+01 -0.54764384239E+00  0.21856221425E+02  0.22349067821E+02  0.17770000000E+01 0.  1.
         15    1    1    2    0    0  0.18438503946E+01  0.47831009095E+01  0.20120023552E+02  0.20838687946E+02  0.17770000000E+01 0. -1.
</event>
<event>
 6    1  0.1059789E-002  0.1827118E+03  0.7546771E-02  0.1068286E+00
        -11   -1    0    0    0    0  0.00000000000E+00  0.00000000000E+00  0.18250000000E+03  0.18250000000E+03  0.00000000000E+00 0.  1.
         11   -1    0    0    0    0 -0.00000000000E+00 -0.00000000000E+00 -0.18250000000E+03  0.18250000000E+03  0.00000000000E+00 0. -1.
        -11    1    1    2    0    0  0.11905902442E+01  0.32235552790E+01  0.18225583505E+03  0.18228822843E+03  0.00000000000E+00 0.  1.
         11    1    1    2    0    0 -0.34002706613E+01 -0.22448913737E+01 -0.12191523561E+03  0.12198330235E+03  0.00000000000E+00 0. -1.
        -15    1    1    2    0    0 -0.66316994553E+00 -0.13297068430E+01 -0.96457873952E+01  0.99200230916E+01  0.17770000000E+01 0.  1.
         15    1    1    2    0    0  0.28728503627E+01  0.35104293769E+00 -0.50694812047E+02  0.50808446127E+02  0.17770000000E+01 0. -1.
</event>
<event>
 6    1  0.1059789E-002  0.1836316E+03  0.7546771E-02  0.1067558E+00
        -11   -1    0    0    0    0  0.00000000000E+00  0.00000000000E+00  0.18250000000E+03  0.18250000000E+03  0.00000000000E+00 0. -1.
         11   -1    0    0    0    0 -0.00000000000E+00 -0.00000000000E+00 -0.18250000000E+03  0.18250000000E+03  0.00000000000E+00 0.  1.
        -11    1    1    2    0    0 -0.28479642818E+01 -0.12174691771E+01  0.68160256825E+02  0.68230592421E+02  0.00000000000E+00 0. -1.
         11    1    1    2    0    0 -0.91756174924E+01 -0.25031370526E+01 -0.18111880544E+03  0.18136835263E+03  0.00000000000E+00 0.  1.
        -15    1    1    2    0    0  0.62361199924E+01  0.90856332669E+01  0.29330751800E+02  0.31382935723E+02  0.17770000000E+01 0.  1.
         15    1    1    2    0    0  0.57874617819E+01 -0.53650270372E+01  0.83627796816E+02  0.84018119226E+02  0.17770000000E+01 0. -1.
</event>
<event>
 6    1  0.1059789E-002  0.1872976E+03  0.7546771E-02  0.1064699E+00
        -11   -1    0    0    0    0  0.00000000000E+00  0.00000000000E+00  0.18250000000E+03  0.18250000000E+03  0.00000000000E+00 0.  1.
         11   -1    0    0    0    0 -0.00000000000E+00 -0.00000000000E+00 -0.18250000000E+03  0.18250000000E+03  0.00000000000E+00 0.  1.
        -11    1    1    2    0    0 -0.88153563750E+00 -0.27607488203E+01  0.16501319609E+03  0.16503864312E+03  0.00000000000E+00 0.  1.
         11    1    1    2    0    0  0.37200333446E+01 -0.78483147141E+00 -0.17766174740E+03  0.17770242288E+03  0.00000000000E+00 0.  1.
        -15    1    1    2    0    0  0.46552718989E+01  0.26132926240E+01 -0.17593311788E+01  0.58952379077E+01  0.17770000000E+01 0.  1.
         15    1    1    2    0    0 -0.74937696060E+01  0.93228766768E+00  0.14407882490E+02  0.16363696100E+02  0.17770000000E+01 0. -1.
</event>
<event>
 6    1  0.1059789E-002  0.1884414E+03  0.7546771E-02  0.1063821E+00
        -11   -1    0    0    0    0  0.00000000000E+00  0.00000000000E+00  0.18250000000E+03  0.18250000000E+03  0.00000000000E+00 0.  1.
         11   -1    0    0    0    0 -0.00000000000E+00 -0.00000000000E+00 -0.18250000000E+03  0.18250000000E+03  0.00000000000E+00 0.  1.
        -11    1    1    2    0    0 -0.43221818261E+01 -0.26616000852E+01  0.16685290470E+03  0.16693009668E+03  0.00000000000E+00 0.  1.
         11    1    1    2    0    0  0.33000252058E+01 -0.43147618305E+00 -0.17652722107E+03  0.17655859117E+03  0.00000000000E+00 0.  1.
        -15    1    1    2    0    0 -0.40131903164E+01 -0.61862130495E+01  0.84074101298E+00  0.76314810398E+01  0.17770000000E+01 0. -1.
         15    1    1    2    0    0  0.50353469367E+01  0.92792893178E+01  0.88335753627E+01  0.13879831112E+02  0.17770000000E+01 0.  1.
</event>
<event>
 6    1  0.1059789E-002  0.1828851E+03  0.7546771E-02  0.1068149E+00
        -11   -1    0    0    0    0  0.00000000000E+00  0.00000000000E+00  0.18250000000E+03  0.18250000000E+03  0.00000000000E+00 0.  1.
         11   -1    0    0    0    0 -0.00000000000E+00 -0.00000000000E+00 -0.18250000000E+03  0.18250000000E+03  0.00000000000E+00 0. -1.
        -11    1    1    2    0    0 -0.16565596470E+01 -0.27891261579E+01  0.18208604137E+03  0.18211493589E+03  0.00000000000E+00 0.  1.
         11    1    1    2    0    0 -0.66443968885E+00  0.35512817996E+01 -0.14266981476E+03  0.14271555321E+03  0.00000000000E+00 0. -1.
        -15    1    1    2    0    0  0.44052806725E-01 -0.32970175421E+01 -0.23454188607E+02  0.23751399065E+02  0.17770000000E+01 0.  1.
         15    1    1    2    0    0  0.22769465291E+01  0.25348619004E+01 -0.15962037994E+02  0.16418111836E+02  0.17770000000E+01 0.  1.
</event>
<event>
 6    1  0.1059789E-002  0.1844430E+03  0.7546771E-02  0.1066919E+00
        -11   -1    0    0    0    0  0.00000000000E+00  0.00000000000E+00  0.18250000000E+03  0.18250000000E+03  0.00000000000E+00 0.  1.
         11   -1    0    0    0    0 -0.00000000000E+00 -0.00000000000E+00 -0.18250000000E+03  0.18250000000E+03  0.00000000000E+00 0.  1.
        -11    1    1    2    0    0  0.22761067356E+01  0.40789184143E+01  0.18049654240E+03  0.18055697177E+03  0.00000000000E+00 0.  1.
         11    1    1    2    0    0 -0.39240631420E+01  0.24236945325E+01 -0.16726122827E+03  0.16732480703E+03  0.00000000000E+00 0.  1.
        -15    1    1    2    0    0  0.31103511244E+01 -0.41121176286E+01 -0.12613819528E+02  0.13742269376E+02  0.17770000000E+01 0. -1.
         15    1    1    2    0    0 -0.14623947179E+01 -0.23904953183E+01 -0.62149460403E+00  0.33759518244E+01  0.17770000000E+01 0.  1.
</event>
<event>
 6    1  0.1059789E-002  0.1877034E+03  0.7546771E-02  0.1064387E+00
        -11   -1    0    0    0    0  0.00000000000E+00  0.00000000000E+00  0.18250000000E+03  0.18250000000E+03  0.00000000000E+00 0.  1.
         11   -1    0    0    0    0 -0.00000000000E+00 -0.00000000000E+00 -0.18250000000E+03  0.18250000000E+03  0.00000000000E+00 0. -1.
        -11    1    1    2    0    0  0.45799767336E+01  0.28049482199E+01  0.17721525827E+03  0.17729662062E+03  0.00000000000E+00 0.  1.
         11    1    1    2    0    0  0.28633709322E+01  0.10162186401E+00 -0.11156208497E+03  0.11159887106E+03  0.00000000000E+00 0. -1.
        -15    1    1    2    0    0 -0.26107048992E+01 -0.12464699656E+02 -0.39472406839E+01  0.13450760410E+02  0.17770000000E+01 0.  1.
         15    1    1    2    0    0 -0.48326427667E+01  0.95581295721E+01 -0.61705932617E+02  0.62653747902E+02  0.17770000000E+01 0. -1.
</event>
<event>
 6    1  0.1059789E-002  0.1858573E+03  0.7546771E-02  0.1065813E+00
        -11   -1    0    0    0    0  0.00000000000E+00  0.00000000000E+00  0.18250000000E+03  0.18250000000E+03  0.00000000000E+00 0. -1.
         11   -1    0    0    0    0 -0.00000000000E+00 -0.00000000000E+00 -0.18250000000E+03  0.18250000000E+03  0.00000000000E+00 0.  1.
        -11    1    1    2    0    0  0.25742596229E+01  0.20673863162E+01  0.17911227349E+03  0.17914270126E+03  0.00000000000E+00 0. -1.
         11    1    1    2    0    0 -0.41502448164E+01  0.10674308879E-01 -0.16142208924E+03  0.16147543324E+03  0.00000000000E+00 0.  1.
        -15    1    1    2    0    0  0.46666012149E+01  0.43922131809E+01 -0.18485887545E+01  0.69024425321E+01  0.17770000000E+01 0. -1.
         15    1    1    2    0    0 -0.30906160214E+01 -0.64702738060E+01 -0.15841595493E+02  0.17479422968E+02  0.17770000000E+01 0. -1.
</event>
<event>
 6    1  0.1059789E-002  0.1825889E+03  0.7546771E-02  0.1068384E+00
        -11   -1    0    0    0    0  0.00000000000E+00  0.00000000000E+00  0.18250000000E+03  0.18250000000E+03  0.00000000000E+00 0.  1.
         11   -1    0    0    0    0 -0.00000000000E+00 -0.00000000000E+00 -0.18250000000E+03  0.18250000000E+03  0.00000000000E+00 0.  1.
        -11    1    1    2    0    0  0.80647481747E+00  0.25258546213E+01  0.73581092774E+02  0.73628850032E+02  0.00000000000E+00 0.  1.
         11    1    1    2    0    0  0.39795844178E+01 -0.44634893333E+01 -0.18231301557E+03  0.18241106182E+03  0.00000000000E+00 0.  1.
        -15    1    1    2    0    0 -0.35644705497E+01  0.29700476466E+00  0.47253482313E+02  0.47421967292E+02  0.17770000000E+01 0.  1.
         15    1    1    2    0    0 -0.12215886856E+01  0.16406299473E+01  0.61478440480E+02  0.61538120856E+02  0.17770000000E+01 0. -1.
</event>
<event>
 6    1  0.1059789E-002  0.1879455E+03  0.7546771E-02  0.1064201E+00
        -11   -1    0    0    0    0  0.00000000000E+00  0.00000000000E+00  0.18250000000E+03  0.18250000000E+03  0.00000000000E+00 0. -1.
         11   -1    0    0    0    0 -0.00000000000E+00 -0.00000000000E+00 -0.18250000000E+03  0.18250000000E+03  0.00000000000E+00 0. -1.
        -11    1    1    2    0    0 -0.32276588128E+01  0.12785322479E+00  0.17702504943E+03  0.17705451775E+03  0.00000000000E+00 0. -1.
         11    1    1    2    0    0 -0.80350751629E+01  0.10196472682E+02 -0.13898647960E+03  0.13959144673E+03  0.00000000000E+00 0. -1.
        -15    1    1    2    0    0  0.98934220161E+01 -0.10575692423E+02 -0.41629586739E+02  0.44112416511E+02  0.17770000000E+01 0. -1.
         15    1    1    2    0    0  0.13693119596E+01  0.25136651607E+00  0.35910169098E+01  0.42416190087E+01  0.17770000000E+01 0.  1.
</event>
<event>
 6    1  0.1059789E-002  0.1854705E+03  0.7546771E-02  0.1066115E+00
        -11   -1    0    0    0    0  0.00000000000E+00  0.00000000000E+00  0.18250000000E+03  0.18250000000E+03  0.00000000000E+00 0. -1.
         11   -1    0    0    0    0 -0.00000000000E+00 -0.00000000000E+00 -0.18250000000E+03  0.18250000000E+03  0.00000000000E+00 0.  1.
        -11    1    1    2    0    0  0.31722843315E+01 -0.11007428730E+02  0.15883797135E+03  0.15925051968E+03  0.00000000000E+00 0. -1.
         11    1    1    2    0    0 -0.79337860829E+01  0.48386654849E+01 -0.17928877964E+03  0.17952945204E+03  0.00000000000E+00 0.  1.
        -15    1    1    2    0    0 -0.13748763625E+01  0.70679288438E+01  0.17729348235E+02  0.19218049354E+02  0.17770000000E+01 0. -1.
         15    1    1    2    0    0  0.61363781139E+01 -0.89916559849E+00  0.27214600519E+01  0.70019789306E+01  0.17770000000E+01 0.  1.
</event>
<event>
 6    1  0.1059789E-002  0.1839937E+03  0.7546771E-02  0.1067272E+00
        -11   -1    0    0    0    0  0.00000000000E+00  0.00000000000E+00  0.18250000000E+03  0.18250000000E+03  0.00000000000E+00 0. -1.
         11   -1    0    0    0    0 -0.00000000000E+00 -0.00000000000E+00 -0.18250000000E+03  0.18250000000E+03  0.00000000000E+00 0. -1.
        -11    1    1    2    0    0  0.81084917481E+01  0.93647889509E+01  0.18058188873E+03  0.18100625804E+03  0.00000000000E+00 0. -1.
         11    1    1    2    0    0  0.25564778929E+01 -0.14712292149E+01 -0.93316760054E+02  0.93363364344E+02  0.00000000000E+00 0. -1.
        -15    1    1    2    0    0  0.35874151843E+01 -0.68574482173E+01 -0.15290594528E+02  0.17229455992E+02  0.17770000000E+01 0. -1.
         15    1    1    2    0    0 -0.14252384825E+02 -0.10361115188E+01 -0.71974534151E+02  0.73400921626E+02  0.17770000000E+01 0.  1.
</event>
<event>
 6    1  0.1059789E-002  0.1838224E+03  0.7546771E-02  0.1067407E+00
        -11   -1    0    0    0    0  0.00000000000E+00  0.00000000000E+00  0.18250000000E+03  0.18250000000E+03  0.00000000000E+00 0.  1.
         11   -1    0    0    0    0 -0.00000000000E+00 -0.00000000000E+00 -0.18250000000E+03  0.18250000000E+03  0.00000000000E+00 0. -1.
        -11    1    1    2    0    0 -0.99615649566E+01  0.84606211449E+00  0.18090151740E+03  0.18117755820E+03  0.00000000000E+00 0.  1.
         11    1    1    2    0    0 -0.83110877702E+01  0.18941670011E+01 -0.58558528082E+02  0.59175698219E+02  0.00000000000E+00 0. -1.
        -15    1    1    2    0    0  0.32496276176E+01 -0.19606463488E+01 -0.70801349976E+02  0.70925264196E+02  0.17770000000E+01 0.  1.
         15    1    1    2    0    0  0.15023025109E+02 -0.77958276677E+00 -0.51541639340E+02  0.53721479388E+02  0.17770000000E+01 0. -1.
</event>
<event>
 6    1  0.1059789E-002  0.1926573E+03  0.7546771E-02  0.1060645E+00
        -11   -1    0    0    0    0  0.00000000000E+00  0.00000000000E+00  0.18250000000E+03  0.18250000000E+03  0.00000000000E+00 0.  1.
         11   -1    0    0    0    0 -0.00000000000E+00 -0.00000000000E+00 -0.18250000000E+03  0.18250000000E+03  0.00000000000E+00 0.  1.
        -11    1    1    2    0    0 -0.44595073395E+00 -0.12727244223E+01  0.88118977484E+02  0.88129296447E+02  0.00000000000E+00 0.  1.
         11    1    1    2    0    0 -0.12665268233E+02 -0.17069085715E+02 -0.17102704784E+03  0.17234272192E+03  0.00000000000E+00 0.  1.
        -15    1    1    2    0    0  0.25886835272E+02  0.10108668433E+02  0.93196644771E+01  0.29365409802E+02  0.17770000000E+01 0. -1.
         15    1    1    2    0    0 -0.12775616305E+02  0.82331417049E+01  0.73588405882E+02  0.75162571826E+02  0.17770000000E+01 0.  1.
</event>
<event>
 6    1  0.1059789E-002  0.1727014E+03  0.7546771E-02  0.1076534E+00
        -11   -1    0    0    0    0  0.00000000000E+00  0.00000000000E+00  0.18250000000E+03  0.18250000000E+03  0.00000000000E+00 0. -1.
         11   -1    0    0    0    0 -0.00000000000E+00 -0.00000000000E+00 -0.18250000000E+03  0.18250000000E+03  0.00000000000E+00 0. -1.
        -11    1    1    2    0    0  0.41511803548E+01 -0.96230577302E+01  0.17333617529E+03  0.17365271435E+03  0.00000000000E+00 0. -1.
         11    1    1    2    0    0  0.36005950798E+01 -0.38512908219E+01 -0.17202135440E+03  0.17210212985E+03  0.00000000000E+00 0. -1.
        -15    1    1    2    0    0 -0.53145362281E+01  0.12600077697E+02  0.27974624816E+01  0.14070884074E+02  0.17770000000E+01 0. -1.
         15    1    1    2    0    0 -0.24372392065E+01  0.87427085473E+00 -0.41122833631E+01  0.51742717299E+01  0.17770000000E+01 0. -1.
</event>
<event>
 6    1  0.1059789E-002  0.1846784E+03  0.7546771E-02  0.1066734E+00
        -11   -1    0    0    0    0  0.00000000000E+00  0.00000000000E+00  0.18250000000E+03  0.18250000000E+03  0.00000000000E+00 0.  1.
         11   -1    0    0    0    0 -0.00000000000E+00 -0.00000000000E+00 -0.18250000000E+03  0.18250000000E+03  0.00000000000E+00 0.  1.
        -11    1    1    2    0    0 -0.22161053532E+01 -0.63440082661E+00  0.10895341997E+03  0.10897780192E+03  0.00000000000E+00 0.  1.
         11    1    1    2    0    0 -0.37784768452E+01  0.57201799346E+01 -0.18019124867E+03  0.18032161114E+03  0.00000000000E+00 0.  1.
        -15    1    1    2    0    0  0.22496185132E+01 -0.58502267302E+01  0.27308823936E+01  0.70640911586E+01  0.17770000000E+01 0.  1.
         15    1    1    2    0    0  0.37449636851E+01  0.76444762222E+00  0.68506946306E+02  0.68636495790E+02  0.17770000000E+01 0.  1.
</event>
<event>
 6    1  0.2544066E-002  0.1840024E+03  0.7546771E-02  0.1067265E+00
        -11   -1    0    0    0    0  0.00000000000E+00  0.00000000000E+00  0.18250000000E+03  0.18250000000E+03  0.00000000000E+00 0. -1.
         11   -1    0    0    0    0 -0.00000000000E+00 -0.00000000000E+00 -0.18250000000E+03  0.18250000000E+03  0.00000000000E+00 0. -1.
        -11    1    1    2    0    0  0.12062126296E+01 -0.55171741628E-01  0.71468773441E+02  0.71478972922E+02  0.00000000000E+00 0. -1.
         11    1    1    2    0    0 -0.73480084825E+01 -0.75018589251E+01 -0.18069268304E+03  0.18099756026E+03  0.00000000000E+00 0. -1.
        -15    1    1    2    0    0 -0.75622373338E+00 -0.10894835938E+00  0.94168959243E+02  0.94188822893E+02  0.17770000000E+01 0. -1.
         15    1    1    2    0    0  0.68980195863E+01  0.76659790261E+01  0.15054950356E+02  0.18334643925E+02  0.17770000000E+01 0. -1.
</event>
<event>
 6    1  0.1059789E-002  0.1889806E+03  0.7546771E-02  0.1063410E+00
        -11   -1    0    0    0    0  0.00000000000E+00  0.00000000000E+00  0.18250000000E+03  0.18250000000E+03  0.00000000000E+00 0. -1.
         11   -1    0    0    0    0 -0.00000000000E+00 -0.00000000000E+00 -0.18250000000E+03  0.18250000000E+03  0.00000000000E+00 0.  1.
        -11    1    1    2    0    0  0.48152804789E+01 -0.62291821579E+00  0.16190523879E+03  0.16197802721E+03  0.00000000000E+00 0. -1.
         11    1    1    2    0    0  0.30535918522E+01  0.10487134276E+02 -0.17568014866E+03  0.17601937121E+03  0.00000000000E+00 0.  1.
        -15    1    1    2    0    0 -0.45102770257E+01 -0.78990766551E+00  0.16151559784E+02  0.16881859063E+02  0.17770000000E+01 0. -1.
         15    1    1    2    0    0 -0.33585953054E+01 -0.90743083952E+01 -0.23766499145E+01  0.10120742517E+02  0.17770000000E+01 0. -1.
</event>
<event>
 6    1  0.1059789E-002  0.1677720E+03  0.7546771E-02  0.1080823E+00
        -11   -1    0    0    0    0  0.00000000000E+00  0.00000000000E+00  0.18250000000E+03  0.18250000000E+03  0.00000000000E+00 0. -1.
         11   -1    0    0    0    0 -0.00000000000E+00 -0.00000000000E+00 -0.18250000000E+03  0.18250000000E+03  0.00000000000E+00 0. -1.
        -11    1    1    2    0    0  0.72922893629E+01 -0.59509199294E+01  0.16924244508E+03  0.16950397089E+03  0.00000000000E+00 0. -1.
         11    1    1    2    0    0 -0.44969896216E+00 -0.10914743118E+02 -0.16618850021E+03  0.16654714482E+03  0.00000000000E+00 0. -1.
        -15    1    1    2    0    0  0.55673511985E+01  0.79831213695E+01  0.55453784901E+01  0.11341718466E+02  0.17770000000E+01 0. -1.
         15    1    1    2    0    0 -0.12409941599E+02  0.88825416783E+01 -0.85993233602E+01  0.17607165826E+02  0.17770000000E+01 0.  1.
</event>
<event>
 6    1  0.1059789E-002  0.1851479E+03  0.7546771E-02  0.1066366E+00
        -11   -1    0    0    0    0  0.00000000000E+00  0.00000000000E+00  0.18250000000E+03  0.18250000000E+03  0.00000000000E+00 0.  1.
         11   -1    0    0    0    0 -0.00000000000E+00 -0.00000000000E+00 -0.18250000000E+03  0.18250000000E+03  0.00000000000E+00 0. -1.
        -11    1    1    2    0    0  0.72884080805E+01  0.25275242170E+01  0.88151111917E+02  0.88488009375E+02  0.00000000000E+00 0.  1.
         11    1    1    2    0    0  0.48853817540E+01 -0.59061387996E+00 -0.17978480716E+03  0.17985214112E+03  0.00000000000E+00 0. -1.
        -15    1    1    2    0    0 -0.99329301902E+01 -0.73281700314E+00  0.92796262898E+02  0.93346152892E+02  0.17770000000E+01 0.  1.
         15    1    1    2    0    0 -0.22408596443E+01 -0.12040933339E+01 -0.11625676572E+01  0.33136966155E+01  0.17770000000E+01 0. -1.
</event>
<event>
 6    1  0.1059789E-002  0.1730200E+03  0.7546771E-02  0.1076262E+00
        -11   -1    0    0    0    0  0.00000000000E+00  0.00000000000E+00  0.18250000000E+03  0.18250000000E+03  0.00000000000E+00 0.  1.
         11   -1    0    0    0    0 -0.00000000000E+00 -0.00000000000E+00 -0.18250000000E+03  0.18250000000E+03  0.00000000000E+00 0.  1.
        -11    1    1    2    0    0 -0.33096792981E+01 -0.84573609101E+01  0.18039429047E+03  0.18062275871E+03  0.00000000000E+00 0.  1.
         11    1    1    2    0    0 -0.21879824580E+01  0.20419964891E+01 -0.21406533541E+02  0.21614733289E+02  0.00000000000E+00 0.  1.
        -15    1    1    2    0    0  0.22199109880E+01  0.19200871551E+02 -0.65012859609E+02  0.67848589644E+02  0.17770000000E+01 0.  1.
         15    1    1    2    0    0  0.32777507681E+01 -0.12785507130E+02 -0.93974897319E+02  0.94913918356E+02  0.17770000000E+01 0. -1.
</event>
<event>
 6    1  0.1059789E-002  0.1837557E+03  0.7546771E-02  0.1067460E+00
        -11   -1    0    0    0    0  0.00000000000E+00  0.00000000000E+00  0.18250000000E+03  0.18250000000E+03  0.00000000000E+00 0.  1.
         11   -1    0    0    0    0 -0.00000000000E+00 -0.00000000000E+00 -0.18250000000E+03  0.18250000000E+03  0.00000000000E+00 0. -1.
        -11    1    1    2    0    0 -0.37048755592E-01 -0.41890876216E+01  0.18119583155E+03  0.18124425287E+03  0.00000000000E+00 0.  1.
         11    1    1    2    0    0  0.99644362692E+00 -0.20830982801E+01 -0.15997471124E+03  0.15999137612E+03  0.00000000000E+00 0. -1.
        -15    1    1    2    0    0 -0.21595091312E+01  0.79323024277E-01 -0.12754141583E+02  0.13057397457E+02  0.17770000000E+01 0. -1.
         15    1    1    2    0    0  0.12001142599E+01  0.61928628774E+01 -0.84669787281E+01  0.10706973552E+02  0.17770000000E+01 0.  1.
</event>
<event>
 6    1  0.1059789E-002  0.1854001E+03  0.7546771E-02  0.1066169E+00
        -11   -1    0    0    0    0  0.00000000000E+00  0.00000000000E+00  0.18250000000E+03  0.18250000000E+03  0.00000000000E+00 0.  1.
         11   -1    0    0    0    0 -0.00000000000E+00 -0.00000000000E+00 -0.18250000000E+03  0.18250000000E+03  0.00000000000E+00 0.  1.
        -11    1    1    2    0    0  0.44720732052E+01  0.10769811477E+01  0.17954095538E+03  0.17959987190E+03  0.00000000000E+00 0.  1.
         11    1    1    2    0    0 -0.44412388613E+00  0.25792223349E+01 -0.15140752539E+03  0.15143014356E+03  0.00000000000E+00 0.  1.
        -15    1    1    2    0    0 -0.46741877355E+01 -0.42753476543E+01 -0.87266562539E+00  0.66367087359E+01  0.17770000000E+01 0.  1.
         15    1    1    2    0    0  0.64623841640E+00  0.61914417163E+00 -0.27260764364E+02  0.27333275806E+02  0.17770000000E+01 0. -1.
</event>
<event>
 6    1  0.1059789E-002  0.1830974E+03  0.7546771E-02  0.1067980E+00
        -11   -1    0    0    0    0  0.00000000000E+00  0.00000000000E+00  0.18250000000E+03  0.18250000000E+03  0.00000000000E+00 0. -1.
         11   -1    0    0    0    0 -0.00000000000E+00 -0.00000000000E+00 -0.18250000000E+03  0.18250000000E+03  0.00000000000E+00 0.  1.
        -11    1    1    2    0    0 -0.24712711129E+01 -0.70309134465E+01  0.18174987947E+03  0.18190261024E+03  0.00000000000E+00 0. -1.
         11    1    1    2    0    0  0.24699664912E+01 -0.32747549692E+00 -0.13492739949E+03  0.13495040240E+03  0.00000000000E+00 0.  1.
        -15    1    1    2    0    0  0.17438370121E+01  0.24699092099E+01 -0.59392216408E+01  0.68973546907E+01  0.17770000000E+01 0. -1.
         15    1    1    2    0    0 -0.17425323905E+01  0.48884797335E+01 -0.40883258340E+02  0.41249632662E+02  0.17770000000E+01 0.  1.
</event>
<event>
 6    1  0.1059789E-002  0.1834565E+03  0.7546771E-02  0.1067696E+00
        -11   -1    0    0    0    0  0.00000000000E+00  0.00000000000E+00  0.18250000000E+03  0.18250000000E+03  0.00000000000E+00 0.  1.
         11   -1    0    0    0    0 -0.00000000000E+00 -0.00000000000E+00 -0.18250000000E+03  0.18250000000E+03  0.00000000000E+00 0. -1.
        -11    1    1    2    0    0  0.64732408178E+00 -0.31169650620E+01  0.15482143983E+03  0.15485416601E+03  0.00000000000E+00 0.  1.
         11    1    1    2    0    0 -0.24058490925E+01  0.10128136577E+01 -0.18152477955E+03  0.18154354710E+03  0.00000000000E+00 0. -1.
        -15    1    1    2    0    0 -0.31597647414E+01 -0.56690110593E+00  0.55828305957E+01  0.66806598884E+01  0.17770000000E+01 0. -1.
         15    1    1    2    0    0  0.49182897522E+01  0.26710525103E+01  0.21120509131E+02  0.21921627005E+02  0.17770000000E+01 0.  1.
</event>
<event>
 6    1  0.1059789E-002  0.1573403E+03  0.7546771E-02  0.1090457E+00
        -11   -1    0    0    0    0  0.00000000000E+00  0.00000000000E+00  0.18250000000E+03  0.18250000000E+03  0.00000000000E+00 0. -1.
         11   -1    0    0    0    0 -0.00000000000E+00 -0.00000000000E+00 -0.18250000000E+03  0.18250000000E+03  0.00000000000E+00 0. -1.
        -11    1    1    2    0    0  0.29413861011E+01  0.15520147709E+01  0.15796948114E+03  0.15800448561E+03  0.00000000000E+00 0. -1.
         11    1    1    2    0    0 -0.15429183426E+01  0.26462093376E+01 -0.15667984265E+03  0.15670978308E+03  0.00000000000E+00 0. -1.
        -15    1    1    2    0    0  0.24674346748E+01 -0.96426415522E+01 -0.24268521104E+02  0.26290447230E+02  0.17770000000E+01 0. -1.
         15    1    1    2    0    0 -0.38659024333E+01  0.54444174437E+01  0.22978882616E+02  0.23995284083E+02  0.17770000000E+01 0.  1.
</event>
<event>
 6    1  0.1059789E-002  0.1898016E+03  0.7546771E-02  0.1062787E+00
        -11   -1    0    0    0    0  0.00000000000E+00  0.00000000000E+00  0.18250000000E+03  0.18250000000E+03  0.00000000000E+00 0. -1.
         11   -1    0    0    0    0 -0.00000000000E+00 -0.00000000000E+00 -0.18250000000E+03  0.18250000000E+03  0.00000000000E+00 0.  1.
        -11    1    1    2    0    0  0.17881168293E+02  0.85665401695E+01  0.15206554770E+03  0.15335270649E+03  0.00000000000E+00 0. -1.
         11    1    1    2    0    0  0.15991759504E+01 -0.26711847233E+01 -0.17517074354E+03  0.17519840748E+03  0.00000000000E+00 0.  1.
        -15    1    1    2    0    0 -0.20355102942E+02 -0.82580818053E+01  0.12354724252E+02  0.25265056328E+02  0.17770000000E+01 0.  1.
         15    1    1    2    0    0  0.87475869856E+00  0.23627263591E+01  0.10750471586E+02  0.11183829708E+02  0.17770000000E+01 0. -1.
</event>
<event>
 6    1  0.1059789E-002  0.1850490E+03  0.7546771E-02  0.1066444E+00
        -11   -1    0    0    0    0  0.00000000000E+00  0.00000000000E+00  0.18250000000E+03  0.18250000000E+03  0.00000000000E+00 0. -1.
         11   -1    0    0    0    0 -0.00000000000E+00 -0.00000000000E+00 -0.18250000000E+03  0.18250000000E+03  0.00000000000E+00 0. -1.
        -11    1    1    2    0    0  0.36960658950E+01 -0.19957486869E+01  0.17990194397E+03  0.17995097488E+03  0.00000000000E+00 0. -1.
         11    1    1    2    0    0 -0.19052901559E+00  0.33604129402E+01 -0.15024799571E+03  0.15028569091E+03  0.00000000000E+00 0. -1.
        -15    1    1    2    0    0 -0.39990633730E+01  0.11435702828E+01 -0.31031139684E+02  0.31359043671E+02  0.17770000000E+01 0. -1.
         15    1    1    2    0    0  0.49352649358E+00 -0.25082345361E+01  0.13771914271E+01  0.34042905450E+01  0.17770000000E+01 0.  1.
</event>
<event>
 6    1  0.1059789E-002  0.1834923E+03  0.7546771E-02  0.1067668E+00
        -11   -1    0    0    0    0  0.00000000000E+00  0.00000000000E+00  0.18250000000E+03  0.18250000000E+03  0.00000000000E+00 0.  1.
         11   -1    0    0    0    0 -0.00000000000E+00 -0.00000000000E+00 -0.18250000000E+03  0.18250000000E+03  0.00000000000E+00 0.  1.
        -11    1    1    2    0    0 -0.48260685653E+01 -0.13791710559E+01  0.18143827588E+03  0.18150768856E+03  0.00000000000E+00 0.  1.
         11    1    1    2    0    0 -0.16089261928E+00  0.26709453562E+01 -0.14338412873E+03  0.14340909388E+03  0.00000000000E+00 0.  1.
        -15    1    1    2    0    0 -0.19342090660E+01 -0.41338070739E+01 -0.14332074707E+02  0.15145811963E+02  0.17770000000E+01 0. -1.
         15    1    1    2    0    0  0.69211702505E+01  0.28420327736E+01 -0.23722072445E+02  0.24937405599E+02  0.17770000000E+01 0.  1.
</event>
<event>
 6    1  0.1059789E-002  0.1827259E+03  0.7546771E-02  0.1068275E+00
        -11   -1    0    0    0    0  0.00000000000E+00  0.00000000000E+00  0.18250000000E+03  0.18250000000E+03  0.00000000000E+00 0. -1.
         11   -1    0    0    0    0 -0.00000000000E+00 -0.00000000000E+00 -0.18250000000E+03  0.18250000000E+03  0.00000000000E+00 0.  1.
        -11    1    1    2    0    0 -0.16856443158E+01  0.63215454375E+00  0.12904730042E+03  0.12905985729E+03  0.00000000000E+00 0. -1.
         11    1    1    2    0    0 -0.27295146537E+01 -0.35580376151E+01 -0.18221892893E+03  0.18227410113E+03  0.00000000000E+00 0.  1.
        -15    1    1    2    0    0  0.44673108213E+01  0.17289378436E+01  0.39012550844E+02  0.39345685207E+02  0.17770000000E+01 0.  1.
         15    1    1    2    0    0 -0.52151851898E-01  0.11969452277E+01  0.14159077660E+02  0.14320356381E+02  0.17770000000E+01 0. -1.
</event>
<event>
 6    1  0.1059789E-002  0.1882609E+03  0.7546771E-02  0.1063959E+00
        -11   -1    0    0    0    0  0.00000000000E+00  0.00000000000E+00  0.18250000000E+03  0.18250000000E+03  0.00000000000E+00 0.  1.
         11   -1    0    0    0    0 -0.00000000000E+00 -0.00000000000E+00 -0.18250000000E+03  0.18250000000E+03  0.00000000000E+00 0.  1.
        -11    1    1    2    0    0 -0.94843268424E+00 -0.51126527230E+01  0.17102909954E+03  0.17110812848E+03  0.00000000000E+00 0.  1.
         11    1    1    2    0    0  0.49178947915E+01 -0.20676755872E+01 -0.17665860266E+03  0.17673913790E+03  0.00000000000E+00 0.  1.
        -15    1    1    2    0    0 -0.87962853972E+01  0.51164587367E+01  0.19834045296E+01  0.10518764629E+02  0.17770000000E+01 0.  1.
         15    1    1    2    0    0  0.48268232899E+01  0.20638695735E+01  0.36460985925E+01  0.66339689956E+01  0.17770000000E+01 0. -1.
</event>
<event>
 6    1  0.1059789E-002  0.1831499E+03  0.7546771E-02  0.1067939E+00
        -11   -1    0    0    0    0  0.00000000000E+00  0.00000000000E+00  0.18250000000E+03  0.18250000000E+03  0.00000000000E+00 0. -1.
         11   -1    0    0    0    0 -0.00000000000E+00 -0.00000000000E+00 -0.18250000000E+03  0.18250000000E+03  0.00000000000E+00 0. -1.
        -11    1    1    2    0    0  0.21799291738E+01  0.94668891389E+00  0.14371491899E+03  0.14373456874E+03  0.00000000000E+00 0. -1.
         11    1    1    2    0    0  0.17616046841E+01 -0.57268923603E+01 -0.18175137681E+03  0.18185011278E+03  0.00000000000E+00 0. -1.
        -15    1    1    2    0    0 -0.13848109260E+01 -0.44223626472E+00  0.26322485410E+01  0.34928119898E+01  0.17770000000E+01 0. -1.
         15    1    1    2    0    0 -0.25567229319E+01  0.52224397111E+01  0.35404209278E+02  0.35922506487E+02  0.17770000000E+01 0.  1.
</event>
<event>
 6    1  0.1059789E-002  0.1987579E+03  0.7546771E-02  0.1056203E+00
        -11   -1    0    0    0    0  0.00000000000E+00  0.00000000000E+00  0.18250000000E+03  0.18250000000E+03  0.00000000000E+00 0. -1.
         11   -1    0    0    0    0 -0.00000000000E+00 -0.00000000000E+00 -0.18250000000E+03  0.18250000000E+03  0.00000000000E+00 0.  1.
        -11    1    1    2    0    0 -0.14322160121E+01  0.22899127674E+01  0.16127892575E+03  0.16130154009E+03  0.00000000000E+00 0. -1.
         11    1    1    2    0    0  0.23751596940E+01  0.18691278213E+01 -0.16621457660E+03  0.16624205393E+03  0.00000000000E+00 0.  1.
        -15    1    1    2    0    0 -0.30435712019E+01 -0.31349070480E+01 -0.15812781413E+02  0.16501295490E+02  0.17770000000E+01 0. -1.
         15    1    1    2    0    0  0.21006275199E+01 -0.10241335407E+01  0.20748432256E+02  0.20955110488E+02  0.17770000000E+01 0.  1.
</event>
<event>
 6    1  0.1059789E-002  0.1679503E+03  0.7546771E-02  0.1080665E+00
        -11   -1    0    0    0    0  0.00000000000E+00  0.00000000000E+00  0.18250000000E+03  0.18250000000E+03  0.00000000000E+00 0. -1.
         11   -1    0    0    0    0 -0.00000000000E+00 -0.00000000000E+00 -0.18250000000E+03  0.18250000000E+03  0.00000000000E+00 0.  1.
        -11    1    1    2    0    0  0.89321354654E+00 -0.44362555376E+00  0.31850752645E+02  0.31866362801E+02  0.00000000000E+00 0. -1.
         11    1    1    2    0    0  0.86082891231E+00 -0.84336701760E+01 -0.17989139251E+03  0.18009103509E+03  0.00000000000E+00 0.  1.
        -15    1    1    2    0    0 -0.18170038309E+02  0.99937488357E+01  0.61290396856E+02  0.64727859409E+02  0.17770000000E+01 0.  1.
         15    1    1    2    0    0  0.16415995850E+02 -0.11164531059E+01  0.86750243011E+02  0.88314742703E+02  0.17770000000E+01 0. -1.
</event>
<event>
 6    1  0.1059789E-002  0.1916514E+03  0.7546771E-02  0.1061395E+00
        -11   -1    0    0    0    0  0.00000000000E+00  0.00000000000E+00  0.18250000000E+03  0.18250000000E+03  0.00000000000E+00 0.  1.
         11   -1    0    0    0    0 -0.00000000000E+00 -0.00000000000E+00 -0.18250000000E+03  0.18250000000E+03  0.00000000000E+00 0.  1.
        -11    1    1    2    0    0 -0.37662417090E+01 -0.31361034307E+00  0.17330737069E+03  0.17334857271E+03  0.00000000000E+00 0.  1.
         11    1    1    2    0    0 -0.49051292750E+01 -0.83013895857E+01 -0.15469585415E+03  0.15499606657E+03  0.00000000000E+00 0.  1.
        -15    1    1    2    0    0 -0.19271955587E+01 -0.65502423048E+01  0.34118306214E+01  0.78369684293E+01  0.17770000000E+01 0.  1.
         15    1    1    2    0    0  0.10598566543E+02  0.15165242234E+02 -0.22023347156E+02  0.28818392282E+02  0.17770000000E+01 0. -1.
</event>
<event>
 6    1  0.1059789E-002  0.1828796E+03  0.7546771E-02  0.1068153E+00
        -11   -1    0    0    0    0  0.00000000000E+00  0.00000000000E+00  0.18250000000E+03  0.18250000000E+03  0.00000000000E+00 0. -1.
         11   -1    0    0    0    0 -0.00000000000E+00 -0.00000000000E+00 -0.18250000000E+03  0.18250000000E+03  0.00000000000E+00 0.  1.
        -11    1    1    2    0    0  0.14609642946E+00 -0.26256041544E+01  0.11049477553E+03  0.11052606281E+03  0.00000000000E+00 0. -1.
         11    1    1    2    0    0  0.33556086703E+01 -0.26500413875E+01 -0.18207024725E+03  0.18212044851E+03  0.00000000000E+00 0.  1.
        -15    1    1    2    0    0 -0.90963247947E+00  0.35032625507E+01  0.61833801456E+02  0.61965127380E+02  0.17770000000E+01 0. -1.
         15    1    1    2    0    0 -0.25920726203E+01  0.17723829913E+01  0.97416702722E+01  0.10388361306E+02  0.17770000000E+01 0.  1.
</event>
<event>
 6    1  0.1059789E-002  0.1838177E+03  0.7546771E-02  0.1067411E+00
        -11   -1    0    0    0    0  0.00000000000E+00  0.00000000000E+00  0.18250000000E+03  0.18250000000E+03  0.00000000000E+00 0. -1.
         11   -1    0    0    0    0 -0.00000000000E+00 -0.00000000000E+00 -0.18250000000E+03  0.18250000000E+03  0.00000000000E+00 0.  1.
        -11    1    1    2    0    0 -0.44443846087E+01 -0.15958868148E+02  0.18042338187E+03  0.18118232462E+03  0.00000000000E+00 0. -1.
         11    1    1    2    0    0  0.50505322441E+00 -0.19158284200E+00 -0.18956939575E+02  0.18964633949E+02  0.00000000000E+00 0.  1.
        -15    1    1    2    0    0  0.10018401623E+02  0.43762148869E+01 -0.20911251745E+02  0.23663427613E+02  0.17770000000E+01 0. -1.
         15    1    1    2    0    0 -0.60790702390E+01  0.11774236104E+02 -0.14055519055E+03  0.14118961382E+03  0.17770000000E+01 0.  1.
</event>
<event>
 6    1  0.1059789E-002  0.2103904E+03  0.7546771E-02  0.1048195E+00
        -11   -1    0    0    0    0  0.00000000000E+00  0.00000000000E+00  0.18250000000E+03  0.18250000000E+03  0.00000000000E+00 0.  1.
         11   -1    0    0    0    0 -0.00000000000E+00 -0.00000000000E+00 -0.18250000000E+03  0.18250000000E+03  0.00000000000E+00 0.  1.
        -11    1    1    2    0    0 -0.28537332111E+01 -0.20465731593E+01  0.14936637456E+03  0.14940765076E+03  0.00000000000E+00 0.  1.
         11    1    1    2    0    0 -0.30084366046E+01  0.34081895658E+01 -0.15454277646E+03  0.15460962519E+03  0.00000000000E+00 0.  1.
        -15    1    1    2    0    0  0.26021624895E+00  0.48010692375E+01  0.32222491319E+02  0.32627667004E+02  0.17770000000E+01 0. -1.
         15    1    1    2    0    0  0.56019535667E+01 -0.61626856441E+01 -0.27046089422E+02  0.28355057047E+02  0.17770000000E+01 0.  1.
</event>
<event>
 6    1  0.1059789E-002  0.1836908E+03  0.7546771E-02  0.1067511E+00
        -11   -1    0    0    0    0  0.00000000000E+00  0.00000000000E+00  0.18250000000E+03  0.18250000000E+03  0.00000000000E+00 0. -1.
         11   -1    0    0    0    0 -0.00000000000E+00 -0.00000000000E+00 -0.18250000000E+03  0.18250000000E+03  0.00000000000E+00 0. -1.
        -11    1    1    2    0    0  0.17729268494E+01  0.59518442421E+01  0.10685401535E+03  0.10703433242E+03  0.00000000000E+00 0. -1.
         11    1    1    2    0    0  0.57906331773E+01  0.37684479952E+01 -0.18117748994E+03  0.18130917101E+03  0.00000000000E+00 0. -1.
        -15    1    1    2    0    0 -0.16414834387E+01  0.24660905620E+00  0.45123205853E+02  0.45188679106E+02  0.17770000000E+01 0.  1.
         15    1    1    2    0    0 -0.59220765880E+01 -0.99669012934E+01  0.29200268739E+02  0.31467817464E+02  0.17770000000E+01 0. -1.
</event>
<event>
 6    1  0.1059789E-002  0.1835477E+03  0.7546771E-02  0.1067624E+00
        -11   -1    0    0    0    0  0.00000000000E+00  0.00000000000E+00  0.18250000000E+03  0.18250000000E+03  0.00000000000E+00 0.  1.
         11   -1    0    0    0    0 -0.00000000000E+00 -0.00000000000E+00 -0.18250000000E+03  0.18250000000E+03  0.00000000000E+00 0. -1.
        -11    1    1    2    0    0  0.17515009220E+02 -0.16446368673E+02  0.17985463407E+03  0.18145232979E+03  0.00000000000E+00 0.  1.
         11    1    1    2    0    0 -0.34528958414E+01 -0.57879658373E+00 -0.45134582649E+02  0.45270167286E+02  0.00000000000E+00 0. -1.
        -15    1    1    2    0    0 -0.10928428846E+02  0.22104169158E+02 -0.10054112647E+03  0.10353598742E+03  0.17770000000E+01 0.  1.
         15    1    1    2    0    0 -0.31336845329E+01 -0.50790039012E+01 -0.34178924953E+02  0.34741515501E+02  0.17770000000E+01 0. -1.
</event>
<event>
 6    1  0.1059789E-002  0.1863820E+03  0.7546771E-02  0.1065406E+00
        -11   -1    0    0    0    0  0.00000000000E+00  0.00000000000E+00  0.18250000000E+03  0.18250000000E+03  0.00000000000E+00 0.  1.
         11   -1    0    0    0    0 -0.00000000000E+00 -0.00000000000E+00 -0.18250000000E+03  0.18250000000E+03  0.00000000000E+00 0. -1.
        -11    1    1    2    0    0 -0.21419764468E+01  0.36233990201E+01  0.17334236112E+03  0.17339345790E+03  0.00000000000E+00 0.  1.
         11    1    1    2    0    0 -0.47645500964E+01 -0.37865427089E+01 -0.17851431274E+03  0.17861802456E+03  0.00000000000E+00 0. -1.
        -15    1    1    2    0    0  0.31881967672E+01  0.11539677837E+01 -0.22508858147E+01  0.44407720301E+01  0.17770000000E+01 0. -1.
         15    1    1    2    0    0  0.37183297759E+01 -0.99082409487E+00  0.74228374372E+01  0.85477455115E+01  0.17770000000E+01 0. -1.
</event>
<event>
 6    1  0.1059789E-002  0.1826363E+03  0.7546771E-02  0.1068346E+00
        -11   -1    0    0    0    0  0.00000000000E+00  0.00000000000E+00  0.18250000000E+03  0.18250000000E+03  0.00000000000E+00 0.  1.
         11   -1    0    0    0    0 -0.00000000000E+00 -0.00000000000E+00 -0.18250000000E+03  0.18250000000E+03  0.00000000000E+00 0.  1.
        -11    1    1    2    0    0  0.72755221209E+00 -0.22713632163E+01  0.97746366608E+02  0.97775460153E+02  0.00000000000E+00 0.  1.
         11    1    1    2    0    0 -0.44859746974E+01 -0.13869098651E+01 -0.18230326591E+03  0.18236372515E+03  0.00000000000E+00 0.  1.
        -15    1    1    2    0    0  0.35370518476E+01  0.19357825427E+01  0.64549668486E+02  0.64699887329E+02  0.17770000000E+01 0. -1.
         15    1    1    2    0    0  0.22137063762E+00  0.17224905387E+01  0.20007230815E+02  0.20160927372E+02  0.17770000000E+01 0.  1.
</event>
<event>
 6    1  0.1059789E-002  0.1826298E+03  0.7546771E-02  0.1068352E+00
        -11   -1    0    0    0    0  0.00000000000E+00  0.00000000000E+00  0.18250000000E+03  0.18250000000E+03  0.00000000000E+00 0.  1.
         11   -1    0    0    0    0 -0.00000000000E+00 -0.00000000000E+00 -0.18250000000E+03  0.18250000000E+03  0.00000000000E+00 0.  1.
        -11    1    1    2    0    0  0.69584972210E+00  0.38701526693E+00  0.18828004275E+02  0.18844833048E+02  0.00000000000E+00 0.  1.
         11    1    1    2    0    0 -0.39881663864E+01  0.39534772794E+01 -0.18228369075E+03  0.18237017126E+03  0.00000000000E+00 0.  1.
        -15    1    1    2    0    0  0.40377029029E+01  0.83576649459E+00  0.52384968211E+02  0.52577030857E+02  0.17770000000E+01 0. -1.
         15    1    1    2    0    0 -0.74538623862E+00 -0.51762590409E+01  0.11107071826E+03  0.11120796483E+03  0.17770000000E+01 0.  1.
</event>
<event>
 6    1  0.1059789E-002  0.1912592E+03  0.7546771E-02  0.1061689E+00
        -11   -1    0    0    0    0  0.00000000000E+00  0.00000000000E+00  0.18250000000E+03  0.18250000000E+03  0.00000000000E+00 0.  1.
         11   -1    0    0    0    0 -0.00000000000E+00 -0.00000000000E+00 -0.18250000000E+03  0.18250000000E+03  0.00000000000E+00 0.  1.
        -11    1    1    2    0    0  0.33475151864E+01 -0.23197912732E+01  0.17369310627E+03  0.17374084855E+03  0.00000000000E+00 0.  1.
         11    1    1    2    0    0  0.52399708272E+01 -0.76173689243E+01 -0.14825544119E+03  0.14854345306E+03  0.00000000000E+00 0.  1.
        -15    1    1    2    0    0 -0.20113124501E+02  0.66694792931E+01 -0.11233482220E+02  0.24049294855E+02  0.17770000000E+01 0. -1.
         15    1    1    2    0    0  0.11525638488E+02  0.32676809045E+01 -0.14204182861E+02  0.18666403531E+02  0.17770000000E+01 0.  1.
</event>
<event>
 6    1  0.1059789E-002  0.1827486E+03  0.7546771E-02  0.1068257E+00
        -11   -1    0    0    0    0  0.00000000000E+00  0.00000000000E+00  0.18250000000E+03  0.18250000000E+03  0.00000000000E+00 0. -1.
         11   -1    0    0    0    0 -0.00000000000E+00 -0.00000000000E+00 -0.18250000000E+03  0.18250000000E+03  0.00000000000E+00 0.  1.
        -11    1    1    2    0    0 -0.21818205637E+00  0.17783808298E+01  0.25199035829E+02  0.25262653236E+02  0.00000000000E+00 0. -1.
         11    1    1    2    0    0  0.40074508033E+01 -0.27752797843E+01 -0.18218617487E+03  0.18225137627E+03  0.00000000000E+00 0.  1.
        -15    1    1    2    0    0 -0.37801011905E+01  0.25938295832E+01  0.25091562484E+02  0.25568757377E+02  0.17770000000E+01 0. -1.
         15    1    1    2    0    0 -0.91675565125E-02 -0.15969306286E+01  0.13189557656E+03  0.13191721311E+03  0.17770000000E+01 0. -1.
</event>
<event>
 6    1  0.1059789E-002  0.1845131E+03  0.7546771E-02  0.1066864E+00
        -11   -1    0    0    0    0  0.00000000000E+00  0.00000000000E+00  0.18250000000E+03  0.18250000000E+03  0.00000000000E+00 0. -1.
         11   -1    0    0    0    0 -0.00000000000E+00 -0.00000000000E+00 -0.18250000000E+03  0.18250000000E+03  0.00000000000E+00 0. -1.
        -11    1    1    2    0    0 -0.18320219907E+01 -0.82000213522E+00  0.12535607241E+03  0.12537214044E+03  0.00000000000E+00 0. -1.
         11    1    1    2    0    0  0.80812886629E+01  0.18848648571E+01 -0.18029600751E+03  0.18048687006E+03  0.00000000000E+00 0. -1.
        -15    1    1    2    0    0 -0.78083571107E+01 -0.45938115242E+01  0.86328876677E+01  0.12639542063E+02  0.17770000000E+01 0.  1.
         15    1    1    2    0    0  0.15590904384E+01  0.35289488023E+01  0.46307047434E+02  0.46501447437E+02  0.17770000000E+01 0. -1.
</event>
<event>
 6    1  0.1059789E-002  0.1854146E+03  0.7546771E-02  0.1066158E+00
        -11   -1    0    0    0    0  0.00000000000E+00  0.00000000000E+00  0.18250000000E+03  0.18250000000E+03  0.00000000000E+00 0. -1.
         11   -1    0    0    0    0 -0.00000000000E+00 -0.00000000000E+00 -0.18250000000E+03  0.18250000000E+03  0.00000000000E+00 0.  1.
        -11    1    1    2    0    0  0.15006159895E+01  0.23251494460E+01  0.17956411855E+03  0.17958544161E+03  0.00000000000E+00 0. -1.
         11    1    1    2    0    0  0.20335564447E+01 -0.71184950333E+01 -0.17021951743E+03  0.17038043443E+03  0.00000000000E+00 0.  1.
        -15    1    1    2    0    0  0.16591299555E+01  0.50269652606E+01 -0.72576846309E+01  0.91572270443E+01  0.17770000000E+01 0. -1.
         15    1    1    2    0    0 -0.51933023897E+01 -0.23361967332E+00 -0.20869164897E+01  0.58768969106E+01  0.17770000000E+01 0.  1.
</event>
<event>
 6    1  0.1059789E-002  0.1831295E+03  0.7546771E-02  0.1067955E+00
        -11   -1    0    0    0    0  0.00000000000E+00  0.00000000000E+00  0.18250000000E+03  0.18250000000E+03  0.00000000000E+00 0. -1.
         11   -1    0    0    0    0 -0.00000000000E+00 -0.00000000000E+00 -0.18250000000E+03  0.18250000000E+03  0.00000000000E+00 0.  1.
        -11    1    1    2    0    0 -0.60083082832E+00  0.10462066781E+01  0.33623829797E+02  0.33645467397E+02  0.00000000000E+00 0. -1.
         11    1    1    2    0    0 -0.79281021369E+00 -0.54440685818E+01 -0.18178730837E+03  0.18187053614E+03  0.00000000000E+00 0.  1.
        -15    1    1    2    0    0 -0.52165261032E+01  0.42617412100E+01  0.20780005703E+02  0.21916681974E+02  0.17770000000E+01 0.  1.
         15    1    1    2    0    0  0.66101671453E+01  0.13612069368E+00  0.12738347287E+03  0.12756731449E+03  0.17770000000E+01 0. -1.
</event>
<event>
 6    1  0.1059789E-002  0.1840583E+03  0.7546771E-02  0.1067221E+00
        -11   -1    0    0    0    0  0.00000000000E+00  0.00000000000E+00  0.18250000000E+03  0.18250000000E+03  0.00000000000E+00 0. -1.
         11   -1    0    0    0    0 -0.00000000000E+00 -0.00000000000E+00 -0.18250000000E+03  0.18250000000E+03  0.00000000000E+00 0.  1.
        -11    1    1    2    0    0 -0.19848410316E+00 -0.28334304137E+01  0.16158619066E+03  0.16161115288E+03  0.00000000000E+00 0. -1.
         11    1    1    2    0    0  0.31958361842E+00  0.24178061035E+01 -0.18092523535E+03  0.18094167211E+03  0.00000000000E+00 0.  1.
        -15    1    1    2    0    0  0.17246501311E+00  0.31083749562E+01  0.18829630551E+02  0.19167797336E+02  0.17770000000E+01 0.  1.
         15    1    1    2    0    0 -0.29356452837E+00 -0.26927506461E+01  0.50941413698E+00  0.32793776753E+01  0.17770000000E+01 0.  1.
</event>
<event>
 6    1  0.1059789E-002  0.1826391E+03  0.7546771E-02  0.1068344E+00
        -11   -1    0    0    0    0  0.00000000000E+00  0.00000000000E+00  0.18250000000E+03  0.18250000000E+03  0.00000000000E+00 0.  1.
         11   -1    0    0    0    0 -0.00000000000E+00 -0.00000000000E+00 -0.18250000000E+03  0.18250000000E+03  0.00000000000E+00 0.  1.
        -11    1    1    2    0    0  0.10620830013E+01 -0.26734714729E-01  0.78270157459E+02  0.78277367634E+02  0.00000000000E+00 0.  1.
         11    1    1    2    0    0  0.26843205993E+01  0.34310740887E+01 -0.18230886505E+03  0.18236090624E+03  0.00000000000E+00 0.  1.
        -15    1    1    2    0    0 -0.95063047842E+00 -0.24170605064E+01  0.19494048706E+02  0.19746431165E+02  0.17770000000E+01 0. -1.
         15    1    1    2    0    0 -0.27957731222E+01 -0.98727886760E+00  0.84544658887E+02  0.84615294966E+02  0.17770000000E+01 0.  1.
</event>
<event>
 6    1  0.1059789E-002  0.1984257E+03  0.7546771E-02  0.1056440E+00
        -11   -1    0    0    0    0  0.00000000000E+00  0.00000000000E+00  0.18250000000E+03  0.18250000000E+03  0.00000000000E+00 0. -1.
         11   -1    0    0    0    0 -0.00000000000E+00 -0.00000000000E+00 -0.18250000000E+03  0.18250000000E+03  0.00000000000E+00 0. -1.
        -11    1    1    2    0    0  0.50983438617E+01 -0.29498597974E+01  0.16647013947E+03  0.16657431411E+03  0.00000000000E+00 0. -1.
         11    1    1    2    0    0  0.71342406073E+01  0.26733910763E+01 -0.11922004427E+03  0.11946323018E+03  0.00000000000E+00 0. -1.
        -15    1    1    2    0    0 -0.18704496011E+02 -0.13820814838E+02 -0.56282885005E+02  0.60924493984E+02  0.17770000000E+01 0. -1.
         15    1    1    2    0    0  0.64719115417E+01  0.14097283559E+02  0.90327898024E+01  0.18037961730E+02  0.17770000000E+01 0.  1.
</event>
<event>
 6    1  0.1059789E-002  0.1837119E+03  0.7546771E-02  0.1067494E+00
        -11   -1    0    0    0    0  0.00000000000E+00  0.00000000000E+00  0.18250000000E+03  0.18250000000E+03  0.00000000000E+00 0.  1.
         11   -1    0    0    0    0 -0.00000000000E+00 -0.00000000000E+00 -0.18250000000E+03  0.18250000000E+03  0.00000000000E+00 0. -1.
        -11    1    1    2    0    0 -0.20976920758E+00 -0.64075427131E+01  0.18117466283E+03  0.18128805548E+03  0.00000000000E+00 0.  1.
         11    1    1    2    0    0 -0.25528012001E+01 -0.13576067711E+01 -0.10457166649E+03  0.10461163091E+03  0.00000000000E+00 0. -1.
        -15    1    1    2    0    0  0.46487417627E+01  0.87827636144E+01 -0.19760699666E+02  0.22189878706E+02  0.17770000000E+01 0.  1.
         15    1    1    2    0    0 -0.18861713550E+01 -0.10176141302E+01 -0.56842296674E+02  0.56910434905E+02  0.17770000000E+01 0. -1.
</event>
<event>
 6    1  0.1059789E-002  0.1844100E+03  0.7546771E-02  0.1066945E+00
        -11   -1    0    0    0    0  0.00000000000E+00  0.00000000000E+00  0.18250000000E+03  0.18250000000E+03  0.00000000000E+00 0. -1.
         11   -1    0    0    0    0 -0.00000000000E+00 -0.00000000000E+00 -0.18250000000E+03  0.18250000000E+03  0.00000000000E+00 0.  1.
        -11    1    1    2    0    0 -0.12878756195E+01 -0.25177429679E+01  0.13747802786E+03  0.13750711180E+03  0.00000000000E+00 0. -1.
         11    1    1    2    0    0  0.23201112673E+01 -0.12169785491E+01 -0.18057099315E+03  0.18058999840E+03  0.00000000000E+00 0.  1.
        -15    1    1    2    0    0 -0.19433946506E+01  0.92019763765E+01  0.37941319841E+02  0.39129971023E+02  0.17770000000E+01 0. -1.
         15    1    1    2    0    0  0.91115900278E+00 -0.54672548595E+01  0.51516454544E+01  0.77729187770E+01  0.17770000000E+01 0.  1.
</event>
<event>
 6    1  0.1059789E-002  0.1935649E+03  0.7546771E-02  0.1059973E+00
        -11   -1    0    0    0    0  0.00000000000E+00  0.00000000000E+00  0.18250000000E+03  0.18250000000E+03  0.00000000000E+00 0.  1.
         11   -1    0    0    0    0 -0.00000000000E+00 -0.00000000000E+00 -0.18250000000E+03  0.18250000000E+03  0.00000000000E+00 0.  1.
        -11    1    1    2    0    0 -0.28291171051E+01  0.51272629186E+01  0.17133503922E+03  0.17143508507E+03  0.00000000000E+00 0.  1.
         11    1    1    2    0    0  0.41499261463E+00 -0.14311553488E+02 -0.14567996244E+03  0.14638184395E+03  0.00000000000E+00 0.  1.
        -15    1    1    2    0    0  0.70506552413E+01 -0.20845398670E+01  0.82012179499E+01  0.11156825294E+02  0.17770000000E+01 0.  1.
         15    1    1    2    0    0 -0.46365307508E+01  0.11268830436E+02 -0.33856294725E+02  0.36026245687E+02  0.17770000000E+01 0. -1.
</event>
<event>
 6    1  0.1059789E-002  0.1869275E+03  0.7546771E-02  0.1064984E+00
        -11   -1    0    0    0    0  0.00000000000E+00  0.00000000000E+00  0.18250000000E+03  0.18250000000E+03  0.00000000000E+00 0.  1.
         11   -1    0    0    0    0 -0.00000000000E+00 -0.00000000000E+00 -0.18250000000E+03  0.18250000000E+03  0.00000000000E+00 0.  1.
        -11    1    1    2    0    0 -0.50084247935E+01 -0.20381512799E+01  0.17799034436E+03  0.17807246015E+03  0.00000000000E+00 0.  1.
         11    1    1    2    0    0  0.43242763307E+01 -0.15242758433E+02 -0.13036741855E+03  0.13132671042E+03  0.00000000000E+00 0.  1.
        -15    1    1    2    0    0 -0.32270788047E+01  0.10976989186E+02 -0.55467631134E+01  0.12838716417E+02  0.17770000000E+01 0. -1.
         15    1    1    2    0    0  0.39112272675E+01  0.63039205265E+01 -0.42076162701E+02  0.42762113014E+02  0.17770000000E+01 0.  1.
</event>
<event>
 6    1  0.1059789E-002  0.1835056E+03  0.7546771E-02  0.1067657E+00
        -11   -1    0    0    0    0  0.00000000000E+00  0.00000000000E+00  0.18250000000E+03  0.18250000000E+03  0.00000000000E+00 0. -1.
         11   -1    0    0    0    0 -0.00000000000E+00 -0.00000000000E+00 -0.18250000000E+03  0.18250000000E+03  0.00000000000E+00 0.  1.
        -11    1    1    2    0    0  0.30305554695E+01 -0.32066592381E+01  0.18144077849E+03  0.18149441597E+03  0.00000000000E+00 0. -1.
         11    1    1    2    0    0 -0.17936021584E+01 -0.17420380555E+01 -0.14156183644E+03  0.14158391590E+03  0.00000000000E+00 0.  1.
        -15    1    1    2    0    0 -0.34402195338E+00  0.28025912890E+01 -0.38573932110E+02  0.38717939465E+02  0.17770000000E+01 0. -1.
         15    1    1    2    0    0 -0.89293135767E+00  0.21461060045E+01 -0.13050099387E+01  0.32037286609E+01  0.17770000000E+01 0.  1.
</event>
<event>
 6    1  0.1059789E-002  0.1855812E+03  0.7546771E-02  0.1066028E+00
        -11   -1    0    0    0    0  0.00000000000E+00  0.00000000000E+00  0.18250000000E+03  0.18250000000E+03  0.00000000000E+00 0.  1.
         11   -1    0    0    0    0 -0.00000000000E+00 -0.00000000000E+00 -0.18250000000E+03  0.18250000000E+03  0.00000000000E+00 0.  1.
        -11    1    1    2    0    0  0.19436127654E+01  0.43749227077E+01  0.17280663862E+03  0.17287293580E+03  0.00000000000E+00 0.  1.
         11    1    1    2    0    0  0.26271923687E+01  0.32699859502E+00 -0.17939927978E+03  0.17941881354E+03  0.00000000000E+00 0.  1.
        -15    1    1    2    0    0  0.12125777105E+01 -0.22257477130E+00 -0.65365149790E+00  0.22593967145E+01  0.17770000000E+01 0. -1.
         15    1    1    2    0    0 -0.57833828447E+01 -0.44793465314E+01  0.72462926554E+01  0.10448853943E+02  0.17770000000E+01 0.  1.
</event>
<event>
 6    1  0.1059789E-002  0.1827768E+03  0.7546771E-02  0.1068235E+00
        -11   -1    0    0    0    0  0.00000000000E+00  0.00000000000E+00  0.18250000000E+03  0.18250000000E+03  0.00000000000E+00 0.  1.
         11   -1    0    0    0    0 -0.00000000000E+00 -0.00000000000E+00 -0.18250000000E+03  0.18250000000E+03  0.00000000000E+00 0. -1.
        -11    1    1    2    0    0  0.40130088615E+00  0.35339068617E+00  0.26075339305E+02  0.26080821445E+02  0.00000000000E+00 0.  1.
         11    1    1    2    0    0  0.66946557225E+01 -0.40091374988E+01 -0.18205604160E+03  0.18222319798E+03  0.00000000000E+00 0. -1.
        -15    1    1    2    0    0  0.97729349798E+00  0.29544158657E+01  0.10363433001E+03  0.10369626686E+03  0.17770000000E+01 0.  1.
         15    1    1    2    0    0 -0.80732501066E+01  0.70133094688E+00  0.52346372291E+02  0.52999713711E+02  0.17770000000E+01 0. -1.
</event>
<event>
 6    1  0.1059789E-002  0.1897651E+03  0.7546771E-02  0.1062814E+00
        -11   -1    0    0    0    0  0.00000000000E+00  0.00000000000E+00  0.18250000000E+03  0.18250000000E+03  0.00000000000E+00 0. -1.
         11   -1    0    0    0    0 -0.00000000000E+00 -0.00000000000E+00 -0.18250000000E+03  0.18250000000E+03  0.00000000000E+00 0. -1.
        -11    1    1    2    0    0 -0.32003515645E+01 -0.50741610988E+01  0.17513216384E+03  0.17523488286E+03  0.00000000000E+00 0. -1.
         11    1    1    2    0    0  0.81494384104E+01 -0.23147058315E+01 -0.16649723582E+03  0.16671262923E+03  0.00000000000E+00 0. -1.
        -15    1    1    2    0    0 -0.42572378413E+01  0.52196715502E+01 -0.14737508481E+02  0.16300948757E+02  0.17770000000E+01 0. -1.
         15    1    1    2    0    0 -0.69184900458E+00  0.21691953801E+01  0.61025804583E+01  0.67515391498E+01  0.17770000000E+01 0.  1.
</event>
<event>
 6    1  0.1059789E-002  0.1832681E+03  0.7546771E-02  0.1067845E+00
        -11   -1    0    0    0    0  0.00000000000E+00  0.00000000000E+00  0.18250000000E+03  0.18250000000E+03  0.00000000000E+00 0.  1.
         11   -1    0    0    0    0 -0.00000000000E+00 -0.00000000000E+00 -0.18250000000E+03  0.18250000000E+03  0.00000000000E+00 0. -1.
        -11    1    1    2    0    0 -0.14681195199E+00 -0.24522884023E+01  0.18171534332E+03  0.18173194895E+03  0.00000000000E+00 0.  1.
         11    1    1    2    0    0  0.21629083134E+01 -0.24057013446E+01 -0.15974685608E+03  0.15977960946E+03  0.00000000000E+00 0. -1.
        -15    1    1    2    0    0  0.62769438339E+00  0.38802446845E+00 -0.11582576709E+02  0.11741310636E+02  0.17770000000E+01 0.  1.
         15    1    1    2    0    0 -0.26437907448E+01  0.44699652785E+01 -0.10385910531E+02  0.11747130954E+02  0.17770000000E+01 0. -1.
</event>
<event>
 6    1  0.1059789E-002  0.1836716E+03  0.7546771E-02  0.1067526E+00
        -11   -1    0    0    0    0  0.00000000000E+00  0.00000000000E+00  0.18250000000E+03  0.18250000000E+03  0.00000000000E+00 0.  1.
         11   -1    0    0    0    0 -0.00000000000E+00 -0.00000000000E+00 -0.18250000000E+03  0.18250000000E+03  0.00000000000E+00 0.  1.
        -11    1    1    2    0    0 -0.16964716333E+01  0.24195634075E+01  0.14913311158E+03  0.14916238558E+03  0.00000000000E+00 0.  1.
         11    1    1    2    0    0  0.35365433895E+01  0.22234078788E+01 -0.18128027466E+03  0.18132840004E+03  0.00000000000E+00 0.  1.
        -15    1    1    2    0    0 -0.16469275439E+01 -0.40941513334E+01  0.32285653190E+02  0.32634269969E+02  0.17770000000E+01 0.  1.
         15    1    1    2    0    0 -0.19314421219E+00 -0.54881995292E+00 -0.13849011418E+00  0.18749444096E+01  0.17770000000E+01 0. -1.
</event>
<event>
 6    1  0.1059789E-002  0.1831389E+03  0.7546771E-02  0.1067947E+00
        -11   -1    0    0    0    0  0.00000000000E+00  0.00000000000E+00  0.18250000000E+03  0.18250000000E+03  0.00000000000E+00 0.  1.
         11   -1    0    0    0    0 -0.00000000000E+00 -0.00000000000E+00 -0.18250000000E+03  0.18250000000E+03  0.00000000000E+00 0. -1.
        -11    1    1    2    0    0  0.49547729937E+00  0.26966170203E+01  0.18184044266E+03  0.18186111137E+03  0.00000000000E+00 0.  1.
         11    1    1    2    0    0  0.58282024052E+00 -0.26169508276E+01 -0.17049387027E+03  0.17051494922E+03  0.00000000000E+00 0. -1.
        -15    1    1    2    0    0  0.47812719996E+00  0.16122952497E+01 -0.68145078767E+01  0.72403969638E+01  0.17770000000E+01 0.  1.
         15    1    1    2    0    0 -0.15564247398E+01 -0.16919614424E+01 -0.45320645155E+01  0.53835424458E+01  0.17770000000E+01 0. -1.
</event>
<event>
 6    1  0.1059789E-002  0.1844318E+03  0.7546771E-02  0.1066927E+00
        -11   -1    0    0    0    0  0.00000000000E+00  0.00000000000E+00  0.18250000000E+03  0.18250000000E+03  0.00000000000E+00 0.  1.
         11   -1    0    0    0    0 -0.00000000000E+00 -0.00000000000E+00 -0.18250000000E+03  0.18250000000E+03  0.00000000000E+00 0. -1.
        -11    1    1    2    0    0  0.27024299452E+01 -0.10761101592E+00  0.15566142627E+03  0.15568492007E+03  0.00000000000E+00 0.  1.
         11    1    1    2    0    0  0.52754409667E+01  0.33400308912E+01 -0.18046020087E+03  0.18056818707E+03  0.00000000000E+00 0. -1.
        -15    1    1    2    0    0 -0.63921783038E+01 -0.38998002541E+01  0.59268598745E+01  0.97135875176E+01  0.17770000000E+01 0.  1.
         15    1    1    2    0    0 -0.15856926081E+01  0.66738037887E+00  0.18871914729E+02  0.19033305340E+02  0.17770000000E+01 0.  1.
</event>
<event>
 6    1  0.1059789E-002  0.1837205E+03  0.7546771E-02  0.1067487E+00
        -11   -1    0    0    0    0  0.00000000000E+00  0.00000000000E+00  0.18250000000E+03  0.18250000000E+03  0.00000000000E+00 0. -1.
         11   -1    0    0    0    0 -0.00000000000E+00 -0.00000000000E+00 -0.18250000000E+03  0.18250000000E+03  0.00000000000E+00 0.  1.
        -11    1    1    2    0    0  0.17598468217E+02 -0.78558688540E+01  0.18025219237E+03  0.18127954549E+03  0.00000000000E+00 0. -1.
         11    1    1    2    0    0 -0.46302287436E+01 -0.24231068820E+00 -0.48971804128E+02  0.49190805362E+02  0.00000000000E+00 0.  1.
        -15    1    1    2    0    0 -0.10459130695E+02  0.10896083464E+02 -0.35019852161E+02  0.38179390044E+02  0.17770000000E+01 0. -1.
         15    1    1    2    0    0 -0.25091087782E+01 -0.27979039220E+01 -0.96260536083E+02  0.96350259103E+02  0.17770000000E+01 0.  1.
</event>
<event>
 6    1  0.1059789E-002  0.1832055E+03  0.7546771E-02  0.1067895E+00
        -11   -1    0    0    0    0  0.00000000000E+00  0.00000000000E+00  0.18250000000E+03  0.18250000000E+03  0.00000000000E+00 0. -1.
         11   -1    0    0    0    0 -0.00000000000E+00 -0.00000000000E+00 -0.18250000000E+03  0.18250000000E+03  0.00000000000E+00 0.  1.
        -11    1    1    2    0    0  0.20247767365E+01 -0.23924799084E+01  0.18176744401E+03  0.18179446467E+03  0.00000000000E+00 0. -1.
         11    1    1    2    0    0 -0.23814132248E+01  0.11294178568E+01 -0.24644045067E+02  0.24784585349E+02  0.00000000000E+00 0.  1.
        -15    1    1    2    0    0 -0.90028115414E+01 -0.28321705461E+00 -0.47895252155E+02  0.48767240393E+02  0.17770000000E+01 0. -1.
         15    1    1    2    0    0  0.93594480296E+01  0.15462791062E+01 -0.10922814679E+03  0.10965370959E+03  0.17770000000E+01 0.  1.
</event>
<event>
 6    1  0.1059789E-002  0.1835296E+03  0.7546771E-02  0.1067638E+00
        -11   -1    0    0    0    0  0.00000000000E+00  0.00000000000E+00  0.18250000000E+03  0.18250000000E+03  0.00000000000E+00 0. -1.
         11   -1    0    0    0    0 -0.00000000000E+00 -0.00000000000E+00 -0.18250000000E+03  0.18250000000E+03  0.00000000000E+00 0.  1.
        -11    1    1    2    0    0 -0.37127119369E+01 -0.14958753957E+01  0.18142625430E+03  0.18147040426E+03  0.00000000000E+00 0. -1.
         11    1    1    2    0    0  0.24690760533E+01 -0.10565028212E+01 -0.16480264600E+03  0.16482452689E+03  0.00000000000E+00 0.  1.
        -15    1    1    2    0    0  0.37911282546E+01  0.45759456823E+00 -0.52521987556E+01  0.67324116778E+01  0.17770000000E+01 0.  1.
         15    1    1    2    0    0 -0.25474923709E+01  0.20947836487E+01 -0.11371409541E+02  0.11972657177E+02  0.17770000000E+01 0. -1.
</event>
<event>
 6    1  0.1059789E-002  0.1861220E+03  0.7546771E-02  0.1065608E+00
        -11   -1    0    0    0    0  0.00000000000E+00  0.00000000000E+00  0.18250000000E+03  0.18250000000E+03  0.00000000000E+00 0.  1.
         11   -1    0    0    0    0 -0.00000000000E+00 -0.00000000000E+00 -0.18250000000E+03  0.18250000000E+03  0.00000000000E+00 0. -1.
        -11    1    1    2    0    0 -0.65686577690E+00  0.12056421017E+01  0.96915996396E+02  0.96925721060E+02  0.00000000000E+00 0.  1.
         11    1    1    2    0    0  0.18234568473E+01  0.47083679585E+01 -0.17880674102E+03  0.17887801530E+03  0.00000000000E+00 0. -1.
        -15    1    1    2    0    0 -0.13385975252E+01 -0.40229053211E+01 -0.21782491346E+01  0.50870530614E+01  0.17770000000E+01 0. -1.
         15    1    1    2    0    0  0.17200645483E+00 -0.18911047391E+01  0.84068993759E+02  0.84109210578E+02  0.17770000000E+01 0. -1.
</event>
<event>
 6    1  0.1059789E-002  0.1853996E+03  0.7546771E-02  0.1066170E+00
        -11   -1    0    0    0    0  0.00000000000E+00  0.00000000000E+00  0.18250000000E+03  0.18250000000E+03  0.00000000000E+00 0. -1.
         11   -1    0    0    0    0 -0.00000000000E+00 -0.00000000000E+00 -0.18250000000E+03  0.18250000000E+03  0.00000000000E+00 0. -1.
        -11    1    1    2    0    0 -0.51571054289E+00 -0.51153098096E+01  0.15840466963E+03  0.15848808066E+03  0.00000000000E+00 0. -1.
         11    1    1    2    0    0  0.50984026014E+01 -0.15607569719E+01 -0.17952127137E+03  0.17960043582E+03  0.00000000000E+00 0. -1.
        -15    1    1    2    0    0  0.19391870811E+01  0.83589425060E+01  0.71719621478E+01  0.11323742155E+02  0.17770000000E+01 0.  1.
         15    1    1    2    0    0 -0.65218791396E+01 -0.16828757244E+01  0.13944639601E+02  0.15587741364E+02  0.17770000000E+01 0.  1.
</event>
<event>
 6    1  0.1059789E-002  0.1827300E+03  0.7546771E-02  0.1068272E+00
        -11   -1    0    0    0    0  0.00000000000E+00  0.00000000000E+00  0.18250000000E+03  0.18250000000E+03  0.00000000000E+00 0. -1.
         11   -1    0    0    0    0 -0.00000000000E+00 -0.00000000000E+00 -0.18250000000E+03  0.18250000000E+03  0.00000000000E+00 0.  1.
        -11    1    1    2    0    0 -0.13272485130E+01  0.13167979576E+01  0.11927136276E+03  0.11928601561E+03  0.00000000000E+00 0. -1.
         11    1    1    2    0    0 -0.13050479766E+01  0.27987584184E+01 -0.18224384855E+03  0.18227000997E+03  0.00000000000E+00 0.  1.
        -15    1    1    2    0    0 -0.71122885450E+00 -0.84367448755E+00  0.89946256311E+01  0.92346441386E+01  0.17770000000E+01 0.  1.
         15    1    1    2    0    0  0.33435253441E+01 -0.32718818885E+01  0.53977860164E+02  0.54209330283E+02  0.17770000000E+01 0. -1.
</event>
<event>
 6    1  0.1059789E-002  0.1636055E+03  0.7546771E-02  0.1084576E+00
        -11   -1    0    0    0    0  0.00000000000E+00  0.00000000000E+00  0.18250000000E+03  0.18250000000E+03  0.00000000000E+00 0. -1.
         11   -1    0    0    0    0 -0.00000000000E+00 -0.00000000000E+00 -0.18250000000E+03  0.18250000000E+03  0.00000000000E+00 0. -1.
        -11    1    1    2    0    0  0.81994625056E+01  0.40850252180E+01  0.17123137214E+03  0.17147624156E+03  0.00000000000E+00 0. -1.
         11    1    1    2    0    0  0.10798310355E+02  0.71477887125E+01 -0.15628321829E+03  0.15681880853E+03  0.00000000000E+00 0. -1.
        -15    1    1    2    0    0 -0.14672768192E+02 -0.10839795511E+02  0.26251703936E+01  0.18515953708E+02  0.17770000000E+01 0. -1.
         15    1    1    2    0    0 -0.43250046689E+01 -0.39301841977E+00 -0.17573324238E+02  0.18188996196E+02  0.17770000000E+01 0.  1.
</event>
<event>
 6    1  0.1059789E-002  0.1836353E+03  0.7546771E-02  0.1067555E+00
        -11   -1    0    0    0    0  0.00000000000E+00  0.00000000000E+00  0.18250000000E+03  0.18250000000E+03  0.00000000000E+00 0.  1.
         11   -1    0    0    0    0 -0.00000000000E+00 -0.00000000000E+00 -0.18250000000E+03  0.18250000000E+03  0.00000000000E+00 0. -1.
        -11    1    1    2    0    0 -0.14913418068E+01 -0.69162089797E+00  0.11507770466E+03  0.11508944587E+03  0.00000000000E+00 0.  1.
         11    1    1    2    0    0  0.68823510704E+00  0.35919721969E+01 -0.18132779989E+03  0.18136467943E+03  0.00000000000E+00 0. -1.
        -15    1    1    2    0    0 -0.88943810283E+00 -0.84614426442E+01  0.18846697965E+02  0.20754345688E+02  0.17770000000E+01 0.  1.
         15    1    1    2    0    0  0.16925448026E+01  0.55610913452E+01  0.47403397262E+02  0.47791529017E+02  0.17770000000E+01 0.  1.
</event>
<event>
 6    1  0.1059789E-002  0.1878372E+03  0.7546771E-02  0.1064284E+00
        -11   -1    0    0    0    0  0.00000000000E+00  0.00000000000E+00  0.18250000000E+03  0.18250000000E+03  0.00000000000E+00 0. -1.
         11   -1    0    0    0    0 -0.00000000000E+00 -0.00000000000E+00 -0.18250000000E+03  0.18250000000E+03  0.00000000000E+00 0. -1.
        -11    1    1    2    0    0 -0.31638136249E+01  0.18492726842E+01  0.16645245168E+03  0.16649278722E+03  0.00000000000E+00 0. -1.
         11    1    1    2    0    0 -0.59834315596E+00  0.51476628626E+01 -0.17708697987E+03  0.17716279205E+03  0.00000000000E+00 0. -1.
        -15    1    1    2    0    0  0.40300511547E+01 -0.49882064861E+01  0.14888807501E+02  0.16308213699E+02  0.17770000000E+01 0. -1.
         15    1    1    2    0    0 -0.26789437388E+00 -0.20087290608E+01 -0.42542793063E+01  0.50362070302E+01  0.17770000000E+01 0.  1.
</event>
<event>
 6    1  0.1059789E-002  0.1940317E+03  0.7546771E-02  0.1059629E+00
        -11   -1    0    0    0    0  0.00000000000E+00  0.00000000000E+00  0.18250000000E+03  0.18250000000E+03  0.00000000000E+00 0.  1.
         11   -1    0    0    0    0 -0.00000000000E+00 -0.00000000000E+00 -0.18250000000E+03  0.18250000000E+03  0.00000000000E+00 0. -1.
        -11    1    1    2    0    0  0.51617154482E+01 -0.59918924027E+01  0.17078523682E+03  0.17096825201E+03  0.00000000000E+00 0.  1.
         11    1    1    2    0    0 -0.51047966588E+01  0.84260698544E+01 -0.16633768228E+03  0.16662917556E+03  0.00000000000E+00 0. -1.
        -15    1    1    2    0    0  0.12651180251E+02 -0.53886747989E+01 -0.25792534329E+01  0.14103207263E+02  0.17770000000E+01 0. -1.
         15    1    1    2    0    0 -0.12708099040E+02  0.29544973472E+01 -0.18683011019E+01  0.13299365165E+02  0.17770000000E+01 0.  1.
</event>
<event>
 6    1  0.1059789E-002  0.1831170E+03  0.7546771E-02  0.1067965E+00
        -11   -1    0    0    0    0  0.00000000000E+00  0.00000000000E+00  0.18250000000E+03  0.18250000000E+03  0.00000000000E+00 0. -1.
         11   -1    0    0    0    0 -0.00000000000E+00 -0.00000000000E+00 -0.18250000000E+03  0.18250000000E+03  0.00000000000E+00 0.  1.
        -11    1    1    2    0    0 -0.30273542944E+01 -0.17059225174E+01  0.15966592451E+03  0.15970373351E+03  0.00000000000E+00 0. -1.
         11    1    1    2    0    0 -0.39223746476E+00 -0.26882265045E+01 -0.18186266638E+03  0.18188295642E+03  0.00000000000E+00 0.  1.
        -15    1    1    2    0    0  0.13797660960E+01  0.48734233423E+00  0.40892095550E+01  0.46926134312E+01  0.17770000000E+01 0. -1.
         15    1    1    2    0    0  0.20398256631E+01  0.39068066876E+01  0.18107532314E+02  0.18720696641E+02  0.17770000000E+01 0.  1.
</event>
<event>
 6    1  0.1059789E-002  0.1957965E+03  0.7546771E-02  0.1058337E+00
        -11   -1    0    0    0    0  0.00000000000E+00  0.00000000000E+00  0.18250000000E+03  0.18250000000E+03  0.00000000000E+00 0.  1.
         11   -1    0    0    0    0 -0.00000000000E+00 -0.00000000000E+00 -0.18250000000E+03  0.18250000000E+03  0.00000000000E+00 0. -1.
        -11    1    1    2    0    0 -0.55490081667E+01  0.12299845331E+02  0.14660016819E+03  0.14721985939E+03  0.00000000000E+00 0.  1.
         11    1    1    2    0    0  0.45351119330E+01  0.10557261426E+02 -0.16881287504E+03  0.16920345678E+03  0.00000000000E+00 0. -1.
        -15    1    1    2    0    0 -0.16990249399E+01  0.59662414530E+01 -0.54864172047E+01  0.84700192188E+01  0.17770000000E+01 0. -1.
         15    1    1    2    0    0  0.27129211736E+01 -0.28823348209E+02  0.27699124054E+02  0.40106664604E+02  0.17770000000E+01 0.  1.
</event>
<event>
 6    1  0.1059789E-002  0.1851411E+03  0.7546771E-02  0.1066372E+00
        -11   -1    0    0    0    0  0.00000000000E+00  0.00000000000E+00  0.18250000000E+03  0.18250000000E+03  0.00000000000E+00 0. -1.
         11   -1    0    0    0    0 -0.00000000000E+00 -0.00000000000E+00 -0.18250000000E+03  0.18250000000E+03  0.00000000000E+00 0.  1.
        -11    1    1    2    0    0  0.41772364157E+01 -0.32096855624E+01  0.17978169017E+03  0.17985885440E+03  0.00000000000E+00 0. -1.
         11    1    1    2    0    0 -0.42136331918E+01 -0.50360243087E+00 -0.14888393161E+03  0.14894439704E+03  0.00000000000E+00 0.  1.
        -15    1    1    2    0    0 -0.38264333200E+01 -0.17201160312E+00  0.52096137896E+00  0.42544458749E+01  0.17770000000E+01 0. -1.
         15    1    1    2    0    0  0.38628300961E+01  0.38852995964E+01 -0.31418719940E+02  0.31942302687E+02  0.17770000000E+01 0.  1.
</event>
<event>
 6    1  0.1059789E-002  0.1964123E+03  0.7546771E-02  0.1057890E+00
        -11   -1    0    0    0    0  0.00000000000E+00  0.00000000000E+00  0.18250000000E+03  0.18250000000E+03  0.00000000000E+00 0. -1.
         11   -1    0    0    0    0 -0.00000000000E+00 -0.00000000000E+00 -0.18250000000E+03  0.18250000000E+03  0.00000000000E+00 0. -1.
        -11    1    1    2    0    0  0.65792261727E+01  0.13109140824E+01  0.16845419527E+03  0.16858772380E+03  0.00000000000E+00 0. -1.
         11    1    1    2    0    0 -0.76794431586E+01  0.51790289196E+01 -0.16313532539E+03  0.16339807397E+03  0.00000000000E+00 0. -1.
        -15    1    1    2    0    0  0.41953220026E+00 -0.13460426384E+02 -0.15448782080E+02  0.20571380179E+02  0.17770000000E+01 0.  1.
         15    1    1    2    0    0  0.68068478569E+00  0.69704833819E+01  0.10129912197E+02  0.12442822046E+02  0.17770000000E+01 0. -1.
</event>
<event>
 6    1  0.1059789E-002  0.1827750E+03  0.7546771E-02  0.1068236E+00
        -11   -1    0    0    0    0  0.00000000000E+00  0.00000000000E+00  0.18250000000E+03  0.18250000000E+03  0.00000000000E+00 0.  1.
         11   -1    0    0    0    0 -0.00000000000E+00 -0.00000000000E+00 -0.18250000000E+03  0.18250000000E+03  0.00000000000E+00 0.  1.
        -11    1    1    2    0    0 -0.50786328309E+00 -0.41680036671E+00  0.37688685284E+02  0.37694411338E+02  0.00000000000E+00 0.  1.
         11    1    1    2    0    0 -0.98509114822E+01 -0.15529148592E+00 -0.18195843654E+03  0.18222496317E+03  0.00000000000E+00 0.  1.
        -15    1    1    2    0    0  0.42716769683E+01  0.23722796386E+01  0.20975166409E+02  0.21609957652E+02  0.17770000000E+01 0. -1.
         15    1    1    2    0    0  0.60870977970E+01 -0.18001877859E+01  0.12329458485E+03  0.12347066784E+03  0.17770000000E+01 0.  1.
</event>
<event>
 6    1  0.1059789E-002  0.1839420E+03  0.7546771E-02  0.1067313E+00
        -11   -1    0    0    0    0  0.00000000000E+00  0.00000000000E+00  0.18250000000E+03  0.18250000000E+03  0.00000000000E+00 0.  1.
         11   -1    0    0    0    0 -0.00000000000E+00 -0.00000000000E+00 -0.18250000000E+03  0.18250000000E+03  0.00000000000E+00 0. -1.
        -11    1    1    2    0    0  0.24579187385E+01 -0.85112477496E+00  0.18103935164E+03  0.18105803661E+03  0.00000000000E+00 0.  1.
         11    1    1    2    0    0 -0.23120687332E+01  0.19490885325E+00 -0.15490352161E+03  0.15492089806E+03  0.00000000000E+00 0. -1.
        -15    1    1    2    0    0 -0.44619112809E+01  0.35698757954E+01 -0.75277069508E+01  0.96164840982E+01  0.17770000000E+01 0. -1.
         15    1    1    2    0    0  0.43160612756E+01 -0.29136598737E+01 -0.18608123086E+02  0.19404581227E+02  0.17770000000E+01 0.  1.
</event>
<event>
 6    1  0.1059789E-002  0.1583791E+03  0.7546771E-02  0.1089461E+00
        -11   -1    0    0    0    0  0.00000000000E+00  0.00000000000E+00  0.18250000000E+03  0.18250000000E+03  0.00000000000E+00 0. -1.
         11   -1    0    0    0    0 -0.00000000000E+00 -0.00000000000E+00 -0.18250000000E+03  0.18250000000E+03  0.00000000000E+00 0. -1.
        -11    1    1    2    0    0  0.11486048249E+00  0.58304783465E+01  0.16746557081E+03  0.16756707636E+03  0.00000000000E+00 0. -1.
         11    1    1    2    0    0 -0.19964944969E+02  0.18118739184E+02 -0.14883725675E+03  0.15125943519E+03  0.00000000000E+00 0. -1.
        -15    1    1    2    0    0 -0.32873512219E+01  0.31710710515E+01 -0.71722077298E+01  0.86868096784E+01  0.17770000000E+01 0. -1.
         15    1    1    2    0    0  0.23137435709E+02 -0.27120288582E+02 -0.11456106330E+02  0.37486678770E+02  0.17770000000E+01 0.  1.
</event>
<event>
 6    1  0.1059789E-002  0.1957573E+03  0.7546771E-02  0.1058366E+00
        -11   -1    0    0    0    0  0.00000000000E+00  0.00000000000E+00  0.18250000000E+03  0.18250000000E+03  0.00000000000E+00 0.  1.
         11   -1    0    0    0    0 -0.00000000000E+00 -0.00000000000E+00 -0.18250000000E+03  0.18250000000E+03  0.00000000000E+00 0.  1.
        -11    1    1    2    0    0 -0.19743843496E+01 -0.20922250971E+02  0.11594090601E+03  0.11783010000E+03  0.00000000000E+00 0.  1.
         11    1    1    2    0    0  0.54710000758E+01  0.61878983944E+01 -0.16904103566E+03  0.16924270639E+03  0.00000000000E+00 0.  1.
        -15    1    1    2    0    0 -0.16677190685E+02 -0.21400794644E+01 -0.36053777086E+01  0.17287715485E+02  0.17770000000E+01 0. -1.
         15    1    1    2    0    0  0.13180574959E+02  0.16874432041E+02  0.56705507364E+02  0.60639478126E+02  0.17770000000E+01 0. -1.
</event>
<event>
 6    1  0.1059789E-002  0.1825488E+03  0.7546771E-02  0.1068416E+00
        -11   -1    0    0    0    0  0.00000000000E+00  0.00000000000E+00  0.18250000000E+03  0.18250000000E+03  0.00000000000E+00 0. -1.
         11   -1    0    0    0    0 -0.00000000000E+00 -0.00000000000E+00 -0.18250000000E+03  0.18250000000E+03  0.00000000000E+00 0. -1.
        -11    1    1    2    0    0 -0.15000588376E+01  0.65372636456E+00  0.69332896317E+02  0.69352202895E+02  0.00000000000E+00 0. -1.
         11    1    1    2    0    0  0.57949810787E+00 -0.30321791896E+01 -0.18242505949E+03  0.18245117774E+03  0.00000000000E+00 0. -1.
        -15    1    1    2    0    0  0.15264532782E+01  0.13567477500E+01  0.67876423219E+02  0.67930386294E+02  0.17770000000E+01 0. -1.
         15    1    1    2    0    0 -0.60589254846E+00  0.10217050751E+01  0.45215739958E+02  0.45266233067E+02  0.17770000000E+01 0.  1.
</event>
<event>
 6    1  0.1059789E-002  0.1831070E+03  0.7546771E-02  0.1067973E+00
        -11   -1    0    0    0    0  0.00000000000E+00  0.00000000000E+00  0.18250000000E+03  0.18250000000E+03  0.00000000000E+00 0. -1.
         11   -1    0    0    0    0 -0.00000000000E+00 -0.00000000000E+00 -0.18250000000E+03  0.18250000000E+03  0.00000000000E+00 0. -1.
        -11    1    1    2    0    0 -0.22169354057E+01  0.73907245066E+01  0.18172927501E+03  0.18189300979E+03  0.00000000000E+00 0. -1.
         11    1    1    2    0    0 -0.69083370634E+00 -0.11119108289E+01 -0.64580972496E+02  0.64594238175E+02  0.00000000000E+00 0. -1.
        -15    1    1    2    0    0  0.58857864268E+00 -0.72114671001E+01 -0.20434972481E+02  0.21750804855E+02  0.17770000000E+01 0.  1.
         15    1    1    2    0    0  0.23191904694E+01  0.93265342243E+00 -0.96713330038E+02  0.96761947185E+02  0.17770000000E+01 0. -1.
</event>
<event>
 6    1  0.1059789E-002  0.1871300E+03  0.7546771E-02  0.1064828E+00
        -11   -1    0    0    0    0  0.00000000000E+00  0.00000000000E+00  0.18250000000E+03  0.18250000000E+03  0.00000000000E+00 0.  1.
         11   -1    0    0    0    0 -0.00000000000E+00 -0.00000000000E+00 -0.18250000000E+03  0.18250000000E+03  0.00000000000E+00 0. -1.
        -11    1    1    2    0    0 -0.11828635469E+01  0.46047179346E+01  0.17780649814E+03  0.17787004631E+03  0.00000000000E+00 0.  1.
         11    1    1    2    0    0  0.10439811131E+01 -0.33696461731E+01 -0.14256365703E+03  0.14260729546E+03  0.00000000000E+00 0. -1.
        -15    1    1    2    0    0 -0.73149672218E+01 -0.11463187107E+02 -0.23269487753E+02  0.27010001729E+02  0.17770000000E+01 0.  1.
         15    1    1    2    0    0  0.74538496555E+01  0.10228115345E+02 -0.11973353356E+02  0.17512656503E+02  0.17770000000E+01 0. -1.
</event>
<event>
 6    1  0.1059789E-002  0.1931898E+03  0.7546771E-02  0.1060250E+00
        -11   -1    0    0    0    0  0.00000000000E+00  0.00000000000E+00  0.18250000000E+03  0.18250000000E+03  0.00000000000E+00 0. -1.
         11   -1    0    0    0    0 -0.00000000000E+00 -0.00000000000E+00 -0.18250000000E+03  0.18250000000E+03  0.00000000000E+00 0. -1.
        -11    1    1    2    0    0 -0.47782827553E+01 -0.26671203931E+01  0.12409431010E+03  0.12421490778E+03  0.00000000000E+00 0. -1.
         11    1    1    2    0    0  0.88648776811E+01 -0.61832551059E+01 -0.17146989494E+03  0.17181019635E+03  0.00000000000E+00 0. -1.
        -15    1    1    2    0    0 -0.10054928878E+02 -0.55186469027E+01  0.51490887519E+02  0.52782821873E+02  0.17770000000E+01 0. -1.
         15    1    1    2    0    0  0.59683339526E+01  0.14369022402E+02 -0.41153026736E+01  0.16192073988E+02  0.17770000000E+01 0.  1.
</event>
<event>
 6    1  0.1134253E-002  0.1845332E+03  0.7546771E-02  0.1066848E+00
        -11   -1    0    0    0    0  0.00000000000E+00  0.00000000000E+00  0.18250000000E+03  0.18250000000E+03  0.00000000000E+00 0.  1.
         11   -1    0    0    0    0 -0.00000000000E+00 -0.00000000000E+00 -0.18250000000E+03  0.18250000000E+03  0.00000000000E+00 0.  1.
        -11    1    1    2    0    0 -0.10467987751E+02  0.43036160979E+01  0.18011150701E+03  0.18046676934E+03  0.00000000000E+00 0.  1.
         11    1    1    2    0    0 -0.84065326061E+00 -0.18484768592E+01 -0.84902608027E+02  0.84926888642E+02  0.00000000000E+00 0.  1.
        -15    1    1    2    0    0  0.11215758197E+02 -0.29845897901E+01 -0.13562296274E+02  0.17938634768E+02  0.17770000000E+01 0.  1.
         15    1    1    2    0    0  0.92882815006E-01  0.52945055140E+00 -0.81646602707E+02  0.81667707251E+02  0.17770000000E+01 0.  1.
</event>
<event>
 6    1  0.1059789E-002  0.1827746E+03  0.7546771E-02  0.1068236E+00
        -11   -1    0    0    0    0  0.00000000000E+00  0.00000000000E+00  0.18250000000E+03  0.18250000000E+03  0.00000000000E+00 0. -1.
         11   -1    0    0    0    0 -0.00000000000E+00 -0.00000000000E+00 -0.18250000000E+03  0.18250000000E+03  0.00000000000E+00 0. -1.
        -11    1    1    2    0    0  0.29707233924E+01  0.13964739214E+01  0.27380672171E+02  0.27576739210E+02  0.00000000000E+00 0. -1.
         11    1    1    2    0    0  0.21333293362E+01 -0.24008038346E+01 -0.18219709435E+03  0.18222539928E+03  0.00000000000E+00 0. -1.
        -15    1    1    2    0    0 -0.32863382324E+01 -0.97842124318E+00  0.13912985623E+03  0.13918344711E+03  0.17770000000E+01 0. -1.
         15    1    1    2    0    0 -0.18177144963E+01  0.19827511563E+01  0.15686565952E+02  0.16014414397E+02  0.17770000000E+01 0.  1.
</event>
<event>
 6    1  0.1059789E-002  0.1981285E+03  0.7546771E-02  0.1056653E+00
        -11   -1    0    0    0    0  0.00000000000E+00  0.00000000000E+00  0.18250000000E+03  0.18250000000E+03  0.00000000000E+00 0.  1.
         11   -1    0    0    0    0 -0.00000000000E+00 -0.00000000000E+00 -0.18250000000E+03  0.18250000000E+03  0.00000000000E+00 0. -1.
        -11    1    1    2    0    0  0.46714512920E+01 -0.31416407197E+00  0.15549571535E+03  0.15556618736E+03  0.00000000000E+00 0.  1.
         11    1    1    2    0    0  0.30828175920E+01 -0.54367495551E+00 -0.16684212530E+03  0.16687148984E+03  0.00000000000E+00 0. -1.
        -15    1    1    2    0    0 -0.65301971315E+01  0.28287026020E+01  0.26311380774E+02  0.27314675912E+02  0.17770000000E+01 0. -1.
         15    1    1    2    0    0 -0.12240717525E+01 -0.19708635745E+01 -0.14964970821E+02  0.15247646886E+02  0.17770000000E+01 0.  1.
</event>
<event>
 6    1  0.1059789E-002  0.1844963E+03  0.7546771E-02  0.1066877E+00
        -11   -1    0    0    0    0  0.00000000000E+00  0.00000000000E+00  0.18250000000E+03  0.18250000000E+03  0.00000000000E+00 0.  1.
         11   -1    0    0    0    0 -0.00000000000E+00 -0.00000000000E+00 -0.18250000000E+03  0.18250000000E+03  0.00000000000E+00 0.  1.
        -11    1    1    2    0    0 -0.38164289101E+01  0.52270111980E+01  0.14684740728E+03  0.14698995816E+03  0.00000000000E+00 0.  1.
         11    1    1    2    0    0 -0.17761603300E+00 -0.45354380956E+01 -0.18044659999E+03  0.18050367640E+03  0.00000000000E+00 0.  1.
        -15    1    1    2    0    0  0.94424953749E+01 -0.16826375030E+01  0.14004816448E+02  0.17067061863E+02  0.17770000000E+01 0.  1.
         15    1    1    2    0    0 -0.54484504318E+01  0.99106440066E+00  0.19594376258E+02  0.20439303577E+02  0.17770000000E+01 0. -1.
</event>
<event>
 6    1  0.1059789E-002  0.1855749E+03  0.7546771E-02  0.1066033E+00
        -11   -1    0    0    0    0  0.00000000000E+00  0.00000000000E+00  0.18250000000E+03  0.18250000000E+03  0.00000000000E+00 0.  1.
         11   -1    0    0    0    0 -0.00000000000E+00 -0.00000000000E+00 -0.18250000000E+03  0.18250000000E+03  0.00000000000E+00 0. -1.
        -11    1    1    2    0    0 -0.23360870248E+01  0.27854764036E+01  0.94836778118E+02  0.94906431106E+02  0.00000000000E+00 0.  1.
         11    1    1    2    0    0 -0.30135361800E+01  0.53253738151E+00 -0.17939899283E+03  0.17942509196E+03  0.00000000000E+00 0. -1.
        -15    1    1    2    0    0 -0.37015834922E+00 -0.64382199139E+01  0.83576135206E+02  0.83843400443E+02  0.17770000000E+01 0.  1.
         15    1    1    2    0    0  0.57197815540E+01  0.31202061288E+01  0.98607950651E+00  0.68250764908E+01  0.17770000000E+01 0. -1.
</event>
<event>
 6    1  0.1059789E-002  0.1855695E+03  0.7546771E-02  0.1066037E+00
        -11   -1    0    0    0    0  0.00000000000E+00  0.00000000000E+00  0.18250000000E+03  0.18250000000E+03  0.00000000000E+00 0. -1.
         11   -1    0    0    0    0 -0.00000000000E+00 -0.00000000000E+00 -0.18250000000E+03  0.18250000000E+03  0.00000000000E+00 0.  1.
        -11    1    1    2    0    0 -0.12016233017E+02 -0.20967081246E+02  0.17779569023E+03  0.17943053201E+03  0.00000000000E+00 0. -1.
         11    1    1    2    0    0 -0.52116411091E+00 -0.62668821546E+00 -0.47402689435E+02  0.47409696433E+02  0.00000000000E+00 0.  1.
        -15    1    1    2    0    0  0.11770452607E+02  0.17232340829E+02 -0.24807026049E+02  0.32466034489E+02  0.17770000000E+01 0. -1.
         15    1    1    2    0    0  0.76694452095E+00  0.43614286318E+01 -0.10558597475E+03  0.10569373707E+03  0.17770000000E+01 0.  1.
</event>
<event>
 6    1  0.1059789E-002  0.1828525E+03  0.7546771E-02  0.1068175E+00
        -11   -1    0    0    0    0  0.00000000000E+00  0.00000000000E+00  0.18250000000E+03  0.18250000000E+03  0.00000000000E+00 0. -1.
         11   -1    0    0    0    0 -0.00000000000E+00 -0.00000000000E+00 -0.18250000000E+03  0.18250000000E+03  0.00000000000E+00 0. -1.
        -11    1    1    2    0    0 -0.20753822756E+01  0.16664585710E+01  0.18212806440E+03  0.18214751203E+03  0.00000000000E+00 0. -1.
         11    1    1    2    0    0  0.32473892536E+01  0.22422941828E+01 -0.13759933485E+03  0.13765591296E+03  0.00000000000E+00 0. -1.
        -15    1    1    2    0    0  0.16663906320E+01 -0.19002063758E+01 -0.10517078523E+02  0.10961492219E+02  0.17770000000E+01 0.  1.
         15    1    1    2    0    0 -0.28383976099E+01 -0.20085463779E+01 -0.34011651025E+02  0.34235082795E+02  0.17770000000E+01 0. -1.
</event>
<event>
 6    1  0.1059789E-002  0.1714782E+03  0.7546771E-02  0.1077583E+00
        -11   -1    0    0    0    0  0.00000000000E+00  0.00000000000E+00  0.18250000000E+03  0.18250000000E+03  0.00000000000E+00 0. -1.
         11   -1    0    0    0    0 -0.00000000000E+00 -0.00000000000E+00 -0.18250000000E+03  0.18250000000E+03  0.00000000000E+00 0. -1.
        -11    1    1    2    0    0 -0.92949813528E+00  0.51888280196E+01  0.17317212234E+03  0.17325233580E+03  0.00000000000E+00 0. -1.
         11    1    1    2    0    0  0.20042938619E+01  0.31237298132E+01 -0.16978256594E+03  0.16982312734E+03  0.00000000000E+00 0. -1.
        -15    1    1    2    0    0 -0.94581861508E+00 -0.58717935564E+01  0.80086489513E+01  0.10132557399E+02  0.17770000000E+01 0.  1.
         15    1    1    2    0    0 -0.12897711151E+00 -0.24407642764E+01 -0.11398205357E+02  0.11791979465E+02  0.17770000000E+01 0. -1.
</event>
<event>
 6    1  0.1059789E-002  0.1847977E+03  0.7546771E-02  0.1066640E+00
        -11   -1    0    0    0    0  0.00000000000E+00  0.00000000000E+00  0.18250000000E+03  0.18250000000E+03  0.00000000000E+00 0.  1.
         11   -1    0    0    0    0 -0.00000000000E+00 -0.00000000000E+00 -0.18250000000E+03  0.18250000000E+03  0.00000000000E+00 0.  1.
        -11    1    1    2    0    0 -0.44046868137E+01 -0.94965026226E+00  0.18014598789E+03  0.18020233088E+03  0.00000000000E+00 0.  1.
         11    1    1    2    0    0 -0.12707221483E+01  0.46724425648E+01 -0.16800052892E+03  0.16807029533E+03  0.00000000000E+00 0.  1.
        -15    1    1    2    0    0  0.85005120286E+00 -0.11807387029E+01  0.90765784922E+00  0.24694741755E+01  0.17770000000E+01 0. -1.
         15    1    1    2    0    0  0.48253577591E+01 -0.25420535996E+01 -0.13053116816E+02  0.14257899622E+02  0.17770000000E+01 0.  1.
</event>
<event>
 6    1  0.1059789E-002  0.1843942E+03  0.7546771E-02  0.1066957E+00
        -11   -1    0    0    0    0  0.00000000000E+00  0.00000000000E+00  0.18250000000E+03  0.18250000000E+03  0.00000000000E+00 0.  1.
         11   -1    0    0    0    0 -0.00000000000E+00 -0.00000000000E+00 -0.18250000000E+03  0.18250000000E+03  0.00000000000E+00 0.  1.
        -11    1    1    2    0    0 -0.29785004776E+01  0.24884140341E-01  0.18058125672E+03  0.18060582041E+03  0.00000000000E+00 0.  1.
         11    1    1    2    0    0 -0.26713550726E+01 -0.25305164021E+01 -0.17243647010E+03  0.17247572545E+03  0.00000000000E+00 0.  1.
        -15    1    1    2    0    0  0.58310438408E+01  0.15148215571E+01 -0.74863189243E+01  0.97723311784E+01  0.17770000000E+01 0.  1.
         15    1    1    2    0    0 -0.18118829058E+00  0.99081070466E+00 -0.65846770321E+00  0.21461229614E+01  0.17770000000E+01 0. -1.
</event>
<event>
 6    1  0.1059789E-002  0.1840633E+03  0.7546771E-02  0.1067217E+00
        -11   -1    0    0    0    0  0.00000000000E+00  0.00000000000E+00  0.18250000000E+03  0.18250000000E+03  0.00000000000E+00 0. -1.
         11   -1    0    0    0    0 -0.00000000000E+00 -0.00000000000E+00 -0.18250000000E+03  0.18250000000E+03  0.00000000000E+00 0. -1.
        -11    1    1    2    0    0 -0.38681055931E+01 -0.76181387105E+00  0.14838900128E+03  0.14844136317E+03  0.00000000000E+00 0. -1.
         11    1    1    2    0    0 -0.46618981005E+01  0.21912007216E+01 -0.18086332836E+03  0.18093666904E+03  0.00000000000E+00 0. -1.
        -15    1    1    2    0    0  0.18603637163E+01 -0.30499563694E+01  0.22574154453E+01  0.45844127765E+01  0.17770000000E+01 0.  1.
         15    1    1    2    0    0  0.66696399773E+01  0.16205695189E+01  0.30216911642E+02  0.31037555013E+02  0.17770000000E+01 0. -1.
</event>
<event>
 6    1  0.1059789E-002  0.1848995E+03  0.7546771E-02  0.1066561E+00
        -11   -1    0    0    0    0  0.00000000000E+00  0.00000000000E+00  0.18250000000E+03  0.18250000000E+03  0.00000000000E+00 0.  1.
         11   -1    0    0    0    0 -0.00000000000E+00 -0.00000000000E+00 -0.18250000000E+03  0.18250000000E+03  0.00000000000E+00 0.  1.
        -11    1    1    2    0    0  0.13768088608E+01  0.40411118776E+01  0.18004993799E+03  0.18010054514E+03  0.00000000000E+00 0.  1.
         11    1    1    2    0    0 -0.17216378312E+01  0.53059909730E+01 -0.16010078517E+03  0.16019793691E+03  0.00000000000E+00 0.  1.
        -15    1    1    2    0    0  0.25296356587E+01 -0.23669706484E+01 -0.59938134903E+00  0.39393646211E+01  0.17770000000E+01 0.  1.
         15    1    1    2    0    0 -0.21848066884E+01 -0.69801322022E+01 -0.19349771477E+02  0.20762153333E+02  0.17770000000E+01 0. -1.
</event>
<event>
 6    1  0.1059789E-002  0.1875478E+03  0.7546771E-02  0.1064506E+00
        -11   -1    0    0    0    0  0.00000000000E+00  0.00000000000E+00  0.18250000000E+03  0.18250000000E+03  0.00000000000E+00 0.  1.
         11   -1    0    0    0    0 -0.00000000000E+00 -0.00000000000E+00 -0.18250000000E+03  0.18250000000E+03  0.00000000000E+00 0. -1.
        -11    1    1    2    0    0 -0.10293289475E+02  0.67150793284E+01  0.17702607422E+03  0.17745217680E+03  0.00000000000E+00 0.  1.
         11    1    1    2    0    0 -0.32831316259E+01 -0.29458928564E+01 -0.14679456169E+03  0.14686082043E+03  0.00000000000E+00 0. -1.
        -15    1    1    2    0    0  0.70734975461E+01 -0.60665150697E+01  0.14407459685E+00  0.94876477124E+01  0.17770000000E+01 0.  1.
         15    1    1    2    0    0  0.65029235548E+01  0.22973285976E+01 -0.30375587127E+02  0.31199355054E+02  0.17770000000E+01 0. -1.
</event>
<event>
 6    1  0.1059789E-002  0.1866255E+03  0.7546771E-02  0.1065218E+00
        -11   -1    0    0    0    0  0.00000000000E+00  0.00000000000E+00  0.18250000000E+03  0.18250000000E+03  0.00000000000E+00 0.  1.
         11   -1    0    0    0    0 -0.00000000000E+00 -0.00000000000E+00 -0.18250000000E+03  0.18250000000E+03  0.00000000000E+00 0.  1.
        -11    1    1    2    0    0 -0.86852416972E+01 -0.37128163249E+01  0.17812425667E+03  0.17837451960E+03  0.00000000000E+00 0.  1.
         11    1    1    2    0    0  0.90030894913E+00 -0.32330247813E+01 -0.16883772954E+03  0.16887108077E+03  0.00000000000E+00 0.  1.
        -15    1    1    2    0    0  0.65521756244E+01  0.66056463760E+01 -0.11324228192E+02  0.14763517284E+02  0.17770000000E+01 0. -1.
         15    1    1    2    0    0  0.12327571236E+01  0.34019473019E+00  0.20377010652E+01  0.29908823467E+01  0.17770000000E+01 0.  1.
</event>
<event>
 6    1  0.1059789E-002  0.1789562E+03  0.7546771E-02  0.1071311E+00
        -11   -1    0    0    0    0  0.00000000000E+00  0.00000000000E+00  0.18250000000E+03  0.18250000000E+03  0.00000000000E+00 0. -1.
         11   -1    0    0    0    0 -0.00000000000E+00 -0.00000000000E+00 -0.18250000000E+03  0.18250000000E+03  0.00000000000E+00 0. -1.
        -11    1    1    2    0    0  0.29470524703E+00  0.37821168394E+01  0.17756475629E+03  0.17760527564E+03  0.00000000000E+00 0. -1.
         11    1    1    2    0    0  0.28321106354E+01  0.36288537210E+00 -0.18033281539E+03  0.18035541811E+03  0.00000000000E+00 0. -1.
        -15    1    1    2    0    0 -0.15522850889E+01 -0.12834438417E+01  0.66332788728E+00  0.27666857390E+01  0.17770000000E+01 0.  1.
         15    1    1    2    0    0 -0.15745307935E+01 -0.28615583697E+01  0.21047312101E+01  0.42726205062E+01  0.17770000000E+01 0.  1.
</event>
<event>
 6    1  0.1059789E-002  0.1831159E+03  0.7546771E-02  0.1067966E+00
        -11   -1    0    0    0    0  0.00000000000E+00  0.00000000000E+00  0.18250000000E+03  0.18250000000E+03  0.00000000000E+00 0. -1.
         11   -1    0    0    0    0 -0.00000000000E+00 -0.00000000000E+00 -0.18250000000E+03  0.18250000000E+03  0.00000000000E+00 0. -1.
        -11    1    1    2    0    0  0.11614433690E+00  0.30897204635E+01  0.18185783549E+03  0.18188411748E+03  0.00000000000E+00 0. -1.
         11    1    1    2    0    0  0.24911606039E+01 -0.13674632777E+01 -0.82537389829E+02  0.82586297633E+02  0.00000000000E+00 0. -1.
        -15    1    1    2    0    0 -0.17831471621E+01 -0.25633545735E+01 -0.48535127406E+01  0.60386021060E+01  0.17770000000E+01 0.  1.
         15    1    1    2    0    0 -0.82415777866E+00  0.84109738769E+00 -0.94466932925E+02  0.94490982777E+02  0.17770000000E+01 0. -1.
</event>
<event>
 6    1  0.1059789E-002  0.1842410E+03  0.7546771E-02  0.1067077E+00
        -11   -1    0    0    0    0  0.00000000000E+00  0.00000000000E+00  0.18250000000E+03  0.18250000000E+03  0.00000000000E+00 0.  1.
         11   -1    0    0    0    0 -0.00000000000E+00 -0.00000000000E+00 -0.18250000000E+03  0.18250000000E+03  0.00000000000E+00 0.  1.
        -11    1    1    2    0    0 -0.44829749843E+01  0.47235507075E+01  0.16328046274E+03  0.16341027663E+03  0.00000000000E+00 0.  1.
         11    1    1    2    0    0 -0.30469893338E+01  0.13641720812E+01 -0.18072820017E+03  0.18075903144E+03  0.00000000000E+00 0.  1.
        -15    1    1    2    0    0  0.86656952126E+00  0.84198020078E-01  0.19390597636E+01  0.27705078612E+01  0.17770000000E+01 0.  1.
         15    1    1    2    0    0  0.66633947969E+01 -0.61719208087E+01  0.15508677666E+02  0.18060184070E+02  0.17770000000E+01 0.  1.
</event>
<event>
 6    1  0.1059789E-002  0.1828042E+03  0.7546771E-02  0.1068213E+00
        -11   -1    0    0    0    0  0.00000000000E+00  0.00000000000E+00  0.18250000000E+03  0.18250000000E+03  0.00000000000E+00 0. -1.
         11   -1    0    0    0    0 -0.00000000000E+00 -0.00000000000E+00 -0.18250000000E+03  0.18250000000E+03  0.00000000000E+00 0. -1.
        -11    1    1    2    0    0  0.33064752303E+01 -0.21922298070E+01  0.18215257181E+03  0.18219576852E+03  0.00000000000E+00 0. -1.
         11    1    1    2    0    0 -0.20120737655E+01  0.17580320682E+00 -0.31079542453E+02  0.31145100846E+02  0.00000000000E+00 0. -1.
        -15    1    1    2    0    0 -0.10826650636E-01  0.51009816510E+01 -0.27353728721E+02  0.27881971504E+02  0.17770000000E+01 0.  1.
         15    1    1    2    0    0 -0.12835748141E+01 -0.30845550508E+01 -0.12371930063E+03  0.12377715913E+03  0.17770000000E+01 0. -1.
</event>
<event>
 6    1  0.1059789E-002  0.1838411E+03  0.7546771E-02  0.1067392E+00
        -11   -1    0    0    0    0  0.00000000000E+00  0.00000000000E+00  0.18250000000E+03  0.18250000000E+03  0.00000000000E+00 0.  1.
         11   -1    0    0    0    0 -0.00000000000E+00 -0.00000000000E+00 -0.18250000000E+03  0.18250000000E+03  0.00000000000E+00 0.  1.
        -11    1    1    2    0    0 -0.57725422558E+01  0.55674931755E+01  0.14569488000E+03  0.14591544567E+03  0.00000000000E+00 0.  1.
         11    1    1    2    0    0  0.27103392046E+01  0.98310040241E+00 -0.18113591290E+03  0.18115885672E+03  0.00000000000E+00 0.  1.
        -15    1    1    2    0    0  0.58189294963E+01 -0.54306434210E+01  0.32070675597E+02  0.33091355226E+02  0.17770000000E+01 0.  1.
         15    1    1    2    0    0 -0.27567264452E+01 -0.11199501568E+01  0.33703572985E+01  0.48343423924E+01  0.17770000000E+01 0. -1.
</event>
<event>
 6    1  0.1059789E-002  0.1839523E+03  0.7546771E-02  0.1067305E+00
        -11   -1    0    0    0    0  0.00000000000E+00  0.00000000000E+00  0.18250000000E+03  0.18250000000E+03  0.00000000000E+00 0.  1.
         11   -1    0    0    0    0 -0.00000000000E+00 -0.00000000000E+00 -0.18250000000E+03  0.18250000000E+03  0.00000000000E+00 0.  1.
        -11    1    1    2    0    0 -0.19803139072E+01 -0.56399287228E+01  0.14913632077E+03  0.14925606391E+03  0.00000000000E+00 0.  1.
         11    1    1    2    0    0  0.42445521344E+01 -0.14793201042E+00 -0.18099790513E+03  0.18104772788E+03  0.00000000000E+00 0.  1.
        -15    1    1    2    0    0  0.47610873271E+01  0.31790412792E+01  0.15258586260E+02  0.16393792717E+02  0.17770000000E+01 0.  1.
         15    1    1    2    0    0 -0.70253255544E+01  0.26088194541E+01  0.16602998101E+02  0.18302415497E+02  0.17770000000E+01 0. -1.
</event>
<event>
 6    1  0.1059789E-002  0.1831671E+03  0.7546771E-02  0.1067925E+00
        -11   -1    0    0    0    0  0.00000000000E+00  0.00000000000E+00  0.18250000000E+03  0.18250000000E+03  0.00000000000E+00 0.  1.
         11   -1    0    0    0    0 -0.00000000000E+00 -0.00000000000E+00 -0.18250000000E+03  0.18250000000E+03  0.00000000000E+00 0. -1.
        -11    1    1    2    0    0 -0.16385694895E+01  0.16225935390E+01  0.14001580027E+03  0.14003478870E+03  0.00000000000E+00 0.  1.
         11    1    1    2    0    0  0.42245322514E+00 -0.25712425985E+01 -0.18181418709E+03  0.18183285837E+03  0.00000000000E+00 0. -1.
        -15    1    1    2    0    0 -0.25526362697E+01  0.16301331667E+01  0.51006749322E+01  0.61925681127E+01  0.17770000000E+01 0.  1.
         15    1    1    2    0    0  0.37687525341E+01 -0.68148410714E+00  0.36697711886E+02  0.36939784825E+02  0.17770000000E+01 0. -1.
</event>
<event>
 6    1  0.1059789E-002  0.1854075E+03  0.7546771E-02  0.1066164E+00
        -11   -1    0    0    0    0  0.00000000000E+00  0.00000000000E+00  0.18250000000E+03  0.18250000000E+03  0.00000000000E+00 0. -1.
         11   -1    0    0    0    0 -0.00000000000E+00 -0.00000000000E+00 -0.18250000000E+03  0.18250000000E+03  0.00000000000E+00 0.  1.
        -11    1    1    2    0    0  0.17105926331E+01  0.70483239536E+00  0.13538860751E+03  0.13540124800E+03  0.00000000000E+00 0. -1.
         11    1    1    2    0    0 -0.31731638073E+01  0.46061708717E+01 -0.17950534883E+03  0.17959247211E+03  0.00000000000E+00 0.  1.
        -15    1    1    2    0    0  0.66914835986E+00  0.60827381328E+00 -0.23737838427E+01  0.31000540788E+01  0.17770000000E+01 0. -1.
         15    1    1    2    0    0  0.79342281433E+00 -0.59192770804E+01  0.46490525162E+02  0.46906225810E+02  0.17770000000E+01 0. -1.
</event>
<event>
 6    1  0.1059789E-002  0.1836831E+03  0.7546771E-02  0.1067517E+00
        -11   -1    0    0    0    0  0.00000000000E+00  0.00000000000E+00  0.18250000000E+03  0.18250000000E+03  0.00000000000E+00 0. -1.
         11   -1    0    0    0    0 -0.00000000000E+00 -0.00000000000E+00 -0.18250000000E+03  0.18250000000E+03  0.00000000000E+00 0. -1.
        -11    1    1    2    0    0  0.41832190486E+01 -0.24795274239E+01  0.13373922424E+03  0.13382760357E+03  0.00000000000E+00 0. -1.
         11    1    1    2    0    0  0.56640740307E+01  0.31157718415E+01 -0.18120162366E+03  0.18131689989E+03  0.00000000000E+00 0. -1.
        -15    1    1    2    0    0 -0.87414698444E+01 -0.36651325481E+01  0.43010685033E+02  0.44078603059E+02  0.17770000000E+01 0.  1.
         15    1    1    2    0    0 -0.11058232350E+01  0.30288881305E+01  0.44517143849E+01  0.57768934817E+01  0.17770000000E+01 0.  1.
</event>
<event>
 6    1  0.1059789E-002  0.1863852E+03  0.7546771E-02  0.1065404E+00
        -11   -1    0    0    0    0  0.00000000000E+00  0.00000000000E+00  0.18250000000E+03  0.18250000000E+03  0.00000000000E+00 0.  1.
         11   -1    0    0    0    0 -0.00000000000E+00 -0.00000000000E+00 -0.18250000000E+03  0.18250000000E+03  0.00000000000E+00 0. -1.
        -11    1    1    2    0    0 -0.10724071994E+02  0.11416736878E+02  0.17792664632E+03  0.17861477842E+03  0.00000000000E+00 0.  1.
         11    1    1    2    0    0 -0.45026580958E+01  0.58846948596E+01 -0.76139151674E+02  0.76498849541E+02  0.00000000000E+00 0. -1.
        -15    1    1    2    0    0  0.15279532714E+02 -0.76794810683E+01 -0.97833730378E+02  0.99332950616E+02  0.17770000000E+01 0.  1.
         15    1    1    2    0    0 -0.52802624016E-01 -0.96219506690E+01 -0.39537642658E+01  0.10553421420E+02  0.17770000000E+01 0. -1.
</event>
<event>
 6    1  0.1059789E-002  0.1831242E+03  0.7546771E-02  0.1067959E+00
        -11   -1    0    0    0    0  0.00000000000E+00  0.00000000000E+00  0.18250000000E+03  0.18250000000E+03  0.00000000000E+00 0. -1.
         11   -1    0    0    0    0 -0.00000000000E+00 -0.00000000000E+00 -0.18250000000E+03  0.18250000000E+03  0.00000000000E+00 0.  1.
        -11    1    1    2    0    0  0.13347734459E+00 -0.33182190421E+01  0.18184552389E+03  0.18187584489E+03  0.00000000000E+00 0. -1.
         11    1    1    2    0    0  0.22405455241E+01  0.13271274889E+01 -0.16895091322E+03  0.16897098091E+03  0.00000000000E+00 0.  1.
        -15    1    1    2    0    0 -0.18219383635E+01  0.11217592640E+01 -0.11043138149E+02  0.11387995101E+02  0.17770000000E+01 0.  1.
         15    1    1    2    0    0 -0.55208450519E+00  0.86933228913E+00 -0.18514725213E+01  0.27651790949E+01  0.17770000000E+01 0. -1.
</event>
<event>
 6    1  0.1059789E-002  0.1843359E+03  0.7546771E-02  0.1067003E+00
        -11   -1    0    0    0    0  0.00000000000E+00  0.00000000000E+00  0.18250000000E+03  0.18250000000E+03  0.00000000000E+00 0.  1.
         11   -1    0    0    0    0 -0.00000000000E+00 -0.00000000000E+00 -0.18250000000E+03  0.18250000000E+03  0.00000000000E+00 0. -1.
        -11    1    1    2    0    0 -0.12188393625E+01 -0.26758104496E+01  0.18064018803E+03  0.18066411670E+03  0.00000000000E+00 0.  1.
         11    1    1    2    0    0 -0.11789502314E+01  0.14089693330E+01 -0.62888436485E+02  0.62915264934E+02  0.00000000000E+00 0. -1.
        -15    1    1    2    0    0 -0.21417841014E+01  0.32173615079E+01 -0.77246537319E+00  0.43235501572E+01  0.17770000000E+01 0.  1.
         15    1    1    2    0    0  0.45395736953E+01 -0.19505203914E+01 -0.11697928618E+03  0.11709706821E+03  0.17770000000E+01 0. -1.
</event>
<event>
 6    1  0.1059789E-002  0.1837284E+03  0.7546771E-02  0.1067481E+00
        -11   -1    0    0    0    0  0.00000000000E+00  0.00000000000E+00  0.18250000000E+03  0.18250000000E+03  0.00000000000E+00 0. -1.
         11   -1    0    0    0    0 -0.00000000000E+00 -0.00000000000E+00 -0.18250000000E+03  0.18250000000E+03  0.00000000000E+00 0. -1.
        -11    1    1    2    0    0  0.20138754900E+01 -0.10047923405E+01  0.13593781371E+03  0.13595644338E+03  0.00000000000E+00 0. -1.
         11    1    1    2    0    0 -0.46626705236E+01  0.38526408703E+01 -0.18117068746E+03  0.18127162308E+03  0.00000000000E+00 0. -1.
        -15    1    1    2    0    0 -0.20114215715E+01 -0.23059647720E+01  0.41154871412E+02  0.41306712048E+02  0.17770000000E+01 0.  1.
         15    1    1    2    0    0  0.46602166052E+01 -0.54188375788E+00  0.40780023440E+01  0.64652214913E+01  0.17770000000E+01 0. -1.
</event>
<event>
 6    1  0.1059789E-002  0.1843038E+03  0.7546771E-02  0.1067028E+00
        -11   -1    0    0    0    0  0.00000000000E+00  0.00000000000E+00  0.18250000000E+03  0.18250000000E+03  0.00000000000E+00 0. -1.
         11   -1    0    0    0    0 -0.00000000000E+00 -0.00000000000E+00 -0.18250000000E+03  0.18250000000E+03  0.00000000000E+00 0.  1.
        -11    1    1    2    0    0  0.42271293681E+01 -0.13063861703E+01  0.12730906355E+03  0.12738592124E+03  0.00000000000E+00 0. -1.
         11    1    1    2    0    0  0.78557578528E-01  0.24661098918E+01 -0.18067932713E+03  0.18069617351E+03  0.00000000000E+00 0.  1.
        -15    1    1    2    0    0 -0.27926665140E+01  0.32265052904E+01  0.51344739270E+02  0.51552393760E+02  0.17770000000E+01 0. -1.
         15    1    1    2    0    0 -0.15130204326E+01 -0.43862290119E+01  0.20255243075E+01  0.53655114849E+01  0.17770000000E+01 0. -1.
</event>
<event>
 6    1  0.1059789E-002  0.1903038E+03  0.7546771E-02  0.1062407E+00
        -11   -1    0    0    0    0  0.00000000000E+00  0.00000000000E+00  0.18250000000E+03  0.18250000000E+03  0.00000000000E+00 0. -1.
         11   -1    0    0    0    0 -0.00000000000E+00 -0.00000000000E+00 -0.18250000000E+03  0.18250000000E+03  0.00000000000E+00 0. -1.
        -11    1    1    2    0    0  0.17789281905E+01  0.15167117006E+01  0.15448926195E+03  0.15450694825E+03  0.00000000000E+00 0. -1.
         11    1    1    2    0    0 -0.61818312256E+01 -0.14176899767E+01 -0.17458104637E+03  0.17469621242E+03  0.00000000000E+00 0. -1.
        -15    1    1    2    0    0 -0.20348886928E+00  0.13427909675E+02  0.15712465216E+02  0.20745829897E+02  0.17770000000E+01 0. -1.
         15    1    1    2    0    0  0.46063919044E+01 -0.13526931399E+02  0.43793192017E+01  0.15051009438E+02  0.17770000000E+01 0.  1.
</event>
<event>
 6    1  0.1059789E-002  0.1865068E+03  0.7546771E-02  0.1065309E+00
        -11   -1    0    0    0    0  0.00000000000E+00  0.00000000000E+00  0.18250000000E+03  0.18250000000E+03  0.00000000000E+00 0. -1.
         11   -1    0    0    0    0 -0.00000000000E+00 -0.00000000000E+00 -0.18250000000E+03  0.18250000000E+03  0.00000000000E+00 0. -1.
        -11    1    1    2    0    0 -0.18462008654E+02  0.24427261958E+01  0.17751903355E+03  0.17849319300E+03  0.00000000000E+00 0. -1.
         11    1    1    2    0    0 -0.32527348423E+00 -0.21731892103E+01 -0.14504184461E+03  0.14505848904E+03  0.00000000000E+00 0. -1.
        -15    1    1    2    0    0  0.19700960448E+02 -0.74833105466E+00 -0.17778701557E+02  0.26606912635E+02  0.17770000000E+01 0.  1.
         15    1    1    2    0    0 -0.91367830950E+00  0.47879406907E+00 -0.14698487380E+02  0.14841405326E+02  0.17770000000E+01 0.  1.
</event>
<event>
 6    1  0.1059789E-002  0.1870556E+03  0.7546771E-02  0.1064885E+00
        -11   -1    0    0    0    0  0.00000000000E+00  0.00000000000E+00  0.18250000000E+03  0.18250000000E+03  0.00000000000E+00 0. -1.
         11   -1    0    0    0    0 -0.00000000000E+00 -0.00000000000E+00 -0.18250000000E+03  0.18250000000E+03  0.00000000000E+00 0.  1.
        -11    1    1    2    0    0  0.79433356418E+00  0.41795444260E+01  0.16484328876E+03  0.16489817891E+03  0.00000000000E+00 0. -1.
         11    1    1    2    0    0 -0.46772500112E+00  0.26714737312E+01 -0.17792368262E+03  0.17794435191E+03  0.00000000000E+00 0.  1.
        -15    1    1    2    0    0  0.41706539270E+01 -0.65492075017E+00 -0.21184504276E+01  0.50466658878E+01  0.17770000000E+01 0.  1.
         15    1    1    2    0    0 -0.44972624901E+01 -0.61960974070E+01  0.15198844286E+02  0.17110803301E+02  0.17770000000E+01 0. -1.
</event>
<event>
 6    1  0.1059789E-002  0.1775861E+03  0.7546771E-02  0.1072435E+00
        -11   -1    0    0    0    0  0.00000000000E+00  0.00000000000E+00  0.18250000000E+03  0.18250000000E+03  0.00000000000E+00 0.  1.
         11   -1    0    0    0    0 -0.00000000000E+00 -0.00000000000E+00 -0.18250000000E+03  0.18250000000E+03  0.00000000000E+00 0.  1.
        -11    1    1    2    0    0  0.95643029579E+01  0.53942089935E+01  0.17754818536E+03  0.17788741245E+03  0.00000000000E+00 0.  1.
         11    1    1    2    0    0 -0.46466096442E+01  0.18623886308E+00 -0.17730177970E+03  0.17736275469E+03  0.00000000000E+00 0.  1.
        -15    1    1    2    0    0 -0.39980030734E+01 -0.50998898949E+01  0.16851721738E+01  0.69275132458E+01  0.17770000000E+01 0. -1.
         15    1    1    2    0    0 -0.91969024029E+00 -0.48055796170E+00 -0.19315778362E+01  0.28223196187E+01  0.17770000000E+01 0.  1.
</event>
<event>
 6    1  0.1059789E-002  0.1838873E+03  0.7546771E-02  0.1067356E+00
        -11   -1    0    0    0    0  0.00000000000E+00  0.00000000000E+00  0.18250000000E+03  0.18250000000E+03  0.00000000000E+00 0. -1.
         11   -1    0    0    0    0 -0.00000000000E+00 -0.00000000000E+00 -0.18250000000E+03  0.18250000000E+03  0.00000000000E+00 0. -1.
        -11    1    1    2    0    0 -0.25247567099E+01  0.18289388458E+01  0.77369291097E+02  0.77432077452E+02  0.00000000000E+00 0. -1.
         11    1    1    2    0    0 -0.41206573871E+01  0.67915087170E+00 -0.18106458428E+03  0.18111274043E+03  0.00000000000E+00 0. -1.
        -15    1    1    2    0    0 -0.42487747619E+00  0.27983851473E+01  0.89975611946E+02  0.90037658535E+02  0.17770000000E+01 0. -1.
         15    1    1    2    0    0  0.70702915733E+01 -0.53064748648E+01  0.13719681240E+02  0.16417523587E+02  0.17770000000E+01 0. -1.
</event>
<event>
 6    1  0.1059789E-002  0.1893415E+03  0.7546771E-02  0.1063136E+00
        -11   -1    0    0    0    0  0.00000000000E+00  0.00000000000E+00  0.18250000000E+03  0.18250000000E+03  0.00000000000E+00 0.  1.
         11   -1    0    0    0    0 -0.00000000000E+00 -0.00000000000E+00 -0.18250000000E+03  0.18250000000E+03  0.00000000000E+00 0.  1.
        -11    1    1    2    0    0 -0.39632820595E+01  0.62437850351E+01  0.17550275202E+03  0.17565849944E+03  0.00000000000E+00 0.  1.
         11    1    1    2    0    0 -0.90483054047E+01  0.66220377001E+01 -0.14270684307E+03  0.14314666001E+03  0.00000000000E+00 0.  1.
        -15    1    1    2    0    0  0.18618354275E+01  0.81993335614E+01 -0.76941754871E+01  0.11534884804E+02  0.17770000000E+01 0.  1.
         15    1    1    2    0    0  0.11149752037E+02 -0.21065156297E+02 -0.25101733472E+02  0.34659955750E+02  0.17770000000E+01 0. -1.
</event>
<event>
 6    1  0.1059789E-002  0.1850090E+03  0.7546771E-02  0.1066475E+00
        -11   -1    0    0    0    0  0.00000000000E+00  0.00000000000E+00  0.18250000000E+03  0.18250000000E+03  0.00000000000E+00 0. -1.
         11   -1    0    0    0    0 -0.00000000000E+00 -0.00000000000E+00 -0.18250000000E+03  0.18250000000E+03  0.00000000000E+00 0.  1.
        -11    1    1    2    0    0 -0.10408294121E+01  0.34568946928E+01  0.17995480868E+03  0.17999101814E+03  0.00000000000E+00 0. -1.
         11    1    1    2    0    0 -0.36070405845E+01 -0.28398244652E+01 -0.17330441793E+03  0.17336521168E+03  0.00000000000E+00 0.  1.
        -15    1    1    2    0    0  0.38983550509E+01  0.17821090263E+01 -0.37647153616E+00  0.46553780192E+01  0.17770000000E+01 0.  1.
         15    1    1    2    0    0  0.74951494577E+00 -0.23991792539E+01 -0.62739192062E+01  0.69883921579E+01  0.17770000000E+01 0. -1.
</event>
<event>
 6    1  0.1059789E-002  0.1864488E+03  0.7546771E-02  0.1065354E+00
        -11   -1    0    0    0    0  0.00000000000E+00  0.00000000000E+00  0.18250000000E+03  0.18250000000E+03  0.00000000000E+00 0. -1.
         11   -1    0    0    0    0 -0.00000000000E+00 -0.00000000000E+00 -0.18250000000E+03  0.18250000000E+03  0.00000000000E+00 0. -1.
        -11    1    1    2    0    0 -0.50254986968E+01 -0.92246041500E+00  0.17044919139E+03  0.17052575587E+03  0.00000000000E+00 0. -1.
         11    1    1    2    0    0  0.65468661436E+00  0.30699591799E+01 -0.17852357326E+03  0.17855116767E+03  0.00000000000E+00 0. -1.
        -15    1    1    2    0    0 -0.40973479680E+01 -0.51197410693E+00  0.94639499287E+00  0.45938840146E+01  0.17770000000E+01 0. -1.
         15    1    1    2    0    0  0.84681600505E+01 -0.16355246580E+01  0.71279868828E+01  0.11329192449E+02  0.17770000000E+01 0.  1.
</event>
<event>
 6    1  0.1059789E-002  0.1827938E+03  0.7546771E-02  0.1068221E+00
        -11   -1    0    0    0    0  0.00000000000E+00  0.00000000000E+00  0.18250000000E+03  0.18250000000E+03  0.00000000000E+00 0. -1.
         11   -1    0    0    0    0 -0.00000000000E+00 -0.00000000000E+00 -0.18250000000E+03  0.18250000000E+03  0.00000000000E+00 0.  1.
        -11    1    1    2    0    0 -0.54003920436E+01  0.74070922967E+00  0.18212466435E+03  0.18220621902E+03  0.00000000000E+00 0. -1.
         11    1    1    2    0    0  0.16049505604E+01 -0.28864088528E+01 -0.13172926686E+03  0.13177066050E+03  0.00000000000E+00 0.  1.
        -15    1    1    2    0    0  0.49498050874E+01  0.16341565098E+01 -0.29107137809E+02  0.29623541961E+02  0.17770000000E+01 0.  1.
         15    1    1    2    0    0 -0.11543636043E+01  0.51154311333E+00 -0.21288259679E+02  0.21399578521E+02  0.17770000000E+01 0. -1.
</event>
<event>
 6    1  0.1059789E-002  0.1825639E+03  0.7546771E-02  0.1068404E+00
        -11   -1    0    0    0    0  0.00000000000E+00  0.00000000000E+00  0.18250000000E+03  0.18250000000E+03  0.00000000000E+00 0. -1.
         11   -1    0    0    0    0 -0.00000000000E+00 -0.00000000000E+00 -0.18250000000E+03  0.18250000000E+03  0.00000000000E+00 0.  1.
        -11    1    1    2    0    0 -0.16135391445E+01 -0.20500957509E+01  0.18241740448E+03  0.18243605964E+03  0.00000000000E+00 0. -1.
         11    1    1    2    0    0  0.16704969259E+01 -0.32276924697E-01 -0.25966182296E+02  0.26019881337E+02  0.00000000000E+00 0.  1.
        -15    1    1    2    0    0  0.10804501926E+01  0.77523218586E+00 -0.36657922584E+02  0.36725051051E+02  0.17770000000E+01 0. -1.
         15    1    1    2    0    0 -0.11374079740E+01  0.13071404897E+01 -0.11979329960E+03  0.11981900797E+03  0.17770000000E+01 0.  1.
</event>
<event>
 6    1  0.1059789E-002  0.1863312E+03  0.7546771E-02  0.1065445E+00
        -11   -1    0    0    0    0  0.00000000000E+00  0.00000000000E+00  0.18250000000E+03  0.18250000000E+03  0.00000000000E+00 0. -1.
         11   -1    0    0    0    0 -0.00000000000E+00 -0.00000000000E+00 -0.18250000000E+03  0.18250000000E+03  0.00000000000E+00 0. -1.
        -11    1    1    2    0    0  0.53404793149E+01  0.51061517093E+00  0.17858828394E+03  0.17866884622E+03  0.00000000000E+00 0. -1.
         11    1    1    2    0    0  0.13712634559E+01 -0.45684998989E+01 -0.17308047100E+03  0.17314618389E+03  0.00000000000E+00 0. -1.
        -15    1    1    2    0    0 -0.26076359379E+01 -0.15314778355E+01 -0.48652656742E+01  0.59978103193E+01  0.17770000000E+01 0. -1.
         15    1    1    2    0    0 -0.41041068330E+01  0.55893625634E+01 -0.64254727056E+00  0.71871595750E+01  0.17770000000E+01 0.  1.
</event>
<event>
 6    1  0.1059789E-002  0.1844218E+03  0.7546771E-02  0.1066935E+00
        -11   -1    0    0    0    0  0.00000000000E+00  0.00000000000E+00  0.18250000000E+03  0.18250000000E+03  0.00000000000E+00 0. -1.
         11   -1    0    0    0    0 -0.00000000000E+00 -0.00000000000E+00 -0.18250000000E+03  0.18250000000E+03  0.00000000000E+00 0. -1.
        -11    1    1    2    0    0  0.18307432856E+01 -0.45412420857E+01  0.18051177067E+03  0.18057816549E+03  0.00000000000E+00 0. -1.
         11    1    1    2    0    0 -0.15167160569E+01  0.35097730191E+00 -0.10930708671E+03  0.10931817241E+03  0.00000000000E+00 0. -1.
        -15    1    1    2    0    0  0.96269308089E+01  0.53176174398E+01 -0.53873535902E+02  0.55013366118E+02  0.17770000000E+01 0. -1.
         15    1    1    2    0    0 -0.99409580376E+01 -0.11273526560E+01 -0.17331148058E+02  0.20090295984E+02  0.17770000000E+01 0.  1.
</event>
<event>
 6    1  0.1059789E-002  0.1828293E+03  0.7546771E-02  0.1068193E+00
        -11   -1    0    0    0    0  0.00000000000E+00  0.00000000000E+00  0.18250000000E+03  0.18250000000E+03  0.00000000000E+00 0.  1.
         11   -1    0    0    0    0 -0.00000000000E+00 -0.00000000000E+00 -0.18250000000E+03  0.18250000000E+03  0.00000000000E+00 0.  1.
        -11    1    1    2    0    0  0.22008052000E+01 -0.14325973091E+01  0.11461563940E+03  0.11464571808E+03  0.00000000000E+00 0.  1.
         11    1    1    2    0    0 -0.16051113139E+01 -0.26712178495E+01 -0.18214400608E+03  0.18217066377E+03  0.00000000000E+00 0.  1.
        -15    1    1    2    0    0  0.97601696784E+00 -0.33822927785E+00  0.47060020096E+02  0.47104885401E+02  0.17770000000E+01 0.  1.
         15    1    1    2    0    0 -0.15717108540E+01  0.44420444365E+01  0.20468346579E+02  0.21078732753E+02  0.17770000000E+01 0. -1.
</event>
<event>
 6    1  0.1059789E-002  0.1931684E+03  0.7546771E-02  0.1060266E+00
        -11   -1    0    0    0    0  0.00000000000E+00  0.00000000000E+00  0.18250000000E+03  0.18250000000E+03  0.00000000000E+00 0. -1.
         11   -1    0    0    0    0 -0.00000000000E+00 -0.00000000000E+00 -0.18250000000E+03  0.18250000000E+03  0.00000000000E+00 0.  1.
        -11    1    1    2    0    0  0.10462081797E+02 -0.10643924371E+01  0.15572680328E+03  0.15608147022E+03  0.00000000000E+00 0. -1.
         11    1    1    2    0    0  0.79586741558E+01 -0.42315732296E+01 -0.17159504247E+03  0.17183161905E+03  0.00000000000E+00 0.  1.
        -15    1    1    2    0    0 -0.84869170743E+01 -0.52673087706E+00  0.22191174042E+02  0.23830886286E+02  0.17770000000E+01 0. -1.
         15    1    1    2    0    0 -0.99338388785E+01  0.58226965437E+01 -0.63229348521E+01  0.13256024444E+02  0.17770000000E+01 0.  1.
</event>
<event>
 6    1  0.1059789E-002  0.1853303E+03  0.7546771E-02  0.1066224E+00
        -11   -1    0    0    0    0  0.00000000000E+00  0.00000000000E+00  0.18250000000E+03  0.18250000000E+03  0.00000000000E+00 0. -1.
         11   -1    0    0    0    0 -0.00000000000E+00 -0.00000000000E+00 -0.18250000000E+03  0.18250000000E+03  0.00000000000E+00 0.  1.
        -11    1    1    2    0    0  0.62256963402E-01 -0.32009499409E+01  0.14467931592E+03  0.14471473460E+03  0.00000000000E+00 0. -1.
         11    1    1    2    0    0 -0.83922190511E+01  0.68363273561E+01 -0.17934333323E+03  0.17966968550E+03  0.00000000000E+00 0.  1.
        -15    1    1    2    0    0  0.99008078853E+01 -0.46113417421E+01  0.75856975317E+01  0.13416072655E+02  0.17770000000E+01 0.  1.
         15    1    1    2    0    0 -0.15708457976E+01  0.97596432686E+00  0.27078319782E+02  0.27199507240E+02  0.17770000000E+01 0. -1.
</event>
<event>
 6    1  0.1059789E-002  0.1827325E+03  0.7546771E-02  0.1068270E+00
        -11   -1    0    0    0    0  0.00000000000E+00  0.00000000000E+00  0.18250000000E+03  0.18250000000E+03  0.00000000000E+00 0. -1.
         11   -1    0    0    0    0 -0.00000000000E+00 -0.00000000000E+00 -0.18250000000E+03  0.18250000000E+03  0.00000000000E+00 0.  1.
        -11    1    1    2    0    0  0.27183567828E+01 -0.15476846777E+01  0.18224067734E+03  0.18226752115E+03  0.00000000000E+00 0. -1.
         11    1    1    2    0    0  0.20464280988E+01  0.27366565553E-01 -0.11729548123E+03  0.11731333485E+03  0.00000000000E+00 0.  1.
        -15    1    1    2    0    0 -0.50729064057E+01 -0.18296523839E+00 -0.43855438858E+02  0.44183991469E+02  0.17770000000E+01 0.  1.
         15    1    1    2    0    0  0.30812152413E+00  0.17032833505E+01 -0.21089757247E+02  0.21235152526E+02  0.17770000000E+01 0. -1.
</event>
<event>
 6    1  0.1059789E-002  0.1835597E+03  0.7546771E-02  0.1067614E+00
        -11   -1    0    0    0    0  0.00000000000E+00  0.00000000000E+00  0.18250000000E+03  0.18250000000E+03  0.00000000000E+00 0. -1.
         11   -1    0    0    0    0 -0.00000000000E+00 -0.00000000000E+00 -0.18250000000E+03  0.18250000000E+03  0.00000000000E+00 0.  1.
        -11    1    1    2    0    0  0.44002554517E+01  0.54717978528E+01  0.18130442723E+03  0.18144034324E+03  0.00000000000E+00 0. -1.
         11    1    1    2    0    0  0.24286464866E+01  0.11538469550E+01 -0.14492279752E+03  0.14494773861E+03  0.00000000000E+00 0.  1.
        -15    1    1    2    0    0  0.55279914349E+00 -0.87228948348E+00 -0.15793767080E+02  0.15926935782E+02  0.17770000000E+01 0.  1.
         15    1    1    2    0    0 -0.73817010818E+01 -0.57533553244E+01 -0.20587862633E+02  0.22684982371E+02  0.17770000000E+01 0. -1.
</event>
<event>
 6    1  0.1059789E-002  0.1829167E+03  0.7546771E-02  0.1068124E+00
        -11   -1    0    0    0    0  0.00000000000E+00  0.00000000000E+00  0.18250000000E+03  0.18250000000E+03  0.00000000000E+00 0. -1.
         11   -1    0    0    0    0 -0.00000000000E+00 -0.00000000000E+00 -0.18250000000E+03  0.18250000000E+03  0.00000000000E+00 0. -1.
        -11    1    1    2    0    0  0.14130172954E+01 -0.30239912281E+00  0.97403972746E+02  0.97414690729E+02  0.00000000000E+00 0. -1.
         11    1    1    2    0    0 -0.48396937519E+01  0.91247800217E+01 -0.18179013967E+03  0.18208333018E+03  0.00000000000E+00 0. -1.
        -15    1    1    2    0    0 -0.26946903800E+01 -0.14544703897E+01  0.13812045403E+02  0.14258582243E+02  0.17770000000E+01 0.  1.
         15    1    1    2    0    0  0.61213668365E+01 -0.73679105092E+01  0.70574121523E+02  0.71243396852E+02  0.17770000000E+01 0. -1.
</event>
<event>
 6    1  0.1059789E-002  0.1868869E+03  0.7546771E-02  0.1065016E+00
        -11   -1    0    0    0    0  0.00000000000E+00  0.00000000000E+00  0.18250000000E+03  0.18250000000E+03  0.00000000000E+00 0. -1.
         11   -1    0    0    0    0 -0.00000000000E+00 -0.00000000000E+00 -0.18250000000E+03  0.18250000000E+03  0.00000000000E+00 0.  1.
        -11    1    1    2    0    0 -0.74701674001E+01  0.35949860509E+01  0.91127788762E+02  0.91504104883E+02  0.00000000000E+00 0. -1.
         11    1    1    2    0    0  0.52924475318E+00 -0.48512466629E+01 -0.17804624509E+03  0.17811311037E+03  0.00000000000E+00 0.  1.
        -15    1    1    2    0    0 -0.12134253240E+02  0.42137046877E+01  0.64298379210E+02  0.65592947082E+02  0.17770000000E+01 0. -1.
         15    1    1    2    0    0  0.19075175887E+02 -0.29574440757E+01  0.22620077116E+02  0.29789837669E+02  0.17770000000E+01 0.  1.
</event>
<event>
 6    1  0.1059789E-002  0.1839880E+03  0.7546771E-02  0.1067276E+00
        -11   -1    0    0    0    0  0.00000000000E+00  0.00000000000E+00  0.18250000000E+03  0.18250000000E+03  0.00000000000E+00 0. -1.
         11   -1    0    0    0    0 -0.00000000000E+00 -0.00000000000E+00 -0.18250000000E+03  0.18250000000E+03  0.00000000000E+00 0. -1.
        -11    1    1    2    0    0  0.36376114481E+01  0.25637942899E+01  0.18095728020E+03  0.18101199550E+03  0.00000000000E+00 0. -1.
         11    1    1    2    0    0  0.20587786305E+01 -0.26986933466E+01 -0.15918290042E+03  0.15921908585E+03  0.00000000000E+00 0. -1.
        -15    1    1    2    0    0 -0.77090049844E+01 -0.14302943561E+01 -0.11475800685E+02  0.14011646233E+02  0.17770000000E+01 0.  1.
         15    1    1    2    0    0  0.20126149058E+01  0.15651934127E+01 -0.10298579102E+02  0.10757272410E+02  0.17770000000E+01 0. -1.
</event>
<event>
 6    1  0.1059789E-002  0.1830658E+03  0.7546771E-02  0.1068005E+00
        -11   -1    0    0    0    0  0.00000000000E+00  0.00000000000E+00  0.18250000000E+03  0.18250000000E+03  0.00000000000E+00 0.  1.
         11   -1    0    0    0    0 -0.00000000000E+00 -0.00000000000E+00 -0.18250000000E+03  0.18250000000E+03  0.00000000000E+00 0.  1.
        -11    1    1    2    0    0 -0.29412468115E+01  0.28172360828E+01  0.18188858511E+03  0.18193417805E+03  0.00000000000E+00 0.  1.
         11    1    1    2    0    0 -0.52402092828E-02  0.13492959793E+01 -0.31765703874E+02  0.31794348078E+02  0.00000000000E+00 0.  1.
        -15    1    1    2    0    0 -0.45060807500E-01 -0.24249055160E+01 -0.35720238814E+01  0.46689699985E+01  0.17770000000E+01 0. -1.
         15    1    1    2    0    0  0.29915478283E+01 -0.17416265461E+01 -0.14655085735E+03  0.14660250387E+03  0.17770000000E+01 0.  1.
</event>
<event>
 6    1  0.1059789E-002  0.1841997E+03  0.7546771E-02  0.1067110E+00
        -11   -1    0    0    0    0  0.00000000000E+00  0.00000000000E+00  0.18250000000E+03  0.18250000000E+03  0.00000000000E+00 0.  1.
         11   -1    0    0    0    0 -0.00000000000E+00 -0.00000000000E+00 -0.18250000000E+03  0.18250000000E+03  0.00000000000E+00 0.  1.
        -11    1    1    2    0    0 -0.54081892281E+00  0.27615660427E+01  0.16106774623E+03  0.16109232635E+03  0.00000000000E+00 0.  1.
         11    1    1    2    0    0  0.26981085972E+01  0.29530913953E+01 -0.18075604125E+03  0.18080029587E+03  0.00000000000E+00 0.  1.
        -15    1    1    2    0    0 -0.56048852284E+01 -0.44422781439E+01  0.15959259680E+02  0.17578517345E+02  0.17770000000E+01 0. -1.
         15    1    1    2    0    0  0.34475955540E+01 -0.12723792941E+01  0.37290353347E+01  0.55288604341E+01  0.17770000000E+01 0.  1.
</event>
<event>
 6    1  0.1059789E-002  0.1835293E+03  0.7546771E-02  0.1067638E+00
        -11   -1    0    0    0    0  0.00000000000E+00  0.00000000000E+00  0.18250000000E+03  0.18250000000E+03  0.00000000000E+00 0. -1.
         11   -1    0    0    0    0 -0.00000000000E+00 -0.00000000000E+00 -0.18250000000E+03  0.18250000000E+03  0.00000000000E+00 0.  1.
        -11    1    1    2    0    0 -0.56552771142E+01 -0.81256994877E+00  0.14630378789E+03  0.14641530241E+03  0.00000000000E+00 0. -1.
         11    1    1    2    0    0 -0.26032316007E+01  0.99352165895E+00 -0.18144929728E+03  0.18147069015E+03  0.00000000000E+00 0.  1.
        -15    1    1    2    0    0  0.67877086503E+00  0.60864849730E+00  0.19684105533E+02  0.19785169256E+02  0.17770000000E+01 0.  1.
         15    1    1    2    0    0  0.75797378499E+01 -0.78960020749E+00  0.15461403858E+02  0.17328838179E+02  0.17770000000E+01 0.  1.
</event>
<event>
 6    1  0.1059789E-002  0.1825366E+03  0.7546771E-02  0.1068426E+00
        -11   -1    0    0    0    0  0.00000000000E+00  0.00000000000E+00  0.18250000000E+03  0.18250000000E+03  0.00000000000E+00 0.  1.
         11   -1    0    0    0    0 -0.00000000000E+00 -0.00000000000E+00 -0.18250000000E+03  0.18250000000E+03  0.00000000000E+00 0.  1.
        -11    1    1    2    0    0 -0.26674298304E+00 -0.57092546848E+00  0.31463892657E+02  0.31470202555E+02  0.00000000000E+00 0.  1.
         11    1    1    2    0    0 -0.31799993887E+01  0.36565608795E-01 -0.18243572601E+03  0.18246344253E+03  0.00000000000E+00 0.  1.
        -15    1    1    2    0    0  0.22277032389E+01 -0.19084501968E+00  0.10439287789E+03  0.10443193845E+03  0.17770000000E+01 0.  1.
         15    1    1    2    0    0  0.12190391328E+01  0.72520487937E+00  0.46578955463E+02  0.46634416470E+02  0.17770000000E+01 0. -1.
</event>
<event>
 6    1  0.1059789E-002  0.1842986E+03  0.7546771E-02  0.1067032E+00
        -11   -1    0    0    0    0  0.00000000000E+00  0.00000000000E+00  0.18250000000E+03  0.18250000000E+03  0.00000000000E+00 0. -1.
         11   -1    0    0    0    0 -0.00000000000E+00 -0.00000000000E+00 -0.18250000000E+03  0.18250000000E+03  0.00000000000E+00 0.  1.
        -11    1    1    2    0    0 -0.27981615993E+01  0.12197130181E+01  0.18067562014E+03  0.18070140320E+03  0.00000000000E+00 0. -1.
         11    1    1    2    0    0 -0.83829088649E+00  0.22019523938E+01 -0.16031214879E+03  0.16032946197E+03  0.00000000000E+00 0.  1.
        -15    1    1    2    0    0 -0.14320483453E+01 -0.18111755294E+01 -0.17370428967E+02  0.17613081807E+02  0.17770000000E+01 0.  1.
         15    1    1    2    0    0  0.50685008311E+01 -0.16104898825E+01 -0.29930423823E+01  0.63560530236E+01  0.17770000000E+01 0. -1.
</event>
<event>
 6    1  0.1059789E-002  0.1851598E+03  0.7546771E-02  0.1066357E+00
        -11   -1    0    0    0    0  0.00000000000E+00  0.00000000000E+00  0.18250000000E+03  0.18250000000E+03  0.00000000000E+00 0. -1.
         11   -1    0    0    0    0 -0.00000000000E+00 -0.00000000000E+00 -0.18250000000E+03  0.18250000000E+03  0.00000000000E+00 0. -1.
        -11    1    1    2    0    0  0.13992753852E+01  0.22967925963E+01  0.15461737553E+03  0.15464076449E+03  0.00000000000E+00 0. -1.
         11    1    1    2    0    0  0.35310687069E+01  0.20256387041E+01 -0.17979411872E+03  0.17984019791E+03  0.00000000000E+00 0. -1.
        -15    1    1    2    0    0 -0.21480336656E+01 -0.10054396892E+02  0.17608049613E+02  0.20467195354E+02  0.17770000000E+01 0. -1.
         15    1    1    2    0    0 -0.27823104265E+01  0.57319655910E+01  0.75686935811E+01  0.10051842238E+02  0.17770000000E+01 0.  1.
</event>
<event>
 6    1  0.1059789E-002  0.1833874E+03  0.7546771E-02  0.1067751E+00
        -11   -1    0    0    0    0  0.00000000000E+00  0.00000000000E+00  0.18250000000E+03  0.18250000000E+03  0.00000000000E+00 0. -1.
         11   -1    0    0    0    0 -0.00000000000E+00 -0.00000000000E+00 -0.18250000000E+03  0.18250000000E+03  0.00000000000E+00 0. -1.
        -11    1    1    2    0    0 -0.40611067475E+01  0.29734535765E+01  0.98987161214E+02  0.99115044768E+02  0.00000000000E+00 0. -1.
         11    1    1    2    0    0  0.99438941159E+01  0.98413507198E+01 -0.18107293978E+03  0.18161261722E+03  0.00000000000E+00 0. -1.
        -15    1    1    2    0    0 -0.80932354740E+01 -0.29761256045E+01  0.35655873531E+02  0.36726786278E+02  0.17770000000E+01 0.  1.
         15    1    1    2    0    0  0.22104481056E+01 -0.98386786918E+01  0.46429905033E+02  0.47545551734E+02  0.17770000000E+01 0. -1.
</event>
<event>
 6    1  0.1059789E-002  0.1828076E+03  0.7546771E-02  0.1068210E+00
        -11   -1    0    0    0    0  0.00000000000E+00  0.00000000000E+00  0.18250000000E+03  0.18250000000E+03  0.00000000000E+00 0. -1.
         11   -1    0    0    0    0 -0.00000000000E+00 -0.00000000000E+00 -0.18250000000E+03  0.18250000000E+03  0.00000000000E+00 0. -1.
        -11    1    1    2    0    0  0.16344299455E+01 -0.36056755658E+01  0.18214942057E+03  0.18219243583E+03  0.00000000000E+00 0. -1.
         11    1    1    2    0    0 -0.83779204626E+00  0.43643305093E+00 -0.46827141086E+02  0.46836668452E+02  0.00000000000E+00 0. -1.
        -15    1    1    2    0    0 -0.19673781662E+01  0.74882879748E+01 -0.64926560040E+02  0.65410709836E+02  0.17770000000E+01 0. -1.
         15    1    1    2    0    0  0.11707402669E+01 -0.43190454599E+01 -0.70395719447E+02  0.70560185884E+02  0.17770000000E+01 0. -1.
</event>
<event>
 6    1  0.1059789E-002  0.1879283E+03  0.7546771E-02  0.1064214E+00
        -11   -1    0    0    0    0  0.00000000000E+00  0.00000000000E+00  0.18250000000E+03  0.18250000000E+03  0.00000000000E+00 0. -1.
         11   -1    0    0    0    0 -0.00000000000E+00 -0.00000000000E+00 -0.18250000000E+03  0.18250000000E+03  0.00000000000E+00 0.  1.
        -11    1    1    2    0    0 -0.15808305935E+01 -0.37771260830E+01  0.17702431072E+03  0.17707165864E+03  0.00000000000E+00 0. -1.
         11    1    1    2    0    0 -0.38801943496E+01  0.57483735152E+01 -0.15997043501E+03  0.16012070379E+03  0.00000000000E+00 0.  1.
        -15    1    1    2    0    0 -0.10678388187E+01  0.33969391388E+01  0.36339754122E+01  0.53891540665E+01  0.17770000000E+01 0.  1.
         15    1    1    2    0    0  0.65288637618E+01 -0.53681865710E+01 -0.20687851129E+02  0.22418483499E+02  0.17770000000E+01 0. -1.
</event>
<event>
 6    1  0.1059789E-002  0.1923227E+03  0.7546771E-02  0.1060894E+00
        -11   -1    0    0    0    0  0.00000000000E+00  0.00000000000E+00  0.18250000000E+03  0.18250000000E+03  0.00000000000E+00 0.  1.
         11   -1    0    0    0    0 -0.00000000000E+00 -0.00000000000E+00 -0.18250000000E+03  0.18250000000E+03  0.00000000000E+00 0.  1.
        -11    1    1    2    0    0 -0.24723421439E+02  0.61880138492E+01  0.17078612310E+03  0.17267726812E+03  0.00000000000E+00 0.  1.
         11    1    1    2    0    0  0.23744178257E+01  0.21566591565E+01 -0.13804632092E+03  0.13808358251E+03  0.00000000000E+00 0.  1.
        -15    1    1    2    0    0 -0.23823004651E+01 -0.85914056874E+00 -0.27676056001E+02  0.27848434118E+02  0.17770000000E+01 0.  1.
         15    1    1    2    0    0  0.24731304079E+02 -0.74855324369E+01 -0.50637461780E+01  0.26390715255E+02  0.17770000000E+01 0.  1.
</event>
<event>
 6    1  0.1059789E-002  0.1992496E+03  0.7546771E-02  0.1055852E+00
        -11   -1    0    0    0    0  0.00000000000E+00  0.00000000000E+00  0.18250000000E+03  0.18250000000E+03  0.00000000000E+00 0. -1.
         11   -1    0    0    0    0 -0.00000000000E+00 -0.00000000000E+00 -0.18250000000E+03  0.18250000000E+03  0.00000000000E+00 0.  1.
        -11    1    1    2    0    0  0.25990089395E+02  0.55284346467E+01  0.16360668480E+03  0.16575040165E+03  0.00000000000E+00 0. -1.
         11    1    1    2    0    0 -0.22694030946E+01 -0.88153601774E+00 -0.13761004321E+03  0.13763157809E+03  0.00000000000E+00 0.  1.
        -15    1    1    2    0    0 -0.20305524031E+02 -0.14590097329E+02  0.77416085041E+01  0.26235004812E+02  0.17770000000E+01 0. -1.
         15    1    1    2    0    0 -0.34151622692E+01  0.99431987001E+01 -0.33738250094E+02  0.35383015447E+02  0.17770000000E+01 0.  1.
</event>
<event>
 6    1  0.1059789E-002  0.1840584E+03  0.7546771E-02  0.1067221E+00
        -11   -1    0    0    0    0  0.00000000000E+00  0.00000000000E+00  0.18250000000E+03  0.18250000000E+03  0.00000000000E+00 0. -1.
         11   -1    0    0    0    0 -0.00000000000E+00 -0.00000000000E+00 -0.18250000000E+03  0.18250000000E+03  0.00000000000E+00 0.  1.
        -11    1    1    2    0    0  0.38837740252E+01 -0.51720221321E-01  0.18089990533E+03  0.18094159865E+03  0.00000000000E+00 0. -1.
         11    1    1    2    0    0  0.15805258073E+01  0.24755104157E+01 -0.14668827998E+03  0.14671768024E+03  0.00000000000E+00 0.  1.
        -15    1    1    2    0    0 -0.24970866530E+01 -0.14296934349E+01 -0.33502631895E+02  0.33672890253E+02  0.17770000000E+01 0. -1.
         15    1    1    2    0    0 -0.29672131795E+01 -0.99409675951E+00 -0.70899345652E+00  0.36678308496E+01  0.17770000000E+01 0.  1.
</event>
<event>
 6    1  0.1059789E-002  0.1838175E+03  0.7546771E-02  0.1067411E+00
        -11   -1    0    0    0    0  0.00000000000E+00  0.00000000000E+00  0.18250000000E+03  0.18250000000E+03  0.00000000000E+00 0.  1.
         11   -1    0    0    0    0 -0.00000000000E+00 -0.00000000000E+00 -0.18250000000E+03  0.18250000000E+03  0.00000000000E+00 0. -1.
        -11    1    1    2    0    0  0.54111490231E+01 -0.16376103891E+01  0.18109426303E+03  0.18118248923E+03  0.00000000000E+00 0.  1.
         11    1    1    2    0    0 -0.48503031724E+01  0.81206875178E+01 -0.11158804069E+03  0.11198822185E+03  0.00000000000E+00 0. -1.
        -15    1    1    2    0    0  0.56502482572E+01 -0.21370841895E+01 -0.55055872370E+02  0.55414792661E+02  0.17770000000E+01 0. -1.
         15    1    1    2    0    0 -0.62110941078E+01 -0.43459929392E+01 -0.14450349962E+02  0.16414496266E+02  0.17770000000E+01 0.  1.
</event>
<event>
 6    1  0.1059789E-002  0.1872395E+03  0.7546771E-02  0.1064744E+00
        -11   -1    0    0    0    0  0.00000000000E+00  0.00000000000E+00  0.18250000000E+03  0.18250000000E+03  0.00000000000E+00 0. -1.
         11   -1    0    0    0    0 -0.00000000000E+00 -0.00000000000E+00 -0.18250000000E+03  0.18250000000E+03  0.00000000000E+00 0. -1.
        -11    1    1    2    0    0 -0.26114280377E+01 -0.76024413401E+00  0.17773972416E+03  0.17776053294E+03  0.00000000000E+00 0. -1.
         11    1    1    2    0    0  0.22099003581E+01  0.94676538837E+00 -0.17408245327E+03  0.17409905388E+03  0.00000000000E+00 0. -1.
        -15    1    1    2    0    0 -0.46899971837E+00 -0.16503431080E+01 -0.78770449949E+01  0.82552504481E+01  0.17770000000E+01 0.  1.
         15    1    1    2    0    0  0.87052739799E+00  0.14638218536E+01  0.42197741088E+01  0.48851627301E+01  0.17770000000E+01 0. -1.
</event>
<event>
 6    1  0.1059789E-002  0.2038000E+03  0.7546771E-02  0.1052661E+00
        -11   -1    0    0    0    0  0.00000000000E+00  0.00000000000E+00  0.18250000000E+03  0.18250000000E+03  0.00000000000E+00 0. -1.
         11   -1    0    0    0    0 -0.00000000000E+00 -0.00000000000E+00 -0.18250000000E+03  0.18250000000E+03  0.00000000000E+00 0. -1.
        -11    1    1    2    0    0  0.25062233032E+01 -0.70770966175E+01  0.16102507332E+03  0.16120000214E+03  0.00000000000E+00 0. -1.
         11    1    1    2    0    0 -0.66589760135E+01  0.19146798236E+02 -0.14860041566E+03  0.14997674946E+03  0.00000000000E+00 0. -1.
        -15    1    1    2    0    0 -0.18540929187E+01 -0.59657891158E+01  0.19588277391E+02  0.20637021114E+02  0.17770000000E+01 0. -1.
         15    1    1    2    0    0  0.60068456291E+01 -0.61039125025E+01 -0.32012935049E+02  0.33186227290E+02  0.17770000000E+01 0.  1.
</event>
<event>
 6    1  0.1059789E-002  0.1827764E+03  0.7546771E-02  0.1068235E+00
        -11   -1    0    0    0    0  0.00000000000E+00  0.00000000000E+00  0.18250000000E+03  0.18250000000E+03  0.00000000000E+00 0. -1.
         11   -1    0    0    0    0 -0.00000000000E+00 -0.00000000000E+00 -0.18250000000E+03  0.18250000000E+03  0.00000000000E+00 0.  1.
        -11    1    1    2    0    0  0.73145258265E+00  0.39448339811E+00  0.36675768568E+02  0.36685182841E+02  0.00000000000E+00 0. -1.
         11    1    1    2    0    0  0.34117451234E+00 -0.64347506670E+01 -0.18210961679E+03  0.18222358504E+03  0.00000000000E+00 0.  1.
        -15    1    1    2    0    0  0.10730913783E+01  0.27467852383E+01  0.97716264276E+01  0.10360442379E+02  0.17770000000E+01 0.  1.
         15    1    1    2    0    0 -0.21457184733E+01  0.32934820306E+01  0.13566222180E+03  0.13573078974E+03  0.17770000000E+01 0. -1.
</event>
<event>
 6    1  0.1059789E-002  0.1853507E+03  0.7546771E-02  0.1066208E+00
        -11   -1    0    0    0    0  0.00000000000E+00  0.00000000000E+00  0.18250000000E+03  0.18250000000E+03  0.00000000000E+00 0. -1.
         11   -1    0    0    0    0 -0.00000000000E+00 -0.00000000000E+00 -0.18250000000E+03  0.18250000000E+03  0.00000000000E+00 0.  1.
        -11    1    1    2    0    0  0.25215795950E+01  0.27768373235E+00  0.17963139954E+03  0.17964931164E+03  0.00000000000E+00 0. -1.
         11    1    1    2    0    0  0.60838545860E+01 -0.29078468856E+01 -0.17259854174E+03  0.17273021007E+03  0.00000000000E+00 0.  1.
        -15    1    1    2    0    0 -0.68011005768E+01  0.13106310632E+01 -0.31826032970E+01  0.78268394378E+01  0.17770000000E+01 0.  1.
         15    1    1    2    0    0 -0.18043336042E+01  0.13195320901E+01 -0.38502545046E+01  0.47936388518E+01  0.17770000000E+01 0.  1.
</event>
<event>
 6    1  0.1059789E-002  0.1847742E+03  0.7546771E-02  0.1066659E+00
        -11   -1    0    0    0    0  0.00000000000E+00  0.00000000000E+00  0.18250000000E+03  0.18250000000E+03  0.00000000000E+00 0. -1.
         11   -1    0    0    0    0 -0.00000000000E+00 -0.00000000000E+00 -0.18250000000E+03  0.18250000000E+03  0.00000000000E+00 0. -1.
        -11    1    1    2    0    0 -0.13637504850E+01 -0.29949151550E+01  0.17167266338E+03  0.17170420113E+03  0.00000000000E+00 0. -1.
         11    1    1    2    0    0  0.52982311979E+01 -0.74044469161E+00 -0.18014636944E+03  0.18022578598E+03  0.00000000000E+00 0. -1.
        -15    1    1    2    0    0 -0.35275582309E+01 -0.67592799442E+00  0.88314173396E+00  0.41034392950E+01  0.17770000000E+01 0. -1.
         15    1    1    2    0    0 -0.40692248200E+00  0.44112878410E+01  0.75905643215E+01  0.89665735954E+01  0.17770000000E+01 0. -1.
</event>
<event>
 6    1  0.1059789E-002  0.1826500E+03  0.7546771E-02  0.1068335E+00
        -11   -1    0    0    0    0  0.00000000000E+00  0.00000000000E+00  0.18250000000E+03  0.18250000000E+03  0.00000000000E+00 0. -1.
         11   -1    0    0    0    0 -0.00000000000E+00 -0.00000000000E+00 -0.18250000000E+03  0.18250000000E+03  0.00000000000E+00 0. -1.
        -11    1    1    2    0    0 -0.23797916200E+01 -0.14749593927E+01  0.13478380023E+03  0.13481287667E+03  0.00000000000E+00 0. -1.
         11    1    1    2    0    0  0.11684281650E+01  0.24233489724E+01 -0.18233015506E+03  0.18235000216E+03  0.00000000000E+00 0. -1.
        -15    1    1    2    0    0  0.10576848695E+01  0.91580361167E+00  0.31844279442E+02  0.31924493037E+02  0.17770000000E+01 0.  1.
         15    1    1    2    0    0  0.15367858556E+00 -0.18641931914E+01  0.15702075390E+02  0.15912628128E+02  0.17770000000E+01 0. -1.
</event>
<event>
 6    1  0.1059789E-002  0.1836374E+03  0.7546771E-02  0.1067553E+00
        -11   -1    0    0    0    0  0.00000000000E+00  0.00000000000E+00  0.18250000000E+03  0.18250000000E+03  0.00000000000E+00 0. -1.
         11   -1    0    0    0    0 -0.00000000000E+00 -0.00000000000E+00 -0.18250000000E+03  0.18250000000E+03  0.00000000000E+00 0.  1.
        -11    1    1    2    0    0 -0.14020588441E+01  0.26978007280E+01  0.14678100765E+03  0.14681249301E+03  0.00000000000E+00 0. -1.
         11    1    1    2    0    0  0.80000316329E+00 -0.68630785369E+01 -0.18123089009E+03  0.18136255781E+03  0.00000000000E+00 0.  1.
        -15    1    1    2    0    0  0.91308016873E+00 -0.28280028170E+01  0.23195637995E+02  0.23452647320E+02  0.17770000000E+01 0.  1.
         15    1    1    2    0    0 -0.31102448795E+00  0.69932806259E+01  0.11254244440E+02  0.13372301861E+02  0.17770000000E+01 0.  1.
</event>
<event>
 6    1  0.1059789E-002  0.1835023E+03  0.7546771E-02  0.1067660E+00
        -11   -1    0    0    0    0  0.00000000000E+00  0.00000000000E+00  0.18250000000E+03  0.18250000000E+03  0.00000000000E+00 0. -1.
         11   -1    0    0    0    0 -0.00000000000E+00 -0.00000000000E+00 -0.18250000000E+03  0.18250000000E+03  0.00000000000E+00 0. -1.
        -11    1    1    2    0    0  0.30169129938E+01 -0.83286538331E+00  0.18147071164E+03  0.18149769864E+03  0.00000000000E+00 0. -1.
         11    1    1    2    0    0 -0.39011605419E+00 -0.22109512899E+01 -0.14949019843E+03  0.14950705643E+03  0.00000000000E+00 0. -1.
        -15    1    1    2    0    0 -0.18321585693E+01  0.40356356483E+01 -0.31363753063E+02  0.31725161864E+02  0.17770000000E+01 0.  1.
         15    1    1    2    0    0 -0.79463837029E+00 -0.99181897514E+00 -0.61676014874E+00  0.22700830602E+01  0.17770000000E+01 0. -1.
</event>
<event>
 6    1  0.1059789E-002  0.1881744E+03  0.7546771E-02  0.1064026E+00
        -11   -1    0    0    0    0  0.00000000000E+00  0.00000000000E+00  0.18250000000E+03  0.18250000000E+03  0.00000000000E+00 0.  1.
         11   -1    0    0    0    0 -0.00000000000E+00 -0.00000000000E+00 -0.18250000000E+03  0.18250000000E+03  0.00000000000E+00 0.  1.
        -11    1    1    2    0    0  0.36759528753E+01  0.33143874279E+01  0.17675630547E+03  0.17682559011E+03  0.00000000000E+00 0.  1.
         11    1    1    2    0    0  0.18642613362E+01 -0.24119368609E+01 -0.16370523827E+03  0.16373361886E+03  0.00000000000E+00 0.  1.
        -15    1    1    2    0    0 -0.42416835879E+01 -0.31547221235E+01  0.41514354728E+01  0.69524310008E+01  0.17770000000E+01 0.  1.
         15    1    1    2    0    0 -0.12985306237E+01  0.22522715565E+01 -0.17202502680E+02  0.17488360026E+02  0.17770000000E+01 0.  1.
</event>
<event>
 6    1  0.1059789E-002  0.1906291E+03  0.7546771E-02  0.1062162E+00
        -11   -1    0    0    0    0  0.00000000000E+00  0.00000000000E+00  0.18250000000E+03  0.18250000000E+03  0.00000000000E+00 0. -1.
         11   -1    0    0    0    0 -0.00000000000E+00 -0.00000000000E+00 -0.18250000000E+03  0.18250000000E+03  0.00000000000E+00 0. -1.
        -11    1    1    2    0    0  0.25323919777E+01  0.16757193199E+02  0.95106683501E+02  0.96604853810E+02  0.00000000000E+00 0. -1.
         11    1    1    2    0    0  0.13169357092E+02 -0.20955999099E+02 -0.17260539681E+03  0.17437089457E+03  0.00000000000E+00 0. -1.
        -15    1    1    2    0    0 -0.28838513382E+02  0.17091295285E+02  0.40046510960E+02  0.52255650390E+02  0.17770000000E+01 0. -1.
         15    1    1    2    0    0  0.13136764313E+02 -0.12892489384E+02  0.37452202349E+02  0.41768601233E+02  0.17770000000E+01 0.  1.
</event>
<event>
 6    1  0.1059789E-002  0.1776068E+03  0.7546771E-02  0.1072418E+00
        -11   -1    0    0    0    0  0.00000000000E+00  0.00000000000E+00  0.18250000000E+03  0.18250000000E+03  0.00000000000E+00 0. -1.
         11   -1    0    0    0    0 -0.00000000000E+00 -0.00000000000E+00 -0.18250000000E+03  0.18250000000E+03  0.00000000000E+00 0. -1.
        -11    1    1    2    0    0 -0.30823908691E+01  0.49320884274E+00  0.17959387411E+03  0.17962100102E+03  0.00000000000E+00 0. -1.
         11    1    1    2    0    0 -0.28805753111E+01 -0.36720033703E+01 -0.17561718486E+03  0.17567918756E+03  0.00000000000E+00 0. -1.
        -15    1    1    2    0    0  0.45661903190E+01  0.24761418513E+01 -0.52558411253E+00  0.55150104403E+01  0.17770000000E+01 0. -1.
         15    1    1    2    0    0  0.13967758612E+01  0.70265267629E+00 -0.34511051360E+01  0.41848009809E+01  0.17770000000E+01 0.  1.
</event>
<event>
 6    1  0.1059789E-002  0.1881700E+03  0.7546771E-02  0.1064029E+00
        -11   -1    0    0    0    0  0.00000000000E+00  0.00000000000E+00  0.18250000000E+03  0.18250000000E+03  0.00000000000E+00 0. -1.
         11   -1    0    0    0    0 -0.00000000000E+00 -0.00000000000E+00 -0.18250000000E+03  0.18250000000E+03  0.00000000000E+00 0. -1.
        -11    1    1    2    0    0  0.52668555628E+00  0.26125213299E+01  0.17680996225E+03  0.17683004670E+03  0.00000000000E+00 0. -1.
         11    1    1    2    0    0 -0.28072484781E+01 -0.81419281976E+01 -0.16518814080E+03  0.16541249500E+03  0.00000000000E+00 0. -1.
        -15    1    1    2    0    0 -0.68560744734E+00 -0.60427136684E+01 -0.52760153865E+00  0.63577148752E+01  0.17770000000E+01 0. -1.
         15    1    1    2    0    0  0.29661703692E+01  0.11572120536E+02 -0.11094219905E+02  0.16399743433E+02  0.17770000000E+01 0. -1.
</event>
<event>
 6    1  0.1059789E-002  0.1856407E+03  0.7546771E-02  0.1065982E+00
        -11   -1    0    0    0    0  0.00000000000E+00  0.00000000000E+00  0.18250000000E+03  0.18250000000E+03  0.00000000000E+00 0. -1.
         11   -1    0    0    0    0 -0.00000000000E+00 -0.00000000000E+00 -0.18250000000E+03  0.18250000000E+03  0.00000000000E+00 0.  1.
        -11    1    1    2    0    0 -0.56850843903E+01  0.75782858254E-01  0.17926918221E+03  0.17935931985E+03  0.00000000000E+00 0. -1.
         11    1    1    2    0    0 -0.41553968419E+01 -0.32549474710E+01 -0.16973344161E+03  0.16981549754E+03  0.00000000000E+00 0.  1.
        -15    1    1    2    0    0  0.21562781082E+01  0.28810922361E+01 -0.58993319135E+01  0.71351295558E+01  0.17770000000E+01 0.  1.
         15    1    1    2    0    0  0.76842031241E+01  0.29807237659E+00 -0.36364086925E+01  0.86900530477E+01  0.17770000000E+01 0. -1.
</event>
<event>
 6    1  0.1059789E-002  0.1896687E+03  0.7546771E-02  0.1062888E+00
        -11   -1    0    0    0    0  0.00000000000E+00  0.00000000000E+00  0.18250000000E+03  0.18250000000E+03  0.00000000000E+00 0. -1.
         11   -1    0    0    0    0 -0.00000000000E+00 -0.00000000000E+00 -0.18250000000E+03  0.18250000000E+03  0.00000000000E+00 0.  1.
        -11    1    1    2    0    0 -0.69183710642E+01 -0.32998353932E+01  0.14451811696E+03  0.14472124551E+03  0.00000000000E+00 0. -1.
         11    1    1    2    0    0  0.15452343868E+02 -0.38480686678E+01 -0.17460667192E+03  0.17533132191E+03  0.00000000000E+00 0.  1.
        -15    1    1    2    0    0 -0.18139862750E+02  0.10082218612E+02  0.11625175505E+02  0.23853892496E+02  0.17770000000E+01 0.  1.
         15    1    1    2    0    0  0.96058899458E+01 -0.29343145510E+01  0.18463379450E+02  0.21093540083E+02  0.17770000000E+01 0. -1.
</event>
<event>
 6    1  0.1059789E-002  0.1843058E+03  0.7546771E-02  0.1067026E+00
        -11   -1    0    0    0    0  0.00000000000E+00  0.00000000000E+00  0.18250000000E+03  0.18250000000E+03  0.00000000000E+00 0.  1.
         11   -1    0    0    0    0 -0.00000000000E+00 -0.00000000000E+00 -0.18250000000E+03  0.18250000000E+03  0.00000000000E+00 0.  1.
        -11    1    1    2    0    0 -0.61968513135E+01  0.86018817242E+01  0.18038296443E+03  0.18069423674E+03  0.00000000000E+00 0.  1.
         11    1    1    2    0    0  0.22641689430E+01 -0.77031110580E+00 -0.13177988894E+03  0.13180158940E+03  0.00000000000E+00 0.  1.
        -15    1    1    2    0    0 -0.36045726897E+01  0.34598147590E+01 -0.75357303622E+01  0.92145658353E+01  0.17770000000E+01 0.  1.
         15    1    1    2    0    0  0.75372550602E+01 -0.11291385377E+02 -0.41067345130E+02  0.43289608021E+02  0.17770000000E+01 0. -1.
</event>
<event>
 6    1  0.1059789E-002  0.1840244E+03  0.7546771E-02  0.1067248E+00
        -11   -1    0    0    0    0  0.00000000000E+00  0.00000000000E+00  0.18250000000E+03  0.18250000000E+03  0.00000000000E+00 0.  1.
         11   -1    0    0    0    0 -0.00000000000E+00 -0.00000000000E+00 -0.18250000000E+03  0.18250000000E+03  0.00000000000E+00 0.  1.
        -11    1    1    2    0    0 -0.36878917441E+01 -0.16559964477E+01  0.15662106069E+03  0.15667322528E+03  0.00000000000E+00 0.  1.
         11    1    1    2    0    0  0.92891313705E+00 -0.81913400864E+01 -0.18078777373E+03  0.18097563389E+03  0.00000000000E+00 0.  1.
        -15    1    1    2    0    0  0.37315618481E+01  0.20030606082E+01  0.10552693304E+02  0.11508860525E+02  0.17770000000E+01 0. -1.
         15    1    1    2    0    0 -0.97258324103E+00  0.78442759258E+01  0.13614019735E+02  0.15842280306E+02  0.17770000000E+01 0.  1.
</event>
<event>
 6    1  0.1059789E-002  0.1837798E+03  0.7546771E-02  0.1067441E+00
        -11   -1    0    0    0    0  0.00000000000E+00  0.00000000000E+00  0.18250000000E+03  0.18250000000E+03  0.00000000000E+00 0. -1.
         11   -1    0    0    0    0 -0.00000000000E+00 -0.00000000000E+00 -0.18250000000E+03  0.18250000000E+03  0.00000000000E+00 0.  1.
        -11    1    1    2    0    0  0.18456686254E-01  0.43684243652E+01  0.18116755439E+03  0.18122021475E+03  0.00000000000E+00 0. -1.
         11    1    1    2    0    0 -0.28126517699E+01  0.99960566471E+00 -0.14434632468E+03  0.14437718542E+03  0.00000000000E+00 0.  1.
        -15    1    1    2    0    0  0.24243273585E+01 -0.91689139072E+01 -0.28248752110E+02  0.29851232306E+02  0.17770000000E+01 0. -1.
         15    1    1    2    0    0  0.36986772512E+00  0.38008838773E+01 -0.85724775994E+01  0.95513675239E+01  0.17770000000E+01 0. -1.
</event>
<event>
 6    1  0.1059789E-002  0.1926979E+03  0.7546771E-02  0.1060615E+00
        -11   -1    0    0    0    0  0.00000000000E+00  0.00000000000E+00  0.18250000000E+03  0.18250000000E+03  0.00000000000E+00 0.  1.
         11   -1    0    0    0    0 -0.00000000000E+00 -0.00000000000E+00 -0.18250000000E+03  0.18250000000E+03  0.00000000000E+00 0. -1.
        -11    1    1    2    0    0 -0.23712023226E+02 -0.24854342439E+01  0.13830161945E+03  0.14034163805E+03  0.00000000000E+00 0.  1.
         11    1    1    2    0    0  0.16171893979E+01  0.19481999122E+01 -0.17228354269E+03  0.17230214701E+03  0.00000000000E+00 0. -1.
        -15    1    1    2    0    0  0.69143603148E+01  0.16321172639E+02  0.13994022599E+02  0.22653464467E+02  0.17770000000E+01 0.  1.
         15    1    1    2    0    0  0.15180473513E+02 -0.15783938307E+02  0.19987900639E+02  0.29702750471E+02  0.17770000000E+01 0. -1.
</event>
<event>
 6    1  0.1059789E-002  0.1870842E+03  0.7546771E-02  0.1064863E+00
        -11   -1    0    0    0    0  0.00000000000E+00  0.00000000000E+00  0.18250000000E+03  0.18250000000E+03  0.00000000000E+00 0. -1.
         11   -1    0    0    0    0 -0.00000000000E+00 -0.00000000000E+00 -0.18250000000E+03  0.18250000000E+03  0.00000000000E+00 0.  1.
        -11    1    1    2    0    0  0.41496044908E+01  0.69950473104E+01  0.99210901288E+02  0.99543723251E+02  0.00000000000E+00 0. -1.
         11    1    1    2    0    0 -0.22256608306E+01 -0.14099670987E+01 -0.17789629857E+03  0.17791580767E+03  0.00000000000E+00 0.  1.
        -15    1    1    2    0    0 -0.19761151285E+01 -0.77284417357E+01  0.82452124665E+02  0.82856167142E+02  0.17770000000E+01 0. -1.
         15    1    1    2    0    0  0.52171468303E-01  0.21433615240E+01 -0.37667273855E+01  0.46843019418E+01  0.17770000000E+01 0.  1.
</event>
<event>
 6    1  0.1059789E-002  0.1901583E+03  0.7546771E-02  0.1062517E+00
        -11   -1    0    0    0    0  0.00000000000E+00  0.00000000000E+00  0.18250000000E+03  0.18250000000E+03  0.00000000000E+00 0. -1.
         11   -1    0    0    0    0 -0.00000000000E+00 -0.00000000000E+00 -0.18250000000E+03  0.18250000000E+03  0.00000000000E+00 0.  1.
        -11    1    1    2    0    0 -0.66438234892E+00 -0.44433580622E+01  0.17478394751E+03  0.17484168022E+03  0.00000000000E+00 0. -1.
         11    1    1    2    0    0 -0.39886263405E+01 -0.13268670841E+00 -0.14259503807E+03  0.14265087321E+03  0.00000000000E+00 0.  1.
        -15    1    1    2    0    0  0.64656415462E+01 -0.30959859955E+01  0.53428550230E+01  0.91155624448E+01  0.17770000000E+01 0.  1.
         15    1    1    2    0    0 -0.18126328568E+01  0.76720307661E+01 -0.37531764462E+02  0.38391884124E+02  0.17770000000E+01 0. -1.
</event>
<event>
 6    1  0.1059789E-002  0.1840271E+03  0.7546771E-02  0.1067246E+00
        -11   -1    0    0    0    0  0.00000000000E+00  0.00000000000E+00  0.18250000000E+03  0.18250000000E+03  0.00000000000E+00 0. -1.
         11   -1    0    0    0    0 -0.00000000000E+00 -0.00000000000E+00 -0.18250000000E+03  0.18250000000E+03  0.00000000000E+00 0.  1.
        -11    1    1    2    0    0  0.11561780814E+01  0.24629298849E+01  0.18095248591E+03  0.18097293977E+03  0.00000000000E+00 0. -1.
         11    1    1    2    0    0 -0.12994815750E+01 -0.29195814162E+01 -0.17480865458E+03  0.17483786296E+03  0.00000000000E+00 0.  1.
        -15    1    1    2    0    0  0.14675071117E+01  0.18350275441E+01 -0.58665582864E+01  0.65646887465E+01  0.17770000000E+01 0.  1.
         15    1    1    2    0    0 -0.13242036180E+01 -0.13783760128E+01 -0.27727304268E+00  0.26245085244E+01  0.17770000000E+01 0.  1.
</event>
<event>
 6    1  0.1059789E-002  0.1832495E+03  0.7546771E-02  0.1067860E+00
        -11   -1    0    0    0    0  0.00000000000E+00  0.00000000000E+00  0.18250000000E+03  0.18250000000E+03  0.00000000000E+00 0. -1.
         11   -1    0    0    0    0 -0.00000000000E+00 -0.00000000000E+00 -0.18250000000E+03  0.18250000000E+03  0.00000000000E+00 0.  1.
        -11    1    1    2    0    0  0.27840876582E+01  0.85028526818E+00  0.18172716210E+03  0.18175047613E+03  0.00000000000E+00 0. -1.
         11    1    1    2    0    0 -0.15056501108E+01  0.31057845290E+01 -0.16909156820E+03  0.16912679065E+03  0.00000000000E+00 0.  1.
        -15    1    1    2    0    0 -0.22249471705E+00 -0.18270360271E+01 -0.93579503034E+01  0.97013672967E+01  0.17770000000E+01 0.  1.
         15    1    1    2    0    0 -0.10559428304E+01 -0.21290337701E+01 -0.32776435986E+01  0.44213659218E+01  0.17770000000E+01 0. -1.
</event>
<event>
 6    1  0.1059789E-002  0.1830570E+03  0.7546771E-02  0.1068012E+00
        -11   -1    0    0    0    0  0.00000000000E+00  0.00000000000E+00  0.18250000000E+03  0.18250000000E+03  0.00000000000E+00 0.  1.
         11   -1    0    0    0    0 -0.00000000000E+00 -0.00000000000E+00 -0.18250000000E+03  0.18250000000E+03  0.00000000000E+00 0.  1.
        -11    1    1    2    0    0  0.13949444964E-01  0.41010004041E+01  0.12118273427E+03  0.12125210713E+03  0.00000000000E+00 0.  1.
         11    1    1    2    0    0 -0.25904052347E+01 -0.26212132148E+01 -0.18190569840E+03  0.18194302423E+03  0.00000000000E+00 0.  1.
        -15    1    1    2    0    0  0.57067280565E+01  0.74905981366E+00  0.48432317966E+02  0.48805481129E+02  0.17770000000E+01 0.  1.
         15    1    1    2    0    0 -0.31302722668E+01 -0.22288470029E+01  0.12290646164E+02  0.12999387507E+02  0.17770000000E+01 0. -1.
</event>
<event>
 6    1  0.1059789E-002  0.1844623E+03  0.7546771E-02  0.1066903E+00
        -11   -1    0    0    0    0  0.00000000000E+00  0.00000000000E+00  0.18250000000E+03  0.18250000000E+03  0.00000000000E+00 0.  1.
         11   -1    0    0    0    0 -0.00000000000E+00 -0.00000000000E+00 -0.18250000000E+03  0.18250000000E+03  0.00000000000E+00 0. -1.
        -11    1    1    2    0    0 -0.97991741651E+01 -0.30065424687E+01  0.18024650893E+03  0.18053771654E+03  0.00000000000E+00 0.  1.
         11    1    1    2    0    0  0.49790384647E+01  0.50065242501E+00 -0.10482090267E+03  0.10494028356E+03  0.00000000000E+00 0. -1.
        -15    1    1    2    0    0 -0.52969893566E+01 -0.59823568921E+01 -0.51406824334E+02  0.52054452330E+02  0.17770000000E+01 0. -1.
         15    1    1    2    0    0  0.10117125057E+02  0.84882469358E+01 -0.24018781928E+02  0.27467547575E+02  0.17770000000E+01 0.  1.
</event>
<event>
 6    1  0.1059789E-002  0.1830486E+03  0.7546771E-02  0.1068019E+00
        -11   -1    0    0    0    0  0.00000000000E+00  0.00000000000E+00  0.18250000000E+03  0.18250000000E+03  0.00000000000E+00 0. -1.
         11   -1    0    0    0    0 -0.00000000000E+00 -0.00000000000E+00 -0.18250000000E+03  0.18250000000E+03  0.00000000000E+00 0.  1.
        -11    1    1    2    0    0  0.20247882846E+00 -0.15443939976E+01  0.83744809451E+02  0.83759293577E+02  0.00000000000E+00 0. -1.
         11    1    1    2    0    0 -0.14436426419E+01 -0.35125906243E+01 -0.18191174538E+03  0.18195138225E+03  0.00000000000E+00 0.  1.
        -15    1    1    2    0    0  0.29318060434E+00  0.24509746837E+01  0.38110270157E+01  0.48759499261E+01  0.17770000000E+01 0. -1.
         15    1    1    2    0    0  0.94798320912E+00  0.26060099382E+01  0.94355908914E+02  0.94413374243E+02  0.17770000000E+01 0. -1.
</event>
<event>
 6    1  0.1059789E-002  0.1868338E+03  0.7546771E-02  0.1065056E+00
        -11   -1    0    0    0    0  0.00000000000E+00  0.00000000000E+00  0.18250000000E+03  0.18250000000E+03  0.00000000000E+00 0. -1.
         11   -1    0    0    0    0 -0.00000000000E+00 -0.00000000000E+00 -0.18250000000E+03  0.18250000000E+03  0.00000000000E+00 0.  1.
        -11    1    1    2    0    0 -0.10403417292E+01  0.27921331116E+01  0.17814125333E+03  0.17816617091E+03  0.00000000000E+00 0. -1.
         11    1    1    2    0    0 -0.17749915607E+01  0.19728473420E+01 -0.15946520862E+03  0.15948728941E+03  0.00000000000E+00 0.  1.
        -15    1    1    2    0    0 -0.80989669203E+01 -0.27338240609E+01 -0.79597249702E+01  0.11814483052E+02  0.17770000000E+01 0.  1.
         15    1    1    2    0    0  0.10914300210E+02 -0.20311563927E+01 -0.10716319742E+02  0.15532056631E+02  0.17770000000E+01 0. -1.
</event>
<event>
 6    1  0.1059789E-002  0.1826931E+03  0.7546771E-02  0.1068301E+00
        -11   -1    0    0    0    0  0.00000000000E+00  0.00000000000E+00  0.18250000000E+03  0.18250000000E+03  0.00000000000E+00 0. -1.
         11   -1    0    0    0    0 -0.00000000000E+00 -0.00000000000E+00 -0.18250000000E+03  0.18250000000E+03  0.00000000000E+00 0.  1.
        -11    1    1    2    0    0  0.34217490632E+01 -0.16319395790E+01  0.18226744269E+03  0.18230686290E+03  0.00000000000E+00 0. -1.
         11    1    1    2    0    0 -0.10797559563E+01 -0.45404181640E+00 -0.53098604425E+02  0.53111522467E+02  0.00000000000E+00 0.  1.
        -15    1    1    2    0    0 -0.22728088632E+01  0.11330720941E+00 -0.10690985552E+02  0.11073996557E+02  0.17770000000E+01 0. -1.
         15    1    1    2    0    0 -0.69184243647E-01  0.19726741860E+01 -0.11847785272E+03  0.11850761808E+03  0.17770000000E+01 0.  1.
</event>
<event>
 6    1  0.1059789E-002  0.2032050E+03  0.7546771E-02  0.1053073E+00
        -11   -1    0    0    0    0  0.00000000000E+00  0.00000000000E+00  0.18250000000E+03  0.18250000000E+03  0.00000000000E+00 0.  1.
         11   -1    0    0    0    0 -0.00000000000E+00 -0.00000000000E+00 -0.18250000000E+03  0.18250000000E+03  0.00000000000E+00 0. -1.
        -11    1    1    2    0    0 -0.54781909933E+02 -0.22558791868E+02  0.15055781953E+03  0.16179497449E+03  0.00000000000E+00 0.  1.
         11    1    1    2    0    0 -0.10958686565E+01 -0.68177946208E+00 -0.88261320100E+02  0.88270756070E+02  0.00000000000E+00 0. -1.
        -15    1    1    2    0    0 -0.20758751464E+01 -0.38270689730E+00 -0.51291639304E+02  0.51365802959E+02  0.17770000000E+01 0. -1.
         15    1    1    2    0    0  0.57953653736E+02  0.23623278227E+02 -0.11004860131E+02  0.63568466483E+02  0.17770000000E+01 0. -1.
</event>
<event>
 6    1  0.1059789E-002  0.1857477E+03  0.7546771E-02  0.1065899E+00
        -11   -1    0    0    0    0  0.00000000000E+00  0.00000000000E+00  0.18250000000E+03  0.18250000000E+03  0.00000000000E+00 0.  1.
         11   -1    0    0    0    0 -0.00000000000E+00 -0.00000000000E+00 -0.18250000000E+03  0.18250000000E+03  0.00000000000E+00 0.  1.
        -11    1    1    2    0    0 -0.57848702684E+01  0.33310463480E+01  0.17912793222E+03  0.17925227110E+03  0.00000000000E+00 0.  1.
         11    1    1    2    0    0 -0.11033300795E+01  0.18951208941E+01 -0.65631325409E+02  0.65667950291E+02  0.00000000000E+00 0.  1.
        -15    1    1    2    0    0  0.17207890941E+02  0.10560946849E+02 -0.58331634152E+02  0.61752590073E+02  0.17770000000E+01 0. -1.
         15    1    1    2    0    0 -0.10319690593E+02 -0.15787114091E+02 -0.55164972658E+02  0.58327188536E+02  0.17770000000E+01 0.  1.
</event>
<event>
 6    1  0.1059789E-002  0.1842538E+03  0.7546771E-02  0.1067067E+00
        -11   -1    0    0    0    0  0.00000000000E+00  0.00000000000E+00  0.18250000000E+03  0.18250000000E+03  0.00000000000E+00 0.  1.
         11   -1    0    0    0    0 -0.00000000000E+00 -0.00000000000E+00 -0.18250000000E+03  0.18250000000E+03  0.00000000000E+00 0.  1.
        -11    1    1    2    0    0  0.28196820982E+01 -0.15626841636E+01  0.16768115465E+03  0.16771214092E+03  0.00000000000E+00 0.  1.
         11    1    1    2    0    0 -0.56038889681E+01  0.26089756864E+01 -0.18064048770E+03  0.18074622021E+03  0.00000000000E+00 0.  1.
        -15    1    1    2    0    0  0.12129241450E+01  0.10466283352E+01 -0.72217848859E+00  0.24991771892E+01  0.17770000000E+01 0.  1.
         15    1    1    2    0    0  0.15712827249E+01 -0.20929198581E+01  0.13681511537E+02  0.14042461674E+02  0.17770000000E+01 0. -1.
</event>
<event>
 6    1  0.1059789E-002  0.1844697E+03  0.7546771E-02  0.1066898E+00
        -11   -1    0    0    0    0  0.00000000000E+00  0.00000000000E+00  0.18250000000E+03  0.18250000000E+03  0.00000000000E+00 0.  1.
         11   -1    0    0    0    0 -0.00000000000E+00 -0.00000000000E+00 -0.18250000000E+03  0.18250000000E+03  0.00000000000E+00 0.  1.
        -11    1    1    2    0    0  0.91928982655E+00 -0.30798986151E+01  0.18050169310E+03  0.18053030793E+03  0.00000000000E+00 0.  1.
         11    1    1    2    0    0 -0.10336769676E+02 -0.28926820845E+01 -0.54222137933E+02  0.55274376152E+02  0.00000000000E+00 0.  1.
        -15    1    1    2    0    0  0.65791879399E+01  0.59513952610E+01 -0.12540941212E+03  0.12573536971E+03  0.17770000000E+01 0.  1.
         15    1    1    2    0    0  0.28382919092E+01  0.21185438501E-01 -0.87014304824E+00  0.34599462003E+01  0.17770000000E+01 0. -1.
</event>
<event>
 6    1  0.1059789E-002  0.1859688E+03  0.7546771E-02  0.1065727E+00
        -11   -1    0    0    0    0  0.00000000000E+00  0.00000000000E+00  0.18250000000E+03  0.18250000000E+03  0.00000000000E+00 0. -1.
         11   -1    0    0    0    0 -0.00000000000E+00 -0.00000000000E+00 -0.18250000000E+03  0.18250000000E+03  0.00000000000E+00 0. -1.
        -11    1    1    2    0    0 -0.36183855477E+01  0.61796372242E+01  0.17888796873E+03  0.17903124304E+03  0.00000000000E+00 0. -1.
         11    1    1    2    0    0  0.49227975341E+00  0.34550268950E+01 -0.15242841243E+03  0.15246835890E+03  0.00000000000E+00 0. -1.
        -15    1    1    2    0    0 -0.47712870307E+01 -0.10334267482E+02 -0.20159292808E+02  0.23218894888E+02  0.17770000000E+01 0. -1.
         15    1    1    2    0    0  0.78973928250E+01  0.69960336265E+00 -0.63002634925E+01  0.10281503167E+02  0.17770000000E+01 0.  1.
</event>
<event>
 6    1  0.1059789E-002  0.1333829E+03  0.7546771E-02  0.1116073E+00
        -11   -1    0    0    0    0  0.00000000000E+00  0.00000000000E+00  0.18250000000E+03  0.18250000000E+03  0.00000000000E+00 0.  1.
         11   -1    0    0    0    0 -0.00000000000E+00 -0.00000000000E+00 -0.18250000000E+03  0.18250000000E+03  0.00000000000E+00 0. -1.
        -11    1    1    2    0    0  0.14184300225E+01 -0.84543610833E+01  0.12485346435E+03  0.12514741597E+03  0.00000000000E+00 0.  1.
         11    1    1    2    0    0  0.16889978238E+01 -0.35217812705E+00 -0.18908834063E+02  0.18987383935E+02  0.00000000000E+00 0. -1.
        -15    1    1    2    0    0 -0.62408221714E+02  0.17190967977E+02  0.30696795623E+02  0.71664262419E+02  0.17770000000E+01 0.  1.
         15    1    1    2    0    0  0.59300793867E+02 -0.83844287669E+01 -0.13664142591E+03  0.14920093767E+03  0.17770000000E+01 0. -1.
</event>
<event>
 6    1  0.1059789E-002  0.1826956E+03  0.7546771E-02  0.1068299E+00
        -11   -1    0    0    0    0  0.00000000000E+00  0.00000000000E+00  0.18250000000E+03  0.18250000000E+03  0.00000000000E+00 0.  1.
         11   -1    0    0    0    0 -0.00000000000E+00 -0.00000000000E+00 -0.18250000000E+03  0.18250000000E+03  0.00000000000E+00 0. -1.
        -11    1    1    2    0    0  0.16279809984E+01  0.97756749002E+00  0.13692979049E+03  0.13694295705E+03  0.00000000000E+00 0.  1.
         11    1    1    2    0    0  0.13246826874E+01  0.26271039944E+01 -0.18228065902E+03  0.18230440234E+03  0.00000000000E+00 0. -1.
        -15    1    1    2    0    0 -0.14674824534E+01 -0.14668808680E+01  0.26460608784E+02  0.26601255430E+02  0.17770000000E+01 0.  1.
         15    1    1    2    0    0 -0.14851812325E+01 -0.21377906164E+01  0.18890259747E+02  0.19151385181E+02  0.17770000000E+01 0. -1.
</event>
<event>
 6    1  0.1059789E-002  0.1870789E+03  0.7546771E-02  0.1064867E+00
        -11   -1    0    0    0    0  0.00000000000E+00  0.00000000000E+00  0.18250000000E+03  0.18250000000E+03  0.00000000000E+00 0.  1.
         11   -1    0    0    0    0 -0.00000000000E+00 -0.00000000000E+00 -0.18250000000E+03  0.18250000000E+03  0.00000000000E+00 0. -1.
        -11    1    1    2    0    0  0.70835157054E+01  0.69438515016E+01  0.15836895503E+03  0.15867929665E+03  0.00000000000E+00 0.  1.
         11    1    1    2    0    0 -0.55066768279E+01  0.37987622084E+01 -0.17779531759E+03  0.17792113152E+03  0.00000000000E+00 0. -1.
        -15    1    1    2    0    0 -0.39148935453E+01  0.30828789670E+01  0.10288459325E+02  0.11568952350E+02  0.17770000000E+01 0. -1.
         15    1    1    2    0    0  0.23380546679E+01 -0.13825492677E+02  0.91379032412E+01  0.16830619479E+02  0.17770000000E+01 0.  1.
</event>
<event>
 6    1  0.1059789E-002  0.1888149E+03  0.7546771E-02  0.1063536E+00
        -11   -1    0    0    0    0  0.00000000000E+00  0.00000000000E+00  0.18250000000E+03  0.18250000000E+03  0.00000000000E+00 0.  1.
         11   -1    0    0    0    0 -0.00000000000E+00 -0.00000000000E+00 -0.18250000000E+03  0.18250000000E+03  0.00000000000E+00 0. -1.
        -11    1    1    2    0    0  0.10904054340E+02 -0.48101847600E+01  0.17578157259E+03  0.17618512293E+03  0.00000000000E+00 0.  1.
         11    1    1    2    0    0  0.16514173622E+01 -0.64536907047E+00 -0.51099901128E+02  0.51130652018E+02  0.00000000000E+00 0. -1.
        -15    1    1    2    0    0 -0.53686591612E+01  0.92358559838E+01  0.17581648292E+01  0.10971436073E+02  0.17770000000E+01 0.  1.
         15    1    1    2    0    0 -0.71868125409E+01 -0.37803021533E+01 -0.12643983630E+03  0.12671278898E+03  0.17770000000E+01 0. -1.
</event>
<event>
 6    1  0.1059789E-002  0.1832829E+03  0.7546771E-02  0.1067833E+00
        -11   -1    0    0    0    0  0.00000000000E+00  0.00000000000E+00  0.18250000000E+03  0.18250000000E+03  0.00000000000E+00 0. -1.
         11   -1    0    0    0    0 -0.00000000000E+00 -0.00000000000E+00 -0.18250000000E+03  0.18250000000E+03  0.00000000000E+00 0.  1.
        -11    1    1    2    0    0 -0.55957811539E+00 -0.42184730915E+01  0.18166723175E+03  0.18171706506E+03  0.00000000000E+00 0. -1.
         11    1    1    2    0    0  0.38405116015E+01  0.55308141701E+01 -0.13453806898E+03  0.13470646398E+03  0.00000000000E+00 0.  1.
        -15    1    1    2    0    0  0.13435145199E+01 -0.46921270138E+01 -0.14535375029E+02  0.15435541565E+02  0.17770000000E+01 0.  1.
         15    1    1    2    0    0 -0.46244480061E+01  0.33797859352E+01 -0.32593787744E+02  0.33140929390E+02  0.17770000000E+01 0. -1.
</event>
<event>
 6    1  0.1059789E-002  0.1829642E+03  0.7546771E-02  0.1068086E+00
        -11   -1    0    0    0    0  0.00000000000E+00  0.00000000000E+00  0.18250000000E+03  0.18250000000E+03  0.00000000000E+00 0. -1.
         11   -1    0    0    0    0 -0.00000000000E+00 -0.00000000000E+00 -0.18250000000E+03  0.18250000000E+03  0.00000000000E+00 0. -1.
        -11    1    1    2    0    0 -0.75936124806E+00  0.89337932634E+00  0.40872421426E+02  0.40889235617E+02  0.00000000000E+00 0. -1.
         11    1    1    2    0    0  0.24846376896E+01 -0.21309005251E+01 -0.18200638641E+03  0.18203581751E+03  0.00000000000E+00 0. -1.
        -15    1    1    2    0    0 -0.82926119965E+00 -0.29428173261E+01  0.12957463517E+03  0.12962288246E+03  0.17770000000E+01 0.  1.
         15    1    1    2    0    0 -0.89601524191E+00  0.41803385249E+01  0.11559329810E+02  0.12452064414E+02  0.17770000000E+01 0.  1.
</event>
<event>
 6    1  0.1059789E-002  0.1919009E+03  0.7546771E-02  0.1061209E+00
        -11   -1    0    0    0    0  0.00000000000E+00  0.00000000000E+00  0.18250000000E+03  0.18250000000E+03  0.00000000000E+00 0. -1.
         11   -1    0    0    0    0 -0.00000000000E+00 -0.00000000000E+00 -0.18250000000E+03  0.18250000000E+03  0.00000000000E+00 0. -1.
        -11    1    1    2    0    0  0.19122008614E+02 -0.59201745922E+01  0.15470609446E+03  0.15599575425E+03  0.00000000000E+00 0. -1.
         11    1    1    2    0    0 -0.12475211048E+02 -0.46151582968E+01 -0.17258731689E+03  0.17309914075E+03  0.00000000000E+00 0. -1.
        -15    1    1    2    0    0 -0.92948088045E+01  0.17945663800E+02  0.18957045061E+02  0.27766303434E+02  0.17770000000E+01 0.  1.
         15    1    1    2    0    0  0.26480112388E+01 -0.74103309107E+01 -0.10758226305E+01  0.81388015739E+01  0.17770000000E+01 0. -1.
</event>
<event>
 6    1  0.1059789E-002  0.1844834E+03  0.7546771E-02  0.1066887E+00
        -11   -1    0    0    0    0  0.00000000000E+00  0.00000000000E+00  0.18250000000E+03  0.18250000000E+03  0.00000000000E+00 0.  1.
         11   -1    0    0    0    0 -0.00000000000E+00 -0.00000000000E+00 -0.18250000000E+03  0.18250000000E+03  0.00000000000E+00 0.  1.
        -11    1    1    2    0    0  0.67554783684E+01  0.83062913300E+01  0.18019885886E+03  0.18051664659E+03  0.00000000000E+00 0.  1.
         11    1    1    2    0    0  0.27815097498E+01 -0.29070564342E+01 -0.14583955881E+03  0.14589504682E+03  0.00000000000E+00 0.  1.
        -15    1    1    2    0    0 -0.18065769231E+00  0.31594263014E+01 -0.14590095792E+02  0.15034734316E+02  0.17770000000E+01 0.  1.
         15    1    1    2    0    0 -0.93563304259E+01 -0.85586611972E+01 -0.19769204257E+02  0.23553572266E+02  0.17770000000E+01 0. -1.
</event>
<event>
 6    1  0.1059789E-002  0.1831480E+03  0.7546771E-02  0.1067940E+00
        -11   -1    0    0    0    0  0.00000000000E+00  0.00000000000E+00  0.18250000000E+03  0.18250000000E+03  0.00000000000E+00 0.  1.
         11   -1    0    0    0    0 -0.00000000000E+00 -0.00000000000E+00 -0.18250000000E+03  0.18250000000E+03  0.00000000000E+00 0. -1.
        -11    1    1    2    0    0  0.13041287114E+02  0.92107001964E+00  0.18138146530E+03  0.18185202637E+03  0.00000000000E+00 0.  1.
         11    1    1    2    0    0 -0.28840657742E+00  0.54169321539E+00 -0.27701218069E+02  0.27708014948E+02  0.00000000000E+00 0. -1.
        -15    1    1    2    0    0  0.17814030083E+01 -0.62250074062E+00 -0.92128260838E+02  0.92164717099E+02  0.17770000000E+01 0. -1.
         15    1    1    2    0    0 -0.14534283545E+02 -0.84026249442E+00 -0.61551986395E+02  0.63275241583E+02  0.17770000000E+01 0. -1.
</event>
<event>
 6    1  0.1059789E-002  0.1842605E+03  0.7546771E-02  0.1067062E+00
        -11   -1    0    0    0    0  0.00000000000E+00  0.00000000000E+00  0.18250000000E+03  0.18250000000E+03  0.00000000000E+00 0.  1.
         11   -1    0    0    0    0 -0.00000000000E+00 -0.00000000000E+00 -0.18250000000E+03  0.18250000000E+03  0.00000000000E+00 0.  1.
        -11    1    1    2    0    0 -0.38931875289E+01  0.17998244566E+01  0.18068861785E+03  0.18073951670E+03  0.00000000000E+00 0.  1.
         11    1    1    2    0    0  0.18342763253E+01 -0.13023657561E+01 -0.13418582107E+03  0.13420467690E+03  0.00000000000E+00 0.  1.
        -15    1    1    2    0    0 -0.11256956041E+01  0.11562344430E+01 -0.45951054445E+02  0.46013706678E+02  0.17770000000E+01 0.  1.
         15    1    1    2    0    0  0.31846068076E+01 -0.16536931435E+01 -0.55174234080E+00  0.40420997195E+01  0.17770000000E+01 0.  1.
</event>
<event>
 6    1  0.1059789E-002  0.1834414E+03  0.7546771E-02  0.1067708E+00
        -11   -1    0    0    0    0  0.00000000000E+00  0.00000000000E+00  0.18250000000E+03  0.18250000000E+03  0.00000000000E+00 0.  1.
         11   -1    0    0    0    0 -0.00000000000E+00 -0.00000000000E+00 -0.18250000000E+03  0.18250000000E+03  0.00000000000E+00 0. -1.
        -11    1    1    2    0    0 -0.25461164232E+01 -0.87954517087E+00  0.18153861490E+03  0.18155859938E+03  0.00000000000E+00 0.  1.
         11    1    1    2    0    0  0.92874944185E+00  0.23858802642E+01 -0.13931341196E+03  0.13933693607E+03  0.00000000000E+00 0. -1.
        -15    1    1    2    0    0  0.56803260504E+01 -0.30668030225E+01 -0.33796874365E+02  0.34453705616E+02  0.17770000000E+01 0. -1.
         15    1    1    2    0    0 -0.40629590690E+01  0.15604679293E+01 -0.84283285716E+01  0.96507589373E+01  0.17770000000E+01 0. -1.
</event>
<event>
 6    1  0.1059789E-002  0.1851495E+03  0.7546771E-02  0.1066365E+00
        -11   -1    0    0    0    0  0.00000000000E+00  0.00000000000E+00  0.18250000000E+03  0.18250000000E+03  0.00000000000E+00 0.  1.
         11   -1    0    0    0    0 -0.00000000000E+00 -0.00000000000E+00 -0.18250000000E+03  0.18250000000E+03  0.00000000000E+00 0.  1.
        -11    1    1    2    0    0 -0.33805141742E+01  0.12770001550E+01  0.17981417976E+03  0.17985048748E+03  0.00000000000E+00 0.  1.
         11    1    1    2    0    0  0.43300608861E+01  0.78517799085E+01 -0.16593327735E+03  0.16617536643E+03  0.00000000000E+00 0.  1.
        -15    1    1    2    0    0 -0.53933578668E+00 -0.82984333268E+01 -0.14557427270E+02  0.16859160610E+02  0.17770000000E+01 0.  1.
         15    1    1    2    0    0 -0.41021092519E+00 -0.83034673671E+00  0.67652486034E+00  0.21149854829E+01  0.17770000000E+01 0.  1.
</event>
<event>
 6    1  0.1059789E-002  0.1853265E+03  0.7546771E-02  0.1066227E+00
        -11   -1    0    0    0    0  0.00000000000E+00  0.00000000000E+00  0.18250000000E+03  0.18250000000E+03  0.00000000000E+00 0. -1.
         11   -1    0    0    0    0 -0.00000000000E+00 -0.00000000000E+00 -0.18250000000E+03  0.18250000000E+03  0.00000000000E+00 0.  1.
        -11    1    1    2    0    0  0.27410899752E+01 -0.43151386115E+01  0.17960073317E+03  0.17967347425E+03  0.00000000000E+00 0. -1.
         11    1    1    2    0    0  0.20774236878E+01 -0.87521101385E+00 -0.16309960089E+03  0.16311517861E+03  0.00000000000E+00 0.  1.
        -15    1    1    2    0    0 -0.12767212530E+01 -0.33912846636E+01 -0.98748735348E+01  0.10667787266E+02  0.17770000000E+01 0. -1.
         15    1    1    2    0    0 -0.35417924100E+01  0.85816342889E+01 -0.66262587404E+01  0.11543559869E+02  0.17770000000E+01 0.  1.
</event>
<event>
 6    1  0.1059789E-002  0.1873685E+03  0.7546771E-02  0.1064644E+00
        -11   -1    0    0    0    0  0.00000000000E+00  0.00000000000E+00  0.18250000000E+03  0.18250000000E+03  0.00000000000E+00 0. -1.
         11   -1    0    0    0    0 -0.00000000000E+00 -0.00000000000E+00 -0.18250000000E+03  0.18250000000E+03  0.00000000000E+00 0. -1.
        -11    1    1    2    0    0 -0.64481775202E+01  0.88972363142E+01  0.17729128534E+03  0.17763147149E+03  0.00000000000E+00 0. -1.
         11    1    1    2    0    0  0.26586593093E+01  0.83339238506E+00 -0.12469745190E+03  0.12472857540E+03  0.00000000000E+00 0. -1.
        -15    1    1    2    0    0 -0.56454737148E+01  0.29854309913E+00 -0.47473616268E+02  0.47842057565E+02  0.17770000000E+01 0. -1.
         15    1    1    2    0    0  0.94349919257E+01 -0.10029171798E+02 -0.51202171681E+01  0.14797895541E+02  0.17770000000E+01 0.  1.
</event>
<event>
 6    1  0.1059789E-002  0.1833609E+03  0.7546771E-02  0.1067772E+00
        -11   -1    0    0    0    0  0.00000000000E+00  0.00000000000E+00  0.18250000000E+03  0.18250000000E+03  0.00000000000E+00 0.  1.
         11   -1    0    0    0    0 -0.00000000000E+00 -0.00000000000E+00 -0.18250000000E+03  0.18250000000E+03  0.00000000000E+00 0.  1.
        -11    1    1    2    0    0 -0.62374154900E+01 -0.80968295442E+00  0.18153014849E+03  0.18163908101E+03  0.00000000000E+00 0.  1.
         11    1    1    2    0    0 -0.21837040733E+01 -0.10807731953E-01 -0.15208322174E+03  0.15209889880E+03  0.00000000000E+00 0.  1.
        -15    1    1    2    0    0  0.51385449370E+00  0.31516708169E+00 -0.10217551552E+02  0.10388429402E+02  0.17770000000E+01 0.  1.
         15    1    1    2    0    0  0.79072650696E+01  0.50532360468E+00 -0.19229375203E+02  0.20873590791E+02  0.17770000000E+01 0. -1.
</event>
<event>
 6    1  0.1059789E-002  0.1904144E+03  0.7546771E-02  0.1062324E+00
        -11   -1    0    0    0    0  0.00000000000E+00  0.00000000000E+00  0.18250000000E+03  0.18250000000E+03  0.00000000000E+00 0.  1.
         11   -1    0    0    0    0 -0.00000000000E+00 -0.00000000000E+00 -0.18250000000E+03  0.18250000000E+03  0.00000000000E+00 0.  1.
        -11    1    1    2    0    0  0.42153723013E+01 -0.64642227527E+01  0.16253589449E+03  0.16271899869E+03  0.00000000000E+00 0.  1.
         11    1    1    2    0    0  0.42636112948E+01 -0.23477807322E+01 -0.17451777736E+03  0.17458563821E+03  0.00000000000E+00 0.  1.
        -15    1    1    2    0    0 -0.98612456624E+00  0.10325022580E+02 -0.28612932856E+01  0.10905194231E+02  0.17770000000E+01 0.  1.
         15    1    1    2    0    0 -0.74928590299E+01 -0.15130190952E+01  0.14843176154E+02  0.16790168866E+02  0.17770000000E+01 0. -1.
</event>
<event>
 6    1  0.1059789E-002  0.1835828E+03  0.7546771E-02  0.1067596E+00
        -11   -1    0    0    0    0  0.00000000000E+00  0.00000000000E+00  0.18250000000E+03  0.18250000000E+03  0.00000000000E+00 0. -1.
         11   -1    0    0    0    0 -0.00000000000E+00 -0.00000000000E+00 -0.18250000000E+03  0.18250000000E+03  0.00000000000E+00 0. -1.
        -11    1    1    2    0    0 -0.29194686919E+00 -0.45507056740E+00  0.13578496682E+02  0.13589256577E+02  0.00000000000E+00 0. -1.
         11    1    1    2    0    0  0.17324645791E+02  0.87340206809E+00 -0.18058592592E+03  0.18141715141E+03  0.00000000000E+00 0. -1.
        -15    1    1    2    0    0 -0.37413369545E+01  0.16101181815E+01  0.28551510290E+01  0.52820165812E+01  0.17770000000E+01 0.  1.
         15    1    1    2    0    0 -0.13291361968E+02 -0.20284496822E+01  0.16415227821E+03  0.16471157544E+03  0.17770000000E+01 0. -1.
</event>
<event>
 6    1  0.1059789E-002  0.1930741E+03  0.7546771E-02  0.1060336E+00
        -11   -1    0    0    0    0  0.00000000000E+00  0.00000000000E+00  0.18250000000E+03  0.18250000000E+03  0.00000000000E+00 0. -1.
         11   -1    0    0    0    0 -0.00000000000E+00 -0.00000000000E+00 -0.18250000000E+03  0.18250000000E+03  0.00000000000E+00 0. -1.
        -11    1    1    2    0    0  0.24059263613E+01  0.13026871833E+01  0.17190409684E+03  0.17192586770E+03  0.00000000000E+00 0. -1.
         11    1    1    2    0    0  0.12859250026E+01 -0.24892567390E+01 -0.15122136921E+03  0.15124732232E+03  0.00000000000E+00 0. -1.
        -15    1    1    2    0    0  0.81797391833E+01  0.92294776087E+01  0.41189637398E+01  0.13123070575E+02  0.17770000000E+01 0. -1.
         15    1    1    2    0    0 -0.11871590547E+02 -0.80429080529E+01 -0.24801691366E+02  0.28703739402E+02  0.17770000000E+01 0.  1.
</event>
<event>
 6    1  0.1059789E-002  0.1867713E+03  0.7546771E-02  0.1065105E+00
        -11   -1    0    0    0    0  0.00000000000E+00  0.00000000000E+00  0.18250000000E+03  0.18250000000E+03  0.00000000000E+00 0. -1.
         11   -1    0    0    0    0 -0.00000000000E+00 -0.00000000000E+00 -0.18250000000E+03  0.18250000000E+03  0.00000000000E+00 0.  1.
        -11    1    1    2    0    0  0.19836598573E+01 -0.15115225239E+01  0.17821125609E+03  0.17822870533E+03  0.00000000000E+00 0. -1.
         11    1    1    2    0    0  0.21683193045E+01 -0.33475751573E+01 -0.16590449895E+03  0.16595243487E+03  0.00000000000E+00 0.  1.
        -15    1    1    2    0    0 -0.25610092923E+01  0.41873026763E+01 -0.15740985520E+02  0.16583987049E+02  0.17770000000E+01 0.  1.
         15    1    1    2    0    0 -0.15909698694E+01  0.67179500492E+00  0.34342283747E+01  0.42348727470E+01  0.17770000000E+01 0. -1.
</event>
<event>
 6    1  0.1059789E-002  0.1845492E+03  0.7546771E-02  0.1066835E+00
        -11   -1    0    0    0    0  0.00000000000E+00  0.00000000000E+00  0.18250000000E+03  0.18250000000E+03  0.00000000000E+00 0.  1.
         11   -1    0    0    0    0 -0.00000000000E+00 -0.00000000000E+00 -0.18250000000E+03  0.18250000000E+03  0.00000000000E+00 0. -1.
        -11    1    1    2    0    0  0.44620232300E+01  0.56739451010E+01  0.15825530853E+03  0.15841984087E+03  0.00000000000E+00 0.  1.
         11    1    1    2    0    0 -0.29298854926E+01  0.10033622290E+00 -0.18042694761E+03  0.18045076259E+03  0.00000000000E+00 0. -1.
        -15    1    1    2    0    0 -0.17695642604E+01 -0.87373231878E+01  0.20183683522E+02  0.22136191716E+02  0.17770000000E+01 0.  1.
         15    1    1    2    0    0  0.23742652303E+00  0.29630418638E+01  0.19879555562E+01  0.39932048200E+01  0.17770000000E+01 0. -1.
</event>
<event>
 6    1  0.1059789E-002  0.1956778E+03  0.7546771E-02  0.1058424E+00
        -11   -1    0    0    0    0  0.00000000000E+00  0.00000000000E+00  0.18250000000E+03  0.18250000000E+03  0.00000000000E+00 0.  1.
         11   -1    0    0    0    0 -0.00000000000E+00 -0.00000000000E+00 -0.18250000000E+03  0.18250000000E+03  0.00000000000E+00 0. -1.
        -11    1    1    2    0    0 -0.21568036784E+01  0.23026284208E+00  0.14771465948E+03  0.14773058400E+03  0.00000000000E+00 0.  1.
         11    1    1    2    0    0  0.35305881726E+00 -0.36819220506E+01 -0.16928176698E+03  0.16932217171E+03  0.00000000000E+00 0. -1.
        -15    1    1    2    0    0 -0.38066484840E+01  0.56927556945E+01  0.33615718078E+02  0.34352180004E+02  0.17770000000E+01 0.  1.
         15    1    1    2    0    0  0.56103933451E+01 -0.22410964861E+01 -0.12048610582E+02  0.13595064285E+02  0.17770000000E+01 0. -1.
</event>
<event>
 6    1  0.1059789E-002  0.1920516E+03  0.7546771E-02  0.1061096E+00
        -11   -1    0    0    0    0  0.00000000000E+00  0.00000000000E+00  0.18250000000E+03  0.18250000000E+03  0.00000000000E+00 0.  1.
         11   -1    0    0    0    0 -0.00000000000E+00 -0.00000000000E+00 -0.18250000000E+03  0.18250000000E+03  0.00000000000E+00 0.  1.
        -11    1    1    2    0    0  0.50882147064E+01 -0.19530187738E+01  0.14083386767E+03  0.14093928655E+03  0.00000000000E+00 0.  1.
         11    1    1    2    0    0 -0.10146855389E+02  0.20957030041E+01 -0.17263772984E+03  0.17294836342E+03  0.00000000000E+00 0.  1.
        -15    1    1    2    0    0  0.64512542674E+01  0.14761665318E+02  0.32182448686E+02  0.36033223239E+02  0.17770000000E+01 0. -1.
         15    1    1    2    0    0 -0.13926135848E+01 -0.14904349548E+02 -0.37858651774E+00  0.15079126792E+02  0.17770000000E+01 0.  1.
</event>
<event>
 6    1  0.1059789E-002  0.1835229E+03  0.7546771E-02  0.1067644E+00
        -11   -1    0    0    0    0  0.00000000000E+00  0.00000000000E+00  0.18250000000E+03  0.18250000000E+03  0.00000000000E+00 0. -1.
         11   -1    0    0    0    0 -0.00000000000E+00 -0.00000000000E+00 -0.18250000000E+03  0.18250000000E+03  0.00000000000E+00 0. -1.
        -11    1    1    2    0    0 -0.14611212687E+00 -0.19865805230E+01  0.14198157016E+03  0.14199554259E+03  0.00000000000E+00 0. -1.
         11    1    1    2    0    0  0.94474392107E+01  0.31670891350E+01 -0.18120338522E+03  0.18147713734E+03  0.00000000000E+00 0. -1.
        -15    1    1    2    0    0 -0.29766599951E+01 -0.45444758965E+01  0.11533289383E+02  0.12871956296E+02  0.17770000000E+01 0. -1.
         15    1    1    2    0    0 -0.63246670886E+01  0.33639672846E+01  0.27688525676E+02  0.28655363770E+02  0.17770000000E+01 0.  1.
</event>
<event>
 6    1  0.1059789E-002  0.1300129E+03  0.7546771E-02  0.1120152E+00
        -11   -1    0    0    0    0  0.00000000000E+00  0.00000000000E+00  0.18250000000E+03  0.18250000000E+03  0.00000000000E+00 0. -1.
         11   -1    0    0    0    0 -0.00000000000E+00 -0.00000000000E+00 -0.18250000000E+03  0.18250000000E+03  0.00000000000E+00 0. -1.
        -11    1    1    2    0    0 -0.11307315861E+01 -0.17412120030E+01  0.12646556854E+03  0.12648260907E+03  0.00000000000E+00 0. -1.
         11    1    1    2    0    0 -0.62126921298E+01  0.31142894339E+01 -0.48593245092E+02  0.49087674733E+02  0.00000000000E+00 0. -1.
        -15    1    1    2    0    0  0.70354242150E+01 -0.31470804268E+01 -0.13350523160E+03  0.13373932071E+03  0.17770000000E+01 0. -1.
         15    1    1    2    0    0  0.30799950095E+00  0.17740029959E+01  0.55632908158E+02  0.55690395486E+02  0.17770000000E+01 0. -1.
</event>
<event>
 6    1  0.1059789E-002  0.1852307E+03  0.7546771E-02  0.1066302E+00
        -11   -1    0    0    0    0  0.00000000000E+00  0.00000000000E+00  0.18250000000E+03  0.18250000000E+03  0.00000000000E+00 0.  1.
         11   -1    0    0    0    0 -0.00000000000E+00 -0.00000000000E+00 -0.18250000000E+03  0.18250000000E+03  0.00000000000E+00 0. -1.
        -11    1    1    2    0    0 -0.16558988930E+01  0.34182955495E+01  0.17972920175E+03  0.17976933195E+03  0.00000000000E+00 0.  1.
         11    1    1    2    0    0  0.25724852474E+01  0.97203380183E+00 -0.17018033913E+03  0.17020255684E+03  0.00000000000E+00 0. -1.
        -15    1    1    2    0    0  0.15256792638E+01 -0.27471075250E+01  0.11512509722E+01  0.37891166214E+01  0.17770000000E+01 0. -1.
         15    1    1    2    0    0 -0.24422656182E+01 -0.16432218264E+01 -0.10700113598E+02  0.11238994587E+02  0.17770000000E+01 0.  1.
</event>
<event>
 6    1  0.1059789E-002  0.1825659E+03  0.7546771E-02  0.1068402E+00
        -11   -1    0    0    0    0  0.00000000000E+00  0.00000000000E+00  0.18250000000E+03  0.18250000000E+03  0.00000000000E+00 0.  1.
         11   -1    0    0    0    0 -0.00000000000E+00 -0.00000000000E+00 -0.18250000000E+03  0.18250000000E+03  0.00000000000E+00 0.  1.
        -11    1    1    2    0    0 -0.19225974825E+01 -0.15808656878E+01  0.18241710449E+03  0.18243408543E+03  0.00000000000E+00 0.  1.
         11    1    1    2    0    0  0.19461043883E+01 -0.25260049557E+00 -0.80847030135E+02  0.80870844010E+02  0.00000000000E+00 0.  1.
        -15    1    1    2    0    0 -0.11079167137E+01  0.64879646582E-01 -0.59181963328E+02  0.59219035800E+02  0.17770000000E+01 0.  1.
         15    1    1    2    0    0  0.10844098079E+01  0.17685865368E+01 -0.42388111028E+02  0.42476034755E+02  0.17770000000E+01 0. -1.
</event>
<event>
 6    1  0.1059789E-002  0.1827730E+03  0.7546771E-02  0.1068238E+00
        -11   -1    0    0    0    0  0.00000000000E+00  0.00000000000E+00  0.18250000000E+03  0.18250000000E+03  0.00000000000E+00 0. -1.
         11   -1    0    0    0    0 -0.00000000000E+00 -0.00000000000E+00 -0.18250000000E+03  0.18250000000E+03  0.00000000000E+00 0. -1.
        -11    1    1    2    0    0 -0.27717004376E+00 -0.20784379892E+01  0.14961737661E+03  0.14963206913E+03  0.00000000000E+00 0. -1.
         11    1    1    2    0    0  0.36355439730E+01 -0.32320677854E-01 -0.18219067876E+03  0.18222695095E+03  0.00000000000E+00 0. -1.
        -15    1    1    2    0    0 -0.90296768098E+00  0.16672610995E+01  0.89411167051E+01  0.93110905452E+01  0.17770000000E+01 0.  1.
         15    1    1    2    0    0 -0.24554062483E+01  0.44349756761E+00  0.23632185443E+02  0.23829889378E+02  0.17770000000E+01 0. -1.
</event>
<event>
 6    1  0.1059789E-002  0.2023568E+03  0.7546771E-02  0.1053663E+00
        -11   -1    0    0    0    0  0.00000000000E+00  0.00000000000E+00  0.18250000000E+03  0.18250000000E+03  0.00000000000E+00 0. -1.
         11   -1    0    0    0    0 -0.00000000000E+00 -0.00000000000E+00 -0.18250000000E+03  0.18250000000E+03  0.00000000000E+00 0.  1.
        -11    1    1    2    0    0 -0.27230139429E+01 -0.52361852783E+01  0.16253607224E+03  0.16264318990E+03  0.00000000000E+00 0. -1.
         11    1    1    2    0    0 -0.11765335144E+02 -0.14668482154E+02 -0.13011052782E+03  0.13146230232E+03  0.00000000000E+00 0.  1.
        -15    1    1    2    0    0  0.16796827086E+02  0.84947657825E+01 -0.47872573484E+02  0.51470724367E+02  0.17770000000E+01 0. -1.
         15    1    1    2    0    0 -0.23084779986E+01  0.11409901650E+02  0.15447029065E+02  0.19423783418E+02  0.17770000000E+01 0.  1.
</event>
<event>
 6    1  0.1059789E-002  0.1888299E+03  0.7546771E-02  0.1063525E+00
        -11   -1    0    0    0    0  0.00000000000E+00  0.00000000000E+00  0.18250000000E+03  0.18250000000E+03  0.00000000000E+00 0.  1.
         11   -1    0    0    0    0 -0.00000000000E+00 -0.00000000000E+00 -0.18250000000E+03  0.18250000000E+03  0.00000000000E+00 0. -1.
        -11    1    1    2    0    0 -0.22217945274E+00 -0.21506350358E+01  0.12881791684E+03  0.12883605975E+03  0.00000000000E+00 0.  1.
         11    1    1    2    0    0 -0.49573732094E+01 -0.68418662224E+01 -0.17596736281E+03  0.17617008673E+03  0.00000000000E+00 0. -1.
        -15    1    1    2    0    0  0.26296155332E+01  0.85151618634E+01 -0.31336669483E+01  0.96125156414E+01  0.17770000000E+01 0. -1.
         15    1    1    2    0    0  0.25499371289E+01  0.47733939485E+00  0.50283112924E+02  0.50381337880E+02  0.17770000000E+01 0.  1.
</event>
<event>
 6    1  0.1851969E-002  0.1895414E+03  0.7546771E-02  0.1062984E+00
        -11   -1    0    0    0    0  0.00000000000E+00  0.00000000000E+00  0.18250000000E+03  0.18250000000E+03  0.00000000000E+00 0. -1.
         11   -1    0    0    0    0 -0.00000000000E+00 -0.00000000000E+00 -0.18250000000E+03  0.18250000000E+03  0.00000000000E+00 0.  1.
        -11    1    1    2    0    0  0.23392891194E+01 -0.23025023378E+01  0.17542789611E+03  0.17545860059E+03  0.00000000000E+00 0. -1.
         11    1    1    2    0    0  0.10088326582E+02  0.38952511290E+01 -0.12224186111E+03  0.12271927282E+03  0.00000000000E+00 0.  1.
        -15    1    1    2    0    0  0.15748333709E+01 -0.41562425488E+00  0.57358566582E+01  0.62217862605E+01  0.17770000000E+01 0.  1.
         15    1    1    2    0    0 -0.14002449072E+02 -0.11771245363E+01 -0.58921891657E+02  0.60600340326E+02  0.17770000000E+01 0.  1.
</event>
<event>
 6    1  0.1059789E-002  0.1826321E+03  0.7546771E-02  0.1068350E+00
        -11   -1    0    0    0    0  0.00000000000E+00  0.00000000000E+00  0.18250000000E+03  0.18250000000E+03  0.00000000000E+00 0. -1.
         11   -1    0    0    0    0 -0.00000000000E+00 -0.00000000000E+00 -0.18250000000E+03  0.18250000000E+03  0.00000000000E+00 0.  1.
        -11    1    1    2    0    0 -0.20072958785E+01  0.34806117953E+01  0.67942324723E+02  0.68061026910E+02  0.00000000000E+00 0. -1.
         11    1    1    2    0    0 -0.12569748215E+01 -0.53850656892E+01 -0.18228399239E+03  0.18236785024E+03  0.00000000000E+00 0.  1.
        -15    1    1    2    0    0  0.13748127115E+01  0.11159317594E+01  0.95748131581E+02  0.95780988948E+02  0.17770000000E+01 0. -1.
         15    1    1    2    0    0  0.18894579885E+01  0.78852213446E+00  0.18593536090E+02  0.18790133900E+02  0.17770000000E+01 0.  1.
</event>
<event>
 6    1  0.1059789E-002  0.1914015E+03  0.7546771E-02  0.1061582E+00
        -11   -1    0    0    0    0  0.00000000000E+00  0.00000000000E+00  0.18250000000E+03  0.18250000000E+03  0.00000000000E+00 0. -1.
         11   -1    0    0    0    0 -0.00000000000E+00 -0.00000000000E+00 -0.18250000000E+03  0.18250000000E+03  0.00000000000E+00 0.  1.
        -11    1    1    2    0    0 -0.51992179242E+01  0.13141589871E+02  0.14555424236E+03  0.14623874562E+03  0.00000000000E+00 0. -1.
         11    1    1    2    0    0  0.13708820670E+01  0.50646430899E+01 -0.17351916213E+03  0.17359847221E+03  0.00000000000E+00 0.  1.
        -15    1    1    2    0    0  0.92936459365E+01 -0.23096921811E+02  0.28139867017E+02  0.37614485197E+02  0.17770000000E+01 0.  1.
         15    1    1    2    0    0 -0.54653100793E+01  0.48906888498E+01 -0.17494725266E+00  0.75482969754E+01  0.17770000000E+01 0. -1.
</event>
<event>
 6    1  0.1266371E-002  0.1844429E+03  0.7546771E-02  0.1066919E+00
        -11   -1    0    0    0    0  0.00000000000E+00  0.00000000000E+00  0.18250000000E+03  0.18250000000E+03  0.00000000000E+00 0.  1.
         11   -1    0    0    0    0 -0.00000000000E+00 -0.00000000000E+00 -0.18250000000E+03  0.18250000000E+03  0.00000000000E+00 0. -1.
        -11    1    1    2    0    0 -0.15901748747E+01  0.15461807599E+01  0.14775083421E+03  0.14776748066E+03  0.00000000000E+00 0.  1.
         11    1    1    2    0    0 -0.51888243463E+01 -0.11668908459E+02 -0.18010490210E+03  0.18055709092E+03  0.00000000000E+00 0. -1.
        -15    1    1    2    0    0  0.62049129843E+01  0.12132653541E+02  0.21796266496E+02  0.25766978660E+02  0.17770000000E+01 0.  1.
         15    1    1    2    0    0  0.57408623671E+00 -0.20099258423E+01  0.10557801390E+02  0.10908449756E+02  0.17770000000E+01 0.  1.
</event>
<event>
 6    1  0.1059789E-002  0.1834594E+03  0.7546771E-02  0.1067694E+00
        -11   -1    0    0    0    0  0.00000000000E+00  0.00000000000E+00  0.18250000000E+03  0.18250000000E+03  0.00000000000E+00 0. -1.
         11   -1    0    0    0    0 -0.00000000000E+00 -0.00000000000E+00 -0.18250000000E+03  0.18250000000E+03  0.00000000000E+00 0.  1.
        -11    1    1    2    0    0 -0.31607838415E+01 -0.62955216951E+00  0.18151194300E+03  0.18154055289E+03  0.00000000000E+00 0. -1.
         11    1    1    2    0    0  0.21898078297E+01  0.11048374775E+01 -0.15839950889E+03  0.15841849747E+03  0.00000000000E+00 0.  1.
        -15    1    1    2    0    0 -0.24708122712E+01 -0.34475446439E+01 -0.13460647759E+02  0.14224529674E+02  0.17770000000E+01 0.  1.
         15    1    1    2    0    0  0.34417882830E+01  0.29722593359E+01 -0.96517863526E+01  0.10816419969E+02  0.17770000000E+01 0. -1.
</event>
<event>
 6    1  0.1059789E-002  0.1826222E+03  0.7546771E-02  0.1068358E+00
        -11   -1    0    0    0    0  0.00000000000E+00  0.00000000000E+00  0.18250000000E+03  0.18250000000E+03  0.00000000000E+00 0. -1.
         11   -1    0    0    0    0 -0.00000000000E+00 -0.00000000000E+00 -0.18250000000E+03  0.18250000000E+03  0.00000000000E+00 0.  1.
        -11    1    1    2    0    0 -0.98954919951E+00 -0.22262601282E+01  0.84727519758E+02  0.84762539167E+02  0.00000000000E+00 0. -1.
         11    1    1    2    0    0 -0.89179748534E+00 -0.23227393559E+01 -0.18236087308E+03  0.18237784529E+03  0.00000000000E+00 0.  1.
        -15    1    1    2    0    0  0.14079548584E+01  0.76071361324E+00  0.29894381037E+02  0.29989877770E+02  0.17770000000E+01 0.  1.
         15    1    1    2    0    0  0.47339182645E+00  0.37882858708E+01  0.67738972288E+02  0.67869737773E+02  0.17770000000E+01 0. -1.
</event>
<event>
 6    1  0.1059789E-002  0.1780025E+03  0.7546771E-02  0.1072092E+00
        -11   -1    0    0    0    0  0.00000000000E+00  0.00000000000E+00  0.18250000000E+03  0.18250000000E+03  0.00000000000E+00 0.  1.
         11   -1    0    0    0    0 -0.00000000000E+00 -0.00000000000E+00 -0.18250000000E+03  0.18250000000E+03  0.00000000000E+00 0. -1.
        -11    1    1    2    0    0  0.43784503188E+01  0.45226397944E-01  0.17827341940E+03  0.17832718507E+03  0.00000000000E+00 0.  1.
         11    1    1    2    0    0 -0.78221329672E+00 -0.33799076963E+01 -0.17767832090E+03  0.17771218684E+03  0.00000000000E+00 0. -1.
        -15    1    1    2    0    0  0.53955795573E+00  0.20468124615E+01 -0.26669536699E+01  0.38406945879E+01  0.17770000000E+01 0. -1.
         15    1    1    2    0    0 -0.41357949778E+01  0.12878688369E+01  0.20718551697E+01  0.51199335038E+01  0.17770000000E+01 0.  1.
</event>
<event>
 6    1  0.1059789E-002  0.1893166E+03  0.7546771E-02  0.1063155E+00
        -11   -1    0    0    0    0  0.00000000000E+00  0.00000000000E+00  0.18250000000E+03  0.18250000000E+03  0.00000000000E+00 0. -1.
         11   -1    0    0    0    0 -0.00000000000E+00 -0.00000000000E+00 -0.18250000000E+03  0.18250000000E+03  0.00000000000E+00 0.  1.
        -11    1    1    2    0    0  0.30768737659E+01 -0.14709421815E+01  0.17565026272E+03  0.17568336751E+03  0.00000000000E+00 0. -1.
         11    1    1    2    0    0  0.26662101572E+01 -0.27491051041E+01 -0.14690915284E+03  0.14695906044E+03  0.00000000000E+00 0.  1.
        -15    1    1    2    0    0  0.59784739004E+01  0.12517303864E+02 -0.22730883321E+02  0.26688496244E+02  0.17770000000E+01 0.  1.
         15    1    1    2    0    0 -0.11721557823E+02 -0.82972565788E+01 -0.60102265599E+01  0.15669075813E+02  0.17770000000E+01 0. -1.
</event>
<event>
 6    1  0.1059789E-002  0.1826079E+03  0.7546771E-02  0.1068369E+00
        -11   -1    0    0    0    0  0.00000000000E+00  0.00000000000E+00  0.18250000000E+03  0.18250000000E+03  0.00000000000E+00 0.  1.
         11   -1    0    0    0    0 -0.00000000000E+00 -0.00000000000E+00 -0.18250000000E+03  0.18250000000E+03  0.00000000000E+00 0.  1.
        -11    1    1    2    0    0  0.28705022749E+01  0.13300739235E+01  0.18236470330E+03  0.18239214317E+03  0.00000000000E+00 0.  1.
         11    1    1    2    0    0  0.99125500621E+00 -0.33219306198E+00 -0.22717419945E+02  0.22741462303E+02  0.00000000000E+00 0.  1.
        -15    1    1    2    0    0 -0.14036915741E+01 -0.21342487133E+01 -0.13093878665E+03  0.13097575709E+03  0.17770000000E+01 0.  1.
         15    1    1    2    0    0 -0.24580657071E+01  0.11363678518E+01 -0.28708496710E+02  0.28890637433E+02  0.17770000000E+01 0. -1.
</event>
<event>
 6    1  0.1059789E-002  0.1849438E+03  0.7546771E-02  0.1066526E+00
        -11   -1    0    0    0    0  0.00000000000E+00  0.00000000000E+00  0.18250000000E+03  0.18250000000E+03  0.00000000000E+00 0.  1.
         11   -1    0    0    0    0 -0.00000000000E+00 -0.00000000000E+00 -0.18250000000E+03  0.18250000000E+03  0.00000000000E+00 0.  1.
        -11    1    1    2    0    0 -0.12828904394E+01  0.80461027519E+01  0.17987179709E+03  0.18005623834E+03  0.00000000000E+00 0.  1.
         11    1    1    2    0    0 -0.63262038857E+00 -0.28070073035E+00 -0.41395833992E+02  0.41401619212E+02  0.00000000000E+00 0.  1.
        -15    1    1    2    0    0  0.40959486563E+01 -0.31970942402E+01 -0.13805135164E+03  0.13816052847E+03  0.17770000000E+01 0.  1.
         15    1    1    2    0    0 -0.21804378284E+01 -0.45683077814E+01 -0.42461145273E+00  0.53816139768E+01  0.17770000000E+01 0. -1.
</event>
<event>
 6    1  0.1059789E-002  0.1828298E+03  0.7546771E-02  0.1068193E+00
        -11   -1    0    0    0    0  0.00000000000E+00  0.00000000000E+00  0.18250000000E+03  0.18250000000E+03  0.00000000000E+00 0.  1.
         11   -1    0    0    0    0 -0.00000000000E+00 -0.00000000000E+00 -0.18250000000E+03  0.18250000000E+03  0.00000000000E+00 0.  1.
        -11    1    1    2    0    0 -0.23536037250E+01  0.24160398035E+01  0.18213895262E+03  0.18217018076E+03  0.00000000000E+00 0.  1.
         11    1    1    2    0    0 -0.17850537244E+01  0.32258072793E+01 -0.42109998907E+02  0.42271080627E+02  0.00000000000E+00 0.  1.
        -15    1    1    2    0    0  0.26563594080E+01  0.39457809872E+00 -0.14061891010E+02  0.14425894945E+02  0.17770000000E+01 0. -1.
         15    1    1    2    0    0  0.14822980415E+01 -0.60364251815E+01 -0.12596706270E+03  0.12613284366E+03  0.17770000000E+01 0.  1.
</event>
<event>
 6    1  0.1059789E-002  0.1832495E+03  0.7546771E-02  0.1067860E+00
        -11   -1    0    0    0    0  0.00000000000E+00  0.00000000000E+00  0.18250000000E+03  0.18250000000E+03  0.00000000000E+00 0.  1.
         11   -1    0    0    0    0 -0.00000000000E+00 -0.00000000000E+00 -0.18250000000E+03  0.18250000000E+03  0.00000000000E+00 0. -1.
        -11    1    1    2    0    0  0.34722095130E+01  0.14764847588E+00  0.18171728057E+03  0.18175051059E+03  0.00000000000E+00 0.  1.
         11    1    1    2    0    0 -0.20027000185E+01  0.18074005037E+01 -0.11899643987E+03  0.11902701461E+03  0.00000000000E+00 0. -1.
        -15    1    1    2    0    0  0.29793363517E+01  0.15350781267E+01 -0.50477960751E+02  0.50620303837E+02  0.17770000000E+01 0. -1.
         15    1    1    2    0    0 -0.44488458462E+01 -0.34901271063E+01 -0.12242879952E+02  0.13602170970E+02  0.17770000000E+01 0. -1.
</event>
<event>
 6    1  0.1059789E-002  0.1923846E+03  0.7546771E-02  0.1060848E+00
        -11   -1    0    0    0    0  0.00000000000E+00  0.00000000000E+00  0.18250000000E+03  0.18250000000E+03  0.00000000000E+00 0.  1.
         11   -1    0    0    0    0 -0.00000000000E+00 -0.00000000000E+00 -0.18250000000E+03  0.18250000000E+03  0.00000000000E+00 0.  1.
        -11    1    1    2    0    0  0.70484040612E+01 -0.12182402066E+01  0.17246716642E+03  0.17261543268E+03  0.00000000000E+00 0.  1.
         11    1    1    2    0    0 -0.35329402104E+01  0.17621700956E+00 -0.16248994705E+03  0.16252844554E+03  0.00000000000E+00 0.  1.
        -15    1    1    2    0    0  0.14999205172E+01  0.12310484469E+01 -0.19106982072E+02  0.19287294646E+02  0.17770000000E+01 0.  1.
         15    1    1    2    0    0 -0.50153843680E+01 -0.18902524987E+00  0.91297627020E+01  0.10568827130E+02  0.17770000000E+01 0.  1.
</event>
<event>
 6    1  0.1059789E-002  0.1827042E+03  0.7546771E-02  0.1068292E+00
        -11   -1    0    0    0    0  0.00000000000E+00  0.00000000000E+00  0.18250000000E+03  0.18250000000E+03  0.00000000000E+00 0.  1.
         11   -1    0    0    0    0 -0.00000000000E+00 -0.00000000000E+00 -0.18250000000E+03  0.18250000000E+03  0.00000000000E+00 0. -1.
        -11    1    1    2    0    0 -0.41046204805E+01  0.31076255112E+01  0.18222307059E+03  0.18229578355E+03  0.00000000000E+00 0.  1.
         11    1    1    2    0    0  0.10221000126E+01  0.24564001627E+00 -0.11510799293E+02  0.11558699227E+02  0.00000000000E+00 0. -1.
        -15    1    1    2    0    0 -0.11723374507E+01  0.30517463386E+01 -0.81480004492E+02  0.81564921331E+02  0.17770000000E+01 0. -1.
         15    1    1    2    0    0  0.42548579187E+01 -0.64050118661E+01 -0.89232266803E+02  0.89580595894E+02  0.17770000000E+01 0. -1.
</event>
<event>
 6    1  0.1059789E-002  0.1827936E+03  0.7546771E-02  0.1068221E+00
        -11   -1    0    0    0    0  0.00000000000E+00  0.00000000000E+00  0.18250000000E+03  0.18250000000E+03  0.00000000000E+00 0.  1.
         11   -1    0    0    0    0 -0.00000000000E+00 -0.00000000000E+00 -0.18250000000E+03  0.18250000000E+03  0.00000000000E+00 0.  1.
        -11    1    1    2    0    0 -0.19796251987E+01 -0.58748381016E-01  0.97330096608E+02  0.97350244339E+02  0.00000000000E+00 0.  1.
         11    1    1    2    0    0 -0.24404126466E+01 -0.69670762041E+01 -0.18205684280E+03  0.18220644823E+03  0.00000000000E+00 0.  1.
        -15    1    1    2    0    0  0.49936840002E+01  0.25738900431E+01  0.56530317300E+02  0.56836575309E+02  0.17770000000E+01 0. -1.
         15    1    1    2    0    0 -0.57364615493E+00  0.44519345420E+01  0.28196428898E+02  0.28606732121E+02  0.17770000000E+01 0.  1.
</event>
<event>
 6    1  0.1059789E-002  0.1825387E+03  0.7546771E-02  0.1068424E+00
        -11   -1    0    0    0    0  0.00000000000E+00  0.00000000000E+00  0.18250000000E+03  0.18250000000E+03  0.00000000000E+00 0.  1.
         11   -1    0    0    0    0 -0.00000000000E+00 -0.00000000000E+00 -0.18250000000E+03  0.18250000000E+03  0.00000000000E+00 0. -1.
        -11    1    1    2    0    0  0.10544389868E+00 -0.58986880562E+00  0.30017963828E+02  0.30023944044E+02  0.00000000000E+00 0.  1.
         11    1    1    2    0    0  0.20285499674E+01  0.15918999295E+01 -0.18244306091E+03  0.18246128256E+03  0.00000000000E+00 0. -1.
        -15    1    1    2    0    0 -0.10731974995E+01 -0.54517720360E+00  0.12064271271E+03  0.12066180353E+03  0.17770000000E+01 0.  1.
         15    1    1    2    0    0 -0.10607963666E+01 -0.45685392025E+00  0.31782384363E+02  0.31852969866E+02  0.17770000000E+01 0. -1.
</event>
<event>
 6    1  0.1059789E-002  0.1764575E+03  0.7546771E-02  0.1073369E+00
        -11   -1    0    0    0    0  0.00000000000E+00  0.00000000000E+00  0.18250000000E+03  0.18250000000E+03  0.00000000000E+00 0. -1.
         11   -1    0    0    0    0 -0.00000000000E+00 -0.00000000000E+00 -0.18250000000E+03  0.18250000000E+03  0.00000000000E+00 0. -1.
        -11    1    1    2    0    0  0.33112256329E+01 -0.12359658603E+01  0.17651095057E+03  0.17654633244E+03  0.00000000000E+00 0. -1.
         11    1    1    2    0    0  0.18387926159E+01  0.38960882897E+01 -0.17636371759E+03  0.17641633015E+03  0.00000000000E+00 0. -1.
        -15    1    1    2    0    0  0.23024046510E+00 -0.18167023477E+01 -0.42735570668E+01  0.49773926001E+01  0.17770000000E+01 0. -1.
         15    1    1    2    0    0 -0.53802587139E+01 -0.84342008164E+00  0.41263240883E+01  0.70599448117E+01  0.17770000000E+01 0. -1.
</event>
<event>
 6    1  0.1059789E-002  0.1830293E+03  0.7546771E-02  0.1068034E+00
        -11   -1    0    0    0    0  0.00000000000E+00  0.00000000000E+00  0.18250000000E+03  0.18250000000E+03  0.00000000000E+00 0.  1.
         11   -1    0    0    0    0 -0.00000000000E+00 -0.00000000000E+00 -0.18250000000E+03  0.18250000000E+03  0.00000000000E+00 0.  1.
        -11    1    1    2    0    0  0.30594213940E+01 -0.53985764413E+00  0.18194414881E+03  0.18197067014E+03  0.00000000000E+00 0.  1.
         11    1    1    2    0    0 -0.10017549466E+01  0.26144168201E+01 -0.14287160564E+03  0.14289903564E+03  0.00000000000E+00 0.  1.
        -15    1    1    2    0    0 -0.39825404010E+01 -0.17511821296E+01 -0.34744187889E+02  0.35060570274E+02  0.17770000000E+01 0.  1.
         15    1    1    2    0    0  0.19248739535E+01 -0.32337704636E+00 -0.43283552781E+01  0.50697239436E+01  0.17770000000E+01 0.  1.
</event>
<event>
 6    1  0.1059789E-002  0.1850461E+03  0.7546771E-02  0.1066446E+00
        -11   -1    0    0    0    0  0.00000000000E+00  0.00000000000E+00  0.18250000000E+03  0.18250000000E+03  0.00000000000E+00 0. -1.
         11   -1    0    0    0    0 -0.00000000000E+00 -0.00000000000E+00 -0.18250000000E+03  0.18250000000E+03  0.00000000000E+00 0. -1.
        -11    1    1    2    0    0 -0.17180021241E+01  0.37090445595E+01  0.15989809817E+03  0.15995033711E+03  0.00000000000E+00 0. -1.
         11    1    1    2    0    0 -0.52969467066E+01 -0.10977042762E+01 -0.17987255511E+03  0.17995387931E+03  0.00000000000E+00 0. -1.
        -15    1    1    2    0    0  0.15767469074E+01 -0.42688127539E+01  0.18253180568E+02  0.18895640317E+02  0.17770000000E+01 0. -1.
         15    1    1    2    0    0  0.54382019234E+01  0.16574724706E+01  0.17212763728E+01  0.62001432646E+01  0.17770000000E+01 0. -1.
</event>
<event>
 6    1  0.1059789E-002  0.1827314E+03  0.7546771E-02  0.1068271E+00
        -11   -1    0    0    0    0  0.00000000000E+00  0.00000000000E+00  0.18250000000E+03  0.18250000000E+03  0.00000000000E+00 0. -1.
         11   -1    0    0    0    0 -0.00000000000E+00 -0.00000000000E+00 -0.18250000000E+03  0.18250000000E+03  0.00000000000E+00 0.  1.
        -11    1    1    2    0    0 -0.34543592880E+01  0.14264882191E+01  0.18223026201E+03  0.18226858165E+03  0.00000000000E+00 0. -1.
         11    1    1    2    0    0  0.30840281659E+00 -0.86880760002E+00 -0.51732124690E+02  0.51740338846E+02  0.00000000000E+00 0.  1.
        -15    1    1    2    0    0  0.66683695995E+01 -0.19470350744E+01 -0.82110820481E+02  0.82423313861E+02  0.17770000000E+01 0. -1.
         15    1    1    2    0    0 -0.35224131281E+01  0.13893544554E+01 -0.48387316834E+02  0.48567765642E+02  0.17770000000E+01 0.  1.
</event>
<event>
 6    1  0.1059789E-002  0.1962666E+03  0.7546771E-02  0.1057996E+00
        -11   -1    0    0    0    0  0.00000000000E+00  0.00000000000E+00  0.18250000000E+03  0.18250000000E+03  0.00000000000E+00 0. -1.
         11   -1    0    0    0    0 -0.00000000000E+00 -0.00000000000E+00 -0.18250000000E+03  0.18250000000E+03  0.00000000000E+00 0. -1.
        -11    1    1    2    0    0  0.21267753668E+01  0.12414121916E+02  0.11653694367E+03  0.11721558273E+03  0.00000000000E+00 0. -1.
         11    1    1    2    0    0 -0.44876993695E+01  0.55075451577E+01 -0.16858380959E+03  0.16873343876E+03  0.00000000000E+00 0. -1.
        -15    1    1    2    0    0  0.88815119036E+00 -0.38075100679E+02  0.26508495656E+02  0.46436625364E+02  0.17770000000E+01 0. -1.
         15    1    1    2    0    0  0.14727728123E+01  0.20153433606E+02  0.25538370268E+02  0.32614353141E+02  0.17770000000E+01 0.  1.
</event>
<event>
 6    1  0.1059789E-002  0.1838640E+03  0.7546771E-02  0.1067374E+00
        -11   -1    0    0    0    0  0.00000000000E+00  0.00000000000E+00  0.18250000000E+03  0.18250000000E+03  0.00000000000E+00 0.  1.
         11   -1    0    0    0    0 -0.00000000000E+00 -0.00000000000E+00 -0.18250000000E+03  0.18250000000E+03  0.00000000000E+00 0.  1.
        -11    1    1    2    0    0  0.17530517621E+01  0.41243571382E+01  0.15131759294E+03  0.15138394051E+03  0.00000000000E+00 0.  1.
         11    1    1    2    0    0  0.25628359647E+01 -0.31746902281E+01 -0.18109001287E+03  0.18113596978E+03  0.00000000000E+00 0.  1.
        -15    1    1    2    0    0  0.22160153824E+00  0.49745457563E+01  0.13149864918E+02  0.14172928035E+02  0.17770000000E+01 0.  1.
         15    1    1    2    0    0 -0.45374892650E+01 -0.59242126663E+01  0.16622555012E+02  0.18307161677E+02  0.17770000000E+01 0. -1.
</event>
<event>
 6    1  0.1059789E-002  0.1848000E+03  0.7546771E-02  0.1066639E+00
        -11   -1    0    0    0    0  0.00000000000E+00  0.00000000000E+00  0.18250000000E+03  0.18250000000E+03  0.00000000000E+00 0.  1.
         11   -1    0    0    0    0 -0.00000000000E+00 -0.00000000000E+00 -0.18250000000E+03  0.18250000000E+03  0.00000000000E+00 0. -1.
        -11    1    1    2    0    0  0.56337249739E+01 -0.25963752865E+01  0.18009321026E+03  0.18020001222E+03  0.00000000000E+00 0.  1.
         11    1    1    2    0    0 -0.10058671925E+02  0.13266164622E+01 -0.58363947860E+02  0.59239237014E+02  0.00000000000E+00 0. -1.
        -15    1    1    2    0    0  0.17209300183E+01 -0.14482784750E+02 -0.56747765613E+02  0.58618932823E+02  0.17770000000E+01 0. -1.
         15    1    1    2    0    0  0.27040169324E+01  0.15752543574E+02 -0.64981496785E+02  0.66941817947E+02  0.17770000000E+01 0.  1.
</event>
<event>
 6    1  0.1059789E-002  0.1460871E+03  0.7546771E-02  0.1101815E+00
        -11   -1    0    0    0    0  0.00000000000E+00  0.00000000000E+00  0.18250000000E+03  0.18250000000E+03  0.00000000000E+00 0. -1.
         11   -1    0    0    0    0 -0.00000000000E+00 -0.00000000000E+00 -0.18250000000E+03  0.18250000000E+03  0.00000000000E+00 0.  1.
        -11    1    1    2    0    0 -0.13205875048E+00  0.24952262926E+01  0.14841366662E+03  0.14843469956E+03  0.00000000000E+00 0. -1.
         11    1    1    2    0    0  0.10123246255E+02 -0.30502211402E+01 -0.14356235160E+03  0.14395114713E+03  0.00000000000E+00 0.  1.
        -15    1    1    2    0    0 -0.32259940787E+01 -0.12962794739E+02  0.30925686334E+02  0.33734209484E+02  0.17770000000E+01 0.  1.
         15    1    1    2    0    0 -0.67651934263E+01  0.13517789587E+02 -0.35777001349E+02  0.38879943826E+02  0.17770000000E+01 0. -1.
</event>
<event>
 6    1  0.1059789E-002  0.1829369E+03  0.7546771E-02  0.1068108E+00
        -11   -1    0    0    0    0  0.00000000000E+00  0.00000000000E+00  0.18250000000E+03  0.18250000000E+03  0.00000000000E+00 0. -1.
         11   -1    0    0    0    0 -0.00000000000E+00 -0.00000000000E+00 -0.18250000000E+03  0.18250000000E+03  0.00000000000E+00 0.  1.
        -11    1    1    2    0    0 -0.54789145174E+00 -0.30918241520E+01  0.10259325998E+03  0.10264130044E+03  0.00000000000E+00 0. -1.
         11    1    1    2    0    0 -0.43565366520E+01 -0.34428821810E+01 -0.18197844709E+03  0.18206314304E+03  0.00000000000E+00 0.  1.
        -15    1    1    2    0    0  0.23147086913E+01  0.22926640606E-01  0.47992544594E+02  0.48081186212E+02  0.17770000000E+01 0.  1.
         15    1    1    2    0    0  0.25897194125E+01  0.65117796924E+01  0.31392642514E+02  0.32214370309E+02  0.17770000000E+01 0. -1.
</event>
<event>
 6    1  0.1059789E-002  0.1848937E+03  0.7546771E-02  0.1066565E+00
        -11   -1    0    0    0    0  0.00000000000E+00  0.00000000000E+00  0.18250000000E+03  0.18250000000E+03  0.00000000000E+00 0. -1.
         11   -1    0    0    0    0 -0.00000000000E+00 -0.00000000000E+00 -0.18250000000E+03  0.18250000000E+03  0.00000000000E+00 0.  1.
        -11    1    1    2    0    0  0.41686841965E+00  0.19789369333E+01  0.14936593326E+03  0.14937962374E+03  0.00000000000E+00 0. -1.
         11    1    1    2    0    0  0.92618082570E-01  0.48993908527E+01 -0.18003962149E+03  0.18010629615E+03  0.00000000000E+00 0.  1.
        -15    1    1    2    0    0  0.40369527338E+01 -0.63335456605E+01  0.46065979197E+01  0.89882846752E+01  0.17770000000E+01 0. -1.
         15    1    1    2    0    0 -0.45464392360E+01 -0.54478212547E+00  0.26067090304E+02  0.26525795430E+02  0.17770000000E+01 0. -1.
</event>
<event>
 6    1  0.1059789E-002  0.1827564E+03  0.7546771E-02  0.1068251E+00
        -11   -1    0    0    0    0  0.00000000000E+00  0.00000000000E+00  0.18250000000E+03  0.18250000000E+03  0.00000000000E+00 0.  1.
         11   -1    0    0    0    0 -0.00000000000E+00 -0.00000000000E+00 -0.18250000000E+03  0.18250000000E+03  0.00000000000E+00 0.  1.
        -11    1    1    2    0    0 -0.28307280867E+01  0.14195233597E+01  0.18221607566E+03  0.18224359056E+03  0.00000000000E+00 0.  1.
         11    1    1    2    0    0  0.19991114779E+01 -0.64055955084E+00 -0.15032749133E+03  0.15034214783E+03  0.00000000000E+00 0.  1.
        -15    1    1    2    0    0  0.18397871036E+01  0.77998783504E+00 -0.23199216442E+02  0.23352827883E+02  0.17770000000E+01 0. -1.
         15    1    1    2    0    0 -0.10081704948E+01 -0.15589516439E+01 -0.86893678917E+01  0.90614337349E+01  0.17770000000E+01 0.  1.
</event>
<event>
 6    1  0.1059789E-002  0.1885654E+03  0.7546771E-02  0.1063727E+00
        -11   -1    0    0    0    0  0.00000000000E+00  0.00000000000E+00  0.18250000000E+03  0.18250000000E+03  0.00000000000E+00 0. -1.
         11   -1    0    0    0    0 -0.00000000000E+00 -0.00000000000E+00 -0.18250000000E+03  0.18250000000E+03  0.00000000000E+00 0. -1.
        -11    1    1    2    0    0 -0.31386296925E+01 -0.15977183246E+01  0.17639941595E+03  0.17643457044E+03  0.00000000000E+00 0. -1.
         11    1    1    2    0    0  0.83505958424E+00 -0.96119209249E+01 -0.16031917935E+03  0.16060923266E+03  0.00000000000E+00 0. -1.
        -15    1    1    2    0    0 -0.56276321073E+01  0.14333799911E+01  0.15046982075E+01  0.62567297392E+01  0.17770000000E+01 0. -1.
         15    1    1    2    0    0  0.79312022155E+01  0.97762592584E+01 -0.17584934813E+02  0.21699467160E+02  0.17770000000E+01 0.  1.
</event>
<event>
 6    1  0.1059789E-002  0.1863571E+03  0.7546771E-02  0.1065425E+00
        -11   -1    0    0    0    0  0.00000000000E+00  0.00000000000E+00  0.18250000000E+03  0.18250000000E+03  0.00000000000E+00 0. -1.
         11   -1    0    0    0    0 -0.00000000000E+00 -0.00000000000E+00 -0.18250000000E+03  0.18250000000E+03  0.00000000000E+00 0.  1.
        -11    1    1    2    0    0  0.11215300848E+02 -0.56446079510E+01  0.14684745939E+03  0.14738324498E+03  0.00000000000E+00 0. -1.
         11    1    1    2    0    0  0.58556056921E+01 -0.44051481254E+01 -0.17849258366E+03  0.17864292840E+03  0.00000000000E+00 0.  1.
        -15    1    1    2    0    0 -0.14421157048E+02  0.97379028582E+01  0.31157156086E+02  0.35731255604E+02  0.17770000000E+01 0.  1.
         15    1    1    2    0    0 -0.26497494918E+01  0.31185321819E+00  0.48796817745E+00  0.32425710079E+01  0.17770000000E+01 0. -1.
</event>
<event>
 6    1  0.1059789E-002  0.1831329E+03  0.7546771E-02  0.1067952E+00
        -11   -1    0    0    0    0  0.00000000000E+00  0.00000000000E+00  0.18250000000E+03  0.18250000000E+03  0.00000000000E+00 0. -1.
         11   -1    0    0    0    0 -0.00000000000E+00 -0.00000000000E+00 -0.18250000000E+03  0.18250000000E+03  0.00000000000E+00 0. -1.
        -11    1    1    2    0    0 -0.19066066043E+01 -0.46817370076E+01  0.18179685549E+03  0.18186712313E+03  0.00000000000E+00 0. -1.
         11    1    1    2    0    0 -0.11447742914E+01 -0.43983267305E+00 -0.97855139994E+01  0.98620608998E+01  0.00000000000E+00 0. -1.
        -15    1    1    2    0    0  0.54642757904E+01  0.35611632406E+00 -0.13713250510E+02  0.14872662751E+02  0.17770000000E+01 0.  1.
         15    1    1    2    0    0 -0.24128948947E+01  0.47654533566E+01 -0.15829809098E+03  0.15839815322E+03  0.17770000000E+01 0. -1.
</event>
<event>
 6    1  0.1059789E-002  0.1846786E+03  0.7546771E-02  0.1066734E+00
        -11   -1    0    0    0    0  0.00000000000E+00  0.00000000000E+00  0.18250000000E+03  0.18250000000E+03  0.00000000000E+00 0. -1.
         11   -1    0    0    0    0 -0.00000000000E+00 -0.00000000000E+00 -0.18250000000E+03  0.18250000000E+03  0.00000000000E+00 0. -1.
        -11    1    1    2    0    0  0.21284587226E+01  0.27186076531E+01  0.18028833054E+03  0.18032138889E+03  0.00000000000E+00 0. -1.
         11    1    1    2    0    0 -0.16711302868E+01  0.73897020988E+00 -0.13198811589E+03  0.13200076321E+03  0.00000000000E+00 0. -1.
        -15    1    1    2    0    0 -0.96342348765E+01  0.15882279020E+01 -0.28947739574E+02  0.30601802316E+02  0.17770000000E+01 0. -1.
         15    1    1    2    0    0  0.91769064407E+01 -0.50458057650E+01 -0.19352475080E+02  0.22076045578E+02  0.17770000000E+01 0.  1.
</event>
<event>
 6    1  0.1059789E-002  0.1863085E+03  0.7546771E-02  0.1065463E+00
        -11   -1    0    0    0    0  0.00000000000E+00  0.00000000000E+00  0.18250000000E+03  0.18250000000E+03  0.00000000000E+00 0.  1.
         11   -1    0    0    0    0 -0.00000000000E+00 -0.00000000000E+00 -0.18250000000E+03  0.18250000000E+03  0.00000000000E+00 0. -1.
        -11    1    1    2    0    0  0.15052733350E+01  0.23643563193E+01  0.16426684784E+03  0.16429075849E+03  0.00000000000E+00 0.  1.
         11    1    1    2    0    0  0.11077977575E+01 -0.23123124556E+01 -0.17867308842E+03  0.17869148422E+03  0.00000000000E+00 0. -1.
        -15    1    1    2    0    0 -0.98009897924E-01  0.19150132671E+01 -0.31452658386E+01  0.40899031711E+01  0.17770000000E+01 0. -1.
         15    1    1    2    0    0 -0.25150611946E+01 -0.19670571308E+01  0.17551506425E+02  0.17927854120E+02  0.17770000000E+01 0. -1.
</event>
<event>
 6    1  0.1059789E-002  0.1838310E+03  0.7546771E-02  0.1067400E+00
        -11   -1    0    0    0    0  0.00000000000E+00  0.00000000000E+00  0.18250000000E+03  0.18250000000E+03  0.00000000000E+00 0. -1.
         11   -1    0    0    0    0 -0.00000000000E+00 -0.00000000000E+00 -0.18250000000E+03  0.18250000000E+03  0.00000000000E+00 0.  1.
        -11    1    1    2    0    0  0.72305613770E+00 -0.35092889789E+01  0.18113356738E+03  0.18116900163E+03  0.00000000000E+00 0. -1.
         11    1    1    2    0    0  0.24116261542E+01  0.15165896887E+01 -0.12375706159E+03  0.12378984723E+03  0.00000000000E+00 0.  1.
        -15    1    1    2    0    0 -0.10023173223E+02  0.17602186395E+01 -0.38674495627E+02  0.40030447314E+02  0.17770000000E+01 0.  1.
         15    1    1    2    0    0  0.68884909308E+01  0.23248065069E+00 -0.18702010165E+02  0.20010703830E+02  0.17770000000E+01 0. -1.
</event>
<event>
 6    1  0.1059789E-002  0.1700754E+03  0.7546771E-02  0.1078799E+00
        -11   -1    0    0    0    0  0.00000000000E+00  0.00000000000E+00  0.18250000000E+03  0.18250000000E+03  0.00000000000E+00 0.  1.
         11   -1    0    0    0    0 -0.00000000000E+00 -0.00000000000E+00 -0.18250000000E+03  0.18250000000E+03  0.00000000000E+00 0. -1.
        -11    1    1    2    0    0 -0.27222346719E+01  0.37248356994E+01  0.16863078631E+03  0.16869388565E+03  0.00000000000E+00 0.  1.
         11    1    1    2    0    0 -0.29094510141E+01 -0.12170224715E+02 -0.17116101654E+03  0.17161781043E+03  0.00000000000E+00 0. -1.
        -15    1    1    2    0    0 -0.56310542731E+01  0.91134967885E+01 -0.39513285771E+01  0.11555748460E+02  0.17770000000E+01 0. -1.
         15    1    1    2    0    0  0.11262739959E+02 -0.66810777285E+00  0.64815588007E+01  0.13132555458E+02  0.17770000000E+01 0.  1.
</event>
<event>
 6    1  0.1059789E-002  0.1918161E+03  0.7546771E-02  0.1061272E+00
        -11   -1    0    0    0    0  0.00000000000E+00  0.00000000000E+00  0.18250000000E+03  0.18250000000E+03  0.00000000000E+00 0. -1.
         11   -1    0    0    0    0 -0.00000000000E+00 -0.00000000000E+00 -0.18250000000E+03  0.18250000000E+03  0.00000000000E+00 0.  1.
        -11    1    1    2    0    0  0.32844551623E+01  0.29738753692E+01  0.17312722803E+03  0.17318391573E+03  0.00000000000E+00 0. -1.
         11    1    1    2    0    0  0.14746573436E+02  0.22153224298E+01 -0.13599844819E+03  0.13681354828E+03  0.00000000000E+00 0.  1.
        -15    1    1    2    0    0  0.66207976989E+01 -0.14486032366E+01  0.30826468137E+01  0.76546622320E+01  0.17770000000E+01 0. -1.
         15    1    1    2    0    0 -0.24651826298E+02 -0.37405945624E+01 -0.40211426650E+02  0.47347873762E+02  0.17770000000E+01 0.  1.
</event>
<event>
 6    1  0.1059789E-002  0.1875157E+03  0.7546771E-02  0.1064531E+00
        -11   -1    0    0    0    0  0.00000000000E+00  0.00000000000E+00  0.18250000000E+03  0.18250000000E+03  0.00000000000E+00 0.  1.
         11   -1    0    0    0    0 -0.00000000000E+00 -0.00000000000E+00 -0.18250000000E+03  0.18250000000E+03  0.00000000000E+00 0.  1.
        -11    1    1    2    0    0  0.43296158727E+01  0.46710432420E+01  0.17736996034E+03  0.17748427268E+03  0.00000000000E+00 0.  1.
         11    1    1    2    0    0 -0.63498300543E+01 -0.13754827553E+01 -0.17089390671E+03  0.17101736651E+03  0.00000000000E+00 0.  1.
        -15    1    1    2    0    0  0.42730169227E+00 -0.76654038561E+01 -0.80612511083E+01  0.11273087485E+02  0.17770000000E+01 0.  1.
         15    1    1    2    0    0  0.15929124893E+01  0.43698433694E+01  0.15851974796E+01  0.52252733250E+01  0.17770000000E+01 0. -1.
</event>
<event>
 6    1  0.1059789E-002  0.1854989E+03  0.7546771E-02  0.1066092E+00
        -11   -1    0    0    0    0  0.00000000000E+00  0.00000000000E+00  0.18250000000E+03  0.18250000000E+03  0.00000000000E+00 0.  1.
         11   -1    0    0    0    0 -0.00000000000E+00 -0.00000000000E+00 -0.18250000000E+03  0.18250000000E+03  0.00000000000E+00 0. -1.
        -11    1    1    2    0    0  0.27394881956E+00 -0.23467937164E+01  0.17082484254E+03  0.17084118156E+03  0.00000000000E+00 0.  1.
         11    1    1    2    0    0  0.26458852893E+01 -0.36671986927E+01 -0.17944412093E+03  0.17950109078E+03  0.00000000000E+00 0. -1.
        -15    1    1    2    0    0 -0.15537682138E+01 -0.14575251974E+01  0.56810324582E+01  0.63222175029E+01  0.17770000000E+01 0. -1.
         15    1    1    2    0    0 -0.13660658951E+01  0.74715176065E+01  0.29382459276E+01  0.83355101526E+01  0.17770000000E+01 0.  1.
</event>
<event>
 6    1  0.1059789E-002  0.1826187E+03  0.7546771E-02  0.1068360E+00
        -11   -1    0    0    0    0  0.00000000000E+00  0.00000000000E+00  0.18250000000E+03  0.18250000000E+03  0.00000000000E+00 0.  1.
         11   -1    0    0    0    0 -0.00000000000E+00 -0.00000000000E+00 -0.18250000000E+03  0.18250000000E+03  0.00000000000E+00 0. -1.
        -11    1    1    2    0    0 -0.53333117678E+01  0.46151688961E+01  0.18224483246E+03  0.18238125714E+03  0.00000000000E+00 0.  1.
         11    1    1    2    0    0 -0.18089234863E+00  0.49644395927E+00 -0.11633061564E+02  0.11645054745E+02  0.00000000000E+00 0. -1.
        -15    1    1    2    0    0  0.97310356633E+00 -0.51075453431E+01 -0.12050044035E+03  0.12062565152E+03  0.17770000000E+01 0. -1.
         15    1    1    2    0    0  0.45411005501E+01 -0.40675122170E-02 -0.50111330545E+02  0.50348036592E+02  0.17770000000E+01 0.  1.
</event>
<event>
 6    1  0.1059789E-002  0.1838512E+03  0.7546771E-02  0.1067384E+00
        -11   -1    0    0    0    0  0.00000000000E+00  0.00000000000E+00  0.18250000000E+03  0.18250000000E+03  0.00000000000E+00 0. -1.
         11   -1    0    0    0    0 -0.00000000000E+00 -0.00000000000E+00 -0.18250000000E+03  0.18250000000E+03  0.00000000000E+00 0.  1.
        -11    1    1    2    0    0 -0.35610346134E+01  0.22150306566E-01  0.18111375556E+03  0.18114876182E+03  0.00000000000E+00 0. -1.
         11    1    1    2    0    0  0.21894144832E+01 -0.40040476089E+00 -0.14237851821E+03  0.14239591394E+03  0.00000000000E+00 0.  1.
        -15    1    1    2    0    0 -0.11532623560E+01 -0.39250688266E+01 -0.34179193063E+02  0.34468988189E+02  0.17770000000E+01 0. -1.
         15    1    1    2    0    0  0.25248824861E+01  0.43033232809E+01 -0.45560442887E+01  0.69863360490E+01  0.17770000000E+01 0.  1.
</event>
<event>
 6    1  0.1059789E-002  0.1840658E+03  0.7546771E-02  0.1067215E+00
        -11   -1    0    0    0    0  0.00000000000E+00  0.00000000000E+00  0.18250000000E+03  0.18250000000E+03  0.00000000000E+00 0.  1.
         11   -1    0    0    0    0 -0.00000000000E+00 -0.00000000000E+00 -0.18250000000E+03  0.18250000000E+03  0.00000000000E+00 0.  1.
        -11    1    1    2    0    0  0.43104058198E+01 -0.27353554117E+01  0.17192503513E+03  0.17200081242E+03  0.00000000000E+00 0.  1.
         11    1    1    2    0    0  0.18286916266E+01  0.46913745814E+01 -0.18086417261E+03  0.18093424784E+03  0.00000000000E+00 0.  1.
        -15    1    1    2    0    0 -0.17418937834E+01 -0.22358012408E+01  0.34557968455E+01  0.48097049784E+01  0.17770000000E+01 0.  1.
         15    1    1    2    0    0 -0.43972036630E+01  0.27978207107E+00  0.54833406300E+01  0.72552347671E+01  0.17770000000E+01 0. -1.
</event>
<event>
 6    1  0.1059789E-002  0.1832105E+03  0.7546771E-02  0.1067891E+00
        -11   -1    0    0    0    0  0.00000000000E+00  0.00000000000E+00  0.18250000000E+03  0.18250000000E+03  0.00000000000E+00 0. -1.
         11   -1    0    0    0    0 -0.00000000000E+00 -0.00000000000E+00 -0.18250000000E+03  0.18250000000E+03  0.00000000000E+00 0.  1.
        -11    1    1    2    0    0 -0.25290895660E+01  0.47872211594E+00  0.15305063223E+03  0.15307227539E+03  0.00000000000E+00 0. -1.
         11    1    1    2    0    0 -0.16824007233E+01  0.43649665344E+01 -0.18172926340E+03  0.18178946224E+03  0.00000000000E+00 0.  1.
        -15    1    1    2    0    0  0.23077943963E+01 -0.54562199438E+01  0.23613173196E+02  0.24409750683E+02  0.17770000000E+01 0. -1.
         15    1    1    2    0    0  0.19036958930E+01  0.61253129342E+00  0.50654579765E+01  0.57285116871E+01  0.17770000000E+01 0. -1.
</event>
<event>
 6    1  0.1059789E-002  0.1837213E+03  0.7546771E-02  0.1067487E+00
        -11   -1    0    0    0    0  0.00000000000E+00  0.00000000000E+00  0.18250000000E+03  0.18250000000E+03  0.00000000000E+00 0. -1.
         11   -1    0    0    0    0 -0.00000000000E+00 -0.00000000000E+00 -0.18250000000E+03  0.18250000000E+03  0.00000000000E+00 0.  1.
        -11    1    1    2    0    0 -0.40357631574E+01 -0.57701726735E+00  0.16327654412E+03  0.16332743246E+03  0.00000000000E+00 0. -1.
         11    1    1    2    0    0 -0.19397298275E+01  0.48344470039E+01 -0.18120388602E+03  0.18127874321E+03  0.00000000000E+00 0.  1.
        -15    1    1    2    0    0  0.32824650239E+01  0.27655220428E+00  0.10248653712E+02  0.10910714443E+02  0.17770000000E+01 0. -1.
         15    1    1    2    0    0  0.26930279610E+01 -0.45339819408E+01  0.76786881864E+01  0.94831098856E+01  0.17770000000E+01 0. -1.
</event>
<event>
 6    1  0.1059789E-002  0.1767616E+03  0.7546771E-02  0.1073117E+00
        -11   -1    0    0    0    0  0.00000000000E+00  0.00000000000E+00  0.18250000000E+03  0.18250000000E+03  0.00000000000E+00 0. -1.
         11   -1    0    0    0    0 -0.00000000000E+00 -0.00000000000E+00 -0.18250000000E+03  0.18250000000E+03  0.00000000000E+00 0.  1.
        -11    1    1    2    0    0 -0.16706289196E+01  0.20534196150E+01  0.17727038556E+03  0.17729014955E+03  0.00000000000E+00 0. -1.
         11    1    1    2    0    0  0.51458515469E+01 -0.59743528950E+01 -0.17609733221E+03  0.17627377313E+03  0.00000000000E+00 0.  1.
        -15    1    1    2    0    0  0.22166591503E+01  0.11568464545E+01  0.24549284478E+01  0.39289024157E+01  0.17770000000E+01 0. -1.
         15    1    1    2    0    0 -0.56918817776E+01  0.27640868254E+01 -0.36279817931E+01  0.75071749041E+01  0.17770000000E+01 0.  1.
</event>
<event>
 6    1  0.1059789E-002  0.1867820E+03  0.7546771E-02  0.1065097E+00
        -11   -1    0    0    0    0  0.00000000000E+00  0.00000000000E+00  0.18250000000E+03  0.18250000000E+03  0.00000000000E+00 0.  1.
         11   -1    0    0    0    0 -0.00000000000E+00 -0.00000000000E+00 -0.18250000000E+03  0.18250000000E+03  0.00000000000E+00 0. -1.
        -11    1    1    2    0    0  0.34916185166E+00  0.26322090152E+01  0.17819826571E+03  0.17821804718E+03  0.00000000000E+00 0.  1.
         11    1    1    2    0    0 -0.19831036068E+01 -0.14771921692E+01 -0.17376307118E+03  0.17378066551E+03  0.00000000000E+00 0. -1.
        -15    1    1    2    0    0  0.79889476538E+00 -0.63633062770E+01 -0.24685247414E+01  0.70979745717E+01  0.17770000000E+01 0.  1.
         15    1    1    2    0    0  0.83504698971E+00  0.52082894311E+01 -0.19666697848E+01  0.59033127407E+01  0.17770000000E+01 0. -1.
</event>
<event>
 6    1  0.1059789E-002  0.1832152E+03  0.7546771E-02  0.1067887E+00
        -11   -1    0    0    0    0  0.00000000000E+00  0.00000000000E+00  0.18250000000E+03  0.18250000000E+03  0.00000000000E+00 0. -1.
         11   -1    0    0    0    0 -0.00000000000E+00 -0.00000000000E+00 -0.18250000000E+03  0.18250000000E+03  0.00000000000E+00 0.  1.
        -11    1    1    2    0    0 -0.17274562292E+01  0.32288440982E+01  0.18174789242E+03  0.18178477918E+03  0.00000000000E+00 0. -1.
         11    1    1    2    0    0 -0.14228933877E+01 -0.50212806874E+01 -0.13713301630E+03  0.13723229228E+03  0.00000000000E+00 0.  1.
        -15    1    1    2    0    0  0.44137822727E+01 -0.16809446235E+01 -0.10805693620E+02  0.11925929414E+02  0.17770000000E+01 0. -1.
         15    1    1    2    0    0 -0.12634326558E+01  0.34733812127E+01 -0.33809182505E+02  0.34056999130E+02  0.17770000000E+01 0.  1.
</event>
<event>
 6    1  0.1059789E-002  0.1856513E+03  0.7546771E-02  0.1065974E+00
        -11   -1    0    0    0    0  0.00000000000E+00  0.00000000000E+00  0.18250000000E+03  0.18250000000E+03  0.00000000000E+00 0.  1.
         11   -1    0    0    0    0 -0.00000000000E+00 -0.00000000000E+00 -0.18250000000E+03  0.18250000000E+03  0.00000000000E+00 0. -1.
        -11    1    1    2    0    0  0.16890597267E+01  0.93743497886E+01  0.17909556496E+03  0.17934869039E+03  0.00000000000E+00 0.  1.
         11    1    1    2    0    0 -0.12949214717E+01 -0.66578283211E+01 -0.13135136914E+03  0.13152636874E+03  0.00000000000E+00 0. -1.
        -15    1    1    2    0    0  0.23462863584E+01 -0.59392660319E+01 -0.48798142687E+00  0.66464874592E+01  0.17770000000E+01 0. -1.
         15    1    1    2    0    0 -0.27404246134E+01  0.32227445644E+01 -0.47256214397E+02  0.47478453405E+02  0.17770000000E+01 0.  1.
</event>
<event>
 6    1  0.1059789E-002  0.1838647E+03  0.7546771E-02  0.1067374E+00
        -11   -1    0    0    0    0  0.00000000000E+00  0.00000000000E+00  0.18250000000E+03  0.18250000000E+03  0.00000000000E+00 0.  1.
         11   -1    0    0    0    0 -0.00000000000E+00 -0.00000000000E+00 -0.18250000000E+03  0.18250000000E+03  0.00000000000E+00 0.  1.
        -11    1    1    2    0    0  0.28035187003E+01 -0.12348077097E+01  0.18110936333E+03  0.18113526976E+03  0.00000000000E+00 0.  1.
         11    1    1    2    0    0 -0.21672715602E+01 -0.45119516177E+00 -0.68328517596E+02  0.68364369082E+02  0.00000000000E+00 0.  1.
        -15    1    1    2    0    0  0.22172178159E+01  0.61015353046E+01 -0.10790038835E+03  0.10811011203E+03  0.17770000000E+01 0.  1.
         15    1    1    2    0    0 -0.28534649560E+01 -0.44155324331E+01 -0.48804573794E+01  0.73902491267E+01  0.17770000000E+01 0. -1.
</event>
<event>
 6    1  0.1059789E-002  0.1833853E+03  0.7546771E-02  0.1067752E+00
        -11   -1    0    0    0    0  0.00000000000E+00  0.00000000000E+00  0.18250000000E+03  0.18250000000E+03  0.00000000000E+00 0. -1.
         11   -1    0    0    0    0 -0.00000000000E+00 -0.00000000000E+00 -0.18250000000E+03  0.18250000000E+03  0.00000000000E+00 0.  1.
        -11    1    1    2    0    0 -0.55074286971E+01 -0.18461533340E+01  0.12472057949E+03  0.12485576879E+03  0.00000000000E+00 0. -1.
         11    1    1    2    0    0 -0.17854341940E+01 -0.22002056296E+01 -0.18159264313E+03  0.18161474808E+03  0.00000000000E+00 0.  1.
        -15    1    1    2    0    0  0.23067204643E+00  0.35505473348E+01  0.64194329791E+01  0.75515855781E+01  0.17770000000E+01 0.  1.
         15    1    1    2    0    0  0.70621908446E+01  0.49581162879E+00  0.50452630664E+02  0.50977897550E+02  0.17770000000E+01 0. -1.
</event>
<event>
 6    1  0.1059789E-002  0.1847884E+03  0.7546771E-02  0.1066648E+00
        -11   -1    0    0    0    0  0.00000000000E+00  0.00000000000E+00  0.18250000000E+03  0.18250000000E+03  0.00000000000E+00 0. -1.
         11   -1    0    0    0    0 -0.00000000000E+00 -0.00000000000E+00 -0.18250000000E+03  0.18250000000E+03  0.00000000000E+00 0.  1.
        -11    1    1    2    0    0 -0.75956414691E+00 -0.51235908159E+01  0.77194065891E+02  0.77367641358E+02  0.00000000000E+00 0. -1.
         11    1    1    2    0    0  0.30926454865E+01 -0.15050893409E+01 -0.18017875719E+03  0.18021158201E+03  0.00000000000E+00 0.  1.
        -15    1    1    2    0    0 -0.33195602787E+01  0.50101982499E+01  0.10431414503E+03  0.10450224950E+03  0.17770000000E+01 0. -1.
         15    1    1    2    0    0  0.98647893910E+00  0.16184819070E+01 -0.13294537364E+01  0.29185271316E+01  0.17770000000E+01 0.  1.
</event>
<event>
 6    1  0.1059789E-002  0.1894673E+03  0.7546771E-02  0.1063040E+00
        -11   -1    0    0    0    0  0.00000000000E+00  0.00000000000E+00  0.18250000000E+03  0.18250000000E+03  0.00000000000E+00 0.  1.
         11   -1    0    0    0    0 -0.00000000000E+00 -0.00000000000E+00 -0.18250000000E+03  0.18250000000E+03  0.00000000000E+00 0. -1.
        -11    1    1    2    0    0  0.50095751132E+01  0.39668143175E+01  0.17104882362E+03  0.17116813815E+03  0.00000000000E+00 0.  1.
         11    1    1    2    0    0 -0.39290660179E+01  0.55766762166E+00 -0.17548785868E+03  0.17553272372E+03  0.00000000000E+00 0. -1.
        -15    1    1    2    0    0  0.76180063447E+01 -0.24621955887E+01  0.92815439971E-01  0.82013883880E+01  0.17770000000E+01 0. -1.
         15    1    1    2    0    0 -0.86985154400E+01 -0.20622863504E+01  0.43462196192E+01  0.10097749741E+02  0.17770000000E+01 0.  1.
</event>
<event>
 6    1  0.1059789E-002  0.1861203E+03  0.7546771E-02  0.1065609E+00
        -11   -1    0    0    0    0  0.00000000000E+00  0.00000000000E+00  0.18250000000E+03  0.18250000000E+03  0.00000000000E+00 0. -1.
         11   -1    0    0    0    0 -0.00000000000E+00 -0.00000000000E+00 -0.18250000000E+03  0.18250000000E+03  0.00000000000E+00 0. -1.
        -11    1    1    2    0    0  0.12005693064E+02  0.10543109773E+02  0.11578023687E+03  0.11687753026E+03  0.00000000000E+00 0. -1.
         11    1    1    2    0    0 -0.17832445465E+01  0.24395646265E+01 -0.17885413053E+03  0.17887965631E+03  0.00000000000E+00 0. -1.
        -15    1    1    2    0    0 -0.40475312997E+01 -0.18684019649E+02  0.35468242664E+02  0.40331489764E+02  0.17770000000E+01 0. -1.
         15    1    1    2    0    0 -0.61749172175E+01  0.57013452486E+01  0.27605650995E+02  0.28911323666E+02  0.17770000000E+01 0.  1.
</event>
<event>
 6    1  0.1059789E-002  0.1827753E+03  0.7546771E-02  0.1068236E+00
        -11   -1    0    0    0    0  0.00000000000E+00  0.00000000000E+00  0.18250000000E+03  0.18250000000E+03  0.00000000000E+00 0.  1.
         11   -1    0    0    0    0 -0.00000000000E+00 -0.00000000000E+00 -0.18250000000E+03  0.18250000000E+03  0.00000000000E+00 0. -1.
        -11    1    1    2    0    0  0.14880533403E+01 -0.41301362453E+01  0.18217182567E+03  0.18222471401E+03  0.00000000000E+00 0.  1.
         11    1    1    2    0    0  0.40065450490E+01  0.21393832391E+01 -0.12346558433E+03  0.12354909906E+03  0.00000000000E+00 0. -1.
        -15    1    1    2    0    0 -0.35431351308E+01  0.17566965773E+01 -0.48060194017E+02  0.48255359986E+02  0.17770000000E+01 0. -1.
         15    1    1    2    0    0 -0.19514632585E+01  0.23405642882E+00 -0.10646047326E+02  0.10970826948E+02  0.17770000000E+01 0.  1.
</event>
<event>
 6    1  0.1059789E-002  0.1825978E+03  0.7546771E-02  0.1068377E+00
        -11   -1    0    0    0    0  0.00000000000E+00  0.00000000000E+00  0.18250000000E+03  0.18250000000E+03  0.00000000000E+00 0. -1.
         11   -1    0    0    0    0 -0.00000000000E+00 -0.00000000000E+00 -0.18250000000E+03  0.18250000000E+03  0.00000000000E+00 0.  1.
        -11    1    1    2    0    0  0.55294967076E+00  0.10965217766E-01  0.32469878126E+02  0.32474587897E+02  0.00000000000E+00 0. -1.
         11    1    1    2    0    0  0.26365825339E+01 -0.14096530946E+01 -0.18237772304E+03  0.18240222737E+03  0.00000000000E+00 0.  1.
        -15    1    1    2    0    0 -0.19247057870E+01 -0.48849419956E+00  0.19255832933E+02  0.19439340264E+02  0.17770000000E+01 0.  1.
         15    1    1    2    0    0 -0.12648264177E+01  0.18871820764E+01  0.13065201198E+03  0.13068384447E+03  0.17770000000E+01 0. -1.
</event>
<event>
 6    1  0.1059789E-002  0.1843183E+03  0.7546771E-02  0.1067017E+00
        -11   -1    0    0    0    0  0.00000000000E+00  0.00000000000E+00  0.18250000000E+03  0.18250000000E+03  0.00000000000E+00 0. -1.
         11   -1    0    0    0    0 -0.00000000000E+00 -0.00000000000E+00 -0.18250000000E+03  0.18250000000E+03  0.00000000000E+00 0. -1.
        -11    1    1    2    0    0  0.25955808366E+01 -0.16813897942E+01  0.18065525587E+03  0.18068172455E+03  0.00000000000E+00 0. -1.
         11    1    1    2    0    0  0.37764269619E+01 -0.11377216847E+01 -0.16207178180E+03  0.16211976520E+03  0.00000000000E+00 0. -1.
        -15    1    1    2    0    0 -0.43976132954E+01  0.38982653045E+00 -0.18888109734E+01  0.51201858670E+01  0.17770000000E+01 0.  1.
         15    1    1    2    0    0 -0.19743945031E+01  0.24292849485E+01 -0.16694663094E+02  0.17078324386E+02  0.17770000000E+01 0. -1.
</event>
<event>
 6    1  0.1059789E-002  0.1831331E+03  0.7546771E-02  0.1067952E+00
        -11   -1    0    0    0    0  0.00000000000E+00  0.00000000000E+00  0.18250000000E+03  0.18250000000E+03  0.00000000000E+00 0. -1.
         11   -1    0    0    0    0 -0.00000000000E+00 -0.00000000000E+00 -0.18250000000E+03  0.18250000000E+03  0.00000000000E+00 0. -1.
        -11    1    1    2    0    0  0.30239318425E+01  0.13100871678E+01  0.18183708122E+03  0.18186694202E+03  0.00000000000E+00 0. -1.
         11    1    1    2    0    0  0.24744634340E+01 -0.14411991142E+01 -0.14942188440E+03  0.14944932105E+03  0.00000000000E+00 0. -1.
        -15    1    1    2    0    0 -0.13700078226E+01 -0.26859417359E+01 -0.17674511552E+02  0.18017693860E+02  0.17770000000E+01 0. -1.
         15    1    1    2    0    0 -0.41283874539E+01  0.28170536824E+01 -0.14740685271E+02  0.15666043077E+02  0.17770000000E+01 0.  1.
</event>
<event>
 6    1  0.1059789E-002  0.1827690E+03  0.7546771E-02  0.1068241E+00
        -11   -1    0    0    0    0  0.00000000000E+00  0.00000000000E+00  0.18250000000E+03  0.18250000000E+03  0.00000000000E+00 0. -1.
         11   -1    0    0    0    0 -0.00000000000E+00 -0.00000000000E+00 -0.18250000000E+03  0.18250000000E+03  0.00000000000E+00 0. -1.
        -11    1    1    2    0    0 -0.43684367213E+01  0.17607505458E+01  0.18217007918E+03  0.18223095575E+03  0.00000000000E+00 0. -1.
         11    1    1    2    0    0  0.17932259268E+01  0.53024149880E+00 -0.12875800767E+03  0.12877158597E+03  0.00000000000E+00 0. -1.
        -15    1    1    2    0    0  0.24239802826E+01  0.88577148397E+00 -0.39229894276E+02  0.39354829506E+02  0.17770000000E+01 0. -1.
         15    1    1    2    0    0  0.15123051189E+00 -0.31767635286E+01 -0.14182177241E+02  0.14642628776E+02  0.17770000000E+01 0.  1.
</event>
<event>
 6    1  0.1059789E-002  0.1847205E+03  0.7546771E-02  0.1066701E+00
        -11   -1    0    0    0    0  0.00000000000E+00  0.00000000000E+00  0.18250000000E+03  0.18250000000E+03  0.00000000000E+00 0.  1.
         11   -1    0    0    0    0 -0.00000000000E+00 -0.00000000000E+00 -0.18250000000E+03  0.18250000000E+03  0.00000000000E+00 0. -1.
        -11    1    1    2    0    0  0.49959842092E+01 -0.95510335379E-01  0.17111801712E+03  0.17119095993E+03  0.00000000000E+00 0.  1.
         11    1    1    2    0    0 -0.85598426616E+00  0.36089174404E+01 -0.18024137512E+03  0.18027953377E+03  0.00000000000E+00 0. -1.
        -15    1    1    2    0    0 -0.54061719500E+01 -0.14523429407E+01  0.27506815148E+01  0.64853660626E+01  0.17770000000E+01 0. -1.
         15    1    1    2    0    0  0.12661720069E+01 -0.20610641643E+01  0.63726764851E+01  0.70441402332E+01  0.17770000000E+01 0.  1.
</event>
<event>
 6    1  0.1059789E-002  0.1832516E+03  0.7546771E-02  0.1067858E+00
        -11   -1    0    0    0    0  0.00000000000E+00  0.00000000000E+00  0.18250000000E+03  0.18250000000E+03  0.00000000000E+00 0. -1.
         11   -1    0    0    0    0 -0.00000000000E+00 -0.00000000000E+00 -0.18250000000E+03  0.18250000000E+03  0.00000000000E+00 0.  1.
        -11    1    1    2    0    0  0.11931096195E+01  0.24727104790E+01  0.18172764328E+03  0.18174838140E+03  0.00000000000E+00 0. -1.
         11    1    1    2    0    0 -0.81509794323E+00 -0.20613179741E+01 -0.12928398940E+03  0.12930299042E+03  0.00000000000E+00 0.  1.
        -15    1    1    2    0    0 -0.35848778381E+01  0.46226741688E+00 -0.53111115119E+01  0.66656338611E+01  0.17770000000E+01 0. -1.
         15    1    1    2    0    0  0.32068661619E+01 -0.87365992179E+00 -0.47132542368E+02  0.47282994315E+02  0.17770000000E+01 0.  1.
</event>
<event>
 6    1  0.1059789E-002  0.1830273E+03  0.7546771E-02  0.1068036E+00
        -11   -1    0    0    0    0  0.00000000000E+00  0.00000000000E+00  0.18250000000E+03  0.18250000000E+03  0.00000000000E+00 0. -1.
         11   -1    0    0    0    0 -0.00000000000E+00 -0.00000000000E+00 -0.18250000000E+03  0.18250000000E+03  0.00000000000E+00 0. -1.
        -11    1    1    2    0    0  0.38520090815E+01 -0.10899394406E+01  0.18192869849E+03  0.18197273773E+03  0.00000000000E+00 0. -1.
         11    1    1    2    0    0  0.37228209338E+01 -0.29484809051E+01 -0.12447073981E+03  0.12456130219E+03  0.00000000000E+00 0. -1.
        -15    1    1    2    0    0 -0.91527150025E-01  0.11433780472E+01 -0.20308733433E+02  0.20418571773E+02  0.17770000000E+01 0.  1.
         15    1    1    2    0    0 -0.74833028654E+01  0.28950422985E+01 -0.37149225247E+02  0.38047388309E+02  0.17770000000E+01 0. -1.
</event>
<event>
 6    1  0.1059789E-002  0.1833566E+03  0.7546771E-02  0.1067775E+00
        -11   -1    0    0    0    0  0.00000000000E+00  0.00000000000E+00  0.18250000000E+03  0.18250000000E+03  0.00000000000E+00 0. -1.
         11   -1    0    0    0    0 -0.00000000000E+00 -0.00000000000E+00 -0.18250000000E+03  0.18250000000E+03  0.00000000000E+00 0.  1.
        -11    1    1    2    0    0  0.16754967602E+01 -0.31716135180E+01  0.15627773876E+03  0.15631889859E+03  0.00000000000E+00 0. -1.
         11    1    1    2    0    0  0.29168143627E+01  0.24875558685E+01 -0.18160292316E+03  0.18164337984E+03  0.00000000000E+00 0.  1.
        -15    1    1    2    0    0 -0.60629540919E-01 -0.26262031796E+01  0.12966415732E+02  0.13348643564E+02  0.17770000000E+01 0.  1.
         15    1    1    2    0    0 -0.45316815820E+01  0.33102608292E+01  0.12358768666E+02  0.13689078006E+02  0.17770000000E+01 0. -1.
</event>
<event>
 6    1  0.1059789E-002  0.1787272E+03  0.7546771E-02  0.1071498E+00
        -11   -1    0    0    0    0  0.00000000000E+00  0.00000000000E+00  0.18250000000E+03  0.18250000000E+03  0.00000000000E+00 0.  1.
         11   -1    0    0    0    0 -0.00000000000E+00 -0.00000000000E+00 -0.18250000000E+03  0.18250000000E+03  0.00000000000E+00 0. -1.
        -11    1    1    2    0    0 -0.24586873482E+01  0.26782164520E+01  0.17887241936E+03  0.17890936363E+03  0.00000000000E+00 0.  1.
         11    1    1    2    0    0 -0.24007620569E+01 -0.32026754646E+01 -0.17853378670E+03  0.17857864873E+03  0.00000000000E+00 0. -1.
        -15    1    1    2    0    0  0.34383674860E+01  0.75624651898E+00 -0.22420914798E+01  0.45364063938E+01  0.17770000000E+01 0.  1.
         15    1    1    2    0    0  0.14210819191E+01 -0.23178750645E+00  0.19034588180E+01  0.29755812442E+01  0.17770000000E+01 0. -1.
</event>
<event>
 6    1  0.1059789E-002  0.1828328E+03  0.7546771E-02  0.1068190E+00
        -11   -1    0    0    0    0  0.00000000000E+00  0.00000000000E+00  0.18250000000E+03  0.18250000000E+03  0.00000000000E+00 0. -1.
         11   -1    0    0    0    0 -0.00000000000E+00 -0.00000000000E+00 -0.18250000000E+03  0.18250000000E+03  0.00000000000E+00 0. -1.
        -11    1    1    2    0    0 -0.39535112557E+01 -0.32446455831E+01  0.18209538315E+03  0.18216719392E+03  0.00000000000E+00 0. -1.
         11    1    1    2    0    0  0.47782230922E+01  0.25151158403E+01 -0.14679655572E+03  0.14689583383E+03  0.00000000000E+00 0. -1.
        -15    1    1    2    0    0  0.40455743063E+00 -0.21974489364E+01 -0.10866428754E+02  0.11235188090E+02  0.17770000000E+01 0. -1.
         15    1    1    2    0    0 -0.12292692671E+01  0.29269786792E+01 -0.24432398671E+02  0.24701784165E+02  0.17770000000E+01 0. -1.
</event>
<event>
 6    1  0.1059789E-002  0.1840289E+03  0.7546771E-02  0.1067244E+00
        -11   -1    0    0    0    0  0.00000000000E+00  0.00000000000E+00  0.18250000000E+03  0.18250000000E+03  0.00000000000E+00 0.  1.
         11   -1    0    0    0    0 -0.00000000000E+00 -0.00000000000E+00 -0.18250000000E+03  0.18250000000E+03  0.00000000000E+00 0.  1.
        -11    1    1    2    0    0 -0.19124824539E+01  0.78422384466E+00  0.79773299276E+02  0.79800074396E+02  0.00000000000E+00 0.  1.
         11    1    1    2    0    0  0.34130604893E+01 -0.17614128124E+01 -0.18093031912E+03  0.18097108038E+03  0.00000000000E+00 0.  1.
        -15    1    1    2    0    0 -0.27883268386E+01 -0.61097061073E+00  0.34458100997E+00  0.33800172660E+01  0.17770000000E+01 0. -1.
         15    1    1    2    0    0  0.12877488032E+01  0.15881595784E+01  0.10081243883E+03  0.10084882796E+03  0.17770000000E+01 0.  1.
</event>
<event>
 6    1  0.1059789E-002  0.1859843E+03  0.7546771E-02  0.1065715E+00
        -11   -1    0    0    0    0  0.00000000000E+00  0.00000000000E+00  0.18250000000E+03  0.18250000000E+03  0.00000000000E+00 0.  1.
         11   -1    0    0    0    0 -0.00000000000E+00 -0.00000000000E+00 -0.18250000000E+03  0.18250000000E+03  0.00000000000E+00 0.  1.
        -11    1    1    2    0    0 -0.23805335311E+01  0.10469881982E+01  0.17528747474E+03  0.17530676520E+03  0.00000000000E+00 0.  1.
         11    1    1    2    0    0  0.35477013246E+01  0.11568693943E+01 -0.17897680181E+03  0.17901569796E+03  0.00000000000E+00 0.  1.
        -15    1    1    2    0    0  0.19589588995E+01  0.24322857308E+01  0.31624967228E+01  0.47867158228E+01  0.17770000000E+01 0.  1.
         15    1    1    2    0    0 -0.31261266931E+01 -0.46361433232E+01  0.52683033948E+00  0.58908210142E+01  0.17770000000E+01 0.  1.
</event>
<event>
 6    1  0.1059789E-002  0.1866772E+03  0.7546771E-02  0.1065178E+00
        -11   -1    0    0    0    0  0.00000000000E+00  0.00000000000E+00  0.18250000000E+03  0.18250000000E+03  0.00000000000E+00 0.  1.
         11   -1    0    0    0    0 -0.00000000000E+00 -0.00000000000E+00 -0.18250000000E+03  0.18250000000E+03  0.00000000000E+00 0. -1.
        -11    1    1    2    0    0 -0.39275284791E+01 -0.41506772056E+01  0.17823122463E+03  0.17832280571E+03  0.00000000000E+00 0.  1.
         11    1    1    2    0    0  0.11219848588E+01  0.30892761097E+01 -0.17537899625E+03  0.17540979107E+03  0.00000000000E+00 0. -1.
        -15    1    1    2    0    0  0.34296180965E+01  0.48744614629E+01 -0.13537607907E+00  0.62208287651E+01  0.17770000000E+01 0.  1.
         15    1    1    2    0    0 -0.62407447621E+00 -0.38130603669E+01 -0.27168523026E+01  0.50465744568E+01  0.17770000000E+01 0. -1.
</event>
<event>
 6    1  0.1059789E-002  0.1826423E+03  0.7546771E-02  0.1068342E+00
        -11   -1    0    0    0    0  0.00000000000E+00  0.00000000000E+00  0.18250000000E+03  0.18250000000E+03  0.00000000000E+00 0.  1.
         11   -1    0    0    0    0 -0.00000000000E+00 -0.00000000000E+00 -0.18250000000E+03  0.18250000000E+03  0.00000000000E+00 0.  1.
        -11    1    1    2    0    0  0.16835841447E+01 -0.26984578359E+01  0.18233000432E+03  0.18235774348E+03  0.00000000000E+00 0.  1.
         11    1    1    2    0    0 -0.12996416743E+01  0.32473867750E+00 -0.35034164364E+02  0.35059766063E+02  0.00000000000E+00 0.  1.
        -15    1    1    2    0    0 -0.13573131340E+01  0.47894190108E+01 -0.60838755773E+02  0.61067935665E+02  0.17770000000E+01 0.  1.
         15    1    1    2    0    0  0.97337066361E+00 -0.24156998524E+01 -0.86457084185E+02  0.86514554793E+02  0.17770000000E+01 0. -1.
</event>
<event>
 6    1  0.1059789E-002  0.1830665E+03  0.7546771E-02  0.1068005E+00
        -11   -1    0    0    0    0  0.00000000000E+00  0.00000000000E+00  0.18250000000E+03  0.18250000000E+03  0.00000000000E+00 0.  1.
         11   -1    0    0    0    0 -0.00000000000E+00 -0.00000000000E+00 -0.18250000000E+03  0.18250000000E+03  0.00000000000E+00 0. -1.
        -11    1    1    2    0    0  0.13970433179E+01 -0.22617113739E+01  0.18191405230E+03  0.18193347546E+03  0.00000000000E+00 0.  1.
         11    1    1    2    0    0  0.12170985411E+01 -0.19474529179E+01 -0.14682521932E+03  0.14684317801E+03  0.00000000000E+00 0. -1.
        -15    1    1    2    0    0 -0.13819639299E+01  0.43372935930E+01 -0.10991302838E+02  0.12028649429E+02  0.17770000000E+01 0. -1.
         15    1    1    2    0    0 -0.12321779291E+01 -0.12812930122E+00 -0.24097530146E+02  0.24194697098E+02  0.17770000000E+01 0.  1.
</event>
<event>
 6    1  0.1059789E-002  0.1827675E+03  0.7546771E-02  0.1068242E+00
        -11   -1    0    0    0    0  0.00000000000E+00  0.00000000000E+00  0.18250000000E+03  0.18250000000E+03  0.00000000000E+00 0.  1.
         11   -1    0    0    0    0 -0.00000000000E+00 -0.00000000000E+00 -0.18250000000E+03  0.18250000000E+03  0.00000000000E+00 0. -1.
        -11    1    1    2    0    0 -0.43713972344E+01 -0.33527869469E+01  0.18214925119E+03  0.18223254376E+03  0.00000000000E+00 0.  1.
         11    1    1    2    0    0 -0.85634109768E+00 -0.47745521150E+00 -0.36393356863E+02  0.36406561322E+02  0.00000000000E+00 0. -1.
        -15    1    1    2    0    0  0.18207872998E+01 -0.16223566900E+01 -0.10646750382E+03  0.10651025494E+03  0.17770000000E+01 0. -1.
         15    1    1    2    0    0  0.34069510323E+01  0.54525988484E+01 -0.39288390504E+02  0.39850639982E+02  0.17770000000E+01 0.  1.
</event>
<event>
 6    1  0.1059789E-002  0.1840762E+03  0.7546771E-02  0.1067207E+00
        -11   -1    0    0    0    0  0.00000000000E+00  0.00000000000E+00  0.18250000000E+03  0.18250000000E+03  0.00000000000E+00 0. -1.
         11   -1    0    0    0    0 -0.00000000000E+00 -0.00000000000E+00 -0.18250000000E+03  0.18250000000E+03  0.00000000000E+00 0.  1.
        -11    1    1    2    0    0 -0.48531785917E+00  0.24673316955E+01  0.17075712884E+03  0.17077564319E+03  0.00000000000E+00 0. -1.
         11    1    1    2    0    0  0.14889687917E+01 -0.35508151484E+01 -0.18088280412E+03  0.18092377992E+03  0.00000000000E+00 0.  1.
        -15    1    1    2    0    0 -0.28202139500E+01 -0.25417876609E+01  0.46974957375E+01  0.62959102948E+01  0.17770000000E+01 0. -1.
         15    1    1    2    0    0  0.18165630174E+01  0.36252711138E+01  0.54281795445E+01  0.70046665883E+01  0.17770000000E+01 0.  1.
</event>
<event>
 6    1  0.1059789E-002  0.1846068E+03  0.7546771E-02  0.1066790E+00
        -11   -1    0    0    0    0  0.00000000000E+00  0.00000000000E+00  0.18250000000E+03  0.18250000000E+03  0.00000000000E+00 0.  1.
         11   -1    0    0    0    0 -0.00000000000E+00 -0.00000000000E+00 -0.18250000000E+03  0.18250000000E+03  0.00000000000E+00 0.  1.
        -11    1    1    2    0    0  0.32212918912E+00  0.18474860158E+01  0.13783160665E+03  0.13784436428E+03  0.00000000000E+00 0.  1.
         11    1    1    2    0    0 -0.33145876569E+01  0.89490491468E+01 -0.18014058274E+03  0.18039318591E+03  0.00000000000E+00 0.  1.
        -15    1    1    2    0    0 -0.36439170253E+01 -0.87492802275E+01  0.10932964553E+02  0.14577910643E+02  0.17770000000E+01 0. -1.
         15    1    1    2    0    0  0.66363754930E+01 -0.20472549351E+01  0.31376011539E+02  0.32184539169E+02  0.17770000000E+01 0.  1.
</event>
<event>
 6    1  0.1059789E-002  0.1886422E+03  0.7546771E-02  0.1063668E+00
        -11   -1    0    0    0    0  0.00000000000E+00  0.00000000000E+00  0.18250000000E+03  0.18250000000E+03  0.00000000000E+00 0. -1.
         11   -1    0    0    0    0 -0.00000000000E+00 -0.00000000000E+00 -0.18250000000E+03  0.18250000000E+03  0.00000000000E+00 0.  1.
        -11    1    1    2    0    0 -0.15531383180E+02  0.13648506529E+02  0.17514152015E+03  0.17635775479E+03  0.00000000000E+00 0. -1.
         11    1    1    2    0    0 -0.12461208523E+01 -0.42681886306E+01 -0.74123674528E+02  0.74256914674E+02  0.00000000000E+00 0.  1.
        -15    1    1    2    0    0  0.79169787640E+01 -0.70659455011E+01  0.20019604782E+01  0.10944026377E+02  0.17770000000E+01 0. -1.
         15    1    1    2    0    0  0.88605252685E+01 -0.23143723973E+01 -0.10301980610E+03  0.10344130416E+03  0.17770000000E+01 0.  1.
</event>
<event>
 6    1  0.1059789E-002  0.1836736E+03  0.7546771E-02  0.1067524E+00
        -11   -1    0    0    0    0  0.00000000000E+00  0.00000000000E+00  0.18250000000E+03  0.18250000000E+03  0.00000000000E+00 0. -1.
         11   -1    0    0    0    0 -0.00000000000E+00 -0.00000000000E+00 -0.18250000000E+03  0.18250000000E+03  0.00000000000E+00 0.  1.
        -11    1    1    2    0    0  0.32156090105E+01  0.30389040194E+01  0.16800515156E+03  0.16806339884E+03  0.00000000000E+00 0. -1.
         11    1    1    2    0    0  0.23754319948E+01 -0.26241754385E+01 -0.18129180388E+03  0.18132635531E+03  0.00000000000E+00 0.  1.
        -15    1    1    2    0    0 -0.48924304254E+01 -0.14208959887E+01  0.11841478091E+02  0.13012807278E+02  0.17770000000E+01 0. -1.
         15    1    1    2    0    0 -0.69861057992E+00  0.10061674078E+01  0.14451742286E+01  0.25974385740E+01  0.17770000000E+01 0.  1.
</event>
<event>
 6    1  0.1059789E-002  0.1852041E+03  0.7546771E-02  0.1066322E+00
        -11   -1    0    0    0    0  0.00000000000E+00  0.00000000000E+00  0.18250000000E+03  0.18250000000E+03  0.00000000000E+00 0.  1.
         11   -1    0    0    0    0 -0.00000000000E+00 -0.00000000000E+00 -0.18250000000E+03  0.18250000000E+03  0.00000000000E+00 0. -1.
        -11    1    1    2    0    0  0.46878391773E+01  0.86863480490E+00  0.17973266456E+03  0.17979588725E+03  0.00000000000E+00 0.  1.
         11    1    1    2    0    0  0.14548399462E+01 -0.21849777859E+01 -0.17023786291E+03  0.17025810012E+03  0.00000000000E+00 0. -1.
        -15    1    1    2    0    0  0.73896749881E+00  0.17365857870E+01  0.53425504624E+00  0.26466886131E+01  0.17770000000E+01 0.  1.
         15    1    1    2    0    0 -0.68816466223E+01 -0.42024280605E+00 -0.10029056688E+02  0.12299324018E+02  0.17770000000E+01 0. -1.
</event>
<event>
 6    1  0.1059789E-002  0.1831500E+03  0.7546771E-02  0.1067939E+00
        -11   -1    0    0    0    0  0.00000000000E+00  0.00000000000E+00  0.18250000000E+03  0.18250000000E+03  0.00000000000E+00 0. -1.
         11   -1    0    0    0    0 -0.00000000000E+00 -0.00000000000E+00 -0.18250000000E+03  0.18250000000E+03  0.00000000000E+00 0.  1.
        -11    1    1    2    0    0  0.24846569803E+01 -0.45595476069E+00  0.18183242692E+03  0.18184997359E+03  0.00000000000E+00 0. -1.
         11    1    1    2    0    0 -0.19200235711E+01 -0.23357045923E+00 -0.93905234383E+02  0.93925151531E+02  0.00000000000E+00 0.  1.
        -15    1    1    2    0    0  0.15348752916E+01  0.33206764747E+01 -0.82476241787E+02  0.82576455014E+02  0.17770000000E+01 0.  1.
         15    1    1    2    0    0 -0.20995087008E+01 -0.26311512548E+01 -0.54509507459E+01  0.66484198683E+01  0.17770000000E+01 0. -1.
</event>
<event>
 6    1  0.1059789E-002  0.1951144E+03  0.7546771E-02  0.1058835E+00
        -11   -1    0    0    0    0  0.00000000000E+00  0.00000000000E+00  0.18250000000E+03  0.18250000000E+03  0.00000000000E+00 0. -1.
         11   -1    0    0    0    0 -0.00000000000E+00 -0.00000000000E+00 -0.18250000000E+03  0.18250000000E+03  0.00000000000E+00 0.  1.
        -11    1    1    2    0    0  0.29737704510E+00 -0.27225064938E+01  0.84057369888E+02  0.84101973266E+02  0.00000000000E+00 0. -1.
         11    1    1    2    0    0  0.23807264510E+01 -0.34715224344E+01 -0.16983342307E+03  0.16988558184E+03  0.00000000000E+00 0.  1.
        -15    1    1    2    0    0 -0.61993754470E+00  0.12785426616E+02 -0.91401387066E+01  0.15828812997E+02  0.17770000000E+01 0.  1.
         15    1    1    2    0    0 -0.20581659514E+01 -0.65913976880E+01  0.94916191884E+02  0.95183631898E+02  0.17770000000E+01 0. -1.
</event>
<event>
 6    1  0.1059789E-002  0.1834540E+03  0.7546771E-02  0.1067698E+00
        -11   -1    0    0    0    0  0.00000000000E+00  0.00000000000E+00  0.18250000000E+03  0.18250000000E+03  0.00000000000E+00 0. -1.
         11   -1    0    0    0    0 -0.00000000000E+00 -0.00000000000E+00 -0.18250000000E+03  0.18250000000E+03  0.00000000000E+00 0. -1.
        -11    1    1    2    0    0  0.65827659090E+00  0.23652067407E+01  0.79215971615E+02  0.79254007406E+02  0.00000000000E+00 0. -1.
         11    1    1    2    0    0 -0.61700108152E+01  0.48548743466E+01 -0.18137615733E+03  0.18154599771E+03  0.00000000000E+00 0. -1.
        -15    1    1    2    0    0  0.93513900407E+01 -0.12331713520E+01  0.26485852900E+02  0.28171392229E+02  0.17770000000E+01 0.  1.
         15    1    1    2    0    0 -0.38396558164E+01 -0.59869097353E+01  0.75674332815E+02  0.76028602650E+02  0.17770000000E+01 0. -1.
</event>
<event>
 6    1  0.1059789E-002  0.1833014E+03  0.7546771E-02  0.1067819E+00
        -11   -1    0    0    0    0  0.00000000000E+00  0.00000000000E+00  0.18250000000E+03  0.18250000000E+03  0.00000000000E+00 0. -1.
         11   -1    0    0    0    0 -0.00000000000E+00 -0.00000000000E+00 -0.18250000000E+03  0.18250000000E+03  0.00000000000E+00 0. -1.
        -11    1    1    2    0    0  0.11726373555E+02  0.42897836856E+01  0.18126903028E+03  0.18169857297E+03  0.00000000000E+00 0. -1.
         11    1    1    2    0    0  0.25094077573E+00 -0.11286656376E+01 -0.81081025351E+02  0.81089268891E+02  0.00000000000E+00 0. -1.
        -15    1    1    2    0    0 -0.80791671380E+01 -0.27787979446E+01 -0.18976503515E+02  0.20886839740E+02  0.17770000000E+01 0. -1.
         15    1    1    2    0    0 -0.38981471932E+01 -0.38232010335E+00 -0.81211501418E+02  0.81325318393E+02  0.17770000000E+01 0.  1.
</event>
<event>
 6    1  0.1059789E-002  0.1839941E+03  0.7546771E-02  0.1067272E+00
        -11   -1    0    0    0    0  0.00000000000E+00  0.00000000000E+00  0.18250000000E+03  0.18250000000E+03  0.00000000000E+00 0. -1.
         11   -1    0    0    0    0 -0.00000000000E+00 -0.00000000000E+00 -0.18250000000E+03  0.18250000000E+03  0.00000000000E+00 0. -1.
        -11    1    1    2    0    0  0.13766288634E+01 -0.28163411057E+01  0.18097872117E+03  0.18100586842E+03  0.00000000000E+00 0. -1.
         11    1    1    2    0    0  0.15382797520E+00 -0.59693779496E+01 -0.64183458451E+02  0.64460635079E+02  0.00000000000E+00 0. -1.
        -15    1    1    2    0    0  0.44870794518E+01 -0.51889346727E+01 -0.14971402832E+02  0.16563802607E+02  0.17770000000E+01 0.  1.
         15    1    1    2    0    0 -0.60175362903E+01  0.13974653728E+02 -0.10182385989E+03  0.10296969390E+03  0.17770000000E+01 0. -1.
</event>
<event>
 6    1  0.1059789E-002  0.1855573E+03  0.7546771E-02  0.1066047E+00
        -11   -1    0    0    0    0  0.00000000000E+00  0.00000000000E+00  0.18250000000E+03  0.18250000000E+03  0.00000000000E+00 0. -1.
         11   -1    0    0    0    0 -0.00000000000E+00 -0.00000000000E+00 -0.18250000000E+03  0.18250000000E+03  0.00000000000E+00 0. -1.
        -11    1    1    2    0    0 -0.74634048393E-01  0.84876342810E+01  0.17924182842E+03  0.17944268879E+03  0.00000000000E+00 0. -1.
         11    1    1    2    0    0  0.70413575929E+00 -0.85352710772E+01 -0.11546655167E+03  0.11578372604E+03  0.00000000000E+00 0. -1.
        -15    1    1    2    0    0 -0.52032257465E+01 -0.85616352023E+01 -0.75205128150E+01  0.12652707122E+02  0.17770000000E+01 0. -1.
         15    1    1    2    0    0  0.45737240356E+01  0.86092719984E+01 -0.56254763927E+02  0.57120878051E+02  0.17770000000E+01 0. -1.
</event>
<event>
 6    1  0.1059789E-002  0.1833228E+03  0.7546771E-02  0.1067802E+00
        -11   -1    0    0    0    0  0.00000000000E+00  0.00000000000E+00  0.18250000000E+03  0.18250000000E+03  0.00000000000E+00 0. -1.
         11   -1    0    0    0    0 -0.00000000000E+00 -0.00000000000E+00 -0.18250000000E+03  0.18250000000E+03  0.00000000000E+00 0. -1.
        -11    1    1    2    0    0 -0.45820652479E+01 -0.29392153305E+01  0.10014962520E+03  0.10029746625E+03  0.00000000000E+00 0. -1.
         11    1    1    2    0    0  0.12354154869E+01  0.48030368419E+01 -0.18160948929E+03  0.18167719178E+03  0.00000000000E+00 0. -1.
        -15    1    1    2    0    0  0.37297503288E+01  0.42041537333E+01  0.66747734933E+02  0.67007490580E+02  0.17770000000E+01 0.  1.
         15    1    1    2    0    0 -0.38310056770E+00 -0.60679752447E+01  0.14712129162E+02  0.16017851388E+02  0.17770000000E+01 0.  1.
</event>
<event>
 6    1  0.1059789E-002  0.1884955E+03  0.7546771E-02  0.1063780E+00
        -11   -1    0    0    0    0  0.00000000000E+00  0.00000000000E+00  0.18250000000E+03  0.18250000000E+03  0.00000000000E+00 0. -1.
         11   -1    0    0    0    0 -0.00000000000E+00 -0.00000000000E+00 -0.18250000000E+03  0.18250000000E+03  0.00000000000E+00 0.  1.
        -11    1    1    2    0    0  0.92113833150E+01  0.50206142904E+01  0.13551337130E+03  0.13591883589E+03  0.00000000000E+00 0. -1.
         11    1    1    2    0    0 -0.23525254150E+01 -0.40812338101E+01 -0.17644161331E+03  0.17650448649E+03  0.00000000000E+00 0.  1.
        -15    1    1    2    0    0 -0.68986778566E+01 -0.64912919562E+01  0.44638190037E+02  0.45666775299E+02  0.17770000000E+01 0. -1.
         15    1    1    2    0    0  0.39819956597E-01  0.55519114760E+01 -0.37099480270E+01  0.69099023169E+01  0.17770000000E+01 0. -1.
</event>
<event>
 6    1  0.1059789E-002  0.1858505E+03  0.7546771E-02  0.1065819E+00
        -11   -1    0    0    0    0  0.00000000000E+00  0.00000000000E+00  0.18250000000E+03  0.18250000000E+03  0.00000000000E+00 0.  1.
         11   -1    0    0    0    0 -0.00000000000E+00 -0.00000000000E+00 -0.18250000000E+03  0.18250000000E+03  0.00000000000E+00 0.  1.
        -11    1    1    2    0    0 -0.87397671695E+00  0.74267942582E+01  0.10031594556E+03  0.10059428434E+03  0.00000000000E+00 0.  1.
         11    1    1    2    0    0 -0.83888064528E+01  0.93072189400E+01 -0.17871083465E+03  0.17914954318E+03  0.00000000000E+00 0.  1.
        -15    1    1    2    0    0 -0.37156546388E+01 -0.18921694130E+02  0.36676488953E+02  0.41474801615E+02  0.17770000000E+01 0.  1.
         15    1    1    2    0    0  0.12978437809E+02  0.21876809320E+01  0.41718400137E+02  0.43781370865E+02  0.17770000000E+01 0. -1.
</event>
<event>
 6    1  0.1059789E-002  0.2020385E+03  0.7546771E-02  0.1053885E+00
        -11   -1    0    0    0    0  0.00000000000E+00  0.00000000000E+00  0.18250000000E+03  0.18250000000E+03  0.00000000000E+00 0. -1.
         11   -1    0    0    0    0 -0.00000000000E+00 -0.00000000000E+00 -0.18250000000E+03  0.18250000000E+03  0.00000000000E+00 0.  1.
        -11    1    1    2    0    0 -0.26212113130E+01  0.34116904397E+01  0.16290469536E+03  0.16296149898E+03  0.00000000000E+00 0. -1.
         11    1    1    2    0    0 -0.26436791872E+01  0.97009833344E+00 -0.78562322260E+02  0.78612776375E+02  0.00000000000E+00 0.  1.
        -15    1    1    2    0    0 -0.11571265697E+00 -0.23827099413E+02 -0.96761090551E+02  0.99667499364E+02  0.17770000000E+01 0.  1.
         15    1    1    2    0    0  0.53806031572E+01  0.19445310640E+02  0.12418717449E+02  0.23758225277E+02  0.17770000000E+01 0. -1.
</event>
<event>
 6    1  0.1059789E-002  0.1841750E+03  0.7546771E-02  0.1067129E+00
        -11   -1    0    0    0    0  0.00000000000E+00  0.00000000000E+00  0.18250000000E+03  0.18250000000E+03  0.00000000000E+00 0.  1.
         11   -1    0    0    0    0 -0.00000000000E+00 -0.00000000000E+00 -0.18250000000E+03  0.18250000000E+03  0.00000000000E+00 0.  1.
        -11    1    1    2    0    0  0.49606322270E-02 -0.35717963390E+01  0.16521423490E+03  0.16525284012E+03  0.00000000000E+00 0.  1.
         11    1    1    2    0    0 -0.78827244731E+00 -0.32923881289E+01 -0.18079326540E+03  0.18082495958E+03  0.00000000000E+00 0.  1.
        -15    1    1    2    0    0  0.82627912307E+00  0.12816111327E+00  0.12192062247E+00  0.19676778441E+01  0.17770000000E+01 0. -1.
         15    1    1    2    0    0 -0.42967307991E-01  0.67360233546E+01  0.15457109883E+02  0.16954522457E+02  0.17770000000E+01 0.  1.
</event>
<event>
 6    1  0.1059789E-002  0.1892323E+03  0.7546771E-02  0.1063219E+00
        -11   -1    0    0    0    0  0.00000000000E+00  0.00000000000E+00  0.18250000000E+03  0.18250000000E+03  0.00000000000E+00 0.  1.
         11   -1    0    0    0    0 -0.00000000000E+00 -0.00000000000E+00 -0.18250000000E+03  0.18250000000E+03  0.00000000000E+00 0. -1.
        -11    1    1    2    0    0  0.18526163550E+01 -0.21244016375E+01  0.16764196412E+03  0.16766565958E+03  0.00000000000E+00 0.  1.
         11    1    1    2    0    0  0.57699752832E+01 -0.81164219381E+00 -0.17567112729E+03  0.17576773407E+03  0.00000000000E+00 0. -1.
        -15    1    1    2    0    0 -0.33162247171E+01 -0.23150259147E+01  0.12490842785E+02  0.13248983880E+02  0.17770000000E+01 0. -1.
         15    1    1    2    0    0 -0.43063669210E+01  0.52510697461E+01 -0.44616796109E+01  0.83176224660E+01  0.17770000000E+01 0.  1.
</event>
<event>
 6    1  0.1059789E-002  0.1828195E+03  0.7546771E-02  0.1068201E+00
        -11   -1    0    0    0    0  0.00000000000E+00  0.00000000000E+00  0.18250000000E+03  0.18250000000E+03  0.00000000000E+00 0.  1.
         11   -1    0    0    0    0 -0.00000000000E+00 -0.00000000000E+00 -0.18250000000E+03  0.18250000000E+03  0.00000000000E+00 0. -1.
        -11    1    1    2    0    0 -0.24019401198E+01 -0.10425662700E+01  0.18216165640E+03  0.18218047459E+03  0.00000000000E+00 0.  1.
         11    1    1    2    0    0 -0.29416171554E+01  0.87018834025E+00 -0.10529655640E+03  0.10534123186E+03  0.00000000000E+00 0. -1.
        -15    1    1    2    0    0  0.60415181744E+01 -0.16900253287E+00 -0.34606991073E+02  0.35175702748E+02  0.17770000000E+01 0.  1.
         15    1    1    2    0    0 -0.69796089913E+00  0.34138046264E+00 -0.42258108923E+02  0.42302590805E+02  0.17770000000E+01 0. -1.
</event>
<event>
 6    1  0.1059789E-002  0.1844212E+03  0.7546771E-02  0.1066936E+00
        -11   -1    0    0    0    0  0.00000000000E+00  0.00000000000E+00  0.18250000000E+03  0.18250000000E+03  0.00000000000E+00 0. -1.
         11   -1    0    0    0    0 -0.00000000000E+00 -0.00000000000E+00 -0.18250000000E+03  0.18250000000E+03  0.00000000000E+00 0. -1.
        -11    1    1    2    0    0 -0.40973714138E+01 -0.58061622121E+00  0.15922229975E+03  0.15927606947E+03  0.00000000000E+00 0. -1.
         11    1    1    2    0    0 -0.30495552318E+01  0.26691013087E+01 -0.18053333259E+03  0.18057881400E+03  0.00000000000E+00 0. -1.
        -15    1    1    2    0    0 -0.15672612307E+01 -0.11536589096E+01  0.77564404533E+00  0.27471056278E+01  0.17770000000E+01 0.  1.
         15    1    1    2    0    0  0.87141878763E+01 -0.93482617788E+00  0.20535388792E+02  0.22398010898E+02  0.17770000000E+01 0. -1.
</event>
<event>
 6    1  0.1059789E-002  0.1833518E+03  0.7546771E-02  0.1067779E+00
        -11   -1    0    0    0    0  0.00000000000E+00  0.00000000000E+00  0.18250000000E+03  0.18250000000E+03  0.00000000000E+00 0.  1.
         11   -1    0    0    0    0 -0.00000000000E+00 -0.00000000000E+00 -0.18250000000E+03  0.18250000000E+03  0.00000000000E+00 0. -1.
        -11    1    1    2    0    0  0.35811623191E+01 -0.50921391249E+01  0.14804198447E+03  0.14817281724E+03  0.00000000000E+00 0.  1.
         11    1    1    2    0    0  0.44579461942E+01  0.20146955103E+01 -0.18158227085E+03  0.18164815818E+03  0.00000000000E+00 0. -1.
        -15    1    1    2    0    0 -0.10838077606E+01  0.21059819657E+01  0.14673902813E+02  0.14969667734E+02  0.17770000000E+01 0. -1.
         15    1    1    2    0    0 -0.69553007526E+01  0.97146164887E+00  0.18866383566E+02  0.20209356846E+02  0.17770000000E+01 0.  1.
</event>
<event>
 6    1  0.1059789E-002  0.1843668E+03  0.7546771E-02  0.1066978E+00
        -11   -1    0    0    0    0  0.00000000000E+00  0.00000000000E+00  0.18250000000E+03  0.18250000000E+03  0.00000000000E+00 0.  1.
         11   -1    0    0    0    0 -0.00000000000E+00 -0.00000000000E+00 -0.18250000000E+03  0.18250000000E+03  0.00000000000E+00 0. -1.
        -11    1    1    2    0    0  0.20712330763E+01 -0.20632923485E+01  0.14569721387E+03  0.14572654292E+03  0.00000000000E+00 0.  1.
         11    1    1    2    0    0 -0.47626316650E+01  0.71580373839E+01 -0.18042844204E+03  0.18063317208E+03  0.00000000000E+00 0. -1.
        -15    1    1    2    0    0  0.34631044909E+01 -0.16982832197E+01  0.34460057684E+02  0.34720751190E+02  0.17770000000E+01 0.  1.
         15    1    1    2    0    0 -0.77170590223E+00 -0.33964618157E+01  0.27117048668E+00  0.39195338113E+01  0.17770000000E+01 0. -1.
</event>
<event>
 6    1  0.1059789E-002  0.1762742E+03  0.7546771E-02  0.1073521E+00
        -11   -1    0    0    0    0  0.00000000000E+00  0.00000000000E+00  0.18250000000E+03  0.18250000000E+03  0.00000000000E+00 0.  1.
         11   -1    0    0    0    0 -0.00000000000E+00 -0.00000000000E+00 -0.18250000000E+03  0.18250000000E+03  0.00000000000E+00 0. -1.
        -11    1    1    2    0    0 -0.12873208515E+01  0.23532391835E+01  0.17704795817E+03  0.17706827616E+03  0.00000000000E+00 0.  1.
         11    1    1    2    0    0  0.31432192954E+01  0.35508732892E+01 -0.17547387018E+03  0.17553793790E+03  0.00000000000E+00 0. -1.
        -15    1    1    2    0    0 -0.59393735633E-01 -0.17129405983E+01 -0.55590301712E+01  0.60826177385E+01  0.17770000000E+01 0.  1.
         15    1    1    2    0    0 -0.17965047083E+01 -0.41911718745E+01  0.39849421780E+01  0.63111681970E+01  0.17770000000E+01 0. -1.
</event>
<event>
 6    1  0.1059789E-002  0.1829875E+03  0.7546771E-02  0.1068067E+00
        -11   -1    0    0    0    0  0.00000000000E+00  0.00000000000E+00  0.18250000000E+03  0.18250000000E+03  0.00000000000E+00 0. -1.
         11   -1    0    0    0    0 -0.00000000000E+00 -0.00000000000E+00 -0.18250000000E+03  0.18250000000E+03  0.00000000000E+00 0.  1.
        -11    1    1    2    0    0  0.32258658520E+01  0.26456235585E+01  0.18196468683E+03  0.18201250723E+03  0.00000000000E+00 0. -1.
         11    1    1    2    0    0 -0.12257569199E+01  0.29917465898E+01 -0.11676720658E+03  0.11681195812E+03  0.00000000000E+00 0.  1.
        -15    1    1    2    0    0 -0.24247738051E+01 -0.23675448994E+01 -0.57375699676E+02  0.57503160254E+02  0.17770000000E+01 0.  1.
         15    1    1    2    0    0  0.42466487301E+00 -0.32698252490E+01 -0.78217805695E+01  0.86723743975E+01  0.17770000000E+01 0. -1.
</event>
<event>
 6    1  0.1059789E-002  0.1879641E+03  0.7546771E-02  0.1064187E+00
        -11   -1    0    0    0    0  0.00000000000E+00  0.00000000000E+00  0.18250000000E+03  0.18250000000E+03  0.00000000000E+00 0.  1.
         11   -1    0    0    0    0 -0.00000000000E+00 -0.00000000000E+00 -0.18250000000E+03  0.18250000000E+03  0.00000000000E+00 0.  1.
        -11    1    1    2    0    0  0.17826157652E+02  0.59961491071E+01  0.17603405450E+03  0.17703591174E+03  0.00000000000E+00 0.  1.
         11    1    1    2    0    0 -0.18561137804E+00  0.39411522446E+01 -0.11478914772E+03  0.11485693521E+03  0.00000000000E+00 0.  1.
        -15    1    1    2    0    0 -0.15208581240E+02 -0.96279497995E+01 -0.80024287901E+01  0.19778648999E+02  0.17770000000E+01 0. -1.
         15    1    1    2    0    0 -0.24319650341E+01 -0.30935155218E+00 -0.53242477992E+02  0.53328504049E+02  0.17770000000E+01 0.  1.
</event>
<event>
 6    1  0.1059789E-002  0.1856208E+03  0.7546771E-02  0.1065997E+00
        -11   -1    0    0    0    0  0.00000000000E+00  0.00000000000E+00  0.18250000000E+03  0.18250000000E+03  0.00000000000E+00 0. -1.
         11   -1    0    0    0    0 -0.00000000000E+00 -0.00000000000E+00 -0.18250000000E+03  0.18250000000E+03  0.00000000000E+00 0. -1.
        -11    1    1    2    0    0  0.41118189229E+01 -0.19980927804E+01  0.14493799917E+03  0.14501007907E+03  0.00000000000E+00 0. -1.
         11    1    1    2    0    0  0.10387731259E+02 -0.68053378433E+01 -0.17894886762E+03  0.17937924854E+03  0.00000000000E+00 0. -1.
        -15    1    1    2    0    0 -0.65864550094E+01  0.48018781511E+01  0.29197352476E+02  0.30365812091E+02  0.17770000000E+01 0. -1.
         15    1    1    2    0    0 -0.79130951723E+01  0.40015524726E+01  0.48135159768E+01  0.10244860295E+02  0.17770000000E+01 0.  1.
</event>
<event>
 6    1  0.1059789E-002  0.1887697E+03  0.7546771E-02  0.1063571E+00
        -11   -1    0    0    0    0  0.00000000000E+00  0.00000000000E+00  0.18250000000E+03  0.18250000000E+03  0.00000000000E+00 0. -1.
         11   -1    0    0    0    0 -0.00000000000E+00 -0.00000000000E+00 -0.18250000000E+03  0.18250000000E+03  0.00000000000E+00 0.  1.
        -11    1    1    2    0    0 -0.39546881784E+00  0.30108385704E+01  0.16805831114E+03  0.16808574445E+03  0.00000000000E+00 0. -1.
         11    1    1    2    0    0  0.56864035881E+01 -0.47564613961E+00 -0.17613794073E+03  0.17623034810E+03  0.00000000000E+00 0.  1.
        -15    1    1    2    0    0 -0.23386139916E+01  0.28507147898E+01 -0.47977769848E+01  0.63065111758E+01  0.17770000000E+01 0.  1.
         15    1    1    2    0    0 -0.29523207787E+01 -0.53859072206E+01  0.12877406578E+02  0.14377396278E+02  0.17770000000E+01 0. -1.
</event>
<event>
 6    1  0.1059789E-002  0.1877312E+03  0.7546771E-02  0.1064365E+00
        -11   -1    0    0    0    0  0.00000000000E+00  0.00000000000E+00  0.18250000000E+03  0.18250000000E+03  0.00000000000E+00 0. -1.
         11   -1    0    0    0    0 -0.00000000000E+00 -0.00000000000E+00 -0.18250000000E+03  0.18250000000E+03  0.00000000000E+00 0.  1.
        -11    1    1    2    0    0 -0.97748711846E+01 -0.61191817852E+00  0.83321525875E+02  0.83895168066E+02  0.00000000000E+00 0. -1.
         11    1    1    2    0    0 -0.25371895767E+01  0.11896797364E+01 -0.17724669624E+03  0.17726884666E+03  0.00000000000E+00 0.  1.
        -15    1    1    2    0    0 -0.11214308607E+02 -0.13186018206E+02  0.40800886142E+02  0.44356530891E+02  0.17770000000E+01 0.  1.
         15    1    1    2    0    0  0.23526369369E+02  0.12608256648E+02  0.53124284218E+02  0.59479454386E+02  0.17770000000E+01 0. -1.
</event>
<event>
 6    1  0.1059789E-002  0.1825552E+03  0.7546771E-02  0.1068411E+00
        -11   -1    0    0    0    0  0.00000000000E+00  0.00000000000E+00  0.18250000000E+03  0.18250000000E+03  0.00000000000E+00 0.  1.
         11   -1    0    0    0    0 -0.00000000000E+00 -0.00000000000E+00 -0.18250000000E+03  0.18250000000E+03  0.00000000000E+00 0. -1.
        -11    1    1    2    0    0 -0.46683654594E+00 -0.10911840660E+01  0.81405521942E+02  0.81414173347E+02  0.00000000000E+00 0.  1.
         11    1    1    2    0    0 -0.15845940647E+01  0.25902503691E+01 -0.18241951484E+03  0.18244478543E+03  0.00000000000E+00 0. -1.
        -15    1    1    2    0    0  0.20728173074E+01 -0.91790127130E+00  0.77218021472E+02  0.77271726287E+02  0.17770000000E+01 0.  1.
         15    1    1    2    0    0 -0.21386696745E-01 -0.58116503182E+00  0.23795971429E+02  0.23869314935E+02  0.17770000000E+01 0.  1.
</event>
<event>
 6    1  0.1059789E-002  0.1519323E+03  0.7546771E-02  0.1095780E+00
        -11   -1    0    0    0    0  0.00000000000E+00  0.00000000000E+00  0.18250000000E+03  0.18250000000E+03  0.00000000000E+00 0.  1.
         11   -1    0    0    0    0 -0.00000000000E+00 -0.00000000000E+00 -0.18250000000E+03  0.18250000000E+03  0.00000000000E+00 0.  1.
        -11    1    1    2    0    0 -0.20917257363E+02 -0.16095253671E+02  0.14169432635E+03  0.14413143643E+03  0.00000000000E+00 0.  1.
         11    1    1    2    0    0  0.25781071929E+00 -0.33995455016E+01 -0.16167528530E+03  0.16171122797E+03  0.00000000000E+00 0.  1.
        -15    1    1    2    0    0  0.22870976727E+02  0.13133167465E+02  0.34258762851E+02  0.43271032172E+02  0.17770000000E+01 0.  1.
         15    1    1    2    0    0 -0.22115300834E+01  0.63616317074E+01 -0.14277803904E+02  0.15886303428E+02  0.17770000000E+01 0. -1.
</event>
<event>
 6    1  0.1059789E-002  0.1841042E+03  0.7546771E-02  0.1067185E+00
        -11   -1    0    0    0    0  0.00000000000E+00  0.00000000000E+00  0.18250000000E+03  0.18250000000E+03  0.00000000000E+00 0. -1.
         11   -1    0    0    0    0 -0.00000000000E+00 -0.00000000000E+00 -0.18250000000E+03  0.18250000000E+03  0.00000000000E+00 0.  1.
        -11    1    1    2    0    0  0.20381871137E+01 -0.23897728792E+01  0.18086853603E+03  0.18089580578E+03  0.00000000000E+00 0. -1.
         11    1    1    2    0    0 -0.28466208222E+01 -0.56083004538E+01 -0.16710068540E+03  0.16721900414E+03  0.00000000000E+00 0.  1.
        -15    1    1    2    0    0  0.22020634037E+01  0.49748349186E+01 -0.10178250784E+02  0.11677010907E+02  0.17770000000E+01 0. -1.
         15    1    1    2    0    0 -0.13936296952E+01  0.30232384144E+01 -0.35895998442E+01  0.52081791712E+01  0.17770000000E+01 0.  1.
</event>
<event>
 6    1  0.1059789E-002  0.1849040E+03  0.7546771E-02  0.1066557E+00
        -11   -1    0    0    0    0  0.00000000000E+00  0.00000000000E+00  0.18250000000E+03  0.18250000000E+03  0.00000000000E+00 0.  1.
         11   -1    0    0    0    0 -0.00000000000E+00 -0.00000000000E+00 -0.18250000000E+03  0.18250000000E+03  0.00000000000E+00 0. -1.
        -11    1    1    2    0    0  0.20436000650E+01 -0.31029202611E+01  0.10054270910E+03  0.10061133519E+03  0.00000000000E+00 0.  1.
         11    1    1    2    0    0 -0.25803795180E+01  0.19122848534E+01 -0.18006738805E+03  0.18009602836E+03  0.00000000000E+00 0. -1.
        -15    1    1    2    0    0  0.47520205952E+01 -0.13810214933E+01  0.71264795084E+00  0.53060829435E+01  0.17770000000E+01 0.  1.
         15    1    1    2    0    0 -0.42152411421E+01  0.25716569010E+01  0.78812030994E+02  0.78986553511E+02  0.17770000000E+01 0.  1.
</event>
<event>
 6    1  0.1059789E-002  0.1863638E+03  0.7546771E-02  0.1065420E+00
        -11   -1    0    0    0    0  0.00000000000E+00  0.00000000000E+00  0.18250000000E+03  0.18250000000E+03  0.00000000000E+00 0.  1.
         11   -1    0    0    0    0 -0.00000000000E+00 -0.00000000000E+00 -0.18250000000E+03  0.18250000000E+03  0.00000000000E+00 0.  1.
        -11    1    1    2    0    0 -0.21939138406E+01 -0.19969655784E+01  0.14203703649E+03  0.14206801492E+03  0.00000000000E+00 0.  1.
         11    1    1    2    0    0 -0.35081928623E+01  0.23839018114E+01 -0.17858588437E+03  0.17863624633E+03  0.00000000000E+00 0.  1.
        -15    1    1    2    0    0 -0.46822590256E+01  0.12208613362E+01  0.32482591089E+02  0.32889063606E+02  0.17770000000E+01 0. -1.
         15    1    1    2    0    0  0.10384365728E+02 -0.16077975692E+01  0.40662567930E+01  0.11406675147E+02  0.17770000000E+01 0.  1.
</event>
<event>
 6    1  0.1059789E-002  0.1869266E+03  0.7546771E-02  0.1064985E+00
        -11   -1    0    0    0    0  0.00000000000E+00  0.00000000000E+00  0.18250000000E+03  0.18250000000E+03  0.00000000000E+00 0.  1.
         11   -1    0    0    0    0 -0.00000000000E+00 -0.00000000000E+00 -0.18250000000E+03  0.18250000000E+03  0.00000000000E+00 0.  1.
        -11    1    1    2    0    0  0.26296309964E+01 -0.76640227343E-01  0.15333319561E+03  0.15335576190E+03  0.00000000000E+00 0.  1.
         11    1    1    2    0    0 -0.17115603641E+01 -0.19054353979E+01 -0.17805499092E+03  0.17807341159E+03  0.00000000000E+00 0.  1.
        -15    1    1    2    0    0 -0.27083905312E+01  0.40119114656E+01  0.28287977504E+02  0.28754099067E+02  0.17770000000E+01 0. -1.
         15    1    1    2    0    0  0.17903198990E+01 -0.20298358403E+01 -0.35661821865E+01  0.48167274437E+01  0.17770000000E+01 0.  1.
</event>
<event>
 6    1  0.1059789E-002  0.1828226E+03  0.7546771E-02  0.1068198E+00
        -11   -1    0    0    0    0  0.00000000000E+00  0.00000000000E+00  0.18250000000E+03  0.18250000000E+03  0.00000000000E+00 0.  1.
         11   -1    0    0    0    0 -0.00000000000E+00 -0.00000000000E+00 -0.18250000000E+03  0.18250000000E+03  0.00000000000E+00 0. -1.
        -11    1    1    2    0    0 -0.99211019738E+00 -0.13078580682E+01  0.11594787345E+03  0.11595949350E+03  0.00000000000E+00 0.  1.
         11    1    1    2    0    0 -0.81143740482E+01 -0.45054731807E+00 -0.18199605418E+03  0.18217741297E+03  0.00000000000E+00 0. -1.
        -15    1    1    2    0    0  0.32244167458E+01  0.18752405306E+01  0.31877105440E+02  0.32143754768E+02  0.17770000000E+01 0.  1.
         15    1    1    2    0    0  0.58820674998E+01 -0.11683514433E+00  0.34171075287E+02  0.34719338758E+02  0.17770000000E+01 0. -1.
</event>
<event>
 6    1  0.1059789E-002  0.1842611E+03  0.7546771E-02  0.1067062E+00
        -11   -1    0    0    0    0  0.00000000000E+00  0.00000000000E+00  0.18250000000E+03  0.18250000000E+03  0.00000000000E+00 0.  1.
         11   -1    0    0    0    0 -0.00000000000E+00 -0.00000000000E+00 -0.18250000000E+03  0.18250000000E+03  0.00000000000E+00 0. -1.
        -11    1    1    2    0    0  0.32653590086E+01 -0.36174591321E+00  0.18070899345E+03  0.18073885510E+03  0.00000000000E+00 0.  1.
         11    1    1    2    0    0 -0.82587519515E+00 -0.30391752782E+01 -0.17683460871E+03  0.17686265150E+03  0.00000000000E+00 0. -1.
        -15    1    1    2    0    0 -0.13515931997E+01  0.18678092540E+01 -0.21728884241E+00  0.29189825330E+01  0.17770000000E+01 0. -1.
         15    1    1    2    0    0 -0.10878906137E+01  0.15331119374E+01 -0.36570958955E+01  0.44795108649E+01  0.17770000000E+01 0.  1.
</event>
<event>
 6    1  0.1059789E-002  0.1890599E+03  0.7546771E-02  0.1063350E+00
        -11   -1    0    0    0    0  0.00000000000E+00  0.00000000000E+00  0.18250000000E+03  0.18250000000E+03  0.00000000000E+00 0.  1.
         11   -1    0    0    0    0 -0.00000000000E+00 -0.00000000000E+00 -0.18250000000E+03  0.18250000000E+03  0.00000000000E+00 0.  1.
        -11    1    1    2    0    0 -0.71362747412E+01  0.37997824154E+02  0.17163958791E+03  0.17594007273E+03  0.00000000000E+00 0.  1.
         11    1    1    2    0    0  0.79254666504E+00 -0.17234618220E+01 -0.10674043477E+03  0.10675728952E+03  0.00000000000E+00 0.  1.
        -15    1    1    2    0    0  0.43429190532E+00  0.16800693735E+01 -0.30825166677E+02  0.30925068670E+02  0.17770000000E+01 0.  1.
         15    1    1    2    0    0  0.59094361709E+01 -0.37954431706E+02 -0.34073986460E+02  0.51377569076E+02  0.17770000000E+01 0.  1.
</event>
<event>
 6    1  0.1059789E-002  0.1983053E+03  0.7546771E-02  0.1056527E+00
        -11   -1    0    0    0    0  0.00000000000E+00  0.00000000000E+00  0.18250000000E+03  0.18250000000E+03  0.00000000000E+00 0.  1.
         11   -1    0    0    0    0 -0.00000000000E+00 -0.00000000000E+00 -0.18250000000E+03  0.18250000000E+03  0.00000000000E+00 0. -1.
        -11    1    1    2    0    0  0.14718955480E+02 -0.22216893810E+02  0.16455054369E+03  0.16669468933E+03  0.00000000000E+00 0.  1.
         11    1    1    2    0    0  0.17703988275E+00  0.28544533404E+01 -0.12874950487E+03  0.12878126514E+03  0.00000000000E+00 0. -1.
        -15    1    1    2    0    0 -0.42521470667E+01  0.16162542065E+02  0.11848356272E+02  0.20563311894E+02  0.17770000000E+01 0.  1.
         15    1    1    2    0    0 -0.10643848296E+02  0.31998984043E+01 -0.47649395093E+02  0.48960733635E+02  0.17770000000E+01 0. -1.
</event>
<event>
 6    1  0.1059789E-002  0.1835187E+03  0.7546771E-02  0.1067647E+00
        -11   -1    0    0    0    0  0.00000000000E+00  0.00000000000E+00  0.18250000000E+03  0.18250000000E+03  0.00000000000E+00 0.  1.
         11   -1    0    0    0    0 -0.00000000000E+00 -0.00000000000E+00 -0.18250000000E+03  0.18250000000E+03  0.00000000000E+00 0.  1.
        -11    1    1    2    0    0  0.21812656032E+01  0.24122978488E+01  0.18145212686E+03  0.18148127022E+03  0.00000000000E+00 0.  1.
         11    1    1    2    0    0  0.52386819526E+00 -0.24740090122E+01 -0.16900671486E+03  0.16902563364E+03  0.00000000000E+00 0.  1.
        -15    1    1    2    0    0  0.71842174366E+00 -0.16054605472E+01 -0.79749870366E+01  0.83577377683E+01  0.17770000000E+01 0.  1.
         15    1    1    2    0    0 -0.34235555421E+01  0.16671717107E+01 -0.44704249536E+01  0.61353583700E+01  0.17770000000E+01 0. -1.
</event>
<event>
 6    1  0.1059789E-002  0.1894246E+03  0.7546771E-02  0.1063073E+00
        -11   -1    0    0    0    0  0.00000000000E+00  0.00000000000E+00  0.18250000000E+03  0.18250000000E+03  0.00000000000E+00 0. -1.
         11   -1    0    0    0    0 -0.00000000000E+00 -0.00000000000E+00 -0.18250000000E+03  0.18250000000E+03  0.00000000000E+00 0.  1.
        -11    1    1    2    0    0  0.29558939724E+01  0.86194408049E+00  0.17554839079E+03  0.17557539055E+03  0.00000000000E+00 0. -1.
         11    1    1    2    0    0 -0.12665631695E+01 -0.11267695063E+01 -0.99016611406E+02  0.99031122008E+02  0.00000000000E+00 0.  1.
        -15    1    1    2    0    0  0.17430117767E+02 -0.14651875145E+01 -0.82109266533E+01  0.19404453750E+02  0.17770000000E+01 0. -1.
         15    1    1    2    0    0 -0.19119448570E+02  0.17300129403E+01 -0.68320852730E+02  0.70989033697E+02  0.17770000000E+01 0.  1.
</event>
<event>
 6    1  0.1059789E-002  0.1848365E+03  0.7546771E-02  0.1066610E+00
        -11   -1    0    0    0    0  0.00000000000E+00  0.00000000000E+00  0.18250000000E+03  0.18250000000E+03  0.00000000000E+00 0. -1.
         11   -1    0    0    0    0 -0.00000000000E+00 -0.00000000000E+00 -0.18250000000E+03  0.18250000000E+03  0.00000000000E+00 0. -1.
        -11    1    1    2    0    0  0.25714585967E+02 -0.58605843023E+01  0.17822262505E+03  0.18016351034E+03  0.00000000000E+00 0. -1.
         11    1    1    2    0    0 -0.79060407115E+01  0.23886673853E+01 -0.90735300677E+02  0.91110405556E+02  0.00000000000E+00 0. -1.
        -15    1    1    2    0    0 -0.22067768023E+02  0.67861217976E+01 -0.42653471988E+02  0.48533640253E+02  0.17770000000E+01 0.  1.
         15    1    1    2    0    0  0.42592227674E+01 -0.33142048806E+01 -0.44833852382E+02  0.45192443849E+02  0.17770000000E+01 0. -1.
</event>
<event>
 6    1  0.1059789E-002  0.1866195E+03  0.7546771E-02  0.1065222E+00
        -11   -1    0    0    0    0  0.00000000000E+00  0.00000000000E+00  0.18250000000E+03  0.18250000000E+03  0.00000000000E+00 0. -1.
         11   -1    0    0    0    0 -0.00000000000E+00 -0.00000000000E+00 -0.18250000000E+03  0.18250000000E+03  0.00000000000E+00 0. -1.
        -11    1    1    2    0    0  0.86065772149E+00  0.37759130071E+01  0.17833843838E+03  0.17838048339E+03  0.00000000000E+00 0. -1.
         11    1    1    2    0    0 -0.27724092338E+01  0.26895974437E+01 -0.17135079632E+03  0.17139432775E+03  0.00000000000E+00 0. -1.
        -15    1    1    2    0    0  0.35977278393E+01  0.11517250944E+01 -0.57848448302E+01  0.71338821835E+01  0.17770000000E+01 0. -1.
         15    1    1    2    0    0 -0.16859763270E+01 -0.76172355451E+01 -0.12027972279E+01  0.80913066742E+01  0.17770000000E+01 0.  1.
</event>
<event>
 6    1  0.1059789E-002  0.1840242E+03  0.7546771E-02  0.1067248E+00
        -11   -1    0    0    0    0  0.00000000000E+00  0.00000000000E+00  0.18250000000E+03  0.18250000000E+03  0.00000000000E+00 0.  1.
         11   -1    0    0    0    0 -0.00000000000E+00 -0.00000000000E+00 -0.18250000000E+03  0.18250000000E+03  0.00000000000E+00 0.  1.
        -11    1    1    2    0    0 -0.15452572329E+01 -0.10300212147E+01  0.13183372501E+03  0.13184680434E+03  0.00000000000E+00 0.  1.
         11    1    1    2    0    0 -0.13411096767E+01  0.21147371442E+01 -0.18095846949E+03  0.18097579498E+03  0.00000000000E+00 0.  1.
        -15    1    1    2    0    0  0.90544470927E+01  0.26295384276E+01  0.34069241888E+02  0.35394469290E+02  0.17770000000E+01 0.  1.
         15    1    1    2    0    0 -0.61680801831E+01 -0.37142543570E+01  0.15055502595E+02  0.16782931388E+02  0.17770000000E+01 0. -1.
</event>
<event>
 6    1  0.1059789E-002  0.1919022E+03  0.7546771E-02  0.1061208E+00
        -11   -1    0    0    0    0  0.00000000000E+00  0.00000000000E+00  0.18250000000E+03  0.18250000000E+03  0.00000000000E+00 0. -1.
         11   -1    0    0    0    0 -0.00000000000E+00 -0.00000000000E+00 -0.18250000000E+03  0.18250000000E+03  0.00000000000E+00 0.  1.
        -11    1    1    2    0    0 -0.19915048363E+01 -0.28638044944E+01  0.15573848979E+03  0.15577754867E+03  0.00000000000E+00 0. -1.
         11    1    1    2    0    0  0.55631455737E+01 -0.79086055586E+01 -0.17282756814E+03  0.17309784210E+03  0.00000000000E+00 0.  1.
        -15    1    1    2    0    0  0.36150566316E+01  0.51691239861E+00  0.22136759901E+02  0.22506214715E+02  0.17770000000E+01 0.  1.
         15    1    1    2    0    0 -0.71866973690E+01  0.10255497654E+02 -0.50476815540E+01  0.13618394519E+02  0.17770000000E+01 0. -1.
</event>
<event>
 6    1  0.1059789E-002  0.1829806E+03  0.7546771E-02  0.1068073E+00
        -11   -1    0    0    0    0  0.00000000000E+00  0.00000000000E+00  0.18250000000E+03  0.18250000000E+03  0.00000000000E+00 0. -1.
         11   -1    0    0    0    0 -0.00000000000E+00 -0.00000000000E+00 -0.18250000000E+03  0.18250000000E+03  0.00000000000E+00 0. -1.
        -11    1    1    2    0    0  0.10633920286E+01 -0.23569734147E+01  0.18200103593E+03  0.18201940338E+03  0.00000000000E+00 0. -1.
         11    1    1    2    0    0 -0.34560660225E+00  0.50695737973E+01 -0.84388103709E+02  0.84540949072E+02  0.00000000000E+00 0. -1.
        -15    1    1    2    0    0  0.43360119315E+01 -0.36542912765E+01 -0.28495476723E+02  0.29108499908E+02  0.17770000000E+01 0. -1.
         15    1    1    2    0    0 -0.50537973579E+01  0.94169089387E+00 -0.69117455500E+02  0.69331147641E+02  0.17770000000E+01 0.  1.
</event>
<event>
 6    1  0.1059789E-002  0.1838126E+03  0.7546771E-02  0.1067415E+00
        -11   -1    0    0    0    0  0.00000000000E+00  0.00000000000E+00  0.18250000000E+03  0.18250000000E+03  0.00000000000E+00 0.  1.
         11   -1    0    0    0    0 -0.00000000000E+00 -0.00000000000E+00 -0.18250000000E+03  0.18250000000E+03  0.00000000000E+00 0. -1.
        -11    1    1    2    0    0 -0.25593519358E+01  0.10115100419E+01  0.18116650510E+03  0.18118740576E+03  0.00000000000E+00 0.  1.
         11    1    1    2    0    0 -0.24677736485E+01  0.14737216030E+01 -0.14426593265E+03  0.14429456360E+03  0.00000000000E+00 0. -1.
        -15    1    1    2    0    0  0.37347380449E+01 -0.10315881660E+01 -0.23506924270E+01  0.48678461659E+01  0.17770000000E+01 0. -1.
         15    1    1    2    0    0  0.12923875394E+01 -0.14536434788E+01 -0.34549880028E+02  0.34650184471E+02  0.17770000000E+01 0. -1.
</event>
<event>
 6    1  0.1059789E-002  0.1838021E+03  0.7546771E-02  0.1067423E+00
        -11   -1    0    0    0    0  0.00000000000E+00  0.00000000000E+00  0.18250000000E+03  0.18250000000E+03  0.00000000000E+00 0.  1.
         11   -1    0    0    0    0 -0.00000000000E+00 -0.00000000000E+00 -0.18250000000E+03  0.18250000000E+03  0.00000000000E+00 0.  1.
        -11    1    1    2    0    0  0.16054102367E+01  0.21216623248E+01  0.18117834426E+03  0.18119787863E+03  0.00000000000E+00 0.  1.
         11    1    1    2    0    0  0.31237178021E+01 -0.14441247427E+01 -0.16554872161E+03  0.16558448700E+03  0.00000000000E+00 0.  1.
        -15    1    1    2    0    0 -0.14561233574E+01  0.26912784701E+01 -0.10317929681E+02  0.10907826407E+02  0.17770000000E+01 0. -1.
         15    1    1    2    0    0 -0.32730046814E+01 -0.33688160522E+01 -0.53116929708E+01  0.73098079629E+01  0.17770000000E+01 0.  1.
</event>
<event>
 6    1  0.1059789E-002  0.1870735E+03  0.7546771E-02  0.1064871E+00
        -11   -1    0    0    0    0  0.00000000000E+00  0.00000000000E+00  0.18250000000E+03  0.18250000000E+03  0.00000000000E+00 0. -1.
         11   -1    0    0    0    0 -0.00000000000E+00 -0.00000000000E+00 -0.18250000000E+03  0.18250000000E+03  0.00000000000E+00 0. -1.
        -11    1    1    2    0    0 -0.95464872662E+01 -0.10782825975E+00  0.17767013305E+03  0.17792645453E+03  0.00000000000E+00 0. -1.
         11    1    1    2    0    0  0.53107361452E+01  0.31391752065E+01 -0.16615057537E+03  0.16626506559E+03  0.00000000000E+00 0. -1.
        -15    1    1    2    0    0  0.70875206867E+01 -0.22918298519E+01  0.10926278775E+01  0.77354378178E+01  0.17770000000E+01 0. -1.
         15    1    1    2    0    0 -0.28517695656E+01 -0.73951709491E+00 -0.12612185552E+02  0.13073042055E+02  0.17770000000E+01 0.  1.
</event>
<event>
 6    1  0.1059789E-002  0.1828058E+03  0.7546771E-02  0.1068212E+00
        -11   -1    0    0    0    0  0.00000000000E+00  0.00000000000E+00  0.18250000000E+03  0.18250000000E+03  0.00000000000E+00 0.  1.
         11   -1    0    0    0    0 -0.00000000000E+00 -0.00000000000E+00 -0.18250000000E+03  0.18250000000E+03  0.00000000000E+00 0. -1.
        -11    1    1    2    0    0  0.19713398293E+00  0.27290877380E+01  0.16244314778E+03  0.16246619046E+03  0.00000000000E+00 0.  1.
         11    1    1    2    0    0 -0.28894166604E+01 -0.17060331807E+01 -0.18216328353E+03  0.18219418526E+03  0.00000000000E+00 0. -1.
        -15    1    1    2    0    0  0.20680798168E+01  0.14385488181E+00  0.12077807679E+02  0.12382601329E+02  0.17770000000E+01 0. -1.
         15    1    1    2    0    0  0.62420286076E+00 -0.11669094391E+01  0.76423280714E+01  0.79570229484E+01  0.17770000000E+01 0.  1.
</event>
<event>
 6    1  0.1059789E-002  0.1854624E+03  0.7546771E-02  0.1066121E+00
        -11   -1    0    0    0    0  0.00000000000E+00  0.00000000000E+00  0.18250000000E+03  0.18250000000E+03  0.00000000000E+00 0.  1.
         11   -1    0    0    0    0 -0.00000000000E+00 -0.00000000000E+00 -0.18250000000E+03  0.18250000000E+03  0.00000000000E+00 0.  1.
        -11    1    1    2    0    0 -0.14460741497E+01  0.39060458276E+01  0.16591204666E+03  0.16596432012E+03  0.00000000000E+00 0.  1.
         11    1    1    2    0    0  0.19210162508E+01  0.19675847589E+01 -0.17951657423E+03  0.17953763427E+03  0.00000000000E+00 0.  1.
        -15    1    1    2    0    0 -0.30678896528E+01 -0.77949891960E+01  0.13277450127E+02  0.15799437153E+02  0.17770000000E+01 0. -1.
         15    1    1    2    0    0  0.25929475517E+01  0.19213586095E+01  0.32707744386E+00  0.36986084635E+01  0.17770000000E+01 0.  1.
</event>
<event>
 6    1  0.1059789E-002  0.1688297E+03  0.7546771E-02  0.1079889E+00
        -11   -1    0    0    0    0  0.00000000000E+00  0.00000000000E+00  0.18250000000E+03  0.18250000000E+03  0.00000000000E+00 0.  1.
         11   -1    0    0    0    0 -0.00000000000E+00 -0.00000000000E+00 -0.18250000000E+03  0.18250000000E+03  0.00000000000E+00 0. -1.
        -11    1    1    2    0    0  0.60101774182E+01 -0.44759219316E+01  0.16612158804E+03  0.16629052325E+03  0.00000000000E+00 0.  1.
         11    1    1    2    0    0 -0.34647168815E+01 -0.40980385929E+01 -0.17144535370E+03  0.17152931962E+03  0.00000000000E+00 0. -1.
        -15    1    1    2    0    0 -0.29019411270E+01  0.54419909654E+01  0.15287240686E+02  0.16579927164E+02  0.17770000000E+01 0.  1.
         15    1    1    2    0    0  0.35648059026E+00  0.31319695590E+01 -0.99634750278E+01  0.10600229967E+02  0.17770000000E+01 0. -1.
</event>
<event>
 6    1  0.1059789E-002  0.1828305E+03  0.7546771E-02  0.1068192E+00
        -11   -1    0    0    0    0  0.00000000000E+00  0.00000000000E+00  0.18250000000E+03  0.18250000000E+03  0.00000000000E+00 0. -1.
         11   -1    0    0    0    0 -0.00000000000E+00 -0.00000000000E+00 -0.18250000000E+03  0.18250000000E+03  0.00000000000E+00 0.  1.
        -11    1    1    2    0    0  0.25080737223E+01  0.24358054513E+01  0.18213595515E+03  0.18216950826E+03  0.00000000000E+00 0. -1.
         11    1    1    2    0    0  0.22598301161E+01 -0.19169964501E+01 -0.12434011797E+03  0.12437542621E+03  0.00000000000E+00 0.  1.
        -15    1    1    2    0    0 -0.32233599671E+01 -0.25791859224E+01 -0.18630173340E+02  0.19164637674E+02  0.17770000000E+01 0. -1.
         15    1    1    2    0    0 -0.15445438713E+01  0.20603769211E+01 -0.39165663834E+02  0.39290427859E+02  0.17770000000E+01 0.  1.
</event>
<event>
 6    1  0.1059789E-002  0.1827565E+03  0.7546771E-02  0.1068251E+00
        -11   -1    0    0    0    0  0.00000000000E+00  0.00000000000E+00  0.18250000000E+03  0.18250000000E+03  0.00000000000E+00 0. -1.
         11   -1    0    0    0    0 -0.00000000000E+00 -0.00000000000E+00 -0.18250000000E+03  0.18250000000E+03  0.00000000000E+00 0.  1.
        -11    1    1    2    0    0 -0.36539381797E+01  0.24963697927E+01  0.10340111177E+03  0.10349576340E+03  0.00000000000E+00 0. -1.
         11    1    1    2    0    0  0.47506766711E+01 -0.87958398191E-02 -0.18218156667E+03  0.18224349711E+03  0.00000000000E+00 0.  1.
        -15    1    1    2    0    0  0.26691826912E+01 -0.31000304358E+01  0.44465634803E+02  0.44688758456E+02  0.17770000000E+01 0. -1.
         15    1    1    2    0    0 -0.37659211825E+01  0.61245648290E+00  0.34314820097E+02  0.34571981034E+02  0.17770000000E+01 0.  1.
</event>
<event>
 6    1  0.1059789E-002  0.1933459E+03  0.7546771E-02  0.1060135E+00
        -11   -1    0    0    0    0  0.00000000000E+00  0.00000000000E+00  0.18250000000E+03  0.18250000000E+03  0.00000000000E+00 0. -1.
         11   -1    0    0    0    0 -0.00000000000E+00 -0.00000000000E+00 -0.18250000000E+03  0.18250000000E+03  0.00000000000E+00 0.  1.
        -11    1    1    2    0    0 -0.14910331698E+02 -0.11396537616E+02  0.17062514770E+03  0.17165412925E+03  0.00000000000E+00 0. -1.
         11    1    1    2    0    0  0.67968217810E+01 -0.43430393080E+01 -0.12540025715E+03  0.12565939388E+03  0.00000000000E+00 0.  1.
        -15    1    1    2    0    0 -0.14032206931E+02 -0.21133205849E+00 -0.36232671858E+02  0.38896166027E+02  0.17770000000E+01 0. -1.
         15    1    1    2    0    0  0.22145716848E+02  0.15950908982E+02 -0.89922186945E+01  0.28790310838E+02  0.17770000000E+01 0.  1.
</event>
<event>
 6    1  0.1059789E-002  0.1828413E+03  0.7546771E-02  0.1068183E+00
        -11   -1    0    0    0    0  0.00000000000E+00  0.00000000000E+00  0.18250000000E+03  0.18250000000E+03  0.00000000000E+00 0. -1.
         11   -1    0    0    0    0 -0.00000000000E+00 -0.00000000000E+00 -0.18250000000E+03  0.18250000000E+03  0.00000000000E+00 0. -1.
        -11    1    1    2    0    0 -0.54058273815E+00 -0.14654475920E+01  0.52369340866E+02  0.52392629530E+02  0.00000000000E+00 0. -1.
         11    1    1    2    0    0  0.22377032405E+01  0.16840331758E+01 -0.18213718176E+03  0.18215871174E+03  0.00000000000E+00 0. -1.
        -15    1    1    2    0    0 -0.52117544561E+01 -0.14097548860E-01  0.11590698763E+03  0.11603770979E+03  0.17770000000E+01 0. -1.
         15    1    1    2    0    0  0.35146339537E+01 -0.20448803496E+00  0.13860853259E+02  0.14410948937E+02  0.17770000000E+01 0. -1.
</event>
<event>
 6    1  0.1059789E-002  0.1806821E+03  0.7546771E-02  0.1069911E+00
        -11   -1    0    0    0    0  0.00000000000E+00  0.00000000000E+00  0.18250000000E+03  0.18250000000E+03  0.00000000000E+00 0.  1.
         11   -1    0    0    0    0 -0.00000000000E+00 -0.00000000000E+00 -0.18250000000E+03  0.18250000000E+03  0.00000000000E+00 0.  1.
        -11    1    1    2    0    0  0.49717500204E+01 -0.33927131032E+00  0.18194481412E+03  0.18201304566E+03  0.00000000000E+00 0.  1.
         11    1    1    2    0    0 -0.10586202131E+01 -0.17424635659E+01 -0.34929625648E+01  0.40444583708E+01  0.00000000000E+00 0.  1.
        -15    1    1    2    0    0  0.25905017599E+01  0.48762795958E+01 -0.66200876548E+02  0.66454515172E+02  0.17770000000E+01 0. -1.
         15    1    1    2    0    0 -0.65036315671E+01 -0.27945447196E+01 -0.11225097501E+03  0.11248798080E+03  0.17770000000E+01 0.  1.
</event>
<event>
 6    1  0.1059789E-002  0.1831961E+03  0.7546771E-02  0.1067902E+00
        -11   -1    0    0    0    0  0.00000000000E+00  0.00000000000E+00  0.18250000000E+03  0.18250000000E+03  0.00000000000E+00 0.  1.
         11   -1    0    0    0    0 -0.00000000000E+00 -0.00000000000E+00 -0.18250000000E+03  0.18250000000E+03  0.00000000000E+00 0. -1.
        -11    1    1    2    0    0  0.25458702045E+01  0.12002113405E+01  0.18178215121E+03  0.18180393962E+03  0.00000000000E+00 0.  1.
         11    1    1    2    0    0 -0.70491286174E+00 -0.11985747248E+01 -0.19581200902E+02  0.19630509731E+02  0.00000000000E+00 0. -1.
        -15    1    1    2    0    0 -0.35026896037E+01 -0.69710662113E+00 -0.52468326553E+01  0.65910374004E+01  0.17770000000E+01 0. -1.
         15    1    1    2    0    0  0.16617322610E+01  0.69547000548E+00 -0.15695411765E+03  0.15697451325E+03  0.17770000000E+01 0. -1.
</event>
<event>
 6    1  0.1059789E-002  0.1847730E+03  0.7546771E-02  0.1066660E+00
        -11   -1    0    0    0    0  0.00000000000E+00  0.00000000000E+00  0.18250000000E+03  0.18250000000E+03  0.00000000000E+00 0. -1.
         11   -1    0    0    0    0 -0.00000000000E+00 -0.00000000000E+00 -0.18250000000E+03  0.18250000000E+03  0.00000000000E+00 0.  1.
        -11    1    1    2    0    0 -0.60795578503E+01  0.94458433666E+00  0.18012199918E+03  0.18022704529E+03  0.00000000000E+00 0. -1.
         11    1    1    2    0    0  0.41593799682E+01  0.13445596497E+01 -0.16196760088E+03  0.16202657812E+03  0.00000000000E+00 0.  1.
        -15    1    1    2    0    0 -0.34934135510E+01 -0.51217357850E+01 -0.13167114586E+02  0.14661744480E+02  0.17770000000E+01 0.  1.
         15    1    1    2    0    0  0.54135914330E+01  0.28325917986E+01 -0.49872837166E+01  0.80846321110E+01  0.17770000000E+01 0. -1.
</event>
<event>
 6    1  0.1059789E-002  0.1844280E+03  0.7546771E-02  0.1066930E+00
        -11   -1    0    0    0    0  0.00000000000E+00  0.00000000000E+00  0.18250000000E+03  0.18250000000E+03  0.00000000000E+00 0.  1.
         11   -1    0    0    0    0 -0.00000000000E+00 -0.00000000000E+00 -0.18250000000E+03  0.18250000000E+03  0.00000000000E+00 0. -1.
        -11    1    1    2    0    0 -0.58615214418E+00  0.13868783741E+01  0.77819088303E+02  0.77833652813E+02  0.00000000000E+00 0.  1.
         11    1    1    2    0    0 -0.40819011909E+01 -0.56892677455E+01 -0.18043621727E+03  0.18057203047E+03  0.00000000000E+00 0. -1.
        -15    1    1    2    0    0  0.60701911101E+00  0.29385542211E+01 -0.36631509626E+00  0.35064923872E+01  0.17770000000E+01 0. -1.
         15    1    1    2    0    0  0.40610342240E+01  0.13638351503E+01  0.10298344406E+03  0.10308782433E+03  0.17770000000E+01 0.  1.
</event>
<event>
 6    1  0.1059789E-002  0.1989167E+03  0.7546771E-02  0.1056090E+00
        -11   -1    0    0    0    0  0.00000000000E+00  0.00000000000E+00  0.18250000000E+03  0.18250000000E+03  0.00000000000E+00 0.  1.
         11   -1    0    0    0    0 -0.00000000000E+00 -0.00000000000E+00 -0.18250000000E+03  0.18250000000E+03  0.00000000000E+00 0.  1.
        -11    1    1    2    0    0 -0.21366341552E+01  0.14584731610E+02  0.16542785348E+03  0.16608327523E+03  0.00000000000E+00 0.  1.
         11    1    1    2    0    0  0.37271610265E+00  0.13836700846E+01 -0.39848892307E+02  0.39874649569E+02  0.00000000000E+00 0.  1.
        -15    1    1    2    0    0  0.38111232084E+01 -0.10679155017E+02  0.14692958637E+02  0.18644296031E+02  0.17770000000E+01 0. -1.
         15    1    1    2    0    0 -0.20472051559E+01 -0.52892466773E+01 -0.14027191981E+03  0.14039777917E+03  0.17770000000E+01 0.  1.
</event>
<event>
 6    1  0.1059789E-002  0.1835887E+03  0.7546771E-02  0.1067591E+00
        -11   -1    0    0    0    0  0.00000000000E+00  0.00000000000E+00  0.18250000000E+03  0.18250000000E+03  0.00000000000E+00 0. -1.
         11   -1    0    0    0    0 -0.00000000000E+00 -0.00000000000E+00 -0.18250000000E+03  0.18250000000E+03  0.00000000000E+00 0. -1.
        -11    1    1    2    0    0 -0.17750301183E+01  0.20473504745E+01  0.18139105562E+03  0.18141129358E+03  0.00000000000E+00 0. -1.
         11    1    1    2    0    0  0.19706604068E+01 -0.31575197869E+01 -0.16048893473E+03  0.16053208901E+03  0.00000000000E+00 0. -1.
        -15    1    1    2    0    0  0.36084588521E+01 -0.19865471551E+01 -0.10549318313E+02  0.11463559253E+02  0.17770000000E+01 0.  1.
         15    1    1    2    0    0 -0.38040891406E+01  0.30967164675E+01 -0.10352802586E+02  0.11593058158E+02  0.17770000000E+01 0. -1.
</event>
<event>
 6    1  0.1059789E-002  0.1842590E+03  0.7546771E-02  0.1067063E+00
        -11   -1    0    0    0    0  0.00000000000E+00  0.00000000000E+00  0.18250000000E+03  0.18250000000E+03  0.00000000000E+00 0. -1.
         11   -1    0    0    0    0 -0.00000000000E+00 -0.00000000000E+00 -0.18250000000E+03  0.18250000000E+03  0.00000000000E+00 0. -1.
        -11    1    1    2    0    0  0.29067901906E+01  0.42947229957E+00  0.18071709657E+03  0.18074098281E+03  0.00000000000E+00 0. -1.
         11    1    1    2    0    0 -0.57410182115E+00 -0.33503360924E+01 -0.17267148813E+03  0.17270494249E+03  0.00000000000E+00 0. -1.
        -15    1    1    2    0    0 -0.35678138033E+01  0.12826657336E+01 -0.14655904113E+01  0.44362383810E+01  0.17770000000E+01 0. -1.
         15    1    1    2    0    0  0.12351254338E+01  0.16381980592E+01 -0.65800180238E+01  0.71178363224E+01  0.17770000000E+01 0.  1.
</event>
<event>
 6    1  0.1059789E-002  0.1842583E+03  0.7546771E-02  0.1067064E+00
        -11   -1    0    0    0    0  0.00000000000E+00  0.00000000000E+00  0.18250000000E+03  0.18250000000E+03  0.00000000000E+00 0. -1.
         11   -1    0    0    0    0 -0.00000000000E+00 -0.00000000000E+00 -0.18250000000E+03  0.18250000000E+03  0.00000000000E+00 0. -1.
        -11    1    1    2    0    0  0.47556412361E+01 -0.21738235888E+01  0.18066603096E+03  0.18074168411E+03  0.00000000000E+00 0. -1.
         11    1    1    2    0    0 -0.63778670678E+00 -0.29633809401E+01 -0.13935183929E+03  0.13938480373E+03  0.00000000000E+00 0. -1.
        -15    1    1    2    0    0  0.58380833857E+01  0.90371318494E+00 -0.19608957081E+02  0.20556479317E+02  0.17770000000E+01 0. -1.
         15    1    1    2    0    0 -0.99559379151E+01  0.42334913440E+01 -0.21705234591E+02  0.24317032845E+02  0.17770000000E+01 0.  1.
</event>
<event>
 6    1  0.1059789E-002  0.1847210E+03  0.7546771E-02  0.1066700E+00
        -11   -1    0    0    0    0  0.00000000000E+00  0.00000000000E+00  0.18250000000E+03  0.18250000000E+03  0.00000000000E+00 0.  1.
         11   -1    0    0    0    0 -0.00000000000E+00 -0.00000000000E+00 -0.18250000000E+03  0.18250000000E+03  0.00000000000E+00 0.  1.
        -11    1    1    2    0    0 -0.60846241194E+01  0.73195942981E+01  0.18002750096E+03  0.18027895111E+03  0.00000000000E+00 0.  1.
         11    1    1    2    0    0 -0.20216244769E+01  0.14443996145E+00 -0.14959312997E+03  0.14960685935E+03  0.00000000000E+00 0.  1.
        -15    1    1    2    0    0  0.11577437724E+02 -0.51018782578E+01 -0.20070247329E+02  0.23791569575E+02  0.17770000000E+01 0.  1.
         15    1    1    2    0    0 -0.34711891282E+01 -0.23621560018E+01 -0.10364123653E+02  0.11322619972E+02  0.17770000000E+01 0. -1.
</event>
<event>
 6    1  0.1059789E-002  0.1827305E+03  0.7546771E-02  0.1068271E+00
        -11   -1    0    0    0    0  0.00000000000E+00  0.00000000000E+00  0.18250000000E+03  0.18250000000E+03  0.00000000000E+00 0.  1.
         11   -1    0    0    0    0 -0.00000000000E+00 -0.00000000000E+00 -0.18250000000E+03  0.18250000000E+03  0.00000000000E+00 0. -1.
        -11    1    1    2    0    0  0.28649907231E+01  0.21281880596E+01  0.18223452096E+03  0.18226946532E+03  0.00000000000E+00 0.  1.
         11    1    1    2    0    0 -0.16875826784E+01  0.11924765203E+01 -0.13668665140E+03  0.13670226994E+03  0.00000000000E+00 0. -1.
        -15    1    1    2    0    0  0.16239757783E+01 -0.14839699538E+01 -0.18055511328E+02  0.18275630836E+02  0.17770000000E+01 0. -1.
         15    1    1    2    0    0 -0.28013838230E+01 -0.18366946262E+01 -0.27492358231E+02  0.27752633903E+02  0.17770000000E+01 0.  1.
</event>
<event>
 6    1  0.1059789E-002  0.1827130E+03  0.7546771E-02  0.1068285E+00
        -11   -1    0    0    0    0  0.00000000000E+00  0.00000000000E+00  0.18250000000E+03  0.18250000000E+03  0.00000000000E+00 0. -1.
         11   -1    0    0    0    0 -0.00000000000E+00 -0.00000000000E+00 -0.18250000000E+03  0.18250000000E+03  0.00000000000E+00 0. -1.
        -11    1    1    2    0    0 -0.20682698867E+01  0.12864950036E+01  0.14578788024E+03  0.14580822622E+03  0.00000000000E+00 0. -1.
         11    1    1    2    0    0  0.23607201466E+01  0.19742643405E+01 -0.18226106063E+03  0.18228703997E+03  0.00000000000E+00 0. -1.
        -15    1    1    2    0    0  0.11759919440E+01 -0.18557130001E+01  0.15141522841E+02  0.15402924097E+02  0.17770000000E+01 0. -1.
         15    1    1    2    0    0 -0.14684422038E+01 -0.14050463440E+01  0.21331657556E+02  0.21501809711E+02  0.17770000000E+01 0.  1.
</event>
<event>
 6    1  0.1059789E-002  0.1933139E+03  0.7546771E-02  0.1060159E+00
        -11   -1    0    0    0    0  0.00000000000E+00  0.00000000000E+00  0.18250000000E+03  0.18250000000E+03  0.00000000000E+00 0. -1.
         11   -1    0    0    0    0 -0.00000000000E+00 -0.00000000000E+00 -0.18250000000E+03  0.18250000000E+03  0.00000000000E+00 0.  1.
        -11    1    1    2    0    0  0.25606842609E+01  0.71550684995E+00  0.17166546409E+03  0.17168605248E+03  0.00000000000E+00 0. -1.
         11    1    1    2    0    0 -0.10256108663E+02 -0.29175917211E+01 -0.14148090246E+03  0.14188215486E+03  0.00000000000E+00 0.  1.
        -15    1    1    2    0    0  0.15741964622E+01  0.14019541526E+02 -0.34510716612E+02  0.37325231803E+02  0.17770000000E+01 0.  1.
         15    1    1    2    0    0  0.61212279394E+01 -0.11817456654E+02  0.43261549814E+01  0.14106560856E+02  0.17770000000E+01 0. -1.
</event>
<event>
 6    1  0.1059789E-002  0.1885675E+03  0.7546771E-02  0.1063725E+00
        -11   -1    0    0    0    0  0.00000000000E+00  0.00000000000E+00  0.18250000000E+03  0.18250000000E+03  0.00000000000E+00 0.  1.
         11   -1    0    0    0    0 -0.00000000000E+00 -0.00000000000E+00 -0.18250000000E+03  0.18250000000E+03  0.00000000000E+00 0. -1.
        -11    1    1    2    0    0  0.28626866998E+00  0.59426044449E+01  0.17633215613E+03  0.17643249639E+03  0.00000000000E+00 0.  1.
         11    1    1    2    0    0 -0.21679693043E+01 -0.13671575354E+01 -0.16180452324E+03  0.16182482181E+03  0.00000000000E+00 0. -1.
        -15    1    1    2    0    0  0.68133859337E+00 -0.39393006081E+00 -0.19676187064E+02  0.19771936413E+02  0.17770000000E+01 0. -1.
         15    1    1    2    0    0  0.12003620409E+01 -0.41815168486E+01  0.51485541736E+01  0.69707453879E+01  0.17770000000E+01 0. -1.
</event>
<event>
 6    1  0.1059789E-002  0.1910203E+03  0.7546771E-02  0.1061868E+00
        -11   -1    0    0    0    0  0.00000000000E+00  0.00000000000E+00  0.18250000000E+03  0.18250000000E+03  0.00000000000E+00 0.  1.
         11   -1    0    0    0    0 -0.00000000000E+00 -0.00000000000E+00 -0.18250000000E+03  0.18250000000E+03  0.00000000000E+00 0. -1.
        -11    1    1    2    0    0 -0.36806949351E+01  0.14185734929E+01  0.17393497119E+03  0.17397969442E+03  0.00000000000E+00 0.  1.
         11    1    1    2    0    0  0.47250125082E+01 -0.22368439976E+01 -0.17259428792E+03  0.17267344161E+03  0.00000000000E+00 0. -1.
        -15    1    1    2    0    0 -0.27884668789E+01 -0.24499139320E+01  0.75242425907E+01  0.85761052567E+01  0.17770000000E+01 0.  1.
         15    1    1    2    0    0  0.17441493058E+01  0.32681844367E+01 -0.88649258638E+01  0.97707587159E+01  0.17770000000E+01 0. -1.
</event>
<event>
 6    1  0.1059789E-002  0.1835140E+03  0.7546771E-02  0.1067651E+00
        -11   -1    0    0    0    0  0.00000000000E+00  0.00000000000E+00  0.18250000000E+03  0.18250000000E+03  0.00000000000E+00 0.  1.
         11   -1    0    0    0    0 -0.00000000000E+00 -0.00000000000E+00 -0.18250000000E+03  0.18250000000E+03  0.00000000000E+00 0.  1.
        -11    1    1    2    0    0  0.31529386701E+00 -0.32625157058E+01  0.18145642290E+03  0.18148602378E+03  0.00000000000E+00 0.  1.
         11    1    1    2    0    0 -0.16576400797E+01  0.17338331758E+01 -0.14404815767E+03  0.14406812859E+03  0.00000000000E+00 0.  1.
        -15    1    1    2    0    0  0.81244434170E+00 -0.51589753212E+01 -0.14713636539E+02  0.15713813076E+02  0.17770000000E+01 0. -1.
         15    1    1    2    0    0  0.52990187102E+00  0.66876578512E+01 -0.22694628691E+02  0.23732034551E+02  0.17770000000E+01 0.  1.
</event>
<event>
 6    1  0.1059789E-002  0.1825901E+03  0.7546771E-02  0.1068383E+00
        -11   -1    0    0    0    0  0.00000000000E+00  0.00000000000E+00  0.18250000000E+03  0.18250000000E+03  0.00000000000E+00 0.  1.
         11   -1    0    0    0    0 -0.00000000000E+00 -0.00000000000E+00 -0.18250000000E+03  0.18250000000E+03  0.00000000000E+00 0.  1.
        -11    1    1    2    0    0 -0.35970199004E+00  0.74840740861E+00  0.41733874291E+02  0.41742134140E+02  0.00000000000E+00 0.  1.
         11    1    1    2    0    0 -0.24034188328E+01  0.15324734463E+01 -0.18238760774E+03  0.18240988009E+03  0.00000000000E+00 0.  1.
        -15    1    1    2    0    0 -0.10370015493E+01 -0.19751615716E+01  0.78681036167E+02  0.78732711224E+02  0.17770000000E+01 0.  1.
         15    1    1    2    0    0  0.38001223721E+01 -0.30571928331E+00  0.61972697283E+02  0.62115274546E+02  0.17770000000E+01 0.  1.
</event>
<event>
 6    1  0.1059789E-002  0.1901526E+03  0.7546771E-02  0.1062521E+00
        -11   -1    0    0    0    0  0.00000000000E+00  0.00000000000E+00  0.18250000000E+03  0.18250000000E+03  0.00000000000E+00 0. -1.
         11   -1    0    0    0    0 -0.00000000000E+00 -0.00000000000E+00 -0.18250000000E+03  0.18250000000E+03  0.00000000000E+00 0.  1.
        -11    1    1    2    0    0  0.24065990185E+01  0.21004587599E+01  0.17481819595E+03  0.17484737711E+03  0.00000000000E+00 0. -1.
         11    1    1    2    0    0 -0.50307897242E+00 -0.88712946529E+00 -0.67620749080E+02  0.67628439234E+02  0.00000000000E+00 0.  1.
        -15    1    1    2    0    0 -0.63591410982E+01 -0.93282163851E+01  0.30865652886E+01  0.11838028160E+02  0.17770000000E+01 0. -1.
         15    1    1    2    0    0  0.44556210521E+01  0.81148870905E+01 -0.11028401216E+03  0.11068615550E+03  0.17770000000E+01 0.  1.
</event>
<event>
 6    1  0.1059789E-002  0.1904224E+03  0.7546771E-02  0.1062318E+00
        -11   -1    0    0    0    0  0.00000000000E+00  0.00000000000E+00  0.18250000000E+03  0.18250000000E+03  0.00000000000E+00 0. -1.
         11   -1    0    0    0    0 -0.00000000000E+00 -0.00000000000E+00 -0.18250000000E+03  0.18250000000E+03  0.00000000000E+00 0.  1.
        -11    1    1    2    0    0  0.46291517390E+01 -0.41114830883E+01  0.14388276309E+03  0.14401591180E+03  0.00000000000E+00 0. -1.
         11    1    1    2    0    0  0.48357980599E+01 -0.58717718035E+01 -0.17441184209E+03  0.17457764264E+03  0.00000000000E+00 0.  1.
        -15    1    1    2    0    0 -0.16622648632E+02  0.20048807094E+01  0.33923184906E+01  0.17175492655E+02  0.17770000000E+01 0.  1.
         15    1    1    2    0    0  0.71576988334E+01  0.79783741824E+01  0.27136760519E+02  0.29230952903E+02  0.17770000000E+01 0. -1.
</event>
<event>
 6    1  0.1059789E-002  0.1844528E+03  0.7546771E-02  0.1066911E+00
        -11   -1    0    0    0    0  0.00000000000E+00  0.00000000000E+00  0.18250000000E+03  0.18250000000E+03  0.00000000000E+00 0.  1.
         11   -1    0    0    0    0 -0.00000000000E+00 -0.00000000000E+00 -0.18250000000E+03  0.18250000000E+03  0.00000000000E+00 0. -1.
        -11    1    1    2    0    0  0.28989537934E+01 -0.89043633285E+00  0.18052170239E+03  0.18054717346E+03  0.00000000000E+00 0.  1.
         11    1    1    2    0    0  0.54241527141E+01 -0.12972670343E+01 -0.11919178442E+03  0.11932219328E+03  0.00000000000E+00 0. -1.
        -15    1    1    2    0    0 -0.35000580907E+01  0.55555593990E+01 -0.49400643721E+01  0.84069383175E+01  0.17770000000E+01 0. -1.
         15    1    1    2    0    0 -0.48230484168E+01 -0.33678560318E+01 -0.56389853600E+02  0.56723694946E+02  0.17770000000E+01 0.  1.
</event>
<event>
 6    1  0.1059789E-002  0.1715214E+03  0.7546771E-02  0.1077546E+00
        -11   -1    0    0    0    0  0.00000000000E+00  0.00000000000E+00  0.18250000000E+03  0.18250000000E+03  0.00000000000E+00 0.  1.
         11   -1    0    0    0    0 -0.00000000000E+00 -0.00000000000E+00 -0.18250000000E+03  0.18250000000E+03  0.00000000000E+00 0. -1.
        -11    1    1    2    0    0 -0.14979225633E+01 -0.19353235619E+01  0.17143325179E+03  0.17145071907E+03  0.00000000000E+00 0.  1.
         11    1    1    2    0    0  0.13928363684E+00  0.29082931396E+01 -0.17157148526E+03  0.17159618913E+03  0.00000000000E+00 0. -1.
        -15    1    1    2    0    0 -0.36902234669E+00 -0.16431462787E+01  0.10755084432E+02  0.11030216559E+02  0.17770000000E+01 0.  1.
         15    1    1    2    0    0  0.17276612732E+01  0.67017670100E+00 -0.10616850964E+02  0.10922875247E+02  0.17770000000E+01 0. -1.
</event>
<event>
 6    1  0.1059789E-002  0.1831933E+03  0.7546771E-02  0.1067904E+00
        -11   -1    0    0    0    0  0.00000000000E+00  0.00000000000E+00  0.18250000000E+03  0.18250000000E+03  0.00000000000E+00 0. -1.
         11   -1    0    0    0    0 -0.00000000000E+00 -0.00000000000E+00 -0.18250000000E+03  0.18250000000E+03  0.00000000000E+00 0.  1.
        -11    1    1    2    0    0  0.41732257445E+01  0.87782435870E+00  0.18175669028E+03  0.18180671289E+03  0.00000000000E+00 0. -1.
         11    1    1    2    0    0 -0.42650397654E+01 -0.26280211503E+01 -0.14668983265E+03  0.14677535236E+03  0.00000000000E+00 0.  1.
        -15    1    1    2    0    0  0.29569575477E+01  0.26600022944E+01 -0.29681526774E+02  0.29999499509E+02  0.17770000000E+01 0. -1.
         15    1    1    2    0    0 -0.28651435268E+01 -0.90980550279E+00 -0.53853308600E+01  0.64184352418E+01  0.17770000000E+01 0.  1.
</event>
<event>
 6    1  0.1059789E-002  0.1884182E+03  0.7546771E-02  0.1063839E+00
        -11   -1    0    0    0    0  0.00000000000E+00  0.00000000000E+00  0.18250000000E+03  0.18250000000E+03  0.00000000000E+00 0. -1.
         11   -1    0    0    0    0 -0.00000000000E+00 -0.00000000000E+00 -0.18250000000E+03  0.18250000000E+03  0.00000000000E+00 0. -1.
        -11    1    1    2    0    0  0.61791418742E+01  0.37003937046E+01  0.14178841185E+03  0.14197122400E+03  0.00000000000E+00 0. -1.
         11    1    1    2    0    0  0.27571989266E+01  0.44420903656E+01 -0.17650438114E+03  0.17658179655E+03  0.00000000000E+00 0. -1.
        -15    1    1    2    0    0 -0.43399070750E+01 -0.29470047890E+01  0.38118544036E+02  0.38518836419E+02  0.17770000000E+01 0.  1.
         15    1    1    2    0    0 -0.45964337257E+01 -0.51954792811E+01 -0.34025747552E+01  0.79281430311E+01  0.17770000000E+01 0. -1.
</event>
<event>
 6    1  0.1059789E-002  0.1768623E+03  0.7546771E-02  0.1073033E+00
        -11   -1    0    0    0    0  0.00000000000E+00  0.00000000000E+00  0.18250000000E+03  0.18250000000E+03  0.00000000000E+00 0.  1.
         11   -1    0    0    0    0 -0.00000000000E+00 -0.00000000000E+00 -0.18250000000E+03  0.18250000000E+03  0.00000000000E+00 0. -1.
        -11    1    1    2    0    0  0.29388500226E+01  0.41322791362E+01  0.17694703650E+03  0.17701967771E+03  0.00000000000E+00 0.  1.
         11    1    1    2    0    0  0.81922961117E+00 -0.77963670606E+01 -0.17657016834E+03  0.17674410549E+03  0.00000000000E+00 0. -1.
        -15    1    1    2    0    0 -0.45791962923E+01 -0.63779736766E+00 -0.30395990780E+01  0.58114297484E+01  0.17770000000E+01 0. -1.
         15    1    1    2    0    0  0.82111665850E+00  0.43018852920E+01  0.26627309228E+01  0.54247870557E+01  0.17770000000E+01 0. -1.
</event>
<event>
 6    1  0.1059789E-002  0.1825563E+03  0.7546771E-02  0.1068410E+00
        -11   -1    0    0    0    0  0.00000000000E+00  0.00000000000E+00  0.18250000000E+03  0.18250000000E+03  0.00000000000E+00 0. -1.
         11   -1    0    0    0    0 -0.00000000000E+00 -0.00000000000E+00 -0.18250000000E+03  0.18250000000E+03  0.00000000000E+00 0. -1.
        -11    1    1    2    0    0 -0.27236743499E+01 -0.74312924203E+00  0.18242189243E+03  0.18244373785E+03  0.00000000000E+00 0. -1.
         11    1    1    2    0    0  0.12214585897E+01  0.90111562433E+00 -0.83849669534E+02  0.83863407106E+02  0.00000000000E+00 0. -1.
        -15    1    1    2    0    0 -0.66239110374E-01 -0.13121053720E+01 -0.50629015691E+02  0.50677223355E+02  0.17770000000E+01 0.  1.
         15    1    1    2    0    0  0.15684548705E+01  0.11541189897E+01 -0.47943207201E+02  0.48015631694E+02  0.17770000000E+01 0.  1.
</event>
<event>
 6    1  0.1059789E-002  0.1829322E+03  0.7546771E-02  0.1068111E+00
        -11   -1    0    0    0    0  0.00000000000E+00  0.00000000000E+00  0.18250000000E+03  0.18250000000E+03  0.00000000000E+00 0. -1.
         11   -1    0    0    0    0 -0.00000000000E+00 -0.00000000000E+00 -0.18250000000E+03  0.18250000000E+03  0.00000000000E+00 0.  1.
        -11    1    1    2    0    0 -0.13893605946E+01  0.18157867111E+00  0.84678191559E+02  0.84689783442E+02  0.00000000000E+00 0. -1.
         11    1    1    2    0    0 -0.17194018763E+00  0.63319640596E+01 -0.18195759585E+03  0.18206781709E+03  0.00000000000E+00 0.  1.
        -15    1    1    2    0    0 -0.25340699345E+01 -0.28043329389E+01  0.10971648271E+02  0.11739701378E+02  0.17770000000E+01 0.  1.
         15    1    1    2    0    0  0.40953707168E+01 -0.37092097918E+01  0.86307756020E+02  0.86502698090E+02  0.17770000000E+01 0. -1.
</event>
<event>
 6    1  0.1059789E-002  0.1564624E+03  0.7546771E-02  0.1091305E+00
        -11   -1    0    0    0    0  0.00000000000E+00  0.00000000000E+00  0.18250000000E+03  0.18250000000E+03  0.00000000000E+00 0. -1.
         11   -1    0    0    0    0 -0.00000000000E+00 -0.00000000000E+00 -0.18250000000E+03  0.18250000000E+03  0.00000000000E+00 0. -1.
        -11    1    1    2    0    0  0.87278722761E+01 -0.79199809366E+01  0.15518494695E+03  0.15563183997E+03  0.00000000000E+00 0. -1.
         11    1    1    2    0    0 -0.10390196389E+01  0.68722448178E+01 -0.15724235958E+03  0.15739589244E+03  0.00000000000E+00 0. -1.
        -15    1    1    2    0    0 -0.61759571508E+01  0.11613212086E+02  0.24045850752E+02  0.27465793436E+02  0.17770000000E+01 0.  1.
         15    1    1    2    0    0 -0.15128954865E+01 -0.10565475967E+02 -0.21988438122E+02  0.24506474148E+02  0.17770000000E+01 0. -1.
</event>
<event>
 6    1  0.1059789E-002  0.1843856E+03  0.7546771E-02  0.1066964E+00
        -11   -1    0    0    0    0  0.00000000000E+00  0.00000000000E+00  0.18250000000E+03  0.18250000000E+03  0.00000000000E+00 0.  1.
         11   -1    0    0    0    0 -0.00000000000E+00 -0.00000000000E+00 -0.18250000000E+03  0.18250000000E+03  0.00000000000E+00 0. -1.
        -11    1    1    2    0    0  0.34862683773E+01 -0.61073145743E+01  0.56617738843E+02  0.57052797567E+02  0.00000000000E+00 0.  1.
         11    1    1    2    0    0  0.12843417801E+02 -0.60196070250E+00 -0.18015616627E+03  0.18061439583E+03  0.00000000000E+00 0. -1.
        -15    1    1    2    0    0 -0.10782741259E+02  0.22239678403E+01  0.11689031906E+03  0.11742111377E+03  0.17770000000E+01 0.  1.
         15    1    1    2    0    0 -0.55469449195E+01  0.44853074365E+01  0.66481083710E+01  0.99116928248E+01  0.17770000000E+01 0. -1.
</event>
<event>
 6    1  0.1059789E-002  0.1865623E+03  0.7546771E-02  0.1065266E+00
        -11   -1    0    0    0    0  0.00000000000E+00  0.00000000000E+00  0.18250000000E+03  0.18250000000E+03  0.00000000000E+00 0.  1.
         11   -1    0    0    0    0 -0.00000000000E+00 -0.00000000000E+00 -0.18250000000E+03  0.18250000000E+03  0.00000000000E+00 0.  1.
        -11    1    1    2    0    0  0.63088743938E+01  0.41680428341E+01  0.17827740088E+03  0.17843768140E+03  0.00000000000E+00 0.  1.
         11    1    1    2    0    0  0.74745370349E+00  0.27787003731E+01 -0.16065661077E+03  0.16068237752E+03  0.00000000000E+00 0.  1.
        -15    1    1    2    0    0  0.27738178909E+01 -0.35468756264E+01 -0.13854433594E+02  0.14675743647E+02  0.17770000000E+01 0. -1.
         15    1    1    2    0    0 -0.98301459882E+01 -0.33998675808E+01 -0.37663565167E+01  0.11204197433E+02  0.17770000000E+01 0.  1.
</event>
<event>
 6    1  0.1059789E-002  0.1833102E+03  0.7546771E-02  0.1067812E+00
        -11   -1    0    0    0    0  0.00000000000E+00  0.00000000000E+00  0.18250000000E+03  0.18250000000E+03  0.00000000000E+00 0. -1.
         11   -1    0    0    0    0 -0.00000000000E+00 -0.00000000000E+00 -0.18250000000E+03  0.18250000000E+03  0.00000000000E+00 0. -1.
        -11    1    1    2    0    0 -0.96840877984E-01 -0.44109035644E+01  0.11389976816E+03  0.11398518604E+03  0.00000000000E+00 0. -1.
         11    1    1    2    0    0  0.11845260134E+01 -0.31176347227E+01 -0.18165920633E+03  0.18168981808E+03  0.00000000000E+00 0. -1.
        -15    1    1    2    0    0  0.72368499821E+00  0.66647349554E+01  0.65361614253E+02  0.65728538389E+02  0.17770000000E+01 0. -1.
         15    1    1    2    0    0 -0.18113701336E+01  0.86380333177E+00  0.23978239178E+01  0.35964574928E+01  0.17770000000E+01 0.  1.
</event>
<event>
 6    1  0.1059789E-002  0.2236005E+03  0.7546771E-02  0.1039758E+00
        -11   -1    0    0    0    0  0.00000000000E+00  0.00000000000E+00  0.18250000000E+03  0.18250000000E+03  0.00000000000E+00 0.  1.
         11   -1    0    0    0    0 -0.00000000000E+00 -0.00000000000E+00 -0.18250000000E+03  0.18250000000E+03  0.00000000000E+00 0. -1.
        -11    1    1    2    0    0  0.27061139777E+01  0.14957570007E+01  0.14136571282E+03  0.14139952299E+03  0.00000000000E+00 0.  1.
         11    1    1    2    0    0  0.13906494796E+02 -0.32741442948E+01 -0.96584035032E+02  0.97634965260E+02  0.00000000000E+00 0. -1.
        -15    1    1    2    0    0  0.12028788733E+02  0.64829509413E+01  0.36832381816E+02  0.39325595870E+02  0.17770000000E+01 0.  1.
         15    1    1    2    0    0 -0.28641397506E+02 -0.47045636471E+01 -0.81614059600E+02  0.86639915880E+02  0.17770000000E+01 0. -1.
</event>
<event>
 6    1  0.1059789E-002  0.1828523E+03  0.7546771E-02  0.1068175E+00
        -11   -1    0    0    0    0  0.00000000000E+00  0.00000000000E+00  0.18250000000E+03  0.18250000000E+03  0.00000000000E+00 0.  1.
         11   -1    0    0    0    0 -0.00000000000E+00 -0.00000000000E+00 -0.18250000000E+03  0.18250000000E+03  0.00000000000E+00 0.  1.
        -11    1    1    2    0    0  0.71103746460E+00 -0.29155028622E+01  0.18212295747E+03  0.18214768011E+03  0.00000000000E+00 0.  1.
         11    1    1    2    0    0  0.96245439959E+00  0.81474221863E-01 -0.71333742178E+02  0.71340281256E+02  0.00000000000E+00 0.  1.
        -15    1    1    2    0    0 -0.37590993330E+00  0.61374677236E+01 -0.95559025699E+02  0.95773143103E+02  0.17770000000E+01 0.  1.
         15    1    1    2    0    0 -0.12975819309E+01 -0.33034390832E+01 -0.15230189591E+02  0.15738895534E+02  0.17770000000E+01 0.  1.
</event>
<event>
 6    1  0.1059789E-002  0.1844049E+03  0.7546771E-02  0.1066949E+00
        -11   -1    0    0    0    0  0.00000000000E+00  0.00000000000E+00  0.18250000000E+03  0.18250000000E+03  0.00000000000E+00 0.  1.
         11   -1    0    0    0    0 -0.00000000000E+00 -0.00000000000E+00 -0.18250000000E+03  0.18250000000E+03  0.00000000000E+00 0.  1.
        -11    1    1    2    0    0  0.23291822569E+01 -0.81234849084E+00  0.17723619052E+03  0.17725335605E+03  0.00000000000E+00 0.  1.
         11    1    1    2    0    0  0.68944425309E+00 -0.23906591042E+01 -0.18057799791E+03  0.18059513812E+03  0.00000000000E+00 0.  1.
        -15    1    1    2    0    0 -0.26309252649E+01  0.24552409365E+01  0.32812689238E+01  0.51840554160E+01  0.17770000000E+01 0.  1.
         15    1    1    2    0    0 -0.38770124510E+00  0.74776665850E+00  0.60538462113E-01  0.19674504152E+01  0.17770000000E+01 0. -1.
</event>
<event>
 6    1  0.1059789E-002  0.1852870E+03  0.7546771E-02  0.1066258E+00
        -11   -1    0    0    0    0  0.00000000000E+00  0.00000000000E+00  0.18250000000E+03  0.18250000000E+03  0.00000000000E+00 0.  1.
         11   -1    0    0    0    0 -0.00000000000E+00 -0.00000000000E+00 -0.18250000000E+03  0.18250000000E+03  0.00000000000E+00 0. -1.
        -11    1    1    2    0    0  0.84149845512E+00 -0.30929840402E+01  0.17458207609E+03  0.17461150008E+03  0.00000000000E+00 0.  1.
         11    1    1    2    0    0 -0.41047670745E+00  0.44082327800E+01 -0.17965847079E+03  0.17971301325E+03  0.00000000000E+00 0. -1.
        -15    1    1    2    0    0  0.79593992332E+00 -0.48091147871E+01  0.35820391291E+01  0.63047473161E+01  0.17770000000E+01 0.  1.
         15    1    1    2    0    0 -0.12269616710E+01  0.34938660473E+01  0.14943555714E+01  0.43707393508E+01  0.17770000000E+01 0. -1.
</event>
<event>
 6    1  0.1059789E-002  0.1827400E+03  0.7546771E-02  0.1068264E+00
        -11   -1    0    0    0    0  0.00000000000E+00  0.00000000000E+00  0.18250000000E+03  0.18250000000E+03  0.00000000000E+00 0.  1.
         11   -1    0    0    0    0 -0.00000000000E+00 -0.00000000000E+00 -0.18250000000E+03  0.18250000000E+03  0.00000000000E+00 0.  1.
        -11    1    1    2    0    0 -0.22728844626E+01  0.14139278951E+01  0.13954231962E+03  0.13956799118E+03  0.00000000000E+00 0.  1.
         11    1    1    2    0    0  0.15057137533E+01 -0.24020602607E+01 -0.18223791105E+03  0.18225996075E+03  0.00000000000E+00 0.  1.
        -15    1    1    2    0    0 -0.90552964283E+00  0.18569819180E+01  0.97174405277E+01  0.10092311192E+02  0.17770000000E+01 0.  1.
         15    1    1    2    0    0  0.16727003521E+01 -0.86884955235E+00  0.32978150902E+02  0.33079736878E+02  0.17770000000E+01 0.  1.
</event>
<event>
 6    1  0.1059789E-002  0.1627099E+03  0.7546771E-02  0.1085399E+00
        -11   -1    0    0    0    0  0.00000000000E+00  0.00000000000E+00  0.18250000000E+03  0.18250000000E+03  0.00000000000E+00 0. -1.
         11   -1    0    0    0    0 -0.00000000000E+00 -0.00000000000E+00 -0.18250000000E+03  0.18250000000E+03  0.00000000000E+00 0. -1.
        -11    1    1    2    0    0  0.12980992094E+01 -0.59907583322E+01  0.16156970884E+03  0.16168594578E+03  0.00000000000E+00 0. -1.
         11    1    1    2    0    0  0.33206962603E+01  0.17685812990E+01 -0.16375808332E+03  0.16380129657E+03  0.00000000000E+00 0. -1.
        -15    1    1    2    0    0 -0.18331411932E+01 -0.48024573874E+01 -0.17110074021E+02  0.17953728459E+02  0.17770000000E+01 0.  1.
         15    1    1    2    0    0 -0.27856542765E+01  0.90246344206E+01  0.19298448502E+02  0.21559029193E+02  0.17770000000E+01 0. -1.
</event>
<event>
 6    1  0.1059789E-002  0.1832137E+03  0.7546771E-02  0.1067888E+00
        -11   -1    0    0    0    0  0.00000000000E+00  0.00000000000E+00  0.18250000000E+03  0.18250000000E+03  0.00000000000E+00 0. -1.
         11   -1    0    0    0    0 -0.00000000000E+00 -0.00000000000E+00 -0.18250000000E+03  0.18250000000E+03  0.00000000000E+00 0.  1.
        -11    1    1    2    0    0  0.35874438236E+01 -0.32563306924E+01  0.15334653877E+03  0.15342305692E+03  0.00000000000E+00 0. -1.
         11    1    1    2    0    0  0.19177235202E+01  0.19631328293E+01 -0.18176557346E+03  0.18178629005E+03  0.00000000000E+00 0.  1.
        -15    1    1    2    0    0 -0.44141467451E+01  0.33809243019E+01  0.21274681907E+02  0.22060941953E+02  0.17770000000E+01 0.  1.
         15    1    1    2    0    0 -0.10910205986E+01 -0.20877264388E+01  0.71443527855E+01  0.77297110783E+01  0.17770000000E+01 0. -1.
</event>
<event>
 6    1  0.1059789E-002  0.1826351E+03  0.7546771E-02  0.1068347E+00
        -11   -1    0    0    0    0  0.00000000000E+00  0.00000000000E+00  0.18250000000E+03  0.18250000000E+03  0.00000000000E+00 0. -1.
         11   -1    0    0    0    0 -0.00000000000E+00 -0.00000000000E+00 -0.18250000000E+03  0.18250000000E+03  0.00000000000E+00 0. -1.
        -11    1    1    2    0    0 -0.77058053605E+00  0.41719164874E+01  0.18231550228E+03  0.18236485696E+03  0.00000000000E+00 0. -1.
         11    1    1    2    0    0 -0.14376990949E+01 -0.69224323009E-01 -0.94022802771E+02  0.94033819510E+02  0.00000000000E+00 0. -1.
        -15    1    1    2    0    0  0.24517047053E+01 -0.58954961206E+00 -0.25703653650E+02  0.25888104695E+02  0.17770000000E+01 0.  1.
         15    1    1    2    0    0 -0.24342507436E+00 -0.35131425523E+01 -0.62589045859E+02  0.62713218837E+02  0.17770000000E+01 0. -1.
</event>
<event>
 6    1  0.1059789E-002  0.1827491E+03  0.7546771E-02  0.1068257E+00
        -11   -1    0    0    0    0  0.00000000000E+00  0.00000000000E+00  0.18250000000E+03  0.18250000000E+03  0.00000000000E+00 0. -1.
         11   -1    0    0    0    0 -0.00000000000E+00 -0.00000000000E+00 -0.18250000000E+03  0.18250000000E+03  0.00000000000E+00 0. -1.
        -11    1    1    2    0    0  0.25130226347E+01 -0.13266226501E+01  0.18222875115E+03  0.18225090660E+03  0.00000000000E+00 0. -1.
         11    1    1    2    0    0  0.66150343972E+00  0.38059440670E+01 -0.10314924183E+03  0.10322155243E+03  0.00000000000E+00 0. -1.
        -15    1    1    2    0    0 -0.45831026786E+01  0.18506177062E+00 -0.44096201559E+02  0.44369717138E+02  0.17770000000E+01 0. -1.
         15    1    1    2    0    0  0.14085766042E+01 -0.26643831876E+01 -0.34983307761E+02  0.35157823834E+02  0.17770000000E+01 0. -1.
</event>
<event>
 6    1  0.1059789E-002  0.1847901E+03  0.7546771E-02  0.1066646E+00
        -11   -1    0    0    0    0  0.00000000000E+00  0.00000000000E+00  0.18250000000E+03  0.18250000000E+03  0.00000000000E+00 0.  1.
         11   -1    0    0    0    0 -0.00000000000E+00 -0.00000000000E+00 -0.18250000000E+03  0.18250000000E+03  0.00000000000E+00 0. -1.
        -11    1    1    2    0    0  0.27774493419E+01 -0.52530265387E+00  0.16809858157E+03  0.16812234621E+03  0.00000000000E+00 0.  1.
         11    1    1    2    0    0 -0.32379594956E+01  0.46615372278E+00 -0.18018019047E+03  0.18020988518E+03  0.00000000000E+00 0. -1.
        -15    1    1    2    0    0 -0.32644394857E+01 -0.18267913442E+01  0.11336653133E+02  0.12069431015E+02  0.17770000000E+01 0.  1.
         15    1    1    2    0    0  0.37249496394E+01  0.18859402753E+01  0.74495576029E+00  0.45983375934E+01  0.17770000000E+01 0. -1.
</event>
<event>
 6    1  0.1059789E-002  0.1894753E+03  0.7546771E-02  0.1063034E+00
        -11   -1    0    0    0    0  0.00000000000E+00  0.00000000000E+00  0.18250000000E+03  0.18250000000E+03  0.00000000000E+00 0. -1.
         11   -1    0    0    0    0 -0.00000000000E+00 -0.00000000000E+00 -0.18250000000E+03  0.18250000000E+03  0.00000000000E+00 0.  1.
        -11    1    1    2    0    0 -0.22441147547E+01  0.28818157949E+01  0.17548672309E+03  0.17552473015E+03  0.00000000000E+00 0. -1.
         11    1    1    2    0    0 -0.14851998821E+02 -0.84870123927E+01 -0.16196982938E+03  0.16287061392E+03  0.00000000000E+00 0.  1.
        -15    1    1    2    0    0  0.11184718353E+02 -0.16918378977E+01 -0.12564663605E+02  0.16999668839E+02  0.17770000000E+01 0.  1.
         15    1    1    2    0    0  0.59113952223E+01  0.72970344955E+01 -0.95223010306E+00  0.96049870938E+01  0.17770000000E+01 0. -1.
</event>
<event>
 6    1  0.1059789E-002  0.1826077E+03  0.7546771E-02  0.1068369E+00
        -11   -1    0    0    0    0  0.00000000000E+00  0.00000000000E+00  0.18250000000E+03  0.18250000000E+03  0.00000000000E+00 0. -1.
         11   -1    0    0    0    0 -0.00000000000E+00 -0.00000000000E+00 -0.18250000000E+03  0.18250000000E+03  0.00000000000E+00 0.  1.
        -11    1    1    2    0    0  0.26575212820E+01 -0.23805859283E+01  0.18235737594E+03  0.18239227551E+03  0.00000000000E+00 0. -1.
         11    1    1    2    0    0  0.57828314857E+00 -0.82575289960E+00 -0.54279439814E+02  0.54288800555E+02  0.00000000000E+00 0.  1.
        -15    1    1    2    0    0  0.46734871495E+00  0.18489513622E+01 -0.22176662783E+02  0.22329333558E+02  0.17770000000E+01 0.  1.
         15    1    1    2    0    0 -0.37031531455E+01  0.13573874657E+01 -0.10590127334E+03  0.10598959037E+03  0.17770000000E+01 0. -1.
</event>
<event>
 6    1  0.1059789E-002  0.1877363E+03  0.7546771E-02  0.1064361E+00
        -11   -1    0    0    0    0  0.00000000000E+00  0.00000000000E+00  0.18250000000E+03  0.18250000000E+03  0.00000000000E+00 0.  1.
         11   -1    0    0    0    0 -0.00000000000E+00 -0.00000000000E+00 -0.18250000000E+03  0.18250000000E+03  0.00000000000E+00 0.  1.
        -11    1    1    2    0    0  0.18288561708E+01 -0.66167104231E+01  0.15083655575E+03  0.15099268897E+03  0.00000000000E+00 0.  1.
         11    1    1    2    0    0  0.52052306948E+01  0.34326954064E+01 -0.17715398405E+03  0.17726367900E+03  0.00000000000E+00 0.  1.
        -15    1    1    2    0    0  0.78684720562E+00  0.55706294261E+01  0.27648157382E+02  0.28270645135E+02  0.17770000000E+01 0.  1.
         15    1    1    2    0    0 -0.78209340712E+01 -0.23866144094E+01 -0.13307290799E+01  0.84729868978E+01  0.17770000000E+01 0.  1.
</event>
<event>
 6    1  0.1059789E-002  0.1935629E+03  0.7546771E-02  0.1059975E+00
        -11   -1    0    0    0    0  0.00000000000E+00  0.00000000000E+00  0.18250000000E+03  0.18250000000E+03  0.00000000000E+00 0. -1.
         11   -1    0    0    0    0 -0.00000000000E+00 -0.00000000000E+00 -0.18250000000E+03  0.18250000000E+03  0.00000000000E+00 0.  1.
        -11    1    1    2    0    0 -0.90426236057E+00 -0.13973163485E+01  0.89782744006E+02  0.89798169829E+02  0.00000000000E+00 0. -1.
         11    1    1    2    0    0 -0.27574478846E+01 -0.93403465989E+01 -0.17116028019E+03  0.17143712290E+03  0.00000000000E+00 0.  1.
        -15    1    1    2    0    0  0.13693543871E+02 -0.13456589168E+02  0.74036344042E+02  0.76505757325E+02  0.17770000000E+01 0. -1.
         15    1    1    2    0    0 -0.10031833626E+02  0.24194252115E+02  0.73411921398E+01  0.27258949949E+02  0.17770000000E+01 0.  1.
</event>
<event>
 6    1  0.1059789E-002  0.1887552E+03  0.7546771E-02  0.1063582E+00
        -11   -1    0    0    0    0  0.00000000000E+00  0.00000000000E+00  0.18250000000E+03  0.18250000000E+03  0.00000000000E+00 0.  1.
         11   -1    0    0    0    0 -0.00000000000E+00 -0.00000000000E+00 -0.18250000000E+03  0.18250000000E+03  0.00000000000E+00 0. -1.
        -11    1    1    2    0    0  0.15747949163E+02 -0.35810006512E+01  0.17550326340E+03  0.17624476427E+03  0.00000000000E+00 0.  1.
         11    1    1    2    0    0  0.17704986536E+01 -0.53985504493E+00 -0.11663320893E+03  0.11664789554E+03  0.00000000000E+00 0. -1.
        -15    1    1    2    0    0  0.29929450131E+01 -0.10030533191E+02 -0.38304531277E+02  0.39748763016E+02  0.17770000000E+01 0.  1.
         15    1    1    2    0    0 -0.20511392830E+02  0.14151388887E+02 -0.20565523196E+02  0.32358577172E+02  0.17770000000E+01 0. -1.
</event>
<event>
 6    1  0.1059789E-002  0.2009250E+03  0.7546771E-02  0.1054667E+00
        -11   -1    0    0    0    0  0.00000000000E+00  0.00000000000E+00  0.18250000000E+03  0.18250000000E+03  0.00000000000E+00 0.  1.
         11   -1    0    0    0    0 -0.00000000000E+00 -0.00000000000E+00 -0.18250000000E+03  0.18250000000E+03  0.00000000000E+00 0. -1.
        -11    1    1    2    0    0 -0.12891508300E+01 -0.16963078666E+02  0.16319069702E+03  0.16407501803E+03  0.00000000000E+00 0.  1.
         11    1    1    2    0    0  0.40880082937E+01  0.50131202337E+01 -0.14495764209E+03  0.14510189932E+03  0.00000000000E+00 0. -1.
        -15    1    1    2    0    0  0.22306466166E+02  0.96938776092E+01  0.46059639586E+00  0.24390973207E+02  0.17770000000E+01 0. -1.
         15    1    1    2    0    0 -0.25105323630E+02  0.22560808227E+01 -0.18693651322E+02  0.31432109442E+02  0.17770000000E+01 0.  1.
</event>
<event>
 6    1  0.1059789E-002  0.1833470E+03  0.7546771E-02  0.1067783E+00
        -11   -1    0    0    0    0  0.00000000000E+00  0.00000000000E+00  0.18250000000E+03  0.18250000000E+03  0.00000000000E+00 0.  1.
         11   -1    0    0    0    0 -0.00000000000E+00 -0.00000000000E+00 -0.18250000000E+03  0.18250000000E+03  0.00000000000E+00 0.  1.
        -11    1    1    2    0    0 -0.17682783679E+01  0.40816468425E+01  0.13178468829E+03  0.13185973880E+03  0.00000000000E+00 0.  1.
         11    1    1    2    0    0  0.28893992692E+01  0.27678070614E+01 -0.18160895899E+03  0.18165303017E+03  0.00000000000E+00 0.  1.
        -15    1    1    2    0    0 -0.13131126788E+01 -0.89950576213E+00  0.16185945715E+01  0.28828723368E+01  0.17770000000E+01 0. -1.
         15    1    1    2    0    0  0.19199177751E+00 -0.59499481418E+01  0.48205676127E+02  0.48604358689E+02  0.17770000000E+01 0.  1.
</event>
<event>
 6    1  0.1059789E-002  0.1919246E+03  0.7546771E-02  0.1061191E+00
        -11   -1    0    0    0    0  0.00000000000E+00  0.00000000000E+00  0.18250000000E+03  0.18250000000E+03  0.00000000000E+00 0. -1.
         11   -1    0    0    0    0 -0.00000000000E+00 -0.00000000000E+00 -0.18250000000E+03  0.18250000000E+03  0.00000000000E+00 0.  1.
        -11    1    1    2    0    0 -0.13458338403E+01 -0.67609543286E+01  0.17293801941E+03  0.17307536026E+03  0.00000000000E+00 0. -1.
         11    1    1    2    0    0  0.50917951456E+01 -0.46781983080E+01 -0.16180604838E+03  0.16195372551E+03  0.00000000000E+00 0.  1.
        -15    1    1    2    0    0  0.85679861251E+00  0.93146120631E+01  0.65068376990E+01  0.11532249026E+02  0.17770000000E+01 0. -1.
         15    1    1    2    0    0 -0.46027599179E+01  0.21245405735E+01 -0.17638808737E+02  0.18438665195E+02  0.17770000000E+01 0. -1.
</event>
<event>
 6    1  0.1059789E-002  0.1828030E+03  0.7546771E-02  0.1068214E+00
        -11   -1    0    0    0    0  0.00000000000E+00  0.00000000000E+00  0.18250000000E+03  0.18250000000E+03  0.00000000000E+00 0.  1.
         11   -1    0    0    0    0 -0.00000000000E+00 -0.00000000000E+00 -0.18250000000E+03  0.18250000000E+03  0.00000000000E+00 0. -1.
        -11    1    1    2    0    0  0.47996491984E+00 -0.67064870159E+01  0.18207290354E+03  0.18219700749E+03  0.00000000000E+00 0.  1.
         11    1    1    2    0    0 -0.40519374763E+00  0.19806583137E+01 -0.68417067331E+02  0.68446930475E+02  0.00000000000E+00 0. -1.
        -15    1    1    2    0    0  0.37183953578E+01  0.65635125652E+01 -0.58548516408E+02  0.59059230132E+02  0.17770000000E+01 0. -1.
         15    1    1    2    0    0 -0.37931665301E+01 -0.18376838629E+01 -0.55107319799E+02  0.55296831906E+02  0.17770000000E+01 0.  1.
</event>
<event>
 6    1  0.1059789E-002  0.1829668E+03  0.7546771E-02  0.1068084E+00
        -11   -1    0    0    0    0  0.00000000000E+00  0.00000000000E+00  0.18250000000E+03  0.18250000000E+03  0.00000000000E+00 0.  1.
         11   -1    0    0    0    0 -0.00000000000E+00 -0.00000000000E+00 -0.18250000000E+03  0.18250000000E+03  0.00000000000E+00 0. -1.
        -11    1    1    2    0    0 -0.84813618989E+00 -0.44726872390E+00  0.19672450576E+02  0.19695804019E+02  0.00000000000E+00 0.  1.
         11    1    1    2    0    0  0.89707549592E+00  0.12197019211E+02 -0.18162192507E+03  0.18203322687E+03  0.00000000000E+00 0. -1.
        -15    1    1    2    0    0 -0.48628211049E+00 -0.14437622642E+02  0.83849870466E+02  0.85103701001E+02  0.17770000000E+01 0.  1.
         15    1    1    2    0    0  0.43734280446E+00  0.26878721550E+01  0.78099604023E+02  0.78167268105E+02  0.17770000000E+01 0.  1.
</event>
<event>
 6    1  0.1059789E-002  0.1882557E+03  0.7546771E-02  0.1063963E+00
        -11   -1    0    0    0    0  0.00000000000E+00  0.00000000000E+00  0.18250000000E+03  0.18250000000E+03  0.00000000000E+00 0. -1.
         11   -1    0    0    0    0 -0.00000000000E+00 -0.00000000000E+00 -0.18250000000E+03  0.18250000000E+03  0.00000000000E+00 0.  1.
        -11    1    1    2    0    0  0.70659190808E+01  0.10074796321E+02  0.17631534862E+03  0.17674425278E+03  0.00000000000E+00 0. -1.
         11    1    1    2    0    0 -0.31258352824E+01 -0.30898706532E+01 -0.15983929191E+03  0.15989971040E+03  0.00000000000E+00 0.  1.
        -15    1    1    2    0    0 -0.56071044378E+01 -0.65851710080E+01  0.25342213856E+01  0.91860821035E+01  0.17770000000E+01 0.  1.
         15    1    1    2    0    0  0.16670206394E+01 -0.39975466002E+00 -0.19010278095E+02  0.19169954717E+02  0.17770000000E+01 0. -1.
</event>
<event>
 6    1  0.1059789E-002  0.1837327E+03  0.7546771E-02  0.1067478E+00
        -11   -1    0    0    0    0  0.00000000000E+00  0.00000000000E+00  0.18250000000E+03  0.18250000000E+03  0.00000000000E+00 0.  1.
         11   -1    0    0    0    0 -0.00000000000E+00 -0.00000000000E+00 -0.18250000000E+03  0.18250000000E+03  0.00000000000E+00 0.  1.
        -11    1    1    2    0    0 -0.30823755980E+01 -0.43167781428E+00  0.19714381777E+02  0.19958562922E+02  0.00000000000E+00 0.  1.
         11    1    1    2    0    0 -0.28290790113E+01 -0.15270657966E+00 -0.18124519496E+03  0.18126733767E+03  0.00000000000E+00 0.  1.
        -15    1    1    2    0    0  0.50542720876E+01  0.40356777025E+01  0.15882189798E+03  0.15896347180E+03  0.17770000000E+01 0.  1.
         15    1    1    2    0    0  0.85718252173E+00 -0.34512933086E+01  0.27089152070E+01  0.48106276073E+01  0.17770000000E+01 0. -1.
</event>
<event>
 6    1  0.1059789E-002  0.1746666E+03  0.7546771E-02  0.1074867E+00
        -11   -1    0    0    0    0  0.00000000000E+00  0.00000000000E+00  0.18250000000E+03  0.18250000000E+03  0.00000000000E+00 0. -1.
         11   -1    0    0    0    0 -0.00000000000E+00 -0.00000000000E+00 -0.18250000000E+03  0.18250000000E+03  0.00000000000E+00 0. -1.
        -11    1    1    2    0    0 -0.29263364771E+01  0.16596910259E+01  0.17535064625E+03  0.17538291582E+03  0.00000000000E+00 0. -1.
         11    1    1    2    0    0 -0.19719194831E+01 -0.20017229929E+01 -0.17396493214E+03  0.17398762305E+03  0.00000000000E+00 0. -1.
        -15    1    1    2    0    0  0.38812979433E+01  0.67876554809E+01  0.16986597837E+01  0.81963354441E+01  0.17770000000E+01 0. -1.
         15    1    1    2    0    0  0.10169580170E+01 -0.64456235138E+01 -0.30843739012E+01  0.74331256852E+01  0.17770000000E+01 0.  1.
</event>
<event>
 6    1  0.1059789E-002  0.1850265E+03  0.7546771E-02  0.1066461E+00
        -11   -1    0    0    0    0  0.00000000000E+00  0.00000000000E+00  0.18250000000E+03  0.18250000000E+03  0.00000000000E+00 0.  1.
         11   -1    0    0    0    0 -0.00000000000E+00 -0.00000000000E+00 -0.18250000000E+03  0.18250000000E+03  0.00000000000E+00 0.  1.
        -11    1    1    2    0    0 -0.37765408306E+01 -0.40124732313E+01  0.17988908525E+03  0.17997345691E+03  0.00000000000E+00 0.  1.
         11    1    1    2    0    0 -0.39798754844E+01  0.18349300218E+00 -0.17178561178E+03  0.17183180583E+03  0.00000000000E+00 0.  1.
        -15    1    1    2    0    0  0.10796156322E+00  0.63382425755E+00 -0.19801378592E+01  0.27371634643E+01  0.17770000000E+01 0. -1.
         15    1    1    2    0    0  0.76484547518E+01  0.31951559715E+01 -0.61233356073E+01  0.10457573798E+02  0.17770000000E+01 0. -1.
</event>
<event>
 6    1  0.1059789E-002  0.1738582E+03  0.7546771E-02  0.1075550E+00
        -11   -1    0    0    0    0  0.00000000000E+00  0.00000000000E+00  0.18250000000E+03  0.18250000000E+03  0.00000000000E+00 0. -1.
         11   -1    0    0    0    0 -0.00000000000E+00 -0.00000000000E+00 -0.18250000000E+03  0.18250000000E+03  0.00000000000E+00 0.  1.
        -11    1    1    2    0    0 -0.52753155891E+01  0.32486420146E+01  0.17575718541E+03  0.17586634372E+03  0.00000000000E+00 0. -1.
         11    1    1    2    0    0 -0.22099935205E+01 -0.12696459148E+01 -0.17193831113E+03  0.17195720080E+03  0.00000000000E+00 0.  1.
        -15    1    1    2    0    0  0.16547881423E+01 -0.75049452519E+00 -0.88313566528E+01  0.91897853706E+01  0.17770000000E+01 0. -1.
         15    1    1    2    0    0  0.58305209674E+01 -0.12285015746E+01  0.50124823778E+01  0.79866701107E+01  0.17770000000E+01 0.  1.
</event>
<event>
 6    1  0.1059789E-002  0.1827941E+03  0.7546771E-02  0.1068221E+00
        -11   -1    0    0    0    0  0.00000000000E+00  0.00000000000E+00  0.18250000000E+03  0.18250000000E+03  0.00000000000E+00 0.  1.
         11   -1    0    0    0    0 -0.00000000000E+00 -0.00000000000E+00 -0.18250000000E+03  0.18250000000E+03  0.00000000000E+00 0.  1.
        -11    1    1    2    0    0  0.67889782436E+00  0.60647535753E+00  0.29069372535E+02  0.29083623127E+02  0.00000000000E+00 0.  1.
         11    1    1    2    0    0 -0.10468341836E+01  0.28914538264E+01 -0.18217992148E+03  0.18220587300E+03  0.00000000000E+00 0.  1.
        -15    1    1    2    0    0  0.20157263191E+01 -0.19015532789E+01  0.92089935282E+01  0.97796906019E+01  0.17770000000E+01 0. -1.
         15    1    1    2    0    0 -0.16477899599E+01 -0.15963759051E+01  0.14390155542E+03  0.14393081327E+03  0.17770000000E+01 0.  1.
</event>
<event>
 6    1  0.1059789E-002  0.1827843E+03  0.7546771E-02  0.1068229E+00
        -11   -1    0    0    0    0  0.00000000000E+00  0.00000000000E+00  0.18250000000E+03  0.18250000000E+03  0.00000000000E+00 0. -1.
         11   -1    0    0    0    0 -0.00000000000E+00 -0.00000000000E+00 -0.18250000000E+03  0.18250000000E+03  0.00000000000E+00 0. -1.
        -11    1    1    2    0    0 -0.44028410337E+01 -0.72569232520E+01  0.18201792682E+03  0.18221573376E+03  0.00000000000E+00 0. -1.
         11    1    1    2    0    0 -0.42761299147E+00 -0.23177203838E+01 -0.36287433125E+02  0.36363889828E+02  0.00000000000E+00 0. -1.
        -15    1    1    2    0    0  0.40914453262E+01  0.42539809448E+00 -0.64046359717E+02  0.64202919018E+02  0.17770000000E+01 0. -1.
         15    1    1    2    0    0  0.73900869900E+00  0.91492455412E+01 -0.81684133979E+02  0.82217457397E+02  0.17770000000E+01 0.  1.
</event>
<event>
 6    1  0.1059789E-002  0.1885824E+03  0.7546771E-02  0.1063714E+00
        -11   -1    0    0    0    0  0.00000000000E+00  0.00000000000E+00  0.18250000000E+03  0.18250000000E+03  0.00000000000E+00 0.  1.
         11   -1    0    0    0    0 -0.00000000000E+00 -0.00000000000E+00 -0.18250000000E+03  0.18250000000E+03  0.00000000000E+00 0.  1.
        -11    1    1    2    0    0 -0.92538063110E+01 -0.90592821121E+01  0.15858468332E+03  0.15911255547E+03  0.00000000000E+00 0.  1.
         11    1    1    2    0    0 -0.14943687317E+01 -0.59163836566E+01 -0.17631200722E+03  0.17641757459E+03  0.00000000000E+00 0.  1.
        -15    1    1    2    0    0  0.78124795509E+01  0.16328494704E+02  0.18224673684E+02  0.25747835558E+02  0.17770000000E+01 0.  1.
         15    1    1    2    0    0  0.29356954918E+01 -0.13528289356E+01 -0.49734978551E+00  0.37220343844E+01  0.17770000000E+01 0. -1.
</event>
<event>
 6    1  0.1059789E-002  0.1857122E+03  0.7546771E-02  0.1065926E+00
        -11   -1    0    0    0    0  0.00000000000E+00  0.00000000000E+00  0.18250000000E+03  0.18250000000E+03  0.00000000000E+00 0. -1.
         11   -1    0    0    0    0 -0.00000000000E+00 -0.00000000000E+00 -0.18250000000E+03  0.18250000000E+03  0.00000000000E+00 0. -1.
        -11    1    1    2    0    0 -0.39778157254E+00 -0.25914907977E+01  0.98957678959E+02  0.98992405162E+02  0.00000000000E+00 0. -1.
         11    1    1    2    0    0 -0.58008833895E+01  0.89381381271E+00 -0.17919166408E+03  0.17928776207E+03  0.00000000000E+00 0. -1.
        -15    1    1    2    0    0  0.53089565228E+01 -0.12254620342E+01 -0.64180445166E+00  0.57668378261E+01  0.17770000000E+01 0.  1.
         15    1    1    2    0    0  0.88970843929E+00  0.29231390192E+01  0.80875789572E+02  0.80952994946E+02  0.17770000000E+01 0.  1.
</event>
<event>
 6    1  0.1059789E-002  0.1825976E+03  0.7546771E-02  0.1068377E+00
        -11   -1    0    0    0    0  0.00000000000E+00  0.00000000000E+00  0.18250000000E+03  0.18250000000E+03  0.00000000000E+00 0. -1.
         11   -1    0    0    0    0 -0.00000000000E+00 -0.00000000000E+00 -0.18250000000E+03  0.18250000000E+03  0.00000000000E+00 0.  1.
        -11    1    1    2    0    0 -0.15653805690E+01  0.36220652112E+01  0.18235975501E+03  0.18240243973E+03  0.00000000000E+00 0. -1.
         11    1    1    2    0    0 -0.40982517531E+00  0.38194096581E+00 -0.23649842457E+02  0.23656476572E+02  0.00000000000E+00 0.  1.
        -15    1    1    2    0    0  0.13589838872E+01 -0.21650713729E+01 -0.14123488433E+03  0.14126919216E+03  0.17770000000E+01 0.  1.
         15    1    1    2    0    0  0.61622185713E+00 -0.18389348041E+01 -0.17475028216E+02  0.17671891544E+02  0.17770000000E+01 0. -1.
</event>
<event>
 6    1  0.1059789E-002  0.1828881E+03  0.7546771E-02  0.1068146E+00
        -11   -1    0    0    0    0  0.00000000000E+00  0.00000000000E+00  0.18250000000E+03  0.18250000000E+03  0.00000000000E+00 0. -1.
         11   -1    0    0    0    0 -0.00000000000E+00 -0.00000000000E+00 -0.18250000000E+03  0.18250000000E+03  0.00000000000E+00 0.  1.
        -11    1    1    2    0    0 -0.45001773968E+00  0.32873579283E+01  0.18208170470E+03  0.18211193378E+03  0.00000000000E+00 0. -1.
         11    1    1    2    0    0  0.17823642521E+01 -0.24005865552E+01 -0.14059840939E+03  0.14063019719E+03  0.00000000000E+00 0.  1.
        -15    1    1    2    0    0 -0.21946588596E+01  0.12417338289E+01 -0.69639973911E+01  0.76166540604E+01  0.17770000000E+01 0.  1.
         15    1    1    2    0    0  0.86231234723E+00 -0.21285052020E+01 -0.34519297918E+02  0.34641214971E+02  0.17770000000E+01 0. -1.
</event>
<event>
 6    1  0.1059789E-002  0.1882662E+03  0.7546771E-02  0.1063955E+00
        -11   -1    0    0    0    0  0.00000000000E+00  0.00000000000E+00  0.18250000000E+03  0.18250000000E+03  0.00000000000E+00 0. -1.
         11   -1    0    0    0    0 -0.00000000000E+00 -0.00000000000E+00 -0.18250000000E+03  0.18250000000E+03  0.00000000000E+00 0.  1.
        -11    1    1    2    0    0 -0.48377670264E+01 -0.10684217687E+02  0.12883550899E+03  0.12936825296E+03  0.00000000000E+00 0. -1.
         11    1    1    2    0    0 -0.11366488120E+01  0.41580330883E+01 -0.17668120010E+03  0.17673377628E+03  0.00000000000E+00 0.  1.
        -15    1    1    2    0    0  0.11238388373E+02 -0.43994499246E+01  0.44571989022E+02  0.46211215817E+02  0.17770000000E+01 0.  1.
         15    1    1    2    0    0 -0.52639725351E+01  0.10925634523E+02  0.32737020896E+01  0.12686754942E+02  0.17770000000E+01 0. -1.
</event>
<event>
 6    1  0.1059789E-002  0.1887616E+03  0.7546771E-02  0.1063577E+00
        -11   -1    0    0    0    0  0.00000000000E+00  0.00000000000E+00  0.18250000000E+03  0.18250000000E+03  0.00000000000E+00 0.  1.
         11   -1    0    0    0    0 -0.00000000000E+00 -0.00000000000E+00 -0.18250000000E+03  0.18250000000E+03  0.00000000000E+00 0.  1.
        -11    1    1    2    0    0  0.29934649834E+01 -0.46741813832E+01  0.17615102039E+03  0.17623844867E+03  0.00000000000E+00 0.  1.
         11    1    1    2    0    0  0.16817341990E+01 -0.26176198601E+01 -0.16256186651E+03  0.16259163757E+03  0.00000000000E+00 0.  1.
        -15    1    1    2    0    0 -0.42487825305E+01  0.99457505007E+01 -0.17778022765E+02  0.20885064722E+02  0.17770000000E+01 0. -1.
         15    1    1    2    0    0 -0.42641665187E+00 -0.26539492574E+01  0.41888688829E+01  0.52848490366E+01  0.17770000000E+01 0.  1.
</event>
<event>
 6    1  0.1059789E-002  0.1826170E+03  0.7546771E-02  0.1068362E+00
        -11   -1    0    0    0    0  0.00000000000E+00  0.00000000000E+00  0.18250000000E+03  0.18250000000E+03  0.00000000000E+00 0.  1.
         11   -1    0    0    0    0 -0.00000000000E+00 -0.00000000000E+00 -0.18250000000E+03  0.18250000000E+03  0.00000000000E+00 0.  1.
        -11    1    1    2    0    0 -0.38526275039E+01 -0.62158591961E+01  0.18223629807E+03  0.18238297064E+03  0.00000000000E+00 0.  1.
         11    1    1    2    0    0  0.70051493702E+00  0.82633907348E+00 -0.47908508530E+02  0.47920754867E+02  0.00000000000E+00 0.  1.
        -15    1    1    2    0    0  0.29335333895E+01  0.65508580474E+01 -0.11770876994E+03  0.11794079705E+03  0.17770000000E+01 0.  1.
         15    1    1    2    0    0  0.21857917736E+00 -0.11613379248E+01 -0.16619019607E+02  0.16755477443E+02  0.17770000000E+01 0.  1.
</event>
<event>
 6    1  0.1059789E-002  0.1832492E+03  0.7546771E-02  0.1067860E+00
        -11   -1    0    0    0    0  0.00000000000E+00  0.00000000000E+00  0.18250000000E+03  0.18250000000E+03  0.00000000000E+00 0.  1.
         11   -1    0    0    0    0 -0.00000000000E+00 -0.00000000000E+00 -0.18250000000E+03  0.18250000000E+03  0.00000000000E+00 0. -1.
        -11    1    1    2    0    0  0.32852356289E+01  0.22599025840E+01  0.18170702142E+03  0.18175076772E+03  0.00000000000E+00 0.  1.
         11    1    1    2    0    0 -0.35380329593E+01  0.22520483390E+01 -0.11973493441E+03  0.11980836331E+03  0.00000000000E+00 0. -1.
        -15    1    1    2    0    0 -0.38636552494E+01 -0.25561042720E+01 -0.92886413840E+01  0.10530816146E+02  0.17770000000E+01 0. -1.
         15    1    1    2    0    0  0.41164525797E+01 -0.19558466509E+01 -0.52683445626E+02  0.52910052826E+02  0.17770000000E+01 0. -1.
</event>
<event>
 6    1  0.1059789E-002  0.1842838E+03  0.7546771E-02  0.1067044E+00
        -11   -1    0    0    0    0  0.00000000000E+00  0.00000000000E+00  0.18250000000E+03  0.18250000000E+03  0.00000000000E+00 0.  1.
         11   -1    0    0    0    0 -0.00000000000E+00 -0.00000000000E+00 -0.18250000000E+03  0.18250000000E+03  0.00000000000E+00 0. -1.
        -11    1    1    2    0    0 -0.27339960037E+01 -0.16487684791E+01  0.18068795122E+03  0.18071615558E+03  0.00000000000E+00 0.  1.
         11    1    1    2    0    0 -0.31681588516E+01 -0.19388668403E+01 -0.11847194016E+03  0.11853015245E+03  0.00000000000E+00 0. -1.
        -15    1    1    2    0    0  0.45675650097E+01  0.11466625265E+02 -0.29467230447E+02  0.31997211508E+02  0.17770000000E+01 0.  1.
         15    1    1    2    0    0  0.13345898455E+01 -0.78789899452E+01 -0.32748780611E+02  0.33756480461E+02  0.17770000000E+01 0. -1.
</event>
<event>
 6    1  0.1059789E-002  0.1827215E+03  0.7546771E-02  0.1068279E+00
        -11   -1    0    0    0    0  0.00000000000E+00  0.00000000000E+00  0.18250000000E+03  0.18250000000E+03  0.00000000000E+00 0. -1.
         11   -1    0    0    0    0 -0.00000000000E+00 -0.00000000000E+00 -0.18250000000E+03  0.18250000000E+03  0.00000000000E+00 0.  1.
        -11    1    1    2    0    0 -0.16191530273E+01  0.26861022243E+01  0.18225155154E+03  0.18227853642E+03  0.00000000000E+00 0. -1.
         11    1    1    2    0    0  0.74011126676E-01  0.10746450815E+01 -0.66390002490E+02  0.66398740729E+02  0.00000000000E+00 0.  1.
        -15    1    1    2    0    0 -0.78016317604E+00 -0.40522612684E+01 -0.10417281299E+03  0.10426966084E+03  0.17770000000E+01 0.  1.
         15    1    1    2    0    0  0.23253050766E+01  0.29151396261E+00 -0.11688736062E+02  0.12053062010E+02  0.17770000000E+01 0. -1.
</event>
<event>
 6    1  0.1059789E-002  0.1834501E+03  0.7546771E-02  0.1067701E+00
        -11   -1    0    0    0    0  0.00000000000E+00  0.00000000000E+00  0.18250000000E+03  0.18250000000E+03  0.00000000000E+00 0. -1.
         11   -1    0    0    0    0 -0.00000000000E+00 -0.00000000000E+00 -0.18250000000E+03  0.18250000000E+03  0.00000000000E+00 0. -1.
        -11    1    1    2    0    0 -0.13199619560E+01  0.34767888417E+00  0.94277217451E+02  0.94287098325E+02  0.00000000000E+00 0. -1.
         11    1    1    2    0    0 -0.12255614254E+02 -0.27649200549E+01 -0.18111470499E+03  0.18154994141E+03  0.00000000000E+00 0. -1.
        -15    1    1    2    0    0  0.20631001897E+01  0.65381816776E+01  0.44468397066E+02  0.45028882605E+02  0.17770000000E+01 0.  1.
         15    1    1    2    0    0  0.11512476020E+02 -0.41209405070E+01  0.42369090469E+02  0.44134077661E+02  0.17770000000E+01 0. -1.
</event>
<event>
 6    1  0.1059789E-002  0.1840961E+03  0.7546771E-02  0.1067191E+00
        -11   -1    0    0    0    0  0.00000000000E+00  0.00000000000E+00  0.18250000000E+03  0.18250000000E+03  0.00000000000E+00 0.  1.
         11   -1    0    0    0    0 -0.00000000000E+00 -0.00000000000E+00 -0.18250000000E+03  0.18250000000E+03  0.00000000000E+00 0.  1.
        -11    1    1    2    0    0 -0.33619902939E+01  0.15181927493E+01  0.18086630715E+03  0.18090392188E+03  0.00000000000E+00 0.  1.
         11    1    1    2    0    0  0.16184115552E+01 -0.19500490043E+01 -0.17706154334E+03  0.17707967720E+03  0.00000000000E+00 0.  1.
        -15    1    1    2    0    0 -0.36221503195E+00 -0.86074274857E+00  0.16500066343E+00  0.20142075433E+01  0.17770000000E+01 0.  1.
         15    1    1    2    0    0  0.21057937706E+01  0.12925990036E+01 -0.39697644743E+01  0.50021933759E+01  0.17770000000E+01 0. -1.
</event>
<event>
 6    1  0.1059789E-002  0.1867292E+03  0.7546771E-02  0.1065137E+00
        -11   -1    0    0    0    0  0.00000000000E+00  0.00000000000E+00  0.18250000000E+03  0.18250000000E+03  0.00000000000E+00 0.  1.
         11   -1    0    0    0    0 -0.00000000000E+00 -0.00000000000E+00 -0.18250000000E+03  0.18250000000E+03  0.00000000000E+00 0. -1.
        -11    1    1    2    0    0  0.54723653221E-01  0.24572968340E+01  0.16846432529E+03  0.16848225485E+03  0.00000000000E+00 0.  1.
         11    1    1    2    0    0  0.16092348502E+01 -0.75392128267E+01 -0.17810408171E+03  0.17827084251E+03  0.00000000000E+00 0. -1.
        -15    1    1    2    0    0  0.79844914250E+00  0.12115824493E+01  0.12396995575E+02  0.12607485132E+02  0.17770000000E+01 0.  1.
         15    1    1    2    0    0 -0.24624076460E+01  0.38703335434E+01 -0.27572391547E+01  0.56394175150E+01  0.17770000000E+01 0. -1.
</event>
<event>
 6    1  0.1059789E-002  0.1835823E+03  0.7546771E-02  0.1067597E+00
        -11   -1    0    0    0    0  0.00000000000E+00  0.00000000000E+00  0.18250000000E+03  0.18250000000E+03  0.00000000000E+00 0.  1.
         11   -1    0    0    0    0 -0.00000000000E+00 -0.00000000000E+00 -0.18250000000E+03  0.18250000000E+03  0.00000000000E+00 0.  1.
        -11    1    1    2    0    0  0.18852860915E+01 -0.10541031296E+02  0.13224479490E+03  0.13267762970E+03  0.00000000000E+00 0.  1.
         11    1    1    2    0    0 -0.29628689361E+01  0.25248698614E+01 -0.18137594234E+03  0.18141771143E+03  0.00000000000E+00 0.  1.
        -15    1    1    2    0    0 -0.17525156599E+01  0.89486143809E+01  0.41418715095E+02  0.42447811482E+02  0.17770000000E+01 0.  1.
         15    1    1    2    0    0  0.28300985045E+01 -0.93245294668E+00  0.77124323440E+01  0.84568473857E+01  0.17770000000E+01 0. -1.
</event>
<event>
 6    1  0.1059789E-002  0.1834229E+03  0.7546771E-02  0.1067723E+00
        -11   -1    0    0    0    0  0.00000000000E+00  0.00000000000E+00  0.18250000000E+03  0.18250000000E+03  0.00000000000E+00 0. -1.
         11   -1    0    0    0    0 -0.00000000000E+00 -0.00000000000E+00 -0.18250000000E+03  0.18250000000E+03  0.00000000000E+00 0.  1.
        -11    1    1    2    0    0  0.21215052136E+01  0.14437328184E+01  0.18155896324E+03  0.18157709735E+03  0.00000000000E+00 0. -1.
         11    1    1    2    0    0 -0.13849944752E+01  0.14465520776E+01 -0.11096482662E+03  0.11098289719E+03  0.00000000000E+00 0.  1.
        -15    1    1    2    0    0  0.56886173920E+01  0.26548387236E+01 -0.43652145471E+02  0.44137014735E+02  0.17770000000E+01 0.  1.
         15    1    1    2    0    0 -0.64251281304E+01 -0.55451236196E+01 -0.26941991154E+02  0.28302990721E+02  0.17770000000E+01 0. -1.
</event>
<event>
 6    1  0.1059789E-002  0.1829540E+03  0.7546771E-02  0.1068094E+00
        -11   -1    0    0    0    0  0.00000000000E+00  0.00000000000E+00  0.18250000000E+03  0.18250000000E+03  0.00000000000E+00 0. -1.
         11   -1    0    0    0    0 -0.00000000000E+00 -0.00000000000E+00 -0.18250000000E+03  0.18250000000E+03  0.00000000000E+00 0.  1.
        -11    1    1    2    0    0 -0.18943424752E+01  0.50207874695E-01  0.11629440651E+03  0.11630984498E+03  0.00000000000E+00 0. -1.
         11    1    1    2    0    0 -0.51123237696E+01  0.48830479869E+01 -0.18190863202E+03  0.18204595687E+03  0.00000000000E+00 0.  1.
        -15    1    1    2    0    0  0.17504186885E+01  0.15553442201E+01  0.12018693797E+02  0.12372945923E+02  0.17770000000E+01 0.  1.
         15    1    1    2    0    0  0.52562475563E+01 -0.64886000816E+01  0.53595531711E+02  0.54271252223E+02  0.17770000000E+01 0. -1.
</event>
<event>
 6    1  0.1059789E-002  0.1756235E+03  0.7546771E-02  0.1074064E+00
        -11   -1    0    0    0    0  0.00000000000E+00  0.00000000000E+00  0.18250000000E+03  0.18250000000E+03  0.00000000000E+00 0. -1.
         11   -1    0    0    0    0 -0.00000000000E+00 -0.00000000000E+00 -0.18250000000E+03  0.18250000000E+03  0.00000000000E+00 0. -1.
        -11    1    1    2    0    0  0.38596555629E+01 -0.19214011522E+01  0.17515000583E+03  0.17520306294E+03  0.00000000000E+00 0. -1.
         11    1    1    2    0    0 -0.26856176508E+01  0.33831258611E+01 -0.17599696411E+03  0.17604996296E+03  0.00000000000E+00 0. -1.
        -15    1    1    2    0    0  0.11562683910E+01 -0.25593240030E+01 -0.56390496595E+01  0.65455103702E+01  0.17770000000E+01 0.  1.
         15    1    1    2    0    0 -0.23303063032E+01  0.10975992942E+01  0.64860079471E+01  0.72014637239E+01  0.17770000000E+01 0.  1.
</event>
<event>
 6    1  0.1059789E-002  0.1850921E+03  0.7546771E-02  0.1066410E+00
        -11   -1    0    0    0    0  0.00000000000E+00  0.00000000000E+00  0.18250000000E+03  0.18250000000E+03  0.00000000000E+00 0.  1.
         11   -1    0    0    0    0 -0.00000000000E+00 -0.00000000000E+00 -0.18250000000E+03  0.18250000000E+03  0.00000000000E+00 0. -1.
        -11    1    1    2    0    0 -0.11045054347E+01 -0.13355440399E+01  0.11364001333E+03  0.11365322802E+03  0.00000000000E+00 0.  1.
         11    1    1    2    0    0 -0.65978706341E+01  0.51126845820E+01 -0.17971419133E+03  0.17990792647E+03  0.00000000000E+00 0. -1.
        -15    1    1    2    0    0 -0.17678666489E+01  0.67543104670E+01  0.51272338582E+01  0.88426420491E+01  0.17770000000E+01 0.  1.
         15    1    1    2    0    0  0.94702427177E+01 -0.10531451009E+02  0.60946944146E+02  0.62596203457E+02  0.17770000000E+01 0. -1.
</event>
<event>
 6    1  0.1059789E-002  0.1800752E+03  0.7546771E-02  0.1070401E+00
        -11   -1    0    0    0    0  0.00000000000E+00  0.00000000000E+00  0.18250000000E+03  0.18250000000E+03  0.00000000000E+00 0. -1.
         11   -1    0    0    0    0 -0.00000000000E+00 -0.00000000000E+00 -0.18250000000E+03  0.18250000000E+03  0.00000000000E+00 0. -1.
        -11    1    1    2    0    0 -0.51086031237E+00  0.28075574739E+01  0.18000318095E+03  0.18002579956E+03  0.00000000000E+00 0. -1.
         11    1    1    2    0    0  0.19850651914E+01 -0.15848702606E+01 -0.18011182689E+03  0.18012973792E+03  0.00000000000E+00 0. -1.
        -15    1    1    2    0    0 -0.14459659448E+01 -0.11551350154E+00  0.10809836568E+01  0.25358264035E+01  0.17770000000E+01 0. -1.
         15    1    1    2    0    0 -0.28238934212E-01 -0.11071737117E+01 -0.97233770941E+00  0.23086361096E+01  0.17770000000E+01 0.  1.
</event>
<event>
 6    1  0.1059789E-002  0.1843013E+03  0.7546771E-02  0.1067030E+00
        -11   -1    0    0    0    0  0.00000000000E+00  0.00000000000E+00  0.18250000000E+03  0.18250000000E+03  0.00000000000E+00 0.  1.
         11   -1    0    0    0    0 -0.00000000000E+00 -0.00000000000E+00 -0.18250000000E+03  0.18250000000E+03  0.00000000000E+00 0. -1.
        -11    1    1    2    0    0  0.12350578846E+01 -0.29452764092E+01  0.18067042622E+03  0.18069865227E+03  0.00000000000E+00 0.  1.
         11    1    1    2    0    0 -0.93092999461E-01  0.18651676884E+01 -0.10649464210E+03  0.10651101498E+03  0.00000000000E+00 0. -1.
        -15    1    1    2    0    0 -0.10424352698E+01  0.29942862389E+01 -0.74970407699E+02  0.75058458424E+02  0.17770000000E+01 0. -1.
         15    1    1    2    0    0 -0.99529615296E-01 -0.19141775181E+01  0.79462357875E+00  0.27318743285E+01  0.17770000000E+01 0.  1.
</event>
<event>
 6    1  0.1059789E-002  0.1858337E+03  0.7546771E-02  0.1065832E+00
        -11   -1    0    0    0    0  0.00000000000E+00  0.00000000000E+00  0.18250000000E+03  0.18250000000E+03  0.00000000000E+00 0.  1.
         11   -1    0    0    0    0 -0.00000000000E+00 -0.00000000000E+00 -0.18250000000E+03  0.18250000000E+03  0.00000000000E+00 0.  1.
        -11    1    1    2    0    0 -0.17515693862E+01 -0.39645307358E+01  0.16805217284E+03  0.16810805541E+03  0.00000000000E+00 0.  1.
         11    1    1    2    0    0 -0.34999408281E+01 -0.55217492730E+01 -0.17904701313E+03  0.17916632555E+03  0.00000000000E+00 0.  1.
        -15    1    1    2    0    0  0.56682106337E+00  0.13484168473E+01 -0.89652117079E+00  0.24700188910E+01  0.17770000000E+01 0.  1.
         15    1    1    2    0    0  0.46846891508E+01  0.81378631614E+01  0.11891361464E+02  0.15255600144E+02  0.17770000000E+01 0. -1.
</event>
<event>
 6    1  0.1059789E-002  0.1844894E+03  0.7546771E-02  0.1066882E+00
        -11   -1    0    0    0    0  0.00000000000E+00  0.00000000000E+00  0.18250000000E+03  0.18250000000E+03  0.00000000000E+00 0.  1.
         11   -1    0    0    0    0 -0.00000000000E+00 -0.00000000000E+00 -0.18250000000E+03  0.18250000000E+03  0.00000000000E+00 0.  1.
        -11    1    1    2    0    0 -0.49751474769E+00 -0.23984925704E+01  0.18049402504E+03  0.18051064612E+03  0.00000000000E+00 0.  1.
         11    1    1    2    0    0  0.32472741743E+01 -0.35242009374E+01 -0.12120181430E+03  0.12129651509E+03  0.00000000000E+00 0.  1.
        -15    1    1    2    0    0 -0.37580092147E+01  0.45916950952E+01 -0.60254061850E+02  0.60571577456E+02  0.17770000000E+01 0.  1.
         15    1    1    2    0    0  0.10082497881E+01  0.13309984126E+01  0.96185111145E+00  0.26212613319E+01  0.17770000000E+01 0.  1.
</event>
<event>
 6    1  0.1059789E-002  0.1843766E+03  0.7546771E-02  0.1066971E+00
        -11   -1    0    0    0    0  0.00000000000E+00  0.00000000000E+00  0.18250000000E+03  0.18250000000E+03  0.00000000000E+00 0. -1.
         11   -1    0    0    0    0 -0.00000000000E+00 -0.00000000000E+00 -0.18250000000E+03  0.18250000000E+03  0.00000000000E+00 0.  1.
        -11    1    1    2    0    0  0.10071733413E+01  0.22848592843E+01  0.70902146414E+02  0.70946101698E+02  0.00000000000E+00 0. -1.
         11    1    1    2    0    0 -0.26376942894E+01 -0.84134413634E+00 -0.18060221132E+03  0.18062343155E+03  0.00000000000E+00 0.  1.
        -15    1    1    2    0    0 -0.90921499535E+01 -0.46561194502E+01  0.90818767306E+02  0.91408713278E+02  0.17770000000E+01 0.  1.
         15    1    1    2    0    0  0.10722670902E+02  0.32126043022E+01  0.18881297605E+02  0.22021753470E+02  0.17770000000E+01 0. -1.
</event>
<event>
 6    1  0.1059789E-002  0.1703167E+03  0.7546771E-02  0.1078589E+00
        -11   -1    0    0    0    0  0.00000000000E+00  0.00000000000E+00  0.18250000000E+03  0.18250000000E+03  0.00000000000E+00 0.  1.
         11   -1    0    0    0    0 -0.00000000000E+00 -0.00000000000E+00 -0.18250000000E+03  0.18250000000E+03  0.00000000000E+00 0. -1.
        -11    1    1    2    0    0  0.36189748983E+01  0.11280815984E+01  0.16970676341E+03  0.16974909453E+03  0.00000000000E+00 0.  1.
         11    1    1    2    0    0  0.52384031102E+01 -0.10979335678E+02 -0.17071046766E+03  0.17114336227E+03  0.00000000000E+00 0. -1.
        -15    1    1    2    0    0 -0.49868894216E+01  0.10031901616E+02 -0.81785382970E+01  0.13984074293E+02  0.17770000000E+01 0.  1.
         15    1    1    2    0    0 -0.38704885869E+01 -0.18064753670E+00  0.91822425555E+01  0.10123468911E+02  0.17770000000E+01 0. -1.
</event>
<event>
 6    1  0.1059789E-002  0.1842899E+03  0.7546771E-02  0.1067039E+00
        -11   -1    0    0    0    0  0.00000000000E+00  0.00000000000E+00  0.18250000000E+03  0.18250000000E+03  0.00000000000E+00 0. -1.
         11   -1    0    0    0    0 -0.00000000000E+00 -0.00000000000E+00 -0.18250000000E+03  0.18250000000E+03  0.00000000000E+00 0.  1.
        -11    1    1    2    0    0  0.14337969355E+01 -0.20855358788E+01  0.18069235484E+03  0.18071007811E+03  0.00000000000E+00 0. -1.
         11    1    1    2    0    0  0.30210698093E+01 -0.19841523107E+01 -0.16850453354E+03  0.16854329280E+03  0.00000000000E+00 0.  1.
        -15    1    1    2    0    0  0.11706524747E+01 -0.17142168554E+00 -0.53871303640E+01  0.57947144165E+01  0.17770000000E+01 0.  1.
         15    1    1    2    0    0 -0.56255192196E+01  0.42411098750E+01 -0.68006909386E+01  0.99519146753E+01  0.17770000000E+01 0. -1.
</event>
<event>
 6    1  0.1059789E-002  0.1827612E+03  0.7546771E-02  0.1068247E+00
        -11   -1    0    0    0    0  0.00000000000E+00  0.00000000000E+00  0.18250000000E+03  0.18250000000E+03  0.00000000000E+00 0. -1.
         11   -1    0    0    0    0 -0.00000000000E+00 -0.00000000000E+00 -0.18250000000E+03  0.18250000000E+03  0.00000000000E+00 0.  1.
        -11    1    1    2    0    0  0.16107622368E+01  0.94157297993E+00  0.41632310206E+02  0.41674097084E+02  0.00000000000E+00 0. -1.
         11    1    1    2    0    0 -0.18789413644E+01 -0.25914585915E+01 -0.18221070260E+03  0.18223881644E+03  0.00000000000E+00 0.  1.
        -15    1    1    2    0    0 -0.16115930773E+01 -0.11891870679E+01  0.12545620234E+03  0.12548477132E+03  0.17770000000E+01 0. -1.
         15    1    1    2    0    0  0.18797722049E+01  0.28390726795E+01  0.15122190046E+02  0.15602315149E+02  0.17770000000E+01 0. -1.
</event>
<event>
 6    1  0.1059789E-002  0.1792159E+03  0.7546771E-02  0.1071099E+00
        -11   -1    0    0    0    0  0.00000000000E+00  0.00000000000E+00  0.18250000000E+03  0.18250000000E+03  0.00000000000E+00 0.  1.
         11   -1    0    0    0    0 -0.00000000000E+00 -0.00000000000E+00 -0.18250000000E+03  0.18250000000E+03  0.00000000000E+00 0. -1.
        -11    1    1    2    0    0  0.18325639853E+01 -0.40738354826E+01  0.18010767092E+03  0.18016305823E+03  0.00000000000E+00 0.  1.
         11    1    1    2    0    0  0.19573942600E+01  0.20866593955E+01 -0.17827610054E+03  0.17829905654E+03  0.00000000000E+00 0. -1.
        -15    1    1    2    0    0 -0.83723788222E-01  0.50255284673E+00 -0.14739022782E+00  0.18544600065E+01  0.17770000000E+01 0. -1.
         15    1    1    2    0    0 -0.37062344571E+01  0.14846232403E+01 -0.16841801571E+01  0.46834252228E+01  0.17770000000E+01 0.  1.
</event>
<event>
 6    1  0.1059789E-002  0.1876360E+03  0.7546771E-02  0.1064438E+00
        -11   -1    0    0    0    0  0.00000000000E+00  0.00000000000E+00  0.18250000000E+03  0.18250000000E+03  0.00000000000E+00 0. -1.
         11   -1    0    0    0    0 -0.00000000000E+00 -0.00000000000E+00 -0.18250000000E+03  0.18250000000E+03  0.00000000000E+00 0.  1.
        -11    1    1    2    0    0  0.33522156938E+01 -0.24141942505E+01  0.17731583742E+03  0.17736395317E+03  0.00000000000E+00 0. -1.
         11    1    1    2    0    0  0.77566503285E+01  0.87123665776E+00 -0.17004870046E+03  0.17022774511E+03  0.00000000000E+00 0.  1.
        -15    1    1    2    0    0  0.14717982774E+01  0.89363186543E+00 -0.32139820729E+01  0.40561284306E+01  0.17770000000E+01 0.  1.
         15    1    1    2    0    0 -0.12580664300E+02  0.64932572731E+00 -0.40531548841E+01  0.13352173293E+02  0.17770000000E+01 0.  1.
</event>
<event>
 6    1  0.1059789E-002  0.1860814E+03  0.7546771E-02  0.1065639E+00
        -11   -1    0    0    0    0  0.00000000000E+00  0.00000000000E+00  0.18250000000E+03  0.18250000000E+03  0.00000000000E+00 0.  1.
         11   -1    0    0    0    0 -0.00000000000E+00 -0.00000000000E+00 -0.18250000000E+03  0.18250000000E+03  0.00000000000E+00 0. -1.
        -11    1    1    2    0    0 -0.38288034598E+00  0.33799724782E+01  0.16324344012E+03  0.16327887663E+03  0.00000000000E+00 0.  1.
         11    1    1    2    0    0 -0.41619385952E+01 -0.50555808941E+01 -0.17879875959E+03  0.17891863252E+03  0.00000000000E+00 0. -1.
        -15    1    1    2    0    0  0.66162608090E+01  0.43111316169E+01  0.14847693471E+01  0.82294004597E+01  0.17770000000E+01 0.  1.
         15    1    1    2    0    0 -0.20714418679E+01 -0.26355232010E+01  0.14070550119E+02  0.14573090393E+02  0.17770000000E+01 0.  1.
</event>
<event>
 6    1  0.1059789E-002  0.1843551E+03  0.7546771E-02  0.1066988E+00
        -11   -1    0    0    0    0  0.00000000000E+00  0.00000000000E+00  0.18250000000E+03  0.18250000000E+03  0.00000000000E+00 0.  1.
         11   -1    0    0    0    0 -0.00000000000E+00 -0.00000000000E+00 -0.18250000000E+03  0.18250000000E+03  0.00000000000E+00 0. -1.
        -11    1    1    2    0    0 -0.23013943139E+01 -0.46801483058E+01  0.58198888856E+02  0.58432104771E+02  0.00000000000E+00 0.  1.
         11    1    1    2    0    0  0.94839086460E+01  0.13235431412E+01 -0.18039095020E+03  0.18064493130E+03  0.00000000000E+00 0. -1.
        -15    1    1    2    0    0 -0.58368139255E+01  0.81434847176E+01  0.11961537178E+03  0.12004740579E+03  0.17770000000E+01 0.  1.
         15    1    1    2    0    0 -0.13457004066E+01 -0.47868795530E+01  0.25766895597E+01  0.58755581460E+01  0.17770000000E+01 0. -1.
</event>
<event>
 6    1  0.1059789E-002  0.1842357E+03  0.7546771E-02  0.1067082E+00
        -11   -1    0    0    0    0  0.00000000000E+00  0.00000000000E+00  0.18250000000E+03  0.18250000000E+03  0.00000000000E+00 0. -1.
         11   -1    0    0    0    0 -0.00000000000E+00 -0.00000000000E+00 -0.18250000000E+03  0.18250000000E+03  0.00000000000E+00 0. -1.
        -11    1    1    2    0    0 -0.21273922393E+01 -0.44909089331E+01  0.18069595121E+03  0.18076426872E+03  0.00000000000E+00 0. -1.
         11    1    1    2    0    0 -0.26534737322E+01  0.17627760877E+01 -0.16647649043E+03  0.16650696732E+03  0.00000000000E+00 0. -1.
        -15    1    1    2    0    0 -0.97241728247E+00  0.71775171539E+00  0.82170670660E-02  0.21490833898E+01  0.17770000000E+01 0.  1.
         15    1    1    2    0    0  0.57532832540E+01  0.20103811300E+01 -0.14227677853E+02  0.15579680568E+02  0.17770000000E+01 0. -1.
</event>
<event>
 6    1  0.1059789E-002  0.1902040E+03  0.7546771E-02  0.1062483E+00
        -11   -1    0    0    0    0  0.00000000000E+00  0.00000000000E+00  0.18250000000E+03  0.18250000000E+03  0.00000000000E+00 0.  1.
         11   -1    0    0    0    0 -0.00000000000E+00 -0.00000000000E+00 -0.18250000000E+03  0.18250000000E+03  0.00000000000E+00 0. -1.
        -11    1    1    2    0    0  0.26790684798E+01  0.19163920328E+01  0.15637943480E+03  0.15641412211E+03  0.00000000000E+00 0.  1.
         11    1    1    2    0    0  0.10775659964E+02 -0.77967275360E+01 -0.17428920636E+03  0.17479597038E+03  0.00000000000E+00 0. -1.
        -15    1    1    2    0    0 -0.11694438537E+01 -0.40352525600E+01  0.17299630436E+02  0.17890941964E+02  0.17770000000E+01 0. -1.
         15    1    1    2    0    0 -0.12285284590E+02  0.99155880632E+01  0.61014112509E+00  0.15898965542E+02  0.17770000000E+01 0.  1.
</event>
<event>
 6    1  0.1059789E-002  0.1844119E+03  0.7546771E-02  0.1066943E+00
        -11   -1    0    0    0    0  0.00000000000E+00  0.00000000000E+00  0.18250000000E+03  0.18250000000E+03  0.00000000000E+00 0.  1.
         11   -1    0    0    0    0 -0.00000000000E+00 -0.00000000000E+00 -0.18250000000E+03  0.18250000000E+03  0.00000000000E+00 0. -1.
        -11    1    1    2    0    0  0.33818891774E+00  0.27676017160E+01  0.18056654163E+03  0.18058806701E+03  0.00000000000E+00 0.  1.
         11    1    1    2    0    0 -0.28871808119E+01  0.51136294378E+01 -0.15491657588E+03  0.15502783782E+03  0.00000000000E+00 0. -1.
        -15    1    1    2    0    0 -0.11478829354E+01 -0.14086256202E+01  0.74406635446E-01  0.25426613457E+01  0.17770000000E+01 0. -1.
         15    1    1    2    0    0  0.36968748296E+01 -0.64726055336E+01 -0.25724372386E+02  0.26841433820E+02  0.17770000000E+01 0.  1.
</event>
<event>
 6    1  0.1059789E-002  0.1830137E+03  0.7546771E-02  0.1068047E+00
        -11   -1    0    0    0    0  0.00000000000E+00  0.00000000000E+00  0.18250000000E+03  0.18250000000E+03  0.00000000000E+00 0. -1.
         11   -1    0    0    0    0 -0.00000000000E+00 -0.00000000000E+00 -0.18250000000E+03  0.18250000000E+03  0.00000000000E+00 0.  1.
        -11    1    1    2    0    0 -0.50025886610E+01 -0.88047590436E+00  0.15530534111E+03  0.15538838473E+03  0.00000000000E+00 0. -1.
         11    1    1    2    0    0  0.19711361045E+01  0.16909176452E+01 -0.18196780317E+03  0.18198633457E+03  0.00000000000E+00 0.  1.
        -15    1    1    2    0    0  0.63713883361E+00 -0.26940684339E+01  0.83181430899E+01  0.89450088923E+01  0.17770000000E+01 0.  1.
         15    1    1    2    0    0  0.23943137229E+01  0.18836266930E+01  0.18344318961E+02  0.18680271809E+02  0.17770000000E+01 0. -1.
</event>
<event>
 6    1  0.1059789E-002  0.1826559E+03  0.7546771E-02  0.1068331E+00
        -11   -1    0    0    0    0  0.00000000000E+00  0.00000000000E+00  0.18250000000E+03  0.18250000000E+03  0.00000000000E+00 0. -1.
         11   -1    0    0    0    0 -0.00000000000E+00 -0.00000000000E+00 -0.18250000000E+03  0.18250000000E+03  0.00000000000E+00 0.  1.
        -11    1    1    2    0    0  0.71145113146E+00 -0.64729457587E+00  0.71174549025E+02  0.71181047912E+02  0.00000000000E+00 0. -1.
         11    1    1    2    0    0  0.28958412464E+01  0.30602537287E+01 -0.18229536969E+03  0.18234405080E+03  0.00000000000E+00 0.  1.
        -15    1    1    2    0    0 -0.27299253975E+01 -0.63042749953E+00  0.99377625381E+02  0.99432992949E+02  0.17770000000E+01 0. -1.
         15    1    1    2    0    0 -0.87736698035E+00 -0.17825316533E+01  0.11743195288E+02  0.12041908341E+02  0.17770000000E+01 0.  1.
</event>
<event>
 6    1  0.1059789E-002  0.1833912E+03  0.7546771E-02  0.1067748E+00
        -11   -1    0    0    0    0  0.00000000000E+00  0.00000000000E+00  0.18250000000E+03  0.18250000000E+03  0.00000000000E+00 0. -1.
         11   -1    0    0    0    0 -0.00000000000E+00 -0.00000000000E+00 -0.18250000000E+03  0.18250000000E+03  0.00000000000E+00 0. -1.
        -11    1    1    2    0    0  0.14568005603E+01  0.20076194543E+01  0.15183205254E+03  0.15185231306E+03  0.00000000000E+00 0. -1.
         11    1    1    2    0    0  0.13284612152E+01  0.21782155286E+01 -0.18159082889E+03  0.18160875135E+03  0.00000000000E+00 0. -1.
        -15    1    1    2    0    0  0.28331838680E+01 -0.35819873439E+00  0.11213561837E+02  0.11707131811E+02  0.17770000000E+01 0. -1.
         15    1    1    2    0    0 -0.56184456435E+01 -0.38276362486E+01  0.18545214512E+02  0.19831803775E+02  0.17770000000E+01 0.  1.
</event>
<event>
 6    1  0.1059789E-002  0.1837060E+03  0.7546771E-02  0.1067499E+00
        -11   -1    0    0    0    0  0.00000000000E+00  0.00000000000E+00  0.18250000000E+03  0.18250000000E+03  0.00000000000E+00 0. -1.
         11   -1    0    0    0    0 -0.00000000000E+00 -0.00000000000E+00 -0.18250000000E+03  0.18250000000E+03  0.00000000000E+00 0. -1.
        -11    1    1    2    0    0  0.34319014095E+01 -0.33004468111E+01  0.18123143503E+03  0.18129397105E+03  0.00000000000E+00 0. -1.
         11    1    1    2    0    0  0.44823283768E+01 -0.31527740562E+01 -0.10108152473E+03  0.10122996539E+03  0.00000000000E+00 0. -1.
        -15    1    1    2    0    0 -0.30986644806E+01  0.11565217017E+02 -0.54103916015E+02  0.55441387279E+02  0.17770000000E+01 0. -1.
         15    1    1    2    0    0 -0.48155653058E+01 -0.51119961497E+01 -0.26045994286E+02  0.27034676273E+02  0.17770000000E+01 0.  1.
</event>
<event>
 6    1  0.1059789E-002  0.1827138E+03  0.7546771E-02  0.1068285E+00
        -11   -1    0    0    0    0  0.00000000000E+00  0.00000000000E+00  0.18250000000E+03  0.18250000000E+03  0.00000000000E+00 0.  1.
         11   -1    0    0    0    0 -0.00000000000E+00 -0.00000000000E+00 -0.18250000000E+03  0.18250000000E+03  0.00000000000E+00 0. -1.
        -11    1    1    2    0    0 -0.30003182664E+01  0.30326242468E+01  0.18223626209E+03  0.18228618691E+03  0.00000000000E+00 0.  1.
         11    1    1    2    0    0  0.18528966367E+01  0.34237694841E+00 -0.74881953772E+02  0.74905656987E+02  0.00000000000E+00 0. -1.
        -15    1    1    2    0    0  0.36813140520E+01 -0.32200366643E+00 -0.24572081573E+02  0.24911858247E+02  0.17770000000E+01 0. -1.
         15    1    1    2    0    0 -0.25338924223E+01 -0.30529975287E+01 -0.82782226741E+02  0.82896297854E+02  0.17770000000E+01 0.  1.
</event>
<event>
 6    1  0.1059789E-002  0.1774798E+03  0.7546771E-02  0.1072523E+00
        -11   -1    0    0    0    0  0.00000000000E+00  0.00000000000E+00  0.18250000000E+03  0.18250000000E+03  0.00000000000E+00 0. -1.
         11   -1    0    0    0    0 -0.00000000000E+00 -0.00000000000E+00 -0.18250000000E+03  0.18250000000E+03  0.00000000000E+00 0. -1.
        -11    1    1    2    0    0 -0.31028639666E+01 -0.19514545610E+00  0.17539942118E+03  0.17542697283E+03  0.00000000000E+00 0. -1.
         11    1    1    2    0    0 -0.42413476537E+01 -0.93379099396E-01 -0.17958324056E+03  0.17963334334E+03  0.00000000000E+00 0. -1.
        -15    1    1    2    0    0  0.16371318591E+01  0.99928778600E+00  0.98688056929E-02  0.26146898854E+01  0.17770000000E+01 0. -1.
         15    1    1    2    0    0  0.57070797611E+01 -0.71076323050E+00  0.41739505792E+01  0.73249939391E+01  0.17770000000E+01 0. -1.
</event>
<event>
 6    1  0.1059789E-002  0.1843803E+03  0.7546771E-02  0.1066968E+00
        -11   -1    0    0    0    0  0.00000000000E+00  0.00000000000E+00  0.18250000000E+03  0.18250000000E+03  0.00000000000E+00 0. -1.
         11   -1    0    0    0    0 -0.00000000000E+00 -0.00000000000E+00 -0.18250000000E+03  0.18250000000E+03  0.00000000000E+00 0.  1.
        -11    1    1    2    0    0 -0.47229869266E+01  0.14250641214E+00  0.15605065274E+03  0.15612217375E+03  0.00000000000E+00 0. -1.
         11    1    1    2    0    0 -0.42095596401E+01 -0.84116171383E+01 -0.18037461252E+03  0.18061970141E+03  0.00000000000E+00 0.  1.
        -15    1    1    2    0    0  0.79021677383E+01  0.61089847615E+01  0.12681598387E+02  0.16240216022E+02  0.17770000000E+01 0.  1.
         15    1    1    2    0    0  0.10303788284E+01  0.21601259647E+01  0.11642361389E+02  0.12017908821E+02  0.17770000000E+01 0. -1.
</event>
<event>
 6    1  0.1059789E-002  0.1896535E+03  0.7546771E-02  0.1062899E+00
        -11   -1    0    0    0    0  0.00000000000E+00  0.00000000000E+00  0.18250000000E+03  0.18250000000E+03  0.00000000000E+00 0.  1.
         11   -1    0    0    0    0 -0.00000000000E+00 -0.00000000000E+00 -0.18250000000E+03  0.18250000000E+03  0.00000000000E+00 0.  1.
        -11    1    1    2    0    0  0.16667393532E+02 -0.12862919601E+01  0.17454779551E+03  0.17534648406E+03  0.00000000000E+00 0.  1.
         11    1    1    2    0    0 -0.32081300307E+01  0.54502172707E+00 -0.16299892156E+03  0.16303140058E+03  0.00000000000E+00 0.  1.
        -15    1    1    2    0    0  0.15966023935E+01  0.27556934441E+01 -0.10700563679E+02  0.11304989058E+02  0.17770000000E+01 0. -1.
         15    1    1    2    0    0 -0.15055865895E+02 -0.20144232110E+01 -0.84831027532E+00  0.15317126298E+02  0.17770000000E+01 0.  1.
</event>
<event>
 6    1  0.1059789E-002  0.1827518E+03  0.7546771E-02  0.1068255E+00
        -11   -1    0    0    0    0  0.00000000000E+00  0.00000000000E+00  0.18250000000E+03  0.18250000000E+03  0.00000000000E+00 0.  1.
         11   -1    0    0    0    0 -0.00000000000E+00 -0.00000000000E+00 -0.18250000000E+03  0.18250000000E+03  0.00000000000E+00 0. -1.
        -11    1    1    2    0    0  0.10298210666E+01  0.22969914199E+01  0.18223077391E+03  0.18224815955E+03  0.00000000000E+00 0.  1.
         11    1    1    2    0    0  0.16785313709E+01 -0.71503926348E-01 -0.11601834377E+03  0.11603050750E+03  0.00000000000E+00 0. -1.
        -15    1    1    2    0    0 -0.41844357083E+01 -0.57329322343E+00 -0.53482376442E+02  0.53678305545E+02  0.17770000000E+01 0. -1.
         15    1    1    2    0    0  0.14760832708E+01 -0.16521942701E+01 -0.12730053696E+02  0.13043027403E+02  0.17770000000E+01 0.  1.
</event>
<event>
 6    1  0.1059789E-002  0.1865585E+03  0.7546771E-02  0.1065269E+00
        -11   -1    0    0    0    0  0.00000000000E+00  0.00000000000E+00  0.18250000000E+03  0.18250000000E+03  0.00000000000E+00 0.  1.
         11   -1    0    0    0    0 -0.00000000000E+00 -0.00000000000E+00 -0.18250000000E+03  0.18250000000E+03  0.00000000000E+00 0. -1.
        -11    1    1    2    0    0 -0.33194410465E+01 -0.43267809786E+01  0.16520943196E+03  0.16529941358E+03  0.00000000000E+00 0.  1.
         11    1    1    2    0    0 -0.55722350855E+01  0.95626145818E+00 -0.17835189875E+03  0.17844148629E+03  0.00000000000E+00 0. -1.
        -15    1    1    2    0    0  0.85760427599E+01  0.19636366725E+01  0.11485475547E+01  0.90488269343E+01  0.17770000000E+01 0.  1.
         15    1    1    2    0    0  0.31563337214E+00  0.14068828479E+01  0.11993919240E+02  0.12210273195E+02  0.17770000000E+01 0. -1.
</event>
<event>
 6    1  0.1059789E-002  0.1834827E+03  0.7546771E-02  0.1067675E+00
        -11   -1    0    0    0    0  0.00000000000E+00  0.00000000000E+00  0.18250000000E+03  0.18250000000E+03  0.00000000000E+00 0. -1.
         11   -1    0    0    0    0 -0.00000000000E+00 -0.00000000000E+00 -0.18250000000E+03  0.18250000000E+03  0.00000000000E+00 0. -1.
        -11    1    1    2    0    0  0.23417845574E+01  0.31812515978E+01  0.10496958863E+03  0.10504389013E+03  0.00000000000E+00 0. -1.
         11    1    1    2    0    0  0.44277413461E+01  0.49540984399E+01 -0.18139561445E+03  0.18151726344E+03  0.00000000000E+00 0. -1.
        -15    1    1    2    0    0 -0.61599174574E+01 -0.44232447904E+01  0.71783747164E+02  0.72205081286E+02  0.17770000000E+01 0. -1.
         15    1    1    2    0    0 -0.60960844612E+00 -0.37121052474E+01  0.46422786549E+01  0.62337651492E+01  0.17770000000E+01 0.  1.
</event>
<event>
 6    1  0.1059789E-002  0.1878487E+03  0.7546771E-02  0.1064275E+00
        -11   -1    0    0    0    0  0.00000000000E+00  0.00000000000E+00  0.18250000000E+03  0.18250000000E+03  0.00000000000E+00 0. -1.
         11   -1    0    0    0    0 -0.00000000000E+00 -0.00000000000E+00 -0.18250000000E+03  0.18250000000E+03  0.00000000000E+00 0.  1.
        -11    1    1    2    0    0 -0.27644158734E+00  0.28994044239E+01  0.17712731570E+03  0.17715126004E+03  0.00000000000E+00 0. -1.
         11    1    1    2    0    0 -0.30927964454E+01  0.89512409817E+00 -0.16041542283E+03  0.16044773143E+03  0.00000000000E+00 0.  1.
        -15    1    1    2    0    0  0.21743954611E+01  0.22572138129E+01  0.41955644139E+01  0.55302350375E+01  0.17770000000E+01 0. -1.
         15    1    1    2    0    0  0.11948425717E+01 -0.60517423350E+01 -0.20907457286E+02  0.21870773494E+02  0.17770000000E+01 0.  1.
</event>
<event>
 6    1  0.1059789E-002  0.1854228E+03  0.7546771E-02  0.1066152E+00
        -11   -1    0    0    0    0  0.00000000000E+00  0.00000000000E+00  0.18250000000E+03  0.18250000000E+03  0.00000000000E+00 0.  1.
         11   -1    0    0    0    0 -0.00000000000E+00 -0.00000000000E+00 -0.18250000000E+03  0.18250000000E+03  0.00000000000E+00 0.  1.
        -11    1    1    2    0    0  0.16499773077E+01  0.19869677193E+01  0.17631901614E+03  0.17633793103E+03  0.00000000000E+00 0.  1.
         11    1    1    2    0    0  0.30742775585E+01 -0.40038231034E+01 -0.17950624635E+03  0.17957720974E+03  0.00000000000E+00 0.  1.
        -15    1    1    2    0    0 -0.30651187949E+01  0.33725360929E+01  0.51349618374E-01  0.48917602872E+01  0.17770000000E+01 0.  1.
         15    1    1    2    0    0 -0.16591360713E+01 -0.13556807088E+01  0.31358805874E+01  0.41930989430E+01  0.17770000000E+01 0. -1.
</event>
<event>
 6    1  0.1059789E-002  0.1840271E+03  0.7546771E-02  0.1067246E+00
        -11   -1    0    0    0    0  0.00000000000E+00  0.00000000000E+00  0.18250000000E+03  0.18250000000E+03  0.00000000000E+00 0.  1.
         11   -1    0    0    0    0 -0.00000000000E+00 -0.00000000000E+00 -0.18250000000E+03  0.18250000000E+03  0.00000000000E+00 0. -1.
        -11    1    1    2    0    0  0.49879882384E+01 -0.54499680007E+01  0.12604111149E+03  0.12625745112E+03  0.00000000000E+00 0.  1.
         11    1    1    2    0    0  0.56668239322E+01 -0.46274719936E+01 -0.18082498737E+03  0.18097293292E+03  0.00000000000E+00 0. -1.
        -15    1    1    2    0    0 -0.46314446803E+01 -0.12658048158E+01  0.11558530879E+02  0.12641594311E+02  0.17770000000E+01 0. -1.
         15    1    1    2    0    0 -0.60233674904E+01  0.11343244810E+02  0.43225344998E+02  0.45128021649E+02  0.17770000000E+01 0.  1.
</event>
<event>
 6    1  0.1059789E-002  0.1840059E+03  0.7546771E-02  0.1067262E+00
        -11   -1    0    0    0    0  0.00000000000E+00  0.00000000000E+00  0.18250000000E+03  0.18250000000E+03  0.00000000000E+00 0. -1.
         11   -1    0    0    0    0 -0.00000000000E+00 -0.00000000000E+00 -0.18250000000E+03  0.18250000000E+03  0.00000000000E+00 0. -1.
        -11    1    1    2    0    0 -0.53519238957E+00  0.27167050285E+01  0.18097294172E+03  0.18099412297E+03  0.00000000000E+00 0. -1.
         11    1    1    2    0    0 -0.22590050914E+01 -0.39439243569E+00 -0.15394745494E+03  0.15396453335E+03  0.00000000000E+00 0. -1.
        -15    1    1    2    0    0  0.69843442417E+01 -0.39709877896E+01 -0.15727593091E+02  0.17750062590E+02  0.17770000000E+01 0.  1.
         15    1    1    2    0    0 -0.41901467607E+01  0.16486751968E+01 -0.11297893691E+02  0.12291281082E+02  0.17770000000E+01 0.  1.
</event>
<event>
 6    1  0.1059789E-002  0.1877875E+03  0.7546771E-02  0.1064322E+00
        -11   -1    0    0    0    0  0.00000000000E+00  0.00000000000E+00  0.18250000000E+03  0.18250000000E+03  0.00000000000E+00 0. -1.
         11   -1    0    0    0    0 -0.00000000000E+00 -0.00000000000E+00 -0.18250000000E+03  0.18250000000E+03  0.00000000000E+00 0.  1.
        -11    1    1    2    0    0 -0.16415707588E+02 -0.18045998564E+02  0.13918570867E+03  0.14130744855E+03  0.00000000000E+00 0. -1.
         11    1    1    2    0    0 -0.18202601920E+01  0.41229102257E+01 -0.17715515117E+03  0.17721246944E+03  0.00000000000E+00 0.  1.
        -15    1    1    2    0    0  0.36875464699E+00 -0.58340904487E+00  0.10166639563E+02  0.10343821108E+02  0.17770000000E+01 0.  1.
         15    1    1    2    0    0  0.17867213133E+02  0.14506497384E+02  0.27802802944E+02  0.36136260903E+02  0.17770000000E+01 0. -1.
</event>
<event>
 6    1  0.1059789E-002  0.1858668E+03  0.7546771E-02  0.1065806E+00
        -11   -1    0    0    0    0  0.00000000000E+00  0.00000000000E+00  0.18250000000E+03  0.18250000000E+03  0.00000000000E+00 0. -1.
         11   -1    0    0    0    0 -0.00000000000E+00 -0.00000000000E+00 -0.18250000000E+03  0.18250000000E+03  0.00000000000E+00 0. -1.
        -11    1    1    2    0    0  0.39856156038E+01  0.15788110241E+01  0.17908190102E+03  0.17913320476E+03  0.00000000000E+00 0. -1.
         11    1    1    2    0    0  0.63763946651E+01 -0.39684416151E+01 -0.16261211728E+03  0.16278546503E+03  0.00000000000E+00 0. -1.
        -15    1    1    2    0    0 -0.63505111312E+01  0.25801116114E+01 -0.17226380735E+02  0.18625033954E+02  0.17770000000E+01 0. -1.
         15    1    1    2    0    0 -0.40114991377E+01 -0.19048102046E+00  0.75659699834E+00  0.44562962613E+01  0.17770000000E+01 0.  1.
</event>
<event>
 6    1  0.1059789E-002  0.1854966E+03  0.7546771E-02  0.1066094E+00
        -11   -1    0    0    0    0  0.00000000000E+00  0.00000000000E+00  0.18250000000E+03  0.18250000000E+03  0.00000000000E+00 0. -1.
         11   -1    0    0    0    0 -0.00000000000E+00 -0.00000000000E+00 -0.18250000000E+03  0.18250000000E+03  0.00000000000E+00 0.  1.
        -11    1    1    2    0    0 -0.32809891082E+01  0.43417822010E+01  0.17471852653E+03  0.17480325934E+03  0.00000000000E+00 0. -1.
         11    1    1    2    0    0  0.13721479508E+01  0.27576704719E+01 -0.17947693770E+03  0.17950336683E+03  0.00000000000E+00 0.  1.
        -15    1    1    2    0    0  0.29952912810E+01 -0.31648522159E+01  0.40023609085E+01  0.61777569755E+01  0.17770000000E+01 0.  1.
         15    1    1    2    0    0 -0.10864501236E+01 -0.39346004569E+01  0.75605026371E+00  0.45156168601E+01  0.17770000000E+01 0. -1.
</event>
<event>
 6    1  0.1059789E-002  0.1863343E+03  0.7546771E-02  0.1065443E+00
        -11   -1    0    0    0    0  0.00000000000E+00  0.00000000000E+00  0.18250000000E+03  0.18250000000E+03  0.00000000000E+00 0.  1.
         11   -1    0    0    0    0 -0.00000000000E+00 -0.00000000000E+00 -0.18250000000E+03  0.18250000000E+03  0.00000000000E+00 0. -1.
        -11    1    1    2    0    0 -0.20920572554E+01  0.24897519983E+01  0.17863608451E+03  0.17866568294E+03  0.00000000000E+00 0.  1.
         11    1    1    2    0    0  0.10827558493E+01 -0.28523001285E+01 -0.14135553713E+03  0.14138845729E+03  0.00000000000E+00 0. -1.
        -15    1    1    2    0    0  0.64837364774E+01  0.10381396033E+02 -0.12402120537E+02  0.17515208966E+02  0.17770000000E+01 0. -1.
         15    1    1    2    0    0 -0.54744350714E+01 -0.10018847903E+02 -0.24878426846E+02  0.27430650813E+02  0.17770000000E+01 0.  1.
</event>
<event>
 6    1  0.1059789E-002  0.1835074E+03  0.7546771E-02  0.1067656E+00
        -11   -1    0    0    0    0  0.00000000000E+00  0.00000000000E+00  0.18250000000E+03  0.18250000000E+03  0.00000000000E+00 0. -1.
         11   -1    0    0    0    0 -0.00000000000E+00 -0.00000000000E+00 -0.18250000000E+03  0.18250000000E+03  0.00000000000E+00 0.  1.
        -11    1    1    2    0    0 -0.52390853443E+00 -0.39751702945E+01  0.18144825553E+03  0.18149255052E+03  0.00000000000E+00 0. -1.
         11    1    1    2    0    0 -0.12887228133E+01  0.19174685747E+01 -0.10072236978E+03  0.10074886236E+03  0.00000000000E+00 0.  1.
        -15    1    1    2    0    0  0.45940419273E+01  0.81916334765E+01 -0.28269618201E+02  0.29841868616E+02  0.17770000000E+01 0. -1.
         15    1    1    2    0    0 -0.27814105795E+01 -0.61339317567E+01 -0.52456267545E+02  0.52916718505E+02  0.17770000000E+01 0.  1.
</event>
<event>
 6    1  0.1059789E-002  0.1992423E+03  0.7546771E-02  0.1055858E+00
        -11   -1    0    0    0    0  0.00000000000E+00  0.00000000000E+00  0.18250000000E+03  0.18250000000E+03  0.00000000000E+00 0.  1.
         11   -1    0    0    0    0 -0.00000000000E+00 -0.00000000000E+00 -0.18250000000E+03  0.18250000000E+03  0.00000000000E+00 0.  1.
        -11    1    1    2    0    0  0.10431195193E+02 -0.24813077702E+01  0.14596610103E+03  0.14635938429E+03  0.00000000000E+00 0.  1.
         11    1    1    2    0    0  0.34491970433E+01  0.21001406563E+01 -0.16570848103E+03  0.16575767927E+03  0.00000000000E+00 0.  1.
        -15    1    1    2    0    0 -0.12646034956E+02 -0.11807277503E+02 -0.10422992662E+02  0.20276353400E+02  0.17770000000E+01 0. -1.
         15    1    1    2    0    0 -0.12343572806E+01  0.12188444617E+02  0.30165372670E+02  0.32606583038E+02  0.17770000000E+01 0.  1.
</event>
<event>
 6    1  0.1059789E-002  0.1828800E+03  0.7546771E-02  0.1068153E+00
        -11   -1    0    0    0    0  0.00000000000E+00  0.00000000000E+00  0.18250000000E+03  0.18250000000E+03  0.00000000000E+00 0. -1.
         11   -1    0    0    0    0 -0.00000000000E+00 -0.00000000000E+00 -0.18250000000E+03  0.18250000000E+03  0.00000000000E+00 0. -1.
        -11    1    1    2    0    0  0.67537255939E+00 -0.15692585309E+01  0.91252043686E+02  0.91268034806E+02  0.00000000000E+00 0. -1.
         11    1    1    2    0    0 -0.67766120202E+00 -0.30042571787E+01 -0.18209396932E+03  0.18212001112E+03  0.00000000000E+00 0. -1.
        -15    1    1    2    0    0  0.32720270858E+01  0.50138762296E+01  0.29406909566E+02  0.30062753954E+02  0.17770000000E+01 0. -1.
         15    1    1    2    0    0 -0.32697384431E+01 -0.44036051998E+00  0.61435016072E+02  0.61549200122E+02  0.17770000000E+01 0.  1.
</event>
<event>
 6    1  0.1059789E-002  0.1799561E+03  0.7546771E-02  0.1070498E+00
        -11   -1    0    0    0    0  0.00000000000E+00  0.00000000000E+00  0.18250000000E+03  0.18250000000E+03  0.00000000000E+00 0.  1.
         11   -1    0    0    0    0 -0.00000000000E+00 -0.00000000000E+00 -0.18250000000E+03  0.18250000000E+03  0.00000000000E+00 0. -1.
        -11    1    1    2    0    0 -0.12527443828E+01 -0.98283263340E+00  0.49272705378E+01  0.51781583045E+01  0.00000000000E+00 0.  1.
         11    1    1    2    0    0  0.80432520339E+00 -0.27797136429E+01 -0.18227817398E+03  0.18230114223E+03  0.00000000000E+00 0. -1.
        -15    1    1    2    0    0  0.89589046411E+00 -0.85512307826E+00  0.91886248021E+02  0.91911773781E+02  0.17770000000E+01 0. -1.
         15    1    1    2    0    0 -0.44747128465E+00  0.46176693545E+01  0.85464655426E+02  0.85608925685E+02  0.17770000000E+01 0.  1.
</event>
<event>
 6    1  0.1059789E-002  0.1834782E+03  0.7546771E-02  0.1067679E+00
        -11   -1    0    0    0    0  0.00000000000E+00  0.00000000000E+00  0.18250000000E+03  0.18250000000E+03  0.00000000000E+00 0. -1.
         11   -1    0    0    0    0 -0.00000000000E+00 -0.00000000000E+00 -0.18250000000E+03  0.18250000000E+03  0.00000000000E+00 0. -1.
        -11    1    1    2    0    0  0.65809930411E+01  0.23984274099E+01  0.18138660282E+03  0.18152179375E+03  0.00000000000E+00 0. -1.
         11    1    1    2    0    0 -0.29789682283E+01 -0.20541531260E+01 -0.15342083295E+03  0.15346349982E+03  0.00000000000E+00 0. -1.
        -15    1    1    2    0    0 -0.36494489052E+01 -0.45980799844E+01 -0.13405596279E+02  0.14742067611E+02  0.17770000000E+01 0. -1.
         15    1    1    2    0    0  0.47424092389E-01  0.42538057006E+01 -0.14560173600E+02  0.15272638811E+02  0.17770000000E+01 0.  1.
</event>
<event>
 6    1  0.1059789E-002  0.1846062E+03  0.7546771E-02  0.1066791E+00
        -11   -1    0    0    0    0  0.00000000000E+00  0.00000000000E+00  0.18250000000E+03  0.18250000000E+03  0.00000000000E+00 0. -1.
         11   -1    0    0    0    0 -0.00000000000E+00 -0.00000000000E+00 -0.18250000000E+03  0.18250000000E+03  0.00000000000E+00 0. -1.
        -11    1    1    2    0    0 -0.26794643619E+01 -0.27582118128E+01  0.18035280060E+03  0.18039379132E+03  0.00000000000E+00 0. -1.
         11    1    1    2    0    0 -0.32748815947E-01 -0.39961325212E+01 -0.15222940441E+03  0.15228184959E+03  0.00000000000E+00 0. -1.
        -15    1    1    2    0    0 -0.15723566544E+01  0.14456286777E+01  0.51955323213E+00  0.28266256002E+01  0.17770000000E+01 0. -1.
         15    1    1    2    0    0  0.42845698323E+01  0.53087156563E+01 -0.28642949425E+02  0.29497733495E+02  0.17770000000E+01 0.  1.
</event>
<event>
 6    1  0.1059789E-002  0.1907008E+03  0.7546771E-02  0.1062108E+00
        -11   -1    0    0    0    0  0.00000000000E+00  0.00000000000E+00  0.18250000000E+03  0.18250000000E+03  0.00000000000E+00 0. -1.
         11   -1    0    0    0    0 -0.00000000000E+00 -0.00000000000E+00 -0.18250000000E+03  0.18250000000E+03  0.00000000000E+00 0.  1.
        -11    1    1    2    0    0  0.98308221986E+01  0.59758543895E+01  0.11605329718E+03  0.11662214064E+03  0.00000000000E+00 0. -1.
         11    1    1    2    0    0 -0.26290023779E+01  0.39578164801E+01 -0.17423439678E+03  0.17429917093E+03  0.00000000000E+00 0.  1.
        -15    1    1    2    0    0  0.11666387532E+02 -0.11719541635E+02  0.46583821200E+01  0.17271667759E+02  0.17770000000E+01 0.  1.
         15    1    1    2    0    0 -0.18868207353E+02  0.17858707656E+01  0.53522717477E+02  0.56807020677E+02  0.17770000000E+01 0. -1.
</event>
<event>
 6    1  0.1059789E-002  0.1858879E+03  0.7546771E-02  0.1065790E+00
        -11   -1    0    0    0    0  0.00000000000E+00  0.00000000000E+00  0.18250000000E+03  0.18250000000E+03  0.00000000000E+00 0. -1.
         11   -1    0    0    0    0 -0.00000000000E+00 -0.00000000000E+00 -0.18250000000E+03  0.18250000000E+03  0.00000000000E+00 0.  1.
        -11    1    1    2    0    0 -0.89161826881E+01  0.24206099358E+01  0.17887365985E+03  0.17911209857E+03  0.00000000000E+00 0. -1.
         11    1    1    2    0    0  0.17230960930E+01  0.14170616027E+01 -0.16035698194E+03  0.16037250007E+03  0.00000000000E+00 0.  1.
        -15    1    1    2    0    0  0.55576426760E+01 -0.82767059694E+01 -0.17705991192E+02  0.20397330877E+02  0.17770000000E+01 0.  1.
         15    1    1    2    0    0  0.16354439192E+01  0.44390344309E+01 -0.81068671800E+00  0.51180704808E+01  0.17770000000E+01 0. -1.
</event>
<event>
 6    1  0.1059789E-002  0.1876437E+03  0.7546771E-02  0.1064433E+00
        -11   -1    0    0    0    0  0.00000000000E+00  0.00000000000E+00  0.18250000000E+03  0.18250000000E+03  0.00000000000E+00 0.  1.
         11   -1    0    0    0    0 -0.00000000000E+00 -0.00000000000E+00 -0.18250000000E+03  0.18250000000E+03  0.00000000000E+00 0.  1.
        -11    1    1    2    0    0  0.17174279617E+01 -0.55578615087E+00  0.13322482735E+03  0.13323705595E+03  0.00000000000E+00 0.  1.
         11    1    1    2    0    0  0.24024292713E+01  0.14436577296E+01 -0.17733418496E+03  0.17735633332E+03  0.00000000000E+00 0.  1.
        -15    1    1    2    0    0 -0.78177726163E+01  0.12841239479E+01 -0.17558611483E+01  0.83070644855E+01  0.17770000000E+01 0. -1.
         15    1    1    2    0    0  0.36979153833E+01 -0.21719955266E+01  0.45865218759E+02  0.46099546240E+02  0.17770000000E+01 0.  1.
</event>
<event>
 6    1  0.1059789E-002  0.1852280E+03  0.7546771E-02  0.1066304E+00
        -11   -1    0    0    0    0  0.00000000000E+00  0.00000000000E+00  0.18250000000E+03  0.18250000000E+03  0.00000000000E+00 0. -1.
         11   -1    0    0    0    0 -0.00000000000E+00 -0.00000000000E+00 -0.18250000000E+03  0.18250000000E+03  0.00000000000E+00 0. -1.
        -11    1    1    2    0    0 -0.22372539658E+01  0.17380098322E+01  0.17974966548E+03  0.17977198954E+03  0.00000000000E+00 0. -1.
         11    1    1    2    0    0 -0.49365349928E+01 -0.69345755447E+01 -0.14700344850E+03  0.14724969130E+03  0.00000000000E+00 0. -1.
        -15    1    1    2    0    0 -0.89605943916E+00  0.26755388298E+01  0.72305775338E+00  0.34120334206E+01  0.17770000000E+01 0.  1.
         15    1    1    2    0    0  0.80698483977E+01  0.25210268826E+01 -0.33469274734E+02  0.34566285741E+02  0.17770000000E+01 0. -1.
</event>
<event>
 6    1  0.1059789E-002  0.1834913E+03  0.7546771E-02  0.1067668E+00
        -11   -1    0    0    0    0  0.00000000000E+00  0.00000000000E+00  0.18250000000E+03  0.18250000000E+03  0.00000000000E+00 0. -1.
         11   -1    0    0    0    0 -0.00000000000E+00 -0.00000000000E+00 -0.18250000000E+03  0.18250000000E+03  0.00000000000E+00 0. -1.
        -11    1    1    2    0    0 -0.30629561198E+01 -0.40283014498E+00  0.18148238770E+03  0.18150868028E+03  0.00000000000E+00 0. -1.
         11    1    1    2    0    0  0.16243288934E+01 -0.17005267280E+01 -0.15552459875E+03  0.15554237703E+03  0.00000000000E+00 0. -1.
        -15    1    1    2    0    0 -0.21486779584E+01  0.33762649276E+01 -0.53312500037E+01  0.68989808981E+01  0.17770000000E+01 0.  1.
         15    1    1    2    0    0  0.35873051848E+01 -0.12729080546E+01 -0.20626538950E+02  0.21049961792E+02  0.17770000000E+01 0.  1.
</event>
<event>
 6    1  0.1059789E-002  0.1868816E+03  0.7546771E-02  0.1065020E+00
        -11   -1    0    0    0    0  0.00000000000E+00  0.00000000000E+00  0.18250000000E+03  0.18250000000E+03  0.00000000000E+00 0. -1.
         11   -1    0    0    0    0 -0.00000000000E+00 -0.00000000000E+00 -0.18250000000E+03  0.18250000000E+03  0.00000000000E+00 0. -1.
        -11    1    1    2    0    0  0.85750428770E+00  0.50400268457E+01  0.17804505797E+03  0.17811844332E+03  0.00000000000E+00 0. -1.
         11    1    1    2    0    0 -0.14227411876E+01 -0.16820419680E+01 -0.16116639906E+03  0.16118145565E+03  0.00000000000E+00 0. -1.
        -15    1    1    2    0    0 -0.40885911079E+00 -0.39229359274E+01 -0.20802676941E+02  0.21247721972E+02  0.17770000000E+01 0. -1.
         15    1    1    2    0    0  0.97409601071E+00  0.56495104969E+00  0.39240180362E+01  0.44523790579E+01  0.17770000000E+01 0.  1.
</event>
<event>
 6    1  0.1059789E-002  0.1755814E+03  0.7546771E-02  0.1074099E+00
        -11   -1    0    0    0    0  0.00000000000E+00  0.00000000000E+00  0.18250000000E+03  0.18250000000E+03  0.00000000000E+00 0. -1.
         11   -1    0    0    0    0 -0.00000000000E+00 -0.00000000000E+00 -0.18250000000E+03  0.18250000000E+03  0.00000000000E+00 0. -1.
        -11    1    1    2    0    0 -0.34560982428E+01 -0.26058481948E+01  0.17793653292E+03  0.17798917048E+03  0.00000000000E+00 0. -1.
         11    1    1    2    0    0 -0.38443756477E+01 -0.19340393953E+01 -0.17325662346E+03  0.17331006118E+03  0.00000000000E+00 0. -1.
        -15    1    1    2    0    0 -0.16320253439E+01  0.22552166579E+01 -0.22674977584E+01  0.40060933566E+01  0.17770000000E+01 0. -1.
         15    1    1    2    0    0  0.89324992345E+01  0.22846709322E+01 -0.24124117070E+01  0.96946749862E+01  0.17770000000E+01 0.  1.
</event>
<event>
 6    1  0.1059789E-002  0.1900703E+03  0.7546771E-02  0.1062584E+00
        -11   -1    0    0    0    0  0.00000000000E+00  0.00000000000E+00  0.18250000000E+03  0.18250000000E+03  0.00000000000E+00 0. -1.
         11   -1    0    0    0    0 -0.00000000000E+00 -0.00000000000E+00 -0.18250000000E+03  0.18250000000E+03  0.00000000000E+00 0. -1.
        -11    1    1    2    0    0 -0.21682538546E+02 -0.90108125262E+01  0.14055789788E+03  0.14250561350E+03  0.00000000000E+00 0. -1.
         11    1    1    2    0    0  0.13447542971E+02 -0.45625043657E+01 -0.17435236792E+03  0.17492970319E+03  0.00000000000E+00 0. -1.
        -15    1    1    2    0    0  0.12728329753E+02 -0.24195093539E+01  0.26053861316E+02  0.29151772198E+02  0.17770000000E+01 0.  1.
         15    1    1    2    0    0 -0.44933341781E+01  0.15992826246E+02  0.77406087228E+01  0.18412911116E+02  0.17770000000E+01 0. -1.
</event>
<event>
 6    1  0.1059789E-002  0.1827858E+03  0.7546771E-02  0.1068228E+00
        -11   -1    0    0    0    0  0.00000000000E+00  0.00000000000E+00  0.18250000000E+03  0.18250000000E+03  0.00000000000E+00 0.  1.
         11   -1    0    0    0    0 -0.00000000000E+00 -0.00000000000E+00 -0.18250000000E+03  0.18250000000E+03  0.00000000000E+00 0. -1.
        -11    1    1    2    0    0 -0.44862298364E+01  0.15931645756E+01  0.18215203667E+03  0.18221423900E+03  0.00000000000E+00 0.  1.
         11    1    1    2    0    0  0.46582568714E+00  0.33805701284E+01 -0.62157068810E+02  0.62250674302E+02  0.00000000000E+00 0. -1.
        -15    1    1    2    0    0 -0.23732556092E+01 -0.29437204515E+01 -0.32927233798E+02  0.33191238104E+02  0.17770000000E+01 0.  1.
         15    1    1    2    0    0  0.63936597585E+01 -0.20300142525E+01 -0.87067734064E+02  0.87343848592E+02  0.17770000000E+01 0. -1.
</event>
<event>
 6    1  0.1059789E-002  0.1686113E+03  0.7546771E-02  0.1080081E+00
        -11   -1    0    0    0    0  0.00000000000E+00  0.00000000000E+00  0.18250000000E+03  0.18250000000E+03  0.00000000000E+00 0. -1.
         11   -1    0    0    0    0 -0.00000000000E+00 -0.00000000000E+00 -0.18250000000E+03  0.18250000000E+03  0.00000000000E+00 0. -1.
        -11    1    1    2    0    0 -0.69326940421E+01  0.56590581177E+01  0.14303341818E+02  0.16872248594E+02  0.00000000000E+00 0. -1.
         11    1    1    2    0    0  0.43982443924E+00 -0.35675805613E+01 -0.17058850709E+03  0.17062637495E+03  0.00000000000E+00 0. -1.
        -15    1    1    2    0    0  0.87556166007E+01 -0.31502050594E+01  0.16653431530E+03  0.16680353868E+03  0.17770000000E+01 0. -1.
         15    1    1    2    0    0 -0.22627469978E+01  0.10587275030E+01 -0.10249150025E+02  0.10697837779E+02  0.17770000000E+01 0. -1.
</event>
<event>
 6    1  0.1059789E-002  0.1742644E+03  0.7546771E-02  0.1075206E+00
        -11   -1    0    0    0    0  0.00000000000E+00  0.00000000000E+00  0.18250000000E+03  0.18250000000E+03  0.00000000000E+00 0.  1.
         11   -1    0    0    0    0 -0.00000000000E+00 -0.00000000000E+00 -0.18250000000E+03  0.18250000000E+03  0.00000000000E+00 0. -1.
        -11    1    1    2    0    0 -0.42349411390E+01 -0.50089381720E+01  0.17330024804E+03  0.17342433555E+03  0.00000000000E+00 0.  1.
         11    1    1    2    0    0 -0.36773724000E+01 -0.54486058404E+01 -0.17523314502E+03  0.17535639563E+03  0.00000000000E+00 0. -1.
        -15    1    1    2    0    0  0.12112031803E+01 -0.12524035569E+01  0.46946377685E+00  0.25325191117E+01  0.17770000000E+01 0. -1.
         15    1    1    2    0    0  0.67011103587E+01  0.11709947569E+02  0.14634332009E+01  0.13686749718E+02  0.17770000000E+01 0.  1.
</event>
<event>
 6    1  0.1059789E-002  0.1845407E+03  0.7546771E-02  0.1066842E+00
        -11   -1    0    0    0    0  0.00000000000E+00  0.00000000000E+00  0.18250000000E+03  0.18250000000E+03  0.00000000000E+00 0.  1.
         11   -1    0    0    0    0 -0.00000000000E+00 -0.00000000000E+00 -0.18250000000E+03  0.18250000000E+03  0.00000000000E+00 0. -1.
        -11    1    1    2    0    0 -0.30087226367E+00  0.16243601583E+01  0.11746691213E+03  0.11747852789E+03  0.00000000000E+00 0.  1.
         11    1    1    2    0    0  0.82423328455E+00 -0.28466349051E+01 -0.18043494775E+03  0.18045928366E+03  0.00000000000E+00 0. -1.
        -15    1    1    2    0    0  0.42906493008E+01  0.49905306416E+01  0.59348453328E+02  0.59738695240E+02  0.17770000000E+01 0.  1.
         15    1    1    2    0    0 -0.48140103216E+01 -0.37682558949E+01  0.36195822862E+01  0.73234932097E+01  0.17770000000E+01 0. -1.
</event>
<event>
 6    1  0.1059789E-002  0.1837748E+03  0.7546771E-02  0.1067445E+00
        -11   -1    0    0    0    0  0.00000000000E+00  0.00000000000E+00  0.18250000000E+03  0.18250000000E+03  0.00000000000E+00 0. -1.
         11   -1    0    0    0    0 -0.00000000000E+00 -0.00000000000E+00 -0.18250000000E+03  0.18250000000E+03  0.00000000000E+00 0.  1.
        -11    1    1    2    0    0  0.14046106541E+00  0.11633989338E+02  0.10115053777E+03  0.10181748734E+03  0.00000000000E+00 0. -1.
         11    1    1    2    0    0 -0.16973070762E+02 -0.68510402270E+01 -0.18029848158E+03  0.18122517580E+03  0.00000000000E+00 0.  1.
        -15    1    1    2    0    0  0.54677056521E+01 -0.49148308437E+01  0.50866574775E+02  0.51425844920E+02  0.17770000000E+01 0.  1.
         15    1    1    2    0    0  0.11364904045E+02  0.13188173315E+00  0.28281369038E+02  0.30531491945E+02  0.17770000000E+01 0. -1.
</event>
<event>
 6    1  0.1059789E-002  0.1830774E+03  0.7546771E-02  0.1067996E+00
        -11   -1    0    0    0    0  0.00000000000E+00  0.00000000000E+00  0.18250000000E+03  0.18250000000E+03  0.00000000000E+00 0.  1.
         11   -1    0    0    0    0 -0.00000000000E+00 -0.00000000000E+00 -0.18250000000E+03  0.18250000000E+03  0.00000000000E+00 0.  1.
        -11    1    1    2    0    0  0.22772465385E+01  0.22301359466E+01  0.61240643392E+02  0.61323533502E+02  0.00000000000E+00 0.  1.
         11    1    1    2    0    0  0.27433983833E+01  0.10950307476E+00 -0.18190188050E+03  0.18192259990E+03  0.00000000000E+00 0.  1.
        -15    1    1    2    0    0 -0.29625383585E+01  0.16407428353E+00  0.52703672351E+01  0.63038126311E+01  0.17770000000E+01 0. -1.
         15    1    1    2    0    0 -0.20581065632E+01 -0.25037133049E+01  0.11539086987E+03  0.11545005397E+03  0.17770000000E+01 0.  1.
</event>
<event>
 6    1  0.1059789E-002  0.1853613E+03  0.7546771E-02  0.1066200E+00
        -11   -1    0    0    0    0  0.00000000000E+00  0.00000000000E+00  0.18250000000E+03  0.18250000000E+03  0.00000000000E+00 0. -1.
         11   -1    0    0    0    0 -0.00000000000E+00 -0.00000000000E+00 -0.18250000000E+03  0.18250000000E+03  0.00000000000E+00 0.  1.
        -11    1    1    2    0    0  0.90719203756E+00 -0.13492777829E+01  0.92266838121E+02  0.92281162567E+02  0.00000000000E+00 0. -1.
         11    1    1    2    0    0  0.13830978538E+00 -0.49220249417E+01 -0.17957115970E+03  0.17963865635E+03  0.00000000000E+00 0.  1.
        -15    1    1    2    0    0  0.14526197401E+01  0.11497915410E+02  0.86109605140E+02  0.86904165546E+02  0.17770000000E+01 0. -1.
         15    1    1    2    0    0 -0.24981215630E+01 -0.52266126857E+01  0.11947164413E+01  0.61760155347E+01  0.17770000000E+01 0.  1.
</event>
<event>
 6    1  0.1059789E-002  0.1836365E+03  0.7546771E-02  0.1067554E+00
        -11   -1    0    0    0    0  0.00000000000E+00  0.00000000000E+00  0.18250000000E+03  0.18250000000E+03  0.00000000000E+00 0.  1.
         11   -1    0    0    0    0 -0.00000000000E+00 -0.00000000000E+00 -0.18250000000E+03  0.18250000000E+03  0.00000000000E+00 0. -1.
        -11    1    1    2    0    0  0.14715821440E+01  0.63837858130E+00  0.73900064729E+02  0.73917471874E+02  0.00000000000E+00 0.  1.
         11    1    1    2    0    0 -0.90606184324E+00  0.26044350508E+01 -0.18134249801E+03  0.18136346273E+03  0.00000000000E+00 0. -1.
        -15    1    1    2    0    0  0.99592302486E+01  0.14215599957E+01  0.40362314434E+02  0.41635096439E+02  0.17770000000E+01 0. -1.
         15    1    1    2    0    0 -0.10524750549E+02 -0.46643736278E+01  0.67080118845E+02  0.68083968956E+02  0.17770000000E+01 0.  1.
</event>
<event>
 6    1  0.1059789E-002  0.1829211E+03  0.7546771E-02  0.1068120E+00
        -11   -1    0    0    0    0  0.00000000000E+00  0.00000000000E+00  0.18250000000E+03  0.18250000000E+03  0.00000000000E+00 0. -1.
         11   -1    0    0    0    0 -0.00000000000E+00 -0.00000000000E+00 -0.18250000000E+03  0.18250000000E+03  0.00000000000E+00 0.  1.
        -11    1    1    2    0    0 -0.92483331511E+00  0.82207472096E+00  0.69657155066E+02  0.69668144624E+02  0.00000000000E+00 0. -1.
         11    1    1    2    0    0 -0.73484486690E+00 -0.32494099515E+01 -0.18204840939E+03  0.18207888956E+03  0.00000000000E+00 0.  1.
        -15    1    1    2    0    0  0.37325852533E+01 -0.68677718315E+00  0.10908817666E+02  0.11686055256E+02  0.17770000000E+01 0.  1.
         15    1    1    2    0    0 -0.20729070713E+01  0.31141124137E+01  0.10148243666E+03  0.10156691056E+03  0.17770000000E+01 0. -1.
</event>
<event>
 6    1  0.1059789E-002  0.1836430E+03  0.7546771E-02  0.1067549E+00
        -11   -1    0    0    0    0  0.00000000000E+00  0.00000000000E+00  0.18250000000E+03  0.18250000000E+03  0.00000000000E+00 0.  1.
         11   -1    0    0    0    0 -0.00000000000E+00 -0.00000000000E+00 -0.18250000000E+03  0.18250000000E+03  0.00000000000E+00 0. -1.
        -11    1    1    2    0    0  0.96853403035E+00  0.28620108256E+01  0.18133182876E+03  0.18135699955E+03  0.00000000000E+00 0.  1.
         11    1    1    2    0    0  0.36308542121E+01  0.49136217165E+00 -0.16903332132E+03  0.16907302639E+03  0.00000000000E+00 0. -1.
        -15    1    1    2    0    0 -0.22393998545E+01 -0.29155580725E+01 -0.99996025616E+01  0.10801165260E+02  0.17770000000E+01 0. -1.
         15    1    1    2    0    0 -0.23599883879E+01 -0.43781492482E+00 -0.22989048813E+01  0.37688087976E+01  0.17770000000E+01 0.  1.
</event>
<event>
 6    1  0.1059789E-002  0.1825768E+03  0.7546771E-02  0.1068394E+00
        -11   -1    0    0    0    0  0.00000000000E+00  0.00000000000E+00  0.18250000000E+03  0.18250000000E+03  0.00000000000E+00 0.  1.
         11   -1    0    0    0    0 -0.00000000000E+00 -0.00000000000E+00 -0.18250000000E+03  0.18250000000E+03  0.00000000000E+00 0. -1.
        -11    1    1    2    0    0 -0.37590512032E+00  0.11611068470E+01  0.46029580681E+02  0.46045757367E+02  0.00000000000E+00 0.  1.
         11    1    1    2    0    0 -0.43770451185E+01 -0.68121838808E+00 -0.18236945499E+03  0.18242324604E+03  0.00000000000E+00 0. -1.
        -15    1    1    2    0    0  0.19002722900E+01  0.58761103578E+00  0.26358500714E+02  0.26493104959E+02  0.17770000000E+01 0. -1.
         15    1    1    2    0    0  0.28526779488E+01 -0.10674994947E+01  0.10998137360E+03  0.11003789163E+03  0.17770000000E+01 0.  1.
</event>
<event>
 6    1  0.1059789E-002  0.1862816E+03  0.7546771E-02  0.1065484E+00
        -11   -1    0    0    0    0  0.00000000000E+00  0.00000000000E+00  0.18250000000E+03  0.18250000000E+03  0.00000000000E+00 0.  1.
         11   -1    0    0    0    0 -0.00000000000E+00 -0.00000000000E+00 -0.18250000000E+03  0.18250000000E+03  0.00000000000E+00 0. -1.
        -11    1    1    2    0    0 -0.40999389517E+01 -0.17878285790E+01  0.17866246013E+03  0.17871843914E+03  0.00000000000E+00 0.  1.
         11    1    1    2    0    0 -0.49950253574E+01  0.62749596575E+01 -0.16615561730E+03  0.16634907442E+03  0.00000000000E+00 0. -1.
        -15    1    1    2    0    0  0.20618080917E+01  0.30849139647E+01 -0.75561082684E+00  0.41828726371E+01  0.17770000000E+01 0.  1.
         15    1    1    2    0    0  0.70331562175E+01 -0.75720450432E+01 -0.11751231998E+02  0.15749613804E+02  0.17770000000E+01 0. -1.
</event>
<event>
 6    1  0.1059789E-002  0.1826779E+03  0.7546771E-02  0.1068313E+00
        -11   -1    0    0    0    0  0.00000000000E+00  0.00000000000E+00  0.18250000000E+03  0.18250000000E+03  0.00000000000E+00 0.  1.
         11   -1    0    0    0    0 -0.00000000000E+00 -0.00000000000E+00 -0.18250000000E+03  0.18250000000E+03  0.00000000000E+00 0.  1.
        -11    1    1    2    0    0  0.86184152815E+00 -0.14645003006E+01  0.11821162512E+03  0.11822383789E+03  0.00000000000E+00 0.  1.
         11    1    1    2    0    0  0.21033212482E+01 -0.17393523336E+01 -0.18230167058E+03  0.18232210069E+03  0.00000000000E+00 0.  1.
        -15    1    1    2    0    0 -0.16154244693E+01  0.32284348239E+01  0.27135758081E+02  0.27432453103E+02  0.17770000000E+01 0. -1.
         15    1    1    2    0    0 -0.13497383070E+01 -0.24582189656E-01  0.36954287375E+02  0.37021608315E+02  0.17770000000E+01 0. -1.
</event>
<event>
 6    1  0.1059789E-002  0.1832433E+03  0.7546771E-02  0.1067865E+00
        -11   -1    0    0    0    0  0.00000000000E+00  0.00000000000E+00  0.18250000000E+03  0.18250000000E+03  0.00000000000E+00 0.  1.
         11   -1    0    0    0    0 -0.00000000000E+00 -0.00000000000E+00 -0.18250000000E+03  0.18250000000E+03  0.00000000000E+00 0. -1.
        -11    1    1    2    0    0  0.15332253241E+01 -0.35999982514E+01  0.14723918187E+03  0.14729116554E+03  0.00000000000E+00 0.  1.
         11    1    1    2    0    0 -0.41599554930E+01  0.85214952108E+00 -0.18170713635E+03  0.18175674620E+03  0.00000000000E+00 0. -1.
        -15    1    1    2    0    0 -0.88372572386E+00  0.47060882108E+01  0.24964253107E+02  0.25481363770E+02  0.17770000000E+01 0.  1.
         15    1    1    2    0    0  0.35104558927E+01 -0.19582394805E+01  0.95037013730E+01  0.10470724484E+02  0.17770000000E+01 0. -1.
</event>
<event>
 6    1  0.1059789E-002  0.1838068E+03  0.7546771E-02  0.1067419E+00
        -11   -1    0    0    0    0  0.00000000000E+00  0.00000000000E+00  0.18250000000E+03  0.18250000000E+03  0.00000000000E+00 0. -1.
         11   -1    0    0    0    0 -0.00000000000E+00 -0.00000000000E+00 -0.18250000000E+03  0.18250000000E+03  0.00000000000E+00 0. -1.
        -11    1    1    2    0    0  0.10378684022E+01  0.27514424991E+01  0.18116929221E+03  0.18119315673E+03  0.00000000000E+00 0. -1.
         11    1    1    2    0    0 -0.14376251404E+01 -0.27871130754E+01 -0.16236524562E+03  0.16239552873E+03  0.00000000000E+00 0. -1.
        -15    1    1    2    0    0 -0.35809260642E+01 -0.22672147851E+01 -0.51914348697E+01  0.69333988321E+01  0.17770000000E+01 0. -1.
         15    1    1    2    0    0  0.39806828024E+01  0.23028853614E+01 -0.13612611720E+02  0.14477915713E+02  0.17770000000E+01 0.  1.
</event>
<event>
 6    1  0.1059789E-002  0.1835843E+03  0.7546771E-02  0.1067595E+00
        -11   -1    0    0    0    0  0.00000000000E+00  0.00000000000E+00  0.18250000000E+03  0.18250000000E+03  0.00000000000E+00 0.  1.
         11   -1    0    0    0    0 -0.00000000000E+00 -0.00000000000E+00 -0.18250000000E+03  0.18250000000E+03  0.00000000000E+00 0.  1.
        -11    1    1    2    0    0 -0.29166602623E+01  0.40384139783E+00  0.35854530604E+02  0.35975232589E+02  0.00000000000E+00 0.  1.
         11    1    1    2    0    0  0.23310509896E+01 -0.46731859993E+01 -0.18134052578E+03  0.18141570702E+03  0.00000000000E+00 0.  1.
        -15    1    1    2    0    0  0.21876983637E+01  0.61200040859E+01  0.98195216142E+01  0.11908870974E+02  0.17770000000E+01 0. -1.
         15    1    1    2    0    0 -0.16020890910E+01 -0.18506594844E+01  0.13566647356E+03  0.13570018941E+03  0.17770000000E+01 0.  1.
</event>
<event>
 6    1  0.1059789E-002  0.1838063E+03  0.7546771E-02  0.1067420E+00
        -11   -1    0    0    0    0  0.00000000000E+00  0.00000000000E+00  0.18250000000E+03  0.18250000000E+03  0.00000000000E+00 0.  1.
         11   -1    0    0    0    0 -0.00000000000E+00 -0.00000000000E+00 -0.18250000000E+03  0.18250000000E+03  0.00000000000E+00 0. -1.
        -11    1    1    2    0    0  0.18279044513E+01  0.17733539400E+01  0.18117576303E+03  0.18119366195E+03  0.00000000000E+00 0.  1.
         11    1    1    2    0    0  0.16846040969E+01 -0.59591528522E+01 -0.14977759282E+03  0.14990555929E+03  0.00000000000E+00 0. -1.
        -15    1    1    2    0    0 -0.74095277707E+01  0.19504230829E+01 -0.17483082475E+02  0.19170841239E+02  0.17770000000E+01 0. -1.
         15    1    1    2    0    0  0.38970192225E+01  0.22353758293E+01 -0.13915087734E+02  0.14729937527E+02  0.17770000000E+01 0. -1.
</event>
<event>
 6    1  0.1059789E-002  0.1826107E+03  0.7546771E-02  0.1068367E+00
        -11   -1    0    0    0    0  0.00000000000E+00  0.00000000000E+00  0.18250000000E+03  0.18250000000E+03  0.00000000000E+00 0.  1.
         11   -1    0    0    0    0 -0.00000000000E+00 -0.00000000000E+00 -0.18250000000E+03  0.18250000000E+03  0.00000000000E+00 0.  1.
        -11    1    1    2    0    0 -0.69600672170E+00  0.11246544283E+01  0.92714252261E+02  0.92723685460E+02  0.00000000000E+00 0.  1.
         11    1    1    2    0    0  0.36922938617E+01  0.76976739975E+00 -0.18235027431E+03  0.18238927632E+03  0.00000000000E+00 0.  1.
        -15    1    1    2    0    0 -0.14819462642E+01 -0.54408250538E+00  0.72594631029E+02  0.72633534774E+02  0.17770000000E+01 0.  1.
         15    1    1    2    0    0 -0.15143408758E+01 -0.13503393226E+01  0.17041391016E+02  0.17253503451E+02  0.17770000000E+01 0. -1.
</event>
<event>
 6    1  0.1059789E-002  0.1861612E+03  0.7546771E-02  0.1065577E+00
        -11   -1    0    0    0    0  0.00000000000E+00  0.00000000000E+00  0.18250000000E+03  0.18250000000E+03  0.00000000000E+00 0.  1.
         11   -1    0    0    0    0 -0.00000000000E+00 -0.00000000000E+00 -0.18250000000E+03  0.18250000000E+03  0.00000000000E+00 0.  1.
        -11    1    1    2    0    0 -0.34663423371E+01  0.23422270705E+01  0.17878988904E+03  0.17883882682E+03  0.00000000000E+00 0.  1.
         11    1    1    2    0    0  0.14228141773E+01 -0.49655243886E+01 -0.14168384171E+03  0.14177796668E+03  0.00000000000E+00 0.  1.
        -15    1    1    2    0    0 -0.61209431448E+01 -0.32669911904E+01 -0.32304009271E+02  0.33088455999E+02  0.17770000000E+01 0.  1.
         15    1    1    2    0    0  0.81644713047E+01  0.58902885085E+01 -0.48020380535E+01  0.11294750500E+02  0.17770000000E+01 0. -1.
</event>
<event>
 6    1  0.1059789E-002  0.1764545E+03  0.7546771E-02  0.1073372E+00
        -11   -1    0    0    0    0  0.00000000000E+00  0.00000000000E+00  0.18250000000E+03  0.18250000000E+03  0.00000000000E+00 0. -1.
         11   -1    0    0    0    0 -0.00000000000E+00 -0.00000000000E+00 -0.18250000000E+03  0.18250000000E+03  0.00000000000E+00 0. -1.
        -11    1    1    2    0    0  0.26009997939E+01  0.11801231846E+01  0.17693516645E+03  0.17695821828E+03  0.00000000000E+00 0. -1.
         11    1    1    2    0    0  0.32202146406E+01 -0.18798114938E+01 -0.17596124921E+03  0.17600075198E+03  0.00000000000E+00 0. -1.
        -15    1    1    2    0    0  0.33561793428E+00 -0.37170349514E+01  0.34219113155E+00  0.41477478224E+01  0.17770000000E+01 0.  1.
         15    1    1    2    0    0 -0.61568323688E+01  0.44167232606E+01 -0.13161083778E+01  0.78932819182E+01  0.17770000000E+01 0. -1.
</event>
<event>
 6    1  0.1059789E-002  0.1835829E+03  0.7546771E-02  0.1067596E+00
        -11   -1    0    0    0    0  0.00000000000E+00  0.00000000000E+00  0.18250000000E+03  0.18250000000E+03  0.00000000000E+00 0. -1.
         11   -1    0    0    0    0 -0.00000000000E+00 -0.00000000000E+00 -0.18250000000E+03  0.18250000000E+03  0.00000000000E+00 0.  1.
        -11    1    1    2    0    0 -0.27563873762E+01 -0.52777941896E-01  0.17399947267E+03  0.17402131176E+03  0.00000000000E+00 0. -1.
         11    1    1    2    0    0  0.23907048025E+01  0.25145476751E+01 -0.18138391365E+03  0.18141709553E+03  0.00000000000E+00 0.  1.
        -15    1    1    2    0    0  0.51367259778E+00 -0.55586187250E+00  0.22899320346E+00  0.19449958474E+01  0.17770000000E+01 0. -1.
         15    1    1    2    0    0 -0.14799002406E+00 -0.19059078607E+01  0.71554477743E+01  0.76165968563E+01  0.17770000000E+01 0.  1.
</event>
<event>
 6    1  0.1059789E-002  0.1894640E+03  0.7546771E-02  0.1063043E+00
        -11   -1    0    0    0    0  0.00000000000E+00  0.00000000000E+00  0.18250000000E+03  0.18250000000E+03  0.00000000000E+00 0.  1.
         11   -1    0    0    0    0 -0.00000000000E+00 -0.00000000000E+00 -0.18250000000E+03  0.18250000000E+03  0.00000000000E+00 0. -1.
        -11    1    1    2    0    0 -0.34860046246E+01  0.57032160512E+01  0.17540873454E+03  0.17553604488E+03  0.00000000000E+00 0.  1.
         11    1    1    2    0    0 -0.96029093541E+01  0.81095056431E+01 -0.13836208713E+03  0.13893180739E+03  0.00000000000E+00 0. -1.
        -15    1    1    2    0    0  0.13769585573E+01  0.73870116050E+01 -0.21467124119E+01  0.80143657578E+01  0.17770000000E+01 0. -1.
         15    1    1    2    0    0  0.11711955421E+02 -0.21199733299E+02 -0.34899934998E+02  0.42517781969E+02  0.17770000000E+01 0.  1.
</event>
<event>
 6    1  0.1059789E-002  0.1832911E+03  0.7546771E-02  0.1067827E+00
        -11   -1    0    0    0    0  0.00000000000E+00  0.00000000000E+00  0.18250000000E+03  0.18250000000E+03  0.00000000000E+00 0.  1.
         11   -1    0    0    0    0 -0.00000000000E+00 -0.00000000000E+00 -0.18250000000E+03  0.18250000000E+03  0.00000000000E+00 0.  1.
        -11    1    1    2    0    0  0.37387577231E+01  0.27728684893E+00  0.12244669437E+03  0.12250407405E+03  0.00000000000E+00 0.  1.
         11    1    1    2    0    0  0.55477623880E+01 -0.49573216408E+00 -0.18162355733E+03  0.18170894308E+03  0.00000000000E+00 0.  1.
        -15    1    1    2    0    0 -0.10061063217E+02  0.12168996524E+01  0.34175969081E+02  0.35691181396E+02  0.17770000000E+01 0.  1.
         15    1    1    2    0    0  0.77454310575E+00 -0.99845433729E+00  0.25000893880E+02  0.25095801479E+02  0.17770000000E+01 0. -1.
</event>
<event>
 6    1  0.1059789E-002  0.1851820E+03  0.7546771E-02  0.1066340E+00
        -11   -1    0    0    0    0  0.00000000000E+00  0.00000000000E+00  0.18250000000E+03  0.18250000000E+03  0.00000000000E+00 0. -1.
         11   -1    0    0    0    0 -0.00000000000E+00 -0.00000000000E+00 -0.18250000000E+03  0.18250000000E+03  0.00000000000E+00 0.  1.
        -11    1    1    2    0    0  0.18472314861E+01  0.32892431344E+01  0.17977842321E+03  0.17981799920E+03  0.00000000000E+00 0. -1.
         11    1    1    2    0    0 -0.23969259688E+01  0.54614389716E+01 -0.11455513327E+03  0.11471029217E+03  0.00000000000E+00 0.  1.
        -15    1    1    2    0    0 -0.37820882199E+01 -0.77404073659E+01 -0.51201385904E+01  0.10177998117E+02  0.17770000000E+01 0. -1.
         15    1    1    2    0    0  0.43317827026E+01 -0.10102747401E+01 -0.60103151349E+02  0.60293710514E+02  0.17770000000E+01 0.  1.
</event>
<event>
 6    1  0.1059789E-002  0.1828258E+03  0.7546771E-02  0.1068196E+00
        -11   -1    0    0    0    0  0.00000000000E+00  0.00000000000E+00  0.18250000000E+03  0.18250000000E+03  0.00000000000E+00 0. -1.
         11   -1    0    0    0    0 -0.00000000000E+00 -0.00000000000E+00 -0.18250000000E+03  0.18250000000E+03  0.00000000000E+00 0.  1.
        -11    1    1    2    0    0  0.30402940004E+01  0.57020275449E-02  0.15283251282E+03  0.15286275018E+03  0.00000000000E+00 0. -1.
         11    1    1    2    0    0 -0.41703774327E+01 -0.44571592038E+01 -0.18207190166E+03  0.18217419051E+03  0.00000000000E+00 0.  1.
        -15    1    1    2    0    0  0.18656886988E+01  0.32692852907E+01  0.21585376906E+02  0.21983067252E+02  0.17770000000E+01 0. -1.
         15    1    1    2    0    0 -0.73560526649E+00  0.11821718855E+01  0.76540119324E+01  0.79799920512E+01  0.17770000000E+01 0. -1.
</event>
<event>
 6    1  0.1059789E-002  0.1847614E+03  0.7546771E-02  0.1066669E+00
        -11   -1    0    0    0    0  0.00000000000E+00  0.00000000000E+00  0.18250000000E+03  0.18250000000E+03  0.00000000000E+00 0. -1.
         11   -1    0    0    0    0 -0.00000000000E+00 -0.00000000000E+00 -0.18250000000E+03  0.18250000000E+03  0.00000000000E+00 0. -1.
        -11    1    1    2    0    0 -0.94162232082E+00  0.13478960904E+01  0.89751394420E+02  0.89766454073E+02  0.00000000000E+00 0. -1.
         11    1    1    2    0    0 -0.56820418676E+01 -0.48369418728E+00 -0.18014837247E+03  0.18023860759E+03  0.00000000000E+00 0. -1.
        -15    1    1    2    0    0 -0.64824267943E+01 -0.12003199077E+01  0.72063056415E+02  0.72385802848E+02  0.17770000000E+01 0. -1.
         15    1    1    2    0    0  0.13106090983E+02  0.33611800460E+00  0.18333921637E+02  0.22609135493E+02  0.17770000000E+01 0.  1.
</event>
<event>
 6    1  0.1059789E-002  0.1838417E+03  0.7546771E-02  0.1067392E+00
        -11   -1    0    0    0    0  0.00000000000E+00  0.00000000000E+00  0.18250000000E+03  0.18250000000E+03  0.00000000000E+00 0. -1.
         11   -1    0    0    0    0 -0.00000000000E+00 -0.00000000000E+00 -0.18250000000E+03  0.18250000000E+03  0.00000000000E+00 0. -1.
        -11    1    1    2    0    0  0.25772057617E+01 -0.21539826110E+01  0.18112712873E+03  0.18115826890E+03  0.00000000000E+00 0. -1.
         11    1    1    2    0    0 -0.38318204407E+00  0.31119353020E+01 -0.16700408577E+03  0.16703351649E+03  0.00000000000E+00 0. -1.
        -15    1    1    2    0    0 -0.28600769827E+01  0.19015415872E+01 -0.12358243435E+02  0.12949123930E+02  0.17770000000E+01 0. -1.
         15    1    1    2    0    0  0.66605326515E+00 -0.28594942781E+01 -0.17647995249E+01  0.38590906755E+01  0.17770000000E+01 0.  1.
</event>
<event>
 6    1  0.1059789E-002  0.1829907E+03  0.7546771E-02  0.1068065E+00
        -11   -1    0    0    0    0  0.00000000000E+00  0.00000000000E+00  0.18250000000E+03  0.18250000000E+03  0.00000000000E+00 0.  1.
         11   -1    0    0    0    0 -0.00000000000E+00 -0.00000000000E+00 -0.18250000000E+03  0.18250000000E+03  0.00000000000E+00 0.  1.
        -11    1    1    2    0    0 -0.24048228202E+01  0.32076913145E+01  0.18196513365E+03  0.18200929186E+03  0.00000000000E+00 0.  1.
         11    1    1    2    0    0 -0.15723435785E+01  0.46199627919E+01 -0.12898186874E+03  0.12907416002E+03  0.00000000000E+00 0.  1.
        -15    1    1    2    0    0  0.17962851555E+01 -0.24198906963E+01 -0.12635667497E+02  0.13111076746E+02  0.17770000000E+01 0.  1.
         15    1    1    2    0    0  0.21808812432E+01 -0.54077634101E+01 -0.40347597419E+02  0.40805471380E+02  0.17770000000E+01 0. -1.
</event>
<event>
 6    1  0.1059789E-002  0.1835137E+03  0.7546771E-02  0.1067651E+00
        -11   -1    0    0    0    0  0.00000000000E+00  0.00000000000E+00  0.18250000000E+03  0.18250000000E+03  0.00000000000E+00 0.  1.
         11   -1    0    0    0    0 -0.00000000000E+00 -0.00000000000E+00 -0.18250000000E+03  0.18250000000E+03  0.00000000000E+00 0. -1.
        -11    1    1    2    0    0 -0.13182381753E+01  0.50544482826E+01  0.13145665297E+03  0.13156039225E+03  0.00000000000E+00 0.  1.
         11    1    1    2    0    0 -0.31589123830E+00  0.45333867864E+01 -0.18142935470E+03  0.18148625879E+03  0.00000000000E+00 0. -1.
        -15    1    1    2    0    0 -0.28734199092E+01 -0.21299306017E+01  0.27437991877E+02  0.27727139657E+02  0.17770000000E+01 0. -1.
         15    1    1    2    0    0  0.45075493228E+01 -0.74579044673E+01  0.22534709851E+02  0.24226209300E+02  0.17770000000E+01 0.  1.
</event>
<event>
 6    1  0.1059789E-002  0.1829462E+03  0.7546771E-02  0.1068100E+00
        -11   -1    0    0    0    0  0.00000000000E+00  0.00000000000E+00  0.18250000000E+03  0.18250000000E+03  0.00000000000E+00 0.  1.
         11   -1    0    0    0    0 -0.00000000000E+00 -0.00000000000E+00 -0.18250000000E+03  0.18250000000E+03  0.00000000000E+00 0. -1.
        -11    1    1    2    0    0 -0.63329010525E+00  0.32448149625E+01  0.18202375413E+03  0.18205377488E+03  0.00000000000E+00 0.  1.
         11    1    1    2    0    0  0.11363363483E+00 -0.37876854178E+01 -0.15400186598E+03  0.15404848002E+03  0.00000000000E+00 0. -1.
        -15    1    1    2    0    0 -0.23533217362E+01 -0.10609427884E+01 -0.16134568646E+02  0.16436111377E+02  0.17770000000E+01 0.  1.
         15    1    1    2    0    0  0.28729782066E+01  0.16038132437E+01 -0.11887319513E+02  0.12461633717E+02  0.17770000000E+01 0. -1.
</event>
<event>
 6    1  0.1059789E-002  0.1911743E+03  0.7546771E-02  0.1061752E+00
        -11   -1    0    0    0    0  0.00000000000E+00  0.00000000000E+00  0.18250000000E+03  0.18250000000E+03  0.00000000000E+00 0.  1.
         11   -1    0    0    0    0 -0.00000000000E+00 -0.00000000000E+00 -0.18250000000E+03  0.18250000000E+03  0.00000000000E+00 0.  1.
        -11    1    1    2    0    0 -0.81544333734E+01 -0.54855329331E+01  0.17354761730E+03  0.17382566360E+03  0.00000000000E+00 0.  1.
         11    1    1    2    0    0  0.49630532002E+01  0.60048052234E+01 -0.11633402020E+03  0.11659457037E+03  0.00000000000E+00 0.  1.
        -15    1    1    2    0    0  0.13838640632E+02  0.46042018327E+01  0.14016597708E+01  0.14759032088E+02  0.17770000000E+01 0.  1.
         15    1    1    2    0    0 -0.10647260459E+02 -0.51234741230E+01 -0.58615256870E+02  0.59820733942E+02  0.17770000000E+01 0. -1.
</event>
<event>
 6    1  0.1059789E-002  0.1831012E+03  0.7546771E-02  0.1067977E+00
        -11   -1    0    0    0    0  0.00000000000E+00  0.00000000000E+00  0.18250000000E+03  0.18250000000E+03  0.00000000000E+00 0. -1.
         11   -1    0    0    0    0 -0.00000000000E+00 -0.00000000000E+00 -0.18250000000E+03  0.18250000000E+03  0.00000000000E+00 0. -1.
        -11    1    1    2    0    0 -0.11852836039E+01  0.14996027046E+00  0.63822249601E+02  0.63833431127E+02  0.00000000000E+00 0. -1.
         11    1    1    2    0    0 -0.51623289403E+01  0.11114535928E+02 -0.18148552982E+03  0.18189881826E+03  0.00000000000E+00 0. -1.
        -15    1    1    2    0    0  0.44248788958E+01 -0.86683187515E+01  0.31311341139E+02  0.32837130144E+02  0.17770000000E+01 0.  1.
         15    1    1    2    0    0  0.19227336484E+01 -0.25961774472E+01  0.86351939084E+02  0.86430620468E+02  0.17770000000E+01 0. -1.
</event>
<event>
 6    1  0.1059789E-002  0.1857372E+03  0.7546771E-02  0.1065907E+00
        -11   -1    0    0    0    0  0.00000000000E+00  0.00000000000E+00  0.18250000000E+03  0.18250000000E+03  0.00000000000E+00 0. -1.
         11   -1    0    0    0    0 -0.00000000000E+00 -0.00000000000E+00 -0.18250000000E+03  0.18250000000E+03  0.00000000000E+00 0.  1.
        -11    1    1    2    0    0  0.23509250382E+01  0.52551606196E+01  0.15487983576E+03  0.15498679649E+03  0.00000000000E+00 0. -1.
         11    1    1    2    0    0 -0.15003743464E+01 -0.34043035019E+01 -0.17922422162E+03  0.17926282944E+03  0.00000000000E+00 0.  1.
        -15    1    1    2    0    0  0.54308540441E+01 -0.46398888653E+01  0.22118023745E+02  0.23310672400E+02  0.17770000000E+01 0. -1.
         15    1    1    2    0    0 -0.62814047359E+01  0.27890317477E+01  0.22263621108E+01  0.74397016603E+01  0.17770000000E+01 0.  1.
</event>
<event>
 6    1  0.1059789E-002  0.1711579E+03  0.7546771E-02  0.1077860E+00
        -11   -1    0    0    0    0  0.00000000000E+00  0.00000000000E+00  0.18250000000E+03  0.18250000000E+03  0.00000000000E+00 0.  1.
         11   -1    0    0    0    0 -0.00000000000E+00 -0.00000000000E+00 -0.18250000000E+03  0.18250000000E+03  0.00000000000E+00 0. -1.
        -11    1    1    2    0    0  0.50103325433E+01  0.73965821886E+01  0.16869552356E+03  0.16893191685E+03  0.00000000000E+00 0.  1.
         11    1    1    2    0    0 -0.31647566366E+01  0.42653644865E+01 -0.17354051180E+03  0.17362176780E+03  0.00000000000E+00 0. -1.
        -15    1    1    2    0    0  0.37491578140E+01 -0.13980948429E+02  0.64308261978E+01  0.15938518058E+02  0.17770000000E+01 0. -1.
         15    1    1    2    0    0 -0.55947337207E+01  0.23190017540E+01 -0.15858379590E+01  0.65077972904E+01  0.17770000000E+01 0.  1.
</event>
<event>
 6    1  0.1059789E-002  0.1832251E+03  0.7546771E-02  0.1067879E+00
        -11   -1    0    0    0    0  0.00000000000E+00  0.00000000000E+00  0.18250000000E+03  0.18250000000E+03  0.00000000000E+00 0. -1.
         11   -1    0    0    0    0 -0.00000000000E+00 -0.00000000000E+00 -0.18250000000E+03  0.18250000000E+03  0.00000000000E+00 0.  1.
        -11    1    1    2    0    0  0.36299481182E+01  0.17616417414E+01  0.18173012383E+03  0.18177490974E+03  0.00000000000E+00 0. -1.
         11    1    1    2    0    0  0.36044676295E+01  0.26346348797E+01 -0.11778592781E+03  0.11787051488E+03  0.00000000000E+00 0.  1.
        -15    1    1    2    0    0 -0.23624773887E+01  0.14205968690E+01 -0.40840670277E+02  0.40972154844E+02  0.17770000000E+01 0.  1.
         15    1    1    2    0    0 -0.48719383590E+01 -0.58168734901E+01 -0.23103525742E+02  0.24382420537E+02  0.17770000000E+01 0. -1.
</event>
<event>
 6    1  0.1059789E-002  0.1830244E+03  0.7546771E-02  0.1068038E+00
        -11   -1    0    0    0    0  0.00000000000E+00  0.00000000000E+00  0.18250000000E+03  0.18250000000E+03  0.00000000000E+00 0.  1.
         11   -1    0    0    0    0 -0.00000000000E+00 -0.00000000000E+00 -0.18250000000E+03  0.18250000000E+03  0.00000000000E+00 0.  1.
        -11    1    1    2    0    0 -0.22214194589E+01 -0.46550702329E+01  0.18190247613E+03  0.18197558959E+03  0.00000000000E+00 0.  1.
         11    1    1    2    0    0  0.55379970677E+01  0.56469211441E+00 -0.13184474414E+03  0.13196220991E+03  0.00000000000E+00 0.  1.
        -15    1    1    2    0    0 -0.26775710457E+01  0.12885460346E+01 -0.43917138485E+02  0.44053405309E+02  0.17770000000E+01 0.  1.
         15    1    1    2    0    0 -0.63900656305E+00  0.28018320839E+01 -0.61405935077E+01  0.70087951918E+01  0.17770000000E+01 0. -1.
</event>
<event>
 6    1  0.1059789E-002  0.1784365E+03  0.7546771E-02  0.1071736E+00
        -11   -1    0    0    0    0  0.00000000000E+00  0.00000000000E+00  0.18250000000E+03  0.18250000000E+03  0.00000000000E+00 0. -1.
         11   -1    0    0    0    0 -0.00000000000E+00 -0.00000000000E+00 -0.18250000000E+03  0.18250000000E+03  0.00000000000E+00 0. -1.
        -11    1    1    2    0    0 -0.40254682213E+01 -0.82713084082E+00  0.17909897345E+03  0.17914611587E+03  0.00000000000E+00 0. -1.
         11    1    1    2    0    0 -0.28419217673E+00  0.35646622443E+01 -0.17773013268E+03  0.17776610375E+03  0.00000000000E+00 0. -1.
        -15    1    1    2    0    0  0.20586029121E+01 -0.31297423004E+01 -0.26517009041E+01  0.49216236652E+01  0.17770000000E+01 0.  1.
         15    1    1    2    0    0  0.22510574860E+01  0.39221089699E+00  0.12828601285E+01  0.31661567084E+01  0.17770000000E+01 0. -1.
</event>
<event>
 6    1  0.1059789E-002  0.1768386E+03  0.7546771E-02  0.1073053E+00
        -11   -1    0    0    0    0  0.00000000000E+00  0.00000000000E+00  0.18250000000E+03  0.18250000000E+03  0.00000000000E+00 0.  1.
         11   -1    0    0    0    0 -0.00000000000E+00 -0.00000000000E+00 -0.18250000000E+03  0.18250000000E+03  0.00000000000E+00 0. -1.
        -11    1    1    2    0    0  0.46110892648E+01 -0.28581229683E+00  0.17825222327E+03  0.17831208297E+03  0.00000000000E+00 0.  1.
         11    1    1    2    0    0  0.57935042764E+00 -0.47891931394E+01 -0.17538481233E+03  0.17545114538E+03  0.00000000000E+00 0. -1.
        -15    1    1    2    0    0 -0.13186162335E+01  0.32146371612E+01  0.21014335263E+01  0.44324251505E+01  0.17770000000E+01 0.  1.
         15    1    1    2    0    0 -0.38718234589E+01  0.18603682751E+01 -0.49688444656E+01  0.68043465035E+01  0.17770000000E+01 0. -1.
</event>
<event>
 6    1  0.1059789E-002  0.1786039E+03  0.7546771E-02  0.1071599E+00
        -11   -1    0    0    0    0  0.00000000000E+00  0.00000000000E+00  0.18250000000E+03  0.18250000000E+03  0.00000000000E+00 0. -1.
         11   -1    0    0    0    0 -0.00000000000E+00 -0.00000000000E+00 -0.18250000000E+03  0.18250000000E+03  0.00000000000E+00 0. -1.
        -11    1    1    2    0    0 -0.94299984723E-01 -0.57872821713E+01  0.17810440245E+03  0.17819842788E+03  0.00000000000E+00 0. -1.
         11    1    1    2    0    0  0.35977855600E+01  0.73844312848E+00 -0.17902572885E+03  0.17906339925E+03  0.00000000000E+00 0. -1.
        -15    1    1    2    0    0 -0.34890303960E+01  0.28513596006E+01  0.36152883600E+00  0.48571613907E+01  0.17770000000E+01 0.  1.
         15    1    1    2    0    0 -0.14455179283E-01  0.21974794423E+01  0.55979756730E+00  0.28810114835E+01  0.17770000000E+01 0. -1.
</event>
<event>
 6    1  0.1059789E-002  0.1846222E+03  0.7546771E-02  0.1066778E+00
        -11   -1    0    0    0    0  0.00000000000E+00  0.00000000000E+00  0.18250000000E+03  0.18250000000E+03  0.00000000000E+00 0. -1.
         11   -1    0    0    0    0 -0.00000000000E+00 -0.00000000000E+00 -0.18250000000E+03  0.18250000000E+03  0.00000000000E+00 0.  1.
        -11    1    1    2    0    0  0.35749862753E+01  0.24244220977E+01  0.15768054934E+03  0.15773970327E+03  0.00000000000E+00 0. -1.
         11    1    1    2    0    0 -0.25180479955E+01  0.46297569932E+01 -0.18030080774E+03  0.18037781595E+03  0.00000000000E+00 0.  1.
        -15    1    1    2    0    0 -0.40848648848E+01 -0.92152660299E+01  0.17860795120E+02  0.20585747022E+02  0.17770000000E+01 0. -1.
         15    1    1    2    0    0  0.30279266050E+01  0.21610869390E+01  0.47594632795E+01  0.62967337558E+01  0.17770000000E+01 0.  1.
</event>
<event>
 6    1  0.1059789E-002  0.1835532E+03  0.7546771E-02  0.1067620E+00
        -11   -1    0    0    0    0  0.00000000000E+00  0.00000000000E+00  0.18250000000E+03  0.18250000000E+03  0.00000000000E+00 0.  1.
         11   -1    0    0    0    0 -0.00000000000E+00 -0.00000000000E+00 -0.18250000000E+03  0.18250000000E+03  0.00000000000E+00 0. -1.
        -11    1    1    2    0    0 -0.14163986747E+00 -0.24316609084E+01  0.15059260125E+03  0.15061229892E+03  0.00000000000E+00 0.  1.
         11    1    1    2    0    0  0.49772896822E+01 -0.98068110757E+00 -0.18137590858E+03  0.18144683894E+03  0.00000000000E+00 0. -1.
        -15    1    1    2    0    0 -0.10515396129E+01  0.29524350766E+01  0.27135186270E+02  0.27373320429E+02  0.17770000000E+01 0.  1.
         15    1    1    2    0    0 -0.37841102018E+01  0.45990693935E+00  0.36481210601E+01  0.55675417089E+01  0.17770000000E+01 0.  1.
</event>
<event>
 6    1  0.1059789E-002  0.1826159E+03  0.7546771E-02  0.1068363E+00
        -11   -1    0    0    0    0  0.00000000000E+00  0.00000000000E+00  0.18250000000E+03  0.18250000000E+03  0.00000000000E+00 0.  1.
         11   -1    0    0    0    0 -0.00000000000E+00 -0.00000000000E+00 -0.18250000000E+03  0.18250000000E+03  0.00000000000E+00 0. -1.
        -11    1    1    2    0    0 -0.24334644299E+01 -0.70313853126E+00  0.18236654567E+03  0.18238413618E+03  0.00000000000E+00 0.  1.
         11    1    1    2    0    0  0.54387204334E+00  0.14316181884E+00 -0.24193309179E+02  0.24199845064E+02  0.00000000000E+00 0. -1.
        -15    1    1    2    0    0  0.10963176733E+01 -0.41136846049E+00 -0.14788890362E+03  0.14790421454E+03  0.17770000000E+01 0. -1.
         15    1    1    2    0    0  0.79327471330E+00  0.97134517291E+00 -0.10284332866E+02  0.10511804208E+02  0.17770000000E+01 0.  1.
</event>
<event>
 6    1  0.1059789E-002  0.1826091E+03  0.7546771E-02  0.1068368E+00
        -11   -1    0    0    0    0  0.00000000000E+00  0.00000000000E+00  0.18250000000E+03  0.18250000000E+03  0.00000000000E+00 0. -1.
         11   -1    0    0    0    0 -0.00000000000E+00 -0.00000000000E+00 -0.18250000000E+03  0.18250000000E+03  0.00000000000E+00 0. -1.
        -11    1    1    2    0    0 -0.10187348986E+00  0.21621904052E+01  0.12133680734E+03  0.12135611341E+03  0.00000000000E+00 0. -1.
         11    1    1    2    0    0  0.19960102191E+01 -0.15015021265E+01 -0.18237376911E+03  0.18239087210E+03  0.00000000000E+00 0. -1.
        -15    1    1    2    0    0  0.40412446844E+00 -0.10592571625E+01  0.31650965019E+02  0.31721075926E+02  0.17770000000E+01 0. -1.
         15    1    1    2    0    0 -0.22982611977E+01  0.39856888386E+00  0.29385996750E+02  0.29531938570E+02  0.17770000000E+01 0. -1.
</event>
<event>
 6    1  0.1059789E-002  0.1828265E+03  0.7546771E-02  0.1068195E+00
        -11   -1    0    0    0    0  0.00000000000E+00  0.00000000000E+00  0.18250000000E+03  0.18250000000E+03  0.00000000000E+00 0. -1.
         11   -1    0    0    0    0 -0.00000000000E+00 -0.00000000000E+00 -0.18250000000E+03  0.18250000000E+03  0.00000000000E+00 0.  1.
        -11    1    1    2    0    0 -0.32343613831E+01  0.72057151111E+00  0.33142688045E+02  0.33307928302E+02  0.00000000000E+00 0. -1.
         11    1    1    2    0    0  0.87455969993E+00 -0.89219950606E+01 -0.18195280940E+03  0.18217352085E+03  0.00000000000E+00 0.  1.
        -15    1    1    2    0    0 -0.54611836670E+00  0.27898841904E+01  0.97272854597E+01  0.10288805105E+02  0.17770000000E+01 0.  1.
         15    1    1    2    0    0  0.29059200498E+01  0.54115393591E+01  0.13908283590E+03  0.13922974574E+03  0.17770000000E+01 0. -1.
</event>
<event>
 6    1  0.1059789E-002  0.1843910E+03  0.7546771E-02  0.1066959E+00
        -11   -1    0    0    0    0  0.00000000000E+00  0.00000000000E+00  0.18250000000E+03  0.18250000000E+03  0.00000000000E+00 0. -1.
         11   -1    0    0    0    0 -0.00000000000E+00 -0.00000000000E+00 -0.18250000000E+03  0.18250000000E+03  0.00000000000E+00 0. -1.
        -11    1    1    2    0    0  0.25021310034E+01  0.91313728464E+00  0.14866788307E+03  0.14869174131E+03  0.00000000000E+00 0. -1.
         11    1    1    2    0    0 -0.49165339461E+01 -0.74010901249E+00 -0.18054060135E+03  0.18060904961E+03  0.00000000000E+00 0. -1.
        -15    1    1    2    0    0  0.35190761886E+01 -0.39648778560E+00  0.21115600977E+00  0.39677973292E+01  0.17770000000E+01 0. -1.
         15    1    1    2    0    0 -0.11046732458E+01  0.22345951346E+00  0.31661562267E+02  0.31731411745E+02  0.17770000000E+01 0. -1.
</event>
<event>
 6    1  0.1059789E-002  0.1831698E+03  0.7546771E-02  0.1067923E+00
        -11   -1    0    0    0    0  0.00000000000E+00  0.00000000000E+00  0.18250000000E+03  0.18250000000E+03  0.00000000000E+00 0.  1.
         11   -1    0    0    0    0 -0.00000000000E+00 -0.00000000000E+00 -0.18250000000E+03  0.18250000000E+03  0.00000000000E+00 0.  1.
        -11    1    1    2    0    0  0.39722424076E+01 -0.30807020265E+01  0.91881753080E+02  0.92019160960E+02  0.00000000000E+00 0.  1.
         11    1    1    2    0    0  0.25519992731E+01  0.34638390829E+01 -0.18177924504E+03  0.18183015374E+03  0.00000000000E+00 0.  1.
        -15    1    1    2    0    0 -0.22368331023E+01 -0.22003530357E+01  0.53225980997E+01  0.64290555559E+01  0.17770000000E+01 0. -1.
         15    1    1    2    0    0 -0.42874085784E+01  0.18172159793E+01  0.84574893860E+02  0.84721629745E+02  0.17770000000E+01 0. -1.
</event>
<event>
 6    1  0.1059789E-002  0.1871862E+03  0.7546771E-02  0.1064785E+00
        -11   -1    0    0    0    0  0.00000000000E+00  0.00000000000E+00  0.18250000000E+03  0.18250000000E+03  0.00000000000E+00 0.  1.
         11   -1    0    0    0    0 -0.00000000000E+00 -0.00000000000E+00 -0.18250000000E+03  0.18250000000E+03  0.00000000000E+00 0.  1.
        -11    1    1    2    0    0  0.38413340002E+02  0.11993104173E+02  0.17320027640E+03  0.17781382113E+03  0.00000000000E+00 0.  1.
         11    1    1    2    0    0 -0.12052119560E+01 -0.17938563197E+01 -0.59512964027E+02  0.59552190082E+02  0.00000000000E+00 0.  1.
        -15    1    1    2    0    0  0.60670098124E+01 -0.14577830150E+01 -0.48199814059E+02  0.48634489241E+02  0.17770000000E+01 0.  1.
         15    1    1    2    0    0 -0.43275137858E+02 -0.87414648383E+01 -0.65487498318E+02  0.78999499549E+02  0.17770000000E+01 0. -1.
</event>
<event>
 6    1  0.1059789E-002  0.1876018E+03  0.7546771E-02  0.1064465E+00
        -11   -1    0    0    0    0  0.00000000000E+00  0.00000000000E+00  0.18250000000E+03  0.18250000000E+03  0.00000000000E+00 0.  1.
         11   -1    0    0    0    0 -0.00000000000E+00 -0.00000000000E+00 -0.18250000000E+03  0.18250000000E+03  0.00000000000E+00 0.  1.
        -11    1    1    2    0    0  0.66219080366E+01  0.23497717126E+01  0.17725897783E+03  0.17739818577E+03  0.00000000000E+00 0.  1.
         11    1    1    2    0    0  0.13768468865E+00  0.71818648864E+00 -0.34266147701E+02  0.34273949687E+02  0.00000000000E+00 0.  1.
        -15    1    1    2    0    0 -0.43306355793E+01 -0.20883475715E+02 -0.20929360678E+02  0.29934425497E+02  0.17770000000E+01 0. -1.
         15    1    1    2    0    0 -0.24289571460E+01  0.17815517513E+02 -0.12206346945E+03  0.12339343905E+03  0.17770000000E+01 0.  1.
</event>
<event>
 6    1  0.1059789E-002  0.1841400E+03  0.7546771E-02  0.1067157E+00
        -11   -1    0    0    0    0  0.00000000000E+00  0.00000000000E+00  0.18250000000E+03  0.18250000000E+03  0.00000000000E+00 0.  1.
         11   -1    0    0    0    0 -0.00000000000E+00 -0.00000000000E+00 -0.18250000000E+03  0.18250000000E+03  0.00000000000E+00 0. -1.
        -11    1    1    2    0    0 -0.26296339611E+01  0.49954220239E+00  0.18084016637E+03  0.18085997427E+03  0.00000000000E+00 0.  1.
         11    1    1    2    0    0  0.25664087541E+01 -0.13920237137E+01 -0.16822963658E+03  0.16825496964E+03  0.00000000000E+00 0. -1.
        -15    1    1    2    0    0 -0.36041975510E+01 -0.21348677369E+01 -0.66146259895E+01  0.80286304076E+01  0.17770000000E+01 0. -1.
         15    1    1    2    0    0  0.36674227580E+01  0.30273492482E+01 -0.59959038049E+01  0.78564256882E+01  0.17770000000E+01 0.  1.
</event>
